 Entering Gaussian System, Link 0=g16
 Input=/Volumes/SSD-PMU3/b3lyp_6-31gd_freq/AOKRXIIIYJGNNU-RXMQYKEDSA-N_calculating/gaussianinput1.gjf
 Output=/Volumes/SSD-PMU3/b3lyp_6-31gd_freq/AOKRXIIIYJGNNU-RXMQYKEDSA-N_calculating/gaussianinput1.log
 Initial command:
 /Applications/g16/l1.exe "/Users/macmini_m1_2022/PycharmProjects/sphere_model/sphere_model_lib/Gau-46300.inp" -scrdir="/Users/macmini_m1_2022/PycharmProjects/sphere_model/sphere_model_lib/"
 Entering Link 1 = /Applications/g16/l1.exe PID=     46301.
  
 Copyright (c) 1988,1990,1992,1993,1995,1998,2003,2009,2016,
            Gaussian, Inc.  All Rights Reserved.
  
 This is part of the Gaussian(R) 16 program.  It is based on
 the Gaussian(R) 09 system (copyright 2009, Gaussian, Inc.),
 the Gaussian(R) 03 system (copyright 2003, Gaussian, Inc.),
 the Gaussian(R) 98 system (copyright 1998, Gaussian, Inc.),
 the Gaussian(R) 94 system (copyright 1995, Gaussian, Inc.),
 the Gaussian 92(TM) system (copyright 1992, Gaussian, Inc.),
 the Gaussian 90(TM) system (copyright 1990, Gaussian, Inc.),
 the Gaussian 88(TM) system (copyright 1988, Gaussian, Inc.),
 the Gaussian 86(TM) system (copyright 1986, Carnegie Mellon
 University), and the Gaussian 82(TM) system (copyright 1983,
 Carnegie Mellon University). Gaussian is a federally registered
 trademark of Gaussian, Inc.
  
 This software contains proprietary and confidential information,
 including trade secrets, belonging to Gaussian, Inc.
  
 This software is provided under written license and may be
 used, copied, transmitted, or stored only in accord with that
 written license.
  
 The following legend is applicable only to US Government
 contracts under FAR:
  
                    RESTRICTED RIGHTS LEGEND
  
 Use, reproduction and disclosure by the US Government is
 subject to restrictions as set forth in subparagraphs (a)
 and (c) of the Commercial Computer Software - Restricted
 Rights clause in FAR 52.227-19.
  
 Gaussian, Inc.
 340 Quinnipiac St., Bldg. 40, Wallingford CT 06492
  
  
 ---------------------------------------------------------------
 Warning -- This program may not be used in any manner that
 competes with the business of Gaussian, Inc. or will provide
 assistance to any competitor of Gaussian, Inc.  The licensee
 of this program is prohibited from giving any competitor of
 Gaussian, Inc. access to this program.  By using this program,
 the user acknowledges that Gaussian, Inc. is engaged in the
 business of creating and licensing software in the field of
 computational chemistry and represents and warrants to the
 licensee that it is not a competitor of Gaussian, Inc. and that
 it will not use this program in any manner prohibited above.
 ---------------------------------------------------------------
  

 Cite this work as:
 Gaussian 16, Revision A.03,
 M. J. Frisch, G. W. Trucks, H. B. Schlegel, G. E. Scuseria, 
 M. A. Robb, J. R. Cheeseman, G. Scalmani, V. Barone, 
 G. A. Petersson, H. Nakatsuji, X. Li, M. Caricato, A. V. Marenich, 
 J. Bloino, B. G. Janesko, R. Gomperts, B. Mennucci, H. P. Hratchian, 
 J. V. Ortiz, A. F. Izmaylov, J. L. Sonnenberg, D. Williams-Young, 
 F. Ding, F. Lipparini, F. Egidi, J. Goings, B. Peng, A. Petrone, 
 T. Henderson, D. Ranasinghe, V. G. Zakrzewski, J. Gao, N. Rega, 
 G. Zheng, W. Liang, M. Hada, M. Ehara, K. Toyota, R. Fukuda, 
 J. Hasegawa, M. Ishida, T. Nakajima, Y. Honda, O. Kitao, H. Nakai, 
 T. Vreven, K. Throssell, J. A. Montgomery, Jr., J. E. Peralta, 
 F. Ogliaro, M. J. Bearpark, J. J. Heyd, E. N. Brothers, K. N. Kudin, 
 V. N. Staroverov, T. A. Keith, R. Kobayashi, J. Normand, 
 K. Raghavachari, A. P. Rendell, J. C. Burant, S. S. Iyengar, 
 J. Tomasi, M. Cossi, J. M. Millam, M. Klene, C. Adamo, R. Cammi, 
 J. W. Ochterski, R. L. Martin, K. Morokuma, O. Farkas, 
 J. B. Foresman, and D. J. Fox, Gaussian, Inc., Wallingford CT, 2016.
 
 ******************************************
 Gaussian 16:  EM64M-G16RevA.03 25-Dec-2016
                21-Feb-2024 
 ******************************************
 %nprocshared=8
 Will use up to    8 processors via shared memory.
 %mem=4GB
 %chk= 1.chk
 ---------------------
 # freq b3lyp/6-31g(d)
 ---------------------
 1/10=4,30=1,38=1/1,3;
 2/12=2,17=6,18=5,40=1/2;
 3/5=1,6=6,7=1,11=2,25=1,30=1,71=2,74=-5,140=1/1,2,3;
 4//1;
 5/5=2,38=5,98=1/2;
 8/6=4,10=90,11=11/1;
 11/6=1,8=1,9=11,15=111,16=1/1,2,10;
 10/6=1/2;
 6/7=2,8=2,9=2,10=2,28=1/1;
 7/8=1,10=1,25=1/1,2,3,16;
 1/10=4,30=1/3;
 99//99;
 ---------
 good luck
 ---------
 Symbolic Z-matrix:
 Charge =  0 Multiplicity = 1
 O                     1.21105   0.        0. 
 C                     0.        0.        0. 
 C                    -0.90042  -1.24058   0.00016 
 C                    -2.31119  -0.7176    0.32972 
 C                    -3.45539  -1.60451  -0.15889 
 C                    -2.31003   0.70884  -0.27555 
 C                    -0.8971    1.24548   0.00016 
 H                    -0.87421  -1.66652  -1.01517 
 H                    -0.51595  -2.00898   0.67817 
 H                    -2.3884   -0.61668   1.42292 
 H                    -4.42963  -1.16196   0.08124 
 H                    -3.40838  -1.73891  -1.24722 
 H                    -3.41794  -2.59841   0.30208 
 H                    -3.10365   1.33836   0.14019 
 H                    -2.48198   0.64275  -1.359 
 H                    -0.82951   1.69875   0.99973 
 H                    -0.53085   1.99136  -0.7119 
 

 GradGradGradGradGradGradGradGradGradGradGradGradGradGradGradGradGradGrad
 Berny optimization.
 Initialization pass.
 Trust Radius=3.00D-01 FncErr=1.00D-07 GrdErr=1.00D-07 EigMax=2.50D+02 EigMin=1.00D-04
 Number of steps in this run=      2 maximum allowed number of steps=      2.
 GradGradGradGradGradGradGradGradGradGradGradGradGradGradGradGradGradGrad

                          Input orientation:                          
 ---------------------------------------------------------------------
 Center     Atomic      Atomic             Coordinates (Angstroms)
 Number     Number       Type             X           Y           Z
 ---------------------------------------------------------------------
      1          8           0        1.211055    0.000000    0.000000
      2          6           0        0.000000    0.000000    0.000000
      3          6           0       -0.900415   -1.240580    0.000155
      4          6           0       -2.311193   -0.717602    0.329721
      5          6           0       -3.455392   -1.604512   -0.158893
      6          6           0       -2.310029    0.708837   -0.275553
      7          6           0       -0.897100    1.245484    0.000155
      8          1           0       -0.874207   -1.666524   -1.015169
      9          1           0       -0.515947   -2.008979    0.678173
     10          1           0       -2.388400   -0.616675    1.422923
     11          1           0       -4.429626   -1.161956    0.081243
     12          1           0       -3.408381   -1.738906   -1.247220
     13          1           0       -3.417938   -2.598405    0.302077
     14          1           0       -3.103653    1.338363    0.140194
     15          1           0       -2.481984    0.642751   -1.358998
     16          1           0       -0.829509    1.698751    0.999734
     17          1           0       -0.530851    1.991364   -0.711902
 ---------------------------------------------------------------------
                    Distance matrix (angstroms):
                    1          2          3          4          5
     1  O    0.000000
     2  C    1.211055   0.000000
     3  C    2.448948   1.532901   0.000000
     4  C    3.609695   2.442393   1.540264   0.000000
     5  C    4.937148   3.813062   2.585662   1.527922   0.000000
     6  C    3.602279   2.431998   2.421416   1.549544   2.583999
     7  C    2.448581   1.534933   2.486066   2.441716   3.833097
     8  H    2.855904   2.138249   1.101362   2.184974   2.720215
     9  H    2.734676   2.182227   1.094514   2.238746   3.082955
    10  H    3.919321   2.847710   2.151192   1.100562   2.148589
    11  H    5.759690   4.580211   3.531018   2.178750   1.096655
    12  H    5.091026   4.024477   2.845025   2.175690   1.097601
    13  H    5.317004   4.304098   2.876242   2.182446   1.096230
    14  H    4.519687   3.382829   3.394822   2.211539   2.978873
    15  H    3.987298   2.901767   2.809910   2.175202   2.727263
    16  H    2.837098   2.138529   3.105455   2.912570   4.375983
    17  H    2.739812   2.180399   3.330025   3.404863   4.667878
                    6          7          8          9         10
     6  C    0.000000
     7  C    1.536351   0.000000
     8  H    2.872448   3.084023   0.000000
     9  H    3.393353   3.346119   1.764379   0.000000
    10  H    2.155909   2.777747   3.056020   2.449335   0.000000
    11  H    2.849537   4.275638   3.754692   4.048538   2.502806
    12  H    2.853412   4.095004   2.545805   3.485147   3.070737
    13  H    3.535388   4.606654   3.012326   2.985033   2.498699
    14  H    1.094983   2.212942   3.915947   4.265014   2.445231
    15  H    1.098995   2.173118   2.834769   3.879051   3.055159
    16  H    2.190485   1.099626   3.922615   3.734834   2.823195
    17  H    2.236236   1.094304   3.686463   4.235006   3.848355
                   11         12         13         14         15
    11  H    0.000000
    12  H    1.772181   0.000000
    13  H    1.770781   1.771765   0.000000
    14  H    2.830773   3.389301   3.952610   0.000000
    15  H    3.020690   2.557928   3.760355   1.765765   0.000000
    16  H    4.689148   4.849419   5.064804   2.457726   3.067479
    17  H    5.076707   4.741483   5.516285   2.787793   2.458538
                   16         17
    16  H    0.000000
    17  H    1.761964   0.000000
 Stoichiometry    C6H10O
 Framework group  C1[X(C6H10O)]
 Deg. of freedom    45
 Full point group                 C1      NOp   1
 Largest Abelian subgroup         C1      NOp   1
 Largest concise Abelian subgroup C1      NOp   1
                         Standard orientation:                         
 ---------------------------------------------------------------------
 Center     Atomic      Atomic             Coordinates (Angstroms)
 Number     Number       Type             X           Y           Z
 ---------------------------------------------------------------------
      1          8           0       -2.449590   -0.701266    0.060948
      2          6           0       -1.325100   -0.253974    0.015043
      3          6           0       -0.029114   -1.072465    0.031748
      4          6           0        1.080345   -0.083384   -0.372274
      5          6           0        2.481339   -0.458168    0.108658
      6          6           0        0.562522    1.271279    0.173466
      7          6           0       -0.953881    1.232945   -0.070310
      8          1           0        0.124762   -1.424328    1.063985
      9          1           0       -0.114775   -1.962809   -0.599053
     10          1           0        1.092763   -0.018310   -1.470841
     11          1           0        3.217061    0.299732   -0.186222
     12          1           0        2.509269   -0.543395    1.202588
     13          1           0        2.805826   -1.418232   -0.309320
     14          1           0        1.057716    2.126778   -0.297588
     15          1           0        0.768343    1.330048    1.251415
     16          1           0       -1.204666    1.576338   -1.084394
     17          1           0       -1.556247    1.826903    0.623858
 ---------------------------------------------------------------------
 Rotational constants (GHZ):           5.3865263           1.9327716           1.5145545
 Standard basis: 6-31G(d) (6D, 7F)
 There are   125 symmetry adapted cartesian basis functions of A   symmetry.
 There are   125 symmetry adapted basis functions of A   symmetry.
   125 basis functions,   236 primitive gaussians,   125 cartesian basis functions
    27 alpha electrons       27 beta electrons
       nuclear repulsion energy       304.5589421719 Hartrees.
 NAtoms=   17 NActive=   17 NUniq=   17 SFac= 1.00D+00 NAtFMM=   60 NAOKFM=F Big=F
 Integral buffers will be    131072 words long.
 Raffenetti 2 integral format.
 Two-electron integral symmetry is turned on.
 One-electron integrals computed using PRISM.
 NBasis=   125 RedAO= T EigKep=  2.81D-03  NBF=   125
 NBsUse=   125 1.00D-06 EigRej= -1.00D+00 NBFU=   125
 ExpMin= 1.61D-01 ExpMax= 5.48D+03 ExpMxC= 8.25D+02 IAcc=3 IRadAn=         5 AccDes= 0.00D+00
 Harris functional with IExCor=  402 and IRadAn=       5 diagonalized for initial guess.
 HarFok:  IExCor=  402 AccDes= 0.00D+00 IRadAn=         5 IDoV= 1 UseB2=F ITyADJ=14
 ICtDFT=  3500011 ScaDFX=  1.000000  1.000000  1.000000  1.000000
 FoFCou: FMM=F IPFlag=           0 FMFlag=      100000 FMFlg1=           0
         NFxFlg=           0 DoJE=T BraDBF=F KetDBF=T FulRan=T
         wScrn=  0.000000 ICntrl=       500 IOpCl=  0 I1Cent=   200000004 NGrid=           0
         NMat0=    1 NMatS0=      1 NMatT0=    0 NMatD0=    1 NMtDS0=    0 NMtDT0=    0
 Petite list used in FoFCou.
 Requested convergence on RMS density matrix=1.00D-08 within 128 cycles.
 Requested convergence on MAX density matrix=1.00D-06.
 Requested convergence on             energy=1.00D-06.
 No special actions if energy rises.
 Integral accuracy reduced to 1.0D-05 until final iterations.
 Initial convergence to 1.0D-05 achieved.  Increase integral accuracy.
 SCF Done:  E(RB3LYP) =  -309.888425811     A.U. after   13 cycles
            NFock= 13  Conv=0.79D-08     -V/T= 2.0096
 DoSCS=F DFT=T ScalE2(SS,OS)=  1.000000  1.000000
 Range of M.O.s used for correlation:     1   125
 NBasis=   125 NAE=    27 NBE=    27 NFC=     0 NFV=     0
 NROrb=    125 NOA=    27 NOB=    27 NVA=    98 NVB=    98
 Symmetrizing basis deriv contribution to polar:
 IMax=3 JMax=2 DiffMx= 0.00D+00
 G2DrvN: will do    18 centers at a time, making    1 passes.
 Calling FoFCou, ICntrl=  3107 FMM=F I1Cent=   0 AccDes= 0.00D+00.
 End of G2Drv F.D. properties file   721 does not exist.
 End of G2Drv F.D. properties file   722 does not exist.
 End of G2Drv F.D. properties file   788 does not exist.
          IDoAtm=11111111111111111
          Differentiating once with respect to electric field.
                with respect to dipole field.
          Differentiating once with respect to nuclear coordinates.
 Keep R1 ints in memory in canonical form, NReq=38605601.
          There are    54 degrees of freedom in the 1st order CPHF.  IDoFFX=6 NUNeed=     3.
     51 vectors produced by pass  0 Test12= 4.90D-15 1.85D-09 XBig12= 4.67D+01 2.07D+00.
 AX will form    51 AO Fock derivatives at one time.
     51 vectors produced by pass  1 Test12= 4.90D-15 1.85D-09 XBig12= 1.04D+01 9.60D-01.
     51 vectors produced by pass  2 Test12= 4.90D-15 1.85D-09 XBig12= 1.17D-01 5.62D-02.
     51 vectors produced by pass  3 Test12= 4.90D-15 1.85D-09 XBig12= 2.53D-04 1.56D-03.
     51 vectors produced by pass  4 Test12= 4.90D-15 1.85D-09 XBig12= 2.08D-07 5.76D-05.
     24 vectors produced by pass  5 Test12= 4.90D-15 1.85D-09 XBig12= 1.31D-10 1.35D-06.
      3 vectors produced by pass  6 Test12= 4.90D-15 1.85D-09 XBig12= 9.39D-14 5.12D-08.
 InvSVY:  IOpt=1 It=  1 EMax= 2.66D-15
 Solved reduced A of dimension   282 with    54 vectors.
 Isotropic polarizability for W=    0.000000       61.80 Bohr**3.
 End of Minotr F.D. properties file   721 does not exist.
 End of Minotr F.D. properties file   722 does not exist.
 End of Minotr F.D. properties file   788 does not exist.

 **********************************************************************

            Population analysis using the SCF density.

 **********************************************************************

 Orbital symmetries:
       Occupied  (A) (A) (A) (A) (A) (A) (A) (A) (A) (A) (A) (A)
                 (A) (A) (A) (A) (A) (A) (A) (A) (A) (A) (A) (A)
                 (A) (A) (A)
       Virtual   (A) (A) (A) (A) (A) (A) (A) (A) (A) (A) (A) (A)
                 (A) (A) (A) (A) (A) (A) (A) (A) (A) (A) (A) (A)
                 (A) (A) (A) (A) (A) (A) (A) (A) (A) (A) (A) (A)
                 (A) (A) (A) (A) (A) (A) (A) (A) (A) (A) (A) (A)
                 (A) (A) (A) (A) (A) (A) (A) (A) (A) (A) (A) (A)
                 (A) (A) (A) (A) (A) (A) (A) (A) (A) (A) (A) (A)
                 (A) (A) (A) (A) (A) (A) (A) (A) (A) (A) (A) (A)
                 (A) (A) (A) (A) (A) (A) (A) (A) (A) (A) (A) (A)
                 (A) (A)
 The electronic state is 1-A.
 Alpha  occ. eigenvalues --  -19.13383 -10.27065 -10.19948 -10.19123 -10.19099
 Alpha  occ. eigenvalues --  -10.18928 -10.18250  -1.03370  -0.84309  -0.74619
 Alpha  occ. eigenvalues --   -0.71098  -0.65008  -0.57322  -0.53034  -0.49119
 Alpha  occ. eigenvalues --   -0.45714  -0.43744  -0.42609  -0.41237  -0.40392
 Alpha  occ. eigenvalues --   -0.38141  -0.37439  -0.34955  -0.33601  -0.33202
 Alpha  occ. eigenvalues --   -0.32714  -0.23534
 Alpha virt. eigenvalues --   -0.01404   0.07853   0.11481   0.11661   0.14072
 Alpha virt. eigenvalues --    0.15032   0.15905   0.16186   0.17251   0.18193
 Alpha virt. eigenvalues --    0.19244   0.20290   0.22406   0.23978   0.26394
 Alpha virt. eigenvalues --    0.27898   0.32826   0.32956   0.50202   0.51502
 Alpha virt. eigenvalues --    0.53922   0.54724   0.55126   0.59847   0.61436
 Alpha virt. eigenvalues --    0.63627   0.65939   0.66475   0.68353   0.70789
 Alpha virt. eigenvalues --    0.71768   0.75231   0.76390   0.79909   0.82817
 Alpha virt. eigenvalues --    0.83688   0.85852   0.87771   0.88645   0.89987
 Alpha virt. eigenvalues --    0.90683   0.92872   0.93292   0.93881   0.94680
 Alpha virt. eigenvalues --    0.96776   1.01420   1.04604   1.10758   1.12300
 Alpha virt. eigenvalues --    1.18930   1.31257   1.37257   1.42618   1.44712
 Alpha virt. eigenvalues --    1.53578   1.59091   1.68571   1.70394   1.73211
 Alpha virt. eigenvalues --    1.74796   1.78319   1.82100   1.83612   1.85379
 Alpha virt. eigenvalues --    1.88236   1.90047   1.93289   1.96238   2.00336
 Alpha virt. eigenvalues --    2.01186   2.03807   2.07367   2.10751   2.15529
 Alpha virt. eigenvalues --    2.21583   2.23820   2.27869   2.32587   2.37001
 Alpha virt. eigenvalues --    2.40572   2.46966   2.49825   2.51411   2.61534
 Alpha virt. eigenvalues --    2.66445   2.69215   2.74140   2.77325   3.00063
 Alpha virt. eigenvalues --    3.05045   3.99890   4.14445   4.24104   4.29407
 Alpha virt. eigenvalues --    4.36848   4.60066   4.66884
          Condensed to atoms (all electrons):
               1          2          3          4          5          6
     1  O    8.005383   0.577466  -0.070216   0.002889  -0.000053   0.003440
     2  C    0.577466   4.480521   0.336503  -0.037879   0.002225  -0.041578
     3  C   -0.070216   0.336503   5.346190   0.337480  -0.036844  -0.054420
     4  C    0.002889  -0.037879   0.337480   4.918640   0.375426   0.378163
     5  C   -0.000053   0.002225  -0.036844   0.375426   5.085871  -0.042203
     6  C    0.003440  -0.041578  -0.054420   0.378163  -0.042203   5.099895
     7  C   -0.071975   0.333503  -0.177901  -0.041093   0.003713   0.310854
     8  H   -0.000736  -0.024697   0.353829  -0.039513  -0.006924  -0.001356
     9  H    0.001020  -0.020662   0.351962  -0.025256   0.001093   0.004482
    10  H   -0.000049  -0.002308  -0.043949   0.376204  -0.043458  -0.047940
    11  H    0.000000  -0.000061   0.004307  -0.028861   0.369134  -0.003302
    12  H   -0.000001  -0.000089  -0.006074  -0.034393   0.373697  -0.006558
    13  H    0.000000   0.000069  -0.003394  -0.027994   0.371299   0.004626
    14  H   -0.000057   0.002739   0.004879  -0.027544  -0.000150   0.364543
    15  H   -0.000033  -0.002087  -0.001749  -0.041888  -0.005426   0.372015
    16  H   -0.000673  -0.023631   0.003941  -0.000248  -0.000010  -0.033850
    17  H    0.001213  -0.022016   0.006559   0.003464  -0.000120  -0.025086
               7          8          9         10         11         12
     1  O   -0.071975  -0.000736   0.001020  -0.000049   0.000000  -0.000001
     2  C    0.333503  -0.024697  -0.020662  -0.002308  -0.000061  -0.000089
     3  C   -0.177901   0.353829   0.351962  -0.043949   0.004307  -0.006074
     4  C   -0.041093  -0.039513  -0.025256   0.376204  -0.028861  -0.034393
     5  C    0.003713  -0.006924   0.001093  -0.043458   0.369134   0.373697
     6  C    0.310854  -0.001356   0.004482  -0.047940  -0.003302  -0.006558
     7  C    5.330310   0.004819   0.006578   0.001515   0.000114   0.000202
     8  H    0.004819   0.558371  -0.024201   0.005683   0.000074   0.005967
     9  H    0.006578  -0.024201   0.541512  -0.005685  -0.000112  -0.000153
    10  H    0.001515   0.005683  -0.005685   0.625514  -0.003015   0.005608
    11  H    0.000114   0.000074  -0.000112  -0.003015   0.575389  -0.030524
    12  H    0.000202   0.005967  -0.000153   0.005608  -0.030524   0.576231
    13  H   -0.000188  -0.000056   0.001274  -0.003242  -0.030887  -0.031095
    14  H   -0.023187  -0.000071  -0.000143  -0.006257   0.002472  -0.000224
    15  H   -0.035085   0.002887  -0.000114   0.006128  -0.000176   0.005666
    16  H    0.356753   0.000094  -0.000376   0.002577  -0.000010   0.000003
    17  H    0.354840  -0.000388  -0.000068  -0.000112  -0.000002  -0.000001
              13         14         15         16         17
     1  O    0.000000  -0.000057  -0.000033  -0.000673   0.001213
     2  C    0.000069   0.002739  -0.002087  -0.023631  -0.022016
     3  C   -0.003394   0.004879  -0.001749   0.003941   0.006559
     4  C   -0.027994  -0.027544  -0.041888  -0.000248   0.003464
     5  C    0.371299  -0.000150  -0.005426  -0.000010  -0.000120
     6  C    0.004626   0.364543   0.372015  -0.033850  -0.025086
     7  C   -0.000188  -0.023187  -0.035085   0.356753   0.354840
     8  H   -0.000056  -0.000071   0.002887   0.000094  -0.000388
     9  H    0.001274  -0.000143  -0.000114  -0.000376  -0.000068
    10  H   -0.003242  -0.006257   0.006128   0.002577  -0.000112
    11  H   -0.030887   0.002472  -0.000176  -0.000010  -0.000002
    12  H   -0.031095  -0.000224   0.005666   0.000003  -0.000001
    13  H    0.572124  -0.000139   0.000020   0.000004   0.000002
    14  H   -0.000139   0.581581  -0.035505  -0.006980   0.001474
    15  H    0.000020  -0.035505   0.595946   0.004801  -0.005540
    16  H    0.000004  -0.006980   0.004801   0.550543  -0.024044
    17  H    0.000002   0.001474  -0.005540  -0.024044   0.539163
 Mulliken charges:
               1
     1  O   -0.447620
     2  C    0.441981
     3  C   -0.351104
     4  C   -0.087599
     5  C   -0.447270
     6  C   -0.281724
     7  C   -0.353771
     8  H    0.166219
     9  H    0.168848
    10  H    0.132788
    11  H    0.145460
    12  H    0.141738
    13  H    0.147577
    14  H    0.142568
    15  H    0.140140
    16  H    0.171106
    17  H    0.170664
 Sum of Mulliken charges =  -0.00000
 Mulliken charges with hydrogens summed into heavy atoms:
               1
     1  O   -0.447620
     2  C    0.441981
     3  C   -0.016037
     4  C    0.045189
     5  C   -0.012496
     6  C    0.000984
     7  C   -0.012001
 APT charges:
               1
     1  O   -0.692899
     2  C    0.803672
     3  C   -0.093970
     4  C    0.137545
     5  C    0.093236
     6  C    0.095489
     7  C   -0.070780
     8  H   -0.004293
     9  H   -0.011747
    10  H   -0.069949
    11  H   -0.031656
    12  H   -0.027309
    13  H   -0.029856
    14  H   -0.037995
    15  H   -0.040268
    16  H   -0.007316
    17  H   -0.011902
 Sum of APT charges =  -0.00000
 APT charges with hydrogens summed into heavy atoms:
               1
     1  O   -0.692899
     2  C    0.803672
     3  C   -0.110010
     4  C    0.067596
     5  C    0.004415
     6  C    0.017225
     7  C   -0.089999
 Electronic spatial extent (au):  <R**2>=            824.0347
 Charge=             -0.0000 electrons
 Dipole moment (field-independent basis, Debye):
    X=              2.7444    Y=              1.0520    Z=             -0.1721  Tot=              2.9442
 Quadrupole moment (field-independent basis, Debye-Ang):
   XX=            -51.8726   YY=            -42.3740   ZZ=            -41.4328
   XY=             -3.4233   XZ=              0.1567   YZ=             -0.0416
 Traceless Quadrupole moment (field-independent basis, Debye-Ang):
   XX=             -6.6461   YY=              2.8525   ZZ=              3.7937
   XY=             -3.4233   XZ=              0.1567   YZ=             -0.0416
 Octapole moment (field-independent basis, Debye-Ang**2):
  XXX=             15.8413  YYY=             -2.3623  ZZZ=              0.5648  XYY=             -1.2649
  XXY=              8.6887  XXZ=             -1.2915  XZZ=             -4.1967  YZZ=             -0.8013
  YYZ=             -1.1553  XYZ=             -0.5735
 Hexadecapole moment (field-independent basis, Debye-Ang**3):
 XXXX=           -766.4389 YYYY=           -285.5020 ZZZZ=            -81.7686 XXXY=            -12.6379
 XXXZ=             -2.2629 YYYX=              1.9751 YYYZ=              1.0929 ZZZX=              0.9575
 ZZZY=             -1.3815 XXYY=           -166.3102 XXZZ=           -127.4262 YYZZ=            -59.4127
 XXYZ=              0.9909 YYXZ=             -1.9811 ZZXY=              0.9191
 N-N= 3.045589421719D+02 E-N=-1.328906753067D+03  KE= 3.069366287985D+02
  Exact polarizability:  71.434   0.179  62.382  -0.141  -0.365  51.569
 Approx polarizability:  95.325   4.704  85.185  -0.534  -1.144  78.181
 Calling FoFJK, ICntrl=    100127 FMM=F ISym2X=0 I1Cent= 0 IOpClX= 0 NMat=1 NMatS=1 NMatT=0.
 Full mass-weighted force constant matrix:
 Low frequencies ---   -1.5523   -0.0008   -0.0007   -0.0005    4.2160    8.3766
 Low frequencies ---   85.8948  169.4783  242.0241
 Diagonal vibrational polarizability:
        3.0388959       4.0272358      19.6833121
 Harmonic frequencies (cm**-1), IR intensities (KM/Mole), Raman scattering
 activities (A**4/AMU), depolarization ratios for plane and unpolarized
 incident light, reduced masses (AMU), force constants (mDyne/A),
 and normal coordinates:
                      1                      2                      3
                      A                      A                      A
 Frequencies --     85.8944               169.4782               242.0241
 Red. masses --      2.9618                 1.9348                 1.0645
 Frc consts  --      0.0129                 0.0327                 0.0367
 IR Inten    --      5.2035                 0.3432                 0.0492
  Atom  AN      X      Y      Z        X      Y      Z        X      Y      Z
     1   8     0.01   0.01   0.24    -0.01   0.02   0.02     0.01  -0.02   0.00
     2   6     0.00   0.00  -0.03    -0.01   0.01  -0.02     0.00  -0.00  -0.01
     3   6    -0.00  -0.02  -0.24     0.00   0.01   0.08     0.01   0.02  -0.03
     4   6     0.04   0.03  -0.03    -0.02   0.02   0.06     0.00   0.03   0.00
     5   6    -0.03  -0.00   0.14     0.04   0.00  -0.13    -0.01  -0.03  -0.00
     6   6    -0.02  -0.01   0.02    -0.03  -0.04   0.17    -0.01   0.01   0.03
     7   6     0.00  -0.01  -0.12     0.02  -0.01  -0.16    -0.01   0.00  -0.00
     8   1    -0.02  -0.29  -0.34    -0.02   0.07   0.10     0.01  -0.02  -0.04
     9   1    -0.03   0.14  -0.47     0.04  -0.03   0.12     0.02   0.04  -0.06
    10   1     0.18   0.13  -0.02    -0.12   0.10   0.06     0.01   0.05   0.00
    11   1     0.01   0.03   0.31    -0.01   0.05  -0.15     0.12  -0.34  -0.47
    12   1    -0.18  -0.11   0.13     0.18  -0.10  -0.14     0.12   0.50   0.03
    13   1     0.04   0.04   0.09     0.01   0.05  -0.26    -0.29  -0.31   0.42
    14   1     0.02   0.03   0.13     0.07   0.02   0.38    -0.01   0.04   0.08
    15   1    -0.13  -0.08   0.04    -0.25  -0.21   0.22    -0.04  -0.03   0.04
    16   1     0.13  -0.11  -0.19     0.30  -0.17  -0.28     0.02   0.00  -0.01
    17   1    -0.07   0.06  -0.25    -0.14   0.12  -0.40    -0.03   0.00  -0.02
                      4                      5                      6
                      A                      A                      A
 Frequencies --    279.2529               410.7607               459.2886
 Red. masses --      2.5484                 1.8527                 2.2970
 Frc consts  --      0.1171                 0.1842                 0.2855
 IR Inten    --      0.8957                 0.6683                 0.5641
  Atom  AN      X      Y      Z        X      Y      Z        X      Y      Z
     1   8    -0.08   0.12  -0.01    -0.05   0.04  -0.02     0.05  -0.01  -0.11
     2   6    -0.03  -0.01  -0.00    -0.02  -0.03   0.04     0.06   0.00   0.24
     3   6    -0.05  -0.12  -0.03    -0.01  -0.06  -0.02     0.00  -0.05   0.01
     4   6    -0.01  -0.12  -0.00     0.03   0.02   0.18    -0.08   0.02  -0.04
     5   6     0.08   0.22   0.01     0.12  -0.04  -0.03    -0.14   0.04  -0.01
     6   6     0.03  -0.13   0.01    -0.02   0.10  -0.03     0.04   0.03   0.00
     7   6     0.05  -0.04   0.02    -0.03  -0.04  -0.01     0.07  -0.01   0.01
     8   1    -0.08  -0.21  -0.06    -0.09  -0.42  -0.13     0.23  -0.37  -0.14
     9   1    -0.11  -0.06  -0.10     0.00   0.16  -0.33    -0.18   0.16  -0.25
    10   1    -0.01  -0.13  -0.00     0.03   0.01   0.17    -0.13   0.03  -0.04
    11   1    -0.13   0.34  -0.24     0.08  -0.05  -0.16    -0.12   0.04   0.04
    12   1     0.18   0.53   0.03     0.37  -0.13  -0.05    -0.23   0.06  -0.00
    13   1     0.31   0.20   0.24    -0.01  -0.02  -0.19    -0.10   0.03   0.04
    14   1     0.09  -0.14   0.04    -0.11   0.00  -0.31     0.04  -0.00  -0.04
    15   1     0.04  -0.18   0.01     0.03   0.44  -0.06     0.09   0.03  -0.01
    16   1     0.05  -0.00   0.03    -0.07  -0.12  -0.03     0.21  -0.43  -0.17
    17   1     0.08  -0.03   0.04    -0.07  -0.02  -0.05    -0.00   0.28  -0.32
                      7                      8                      9
                      A                      A                      A
 Frequencies --    483.6623               534.7757               582.5488
 Red. masses --      3.5523                 3.7782                 2.8628
 Frc consts  --      0.4896                 0.6366                 0.5724
 IR Inten    --      7.6108                 3.8387                 3.3120
  Atom  AN      X      Y      Z        X      Y      Z        X      Y      Z
     1   8    -0.11   0.25  -0.01    -0.17  -0.10  -0.06    -0.13  -0.08   0.04
     2   6     0.05  -0.13   0.03    -0.19   0.04   0.19    -0.10  -0.10  -0.11
     3   6     0.17  -0.05   0.01    -0.03   0.15  -0.03    -0.05   0.03  -0.04
     4   6     0.05   0.11  -0.10     0.16   0.03  -0.12    -0.03   0.08   0.03
     5   6    -0.02  -0.02   0.01     0.21  -0.04   0.04    -0.08   0.04  -0.01
     6   6    -0.07   0.02   0.00     0.03  -0.05  -0.03     0.19   0.08   0.06
     7   6    -0.03  -0.21   0.03    -0.04  -0.00   0.04     0.17  -0.08   0.05
     8   1     0.35   0.19   0.07     0.16   0.20  -0.04    -0.16   0.27   0.06
     9   1     0.36  -0.19   0.18    -0.16   0.10   0.06     0.23  -0.12   0.13
    10   1     0.06   0.13  -0.10     0.28   0.01  -0.12    -0.06   0.16   0.03
    11   1     0.15  -0.15   0.14     0.26  -0.07   0.10    -0.09   0.05  -0.02
    12   1    -0.21  -0.06   0.01     0.11  -0.03   0.04    -0.08   0.07  -0.01
    13   1    -0.13  -0.08   0.05     0.22  -0.05   0.08    -0.07   0.04   0.00
    14   1    -0.22   0.14   0.06    -0.06   0.09   0.15     0.05  -0.01  -0.27
    15   1    -0.05  -0.04   0.00     0.01  -0.23  -0.01     0.42   0.33  -0.01
    16   1    -0.07  -0.31   0.01     0.07  -0.32  -0.11     0.42  -0.13  -0.04
    17   1    -0.15  -0.27  -0.02     0.06   0.39  -0.21     0.05   0.03  -0.16
                     10                     11                     12
                      A                      A                      A
 Frequencies --    731.2770               812.0260               847.5705
 Red. masses --      1.9506                 2.9957                 2.2327
 Frc consts  --      0.6146                 1.1638                 0.9450
 IR Inten    --      2.3558                 1.8768                 0.7343
  Atom  AN      X      Y      Z        X      Y      Z        X      Y      Z
     1   8     0.11   0.04  -0.00    -0.04  -0.01   0.01     0.01  -0.01   0.00
     2   6     0.08   0.07  -0.02    -0.03  -0.02  -0.02     0.03  -0.03  -0.02
     3   6    -0.10   0.05  -0.09     0.12  -0.23  -0.04    -0.16  -0.07   0.08
     4   6    -0.01  -0.07  -0.01    -0.02  -0.09  -0.08     0.01   0.01  -0.12
     5   6     0.04  -0.02   0.01     0.05  -0.04  -0.00     0.10  -0.03  -0.02
     6   6    -0.07  -0.01   0.04    -0.05   0.11   0.08     0.04   0.19   0.05
     7   6    -0.05  -0.09   0.10    -0.07   0.25   0.05     0.03  -0.06  -0.04
     8   1    -0.24   0.38   0.05     0.20   0.08   0.06    -0.14  -0.22   0.03
     9   1    -0.19  -0.14   0.21     0.19  -0.40   0.19    -0.43   0.01  -0.00
    10   1     0.07   0.01  -0.01    -0.05   0.03  -0.07    -0.17  -0.01  -0.12
    11   1    -0.06   0.05  -0.05     0.06  -0.01   0.08     0.19  -0.02   0.20
    12   1     0.09   0.03   0.01    -0.11   0.05   0.01    -0.25   0.08  -0.00
    13   1     0.13   0.00   0.03     0.19  -0.05   0.14     0.26  -0.07   0.21
    14   1    -0.26  -0.04  -0.23    -0.01  -0.02  -0.13    -0.04   0.34   0.23
    15   1     0.16   0.20  -0.02     0.14   0.24   0.03    -0.03  -0.00   0.07
    16   1     0.21  -0.42  -0.08     0.26   0.07  -0.09    -0.05   0.11   0.04
    17   1    -0.30   0.07  -0.25    -0.24   0.40  -0.22    -0.13  -0.33   0.07
                     13                     14                     15
                      A                      A                      A
 Frequencies --    898.8938               942.7537               958.9071
 Red. masses --      1.5858                 1.7512                 1.3735
 Frc consts  --      0.7549                 0.9171                 0.7441
 IR Inten    --      4.3834                 0.5041                 2.7183
  Atom  AN      X      Y      Z        X      Y      Z        X      Y      Z
     1   8    -0.01  -0.00   0.01     0.02  -0.01   0.01     0.00  -0.00  -0.01
     2   6    -0.03   0.06  -0.08     0.00   0.02  -0.05    -0.00   0.01   0.07
     3   6     0.08   0.08   0.11    -0.06  -0.11   0.04    -0.03  -0.02  -0.04
     4   6     0.01  -0.02  -0.03     0.01   0.11  -0.01    -0.00   0.04   0.00
     5   6     0.02  -0.00  -0.04     0.05   0.10   0.01     0.03   0.01  -0.02
     6   6    -0.00  -0.09   0.05    -0.07  -0.08  -0.06    -0.04  -0.08   0.07
     7   6    -0.06  -0.03   0.01     0.06   0.02   0.06     0.04  -0.01  -0.09
     8   1     0.07  -0.34  -0.05    -0.28  -0.10   0.07     0.24   0.15  -0.02
     9   1     0.03   0.34  -0.26    -0.06  -0.09   0.02    -0.28  -0.13   0.15
    10   1    -0.23  -0.06  -0.04    -0.04  -0.04  -0.02    -0.04   0.45   0.03
    11   1     0.10  -0.02   0.15     0.49  -0.27   0.15     0.14  -0.05   0.09
    12   1    -0.30   0.07  -0.02    -0.06  -0.20  -0.01    -0.13   0.02  -0.01
    13   1     0.10  -0.06   0.15    -0.48  -0.03  -0.11     0.00  -0.04   0.08
    14   1    -0.22  -0.13  -0.26    -0.19   0.01  -0.02    -0.04  -0.29  -0.32
    15   1     0.32   0.12  -0.03     0.05  -0.15  -0.08    -0.05   0.40   0.04
    16   1     0.29   0.14  -0.02     0.23  -0.04  -0.00    -0.08   0.25   0.04
    17   1    -0.23  -0.07  -0.10     0.14   0.23  -0.06     0.21  -0.12   0.15
                     16                     17                     18
                      A                      A                      A
 Frequencies --   1004.6371              1014.2319              1088.5019
 Red. masses --      1.8426                 1.1916                 2.6570
 Frc consts  --      1.0957                 0.7222                 1.8548
 IR Inten    --      2.3062                 1.1744                15.0494
  Atom  AN      X      Y      Z        X      Y      Z        X      Y      Z
     1   8    -0.01  -0.01   0.00    -0.01  -0.00   0.00    -0.01  -0.02   0.00
     2   6    -0.02   0.01  -0.01    -0.01   0.01  -0.00    -0.06   0.13  -0.01
     3   6     0.03   0.03   0.01    -0.01  -0.03   0.03     0.05  -0.08   0.00
     4   6    -0.00  -0.04  -0.02     0.05  -0.00  -0.05     0.26  -0.09   0.05
     5   6    -0.02  -0.06   0.01    -0.06   0.03   0.06    -0.14   0.05  -0.12
     6   6    -0.18   0.04  -0.01     0.02   0.01   0.03     0.04   0.03   0.04
     7   6     0.18  -0.02   0.01    -0.02   0.00  -0.02    -0.03  -0.05  -0.00
     8   1     0.11  -0.04  -0.02     0.30  -0.06  -0.03    -0.30  -0.05   0.07
     9   1     0.03   0.07  -0.04    -0.35  -0.02   0.06    -0.16  -0.11   0.08
    10   1     0.06  -0.12  -0.03     0.40  -0.06  -0.05     0.32  -0.04   0.05
    11   1    -0.24   0.12  -0.10    -0.11  -0.02  -0.20    -0.06   0.04   0.04
    12   1     0.11   0.06   0.02     0.34  -0.12   0.03    -0.46   0.09  -0.11
    13   1     0.21   0.02   0.01    -0.26   0.09  -0.24    -0.17  -0.01   0.02
    14   1    -0.56   0.27   0.03    -0.12   0.05  -0.04    -0.20   0.18   0.07
    15   1    -0.19   0.07  -0.01     0.26  -0.04  -0.02    -0.22   0.25   0.08
    16   1     0.31   0.19   0.06     0.21   0.24   0.00    -0.25  -0.16   0.01
    17   1     0.40   0.12   0.08    -0.24  -0.20  -0.03     0.17   0.12   0.03
                     19                     20                     21
                      A                      A                      A
 Frequencies --   1156.1624              1167.3556              1181.2031
 Red. masses --      2.1206                 3.0310                 1.5232
 Frc consts  --      1.6701                 2.4336                 1.2521
 IR Inten    --      4.2088                61.5137                 5.4265
  Atom  AN      X      Y      Z        X      Y      Z        X      Y      Z
     1   8     0.02   0.02   0.01     0.03  -0.04   0.01     0.03  -0.00  -0.02
     2   6     0.05  -0.10  -0.07    -0.11   0.29  -0.11    -0.01   0.06   0.12
     3   6    -0.07  -0.05   0.09     0.04  -0.14   0.04    -0.04  -0.06  -0.05
     4   6     0.09   0.17  -0.00    -0.13   0.06  -0.03    -0.00   0.06   0.02
     5   6    -0.04  -0.10  -0.01     0.03  -0.04   0.07    -0.00  -0.02  -0.00
     6   6     0.02  -0.09  -0.04     0.09   0.01  -0.03     0.05  -0.04   0.02
     7   6    -0.08   0.05   0.03    -0.01  -0.13   0.03    -0.05  -0.01  -0.09
     8   1    -0.07  -0.17   0.04     0.52  -0.07  -0.02    -0.29   0.07   0.04
     9   1    -0.14   0.02  -0.01     0.08  -0.11  -0.01     0.52  -0.14  -0.00
    10   1     0.21   0.46   0.02    -0.17   0.37  -0.01    -0.07  -0.10   0.01
    11   1    -0.38   0.21  -0.08    -0.08   0.02  -0.07    -0.07   0.05  -0.00
    12   1     0.04   0.23   0.01     0.29  -0.01   0.06     0.02   0.04   0.01
    13   1     0.38   0.02   0.05     0.12   0.03  -0.03     0.10   0.00   0.02
    14   1    -0.08  -0.01  -0.03    -0.05   0.16   0.09    -0.43   0.24   0.01
    15   1     0.06  -0.05  -0.05    -0.12  -0.03   0.01     0.37  -0.15  -0.04
    16   1     0.02  -0.05  -0.03    -0.26  -0.32   0.02     0.08   0.32  -0.00
    17   1     0.16   0.38  -0.04     0.12   0.05  -0.02     0.00  -0.12   0.05
                     22                     23                     24
                      A                      A                      A
 Frequencies --   1232.7476              1263.3414              1280.3951
 Red. masses --      1.6130                 1.4588                 1.5082
 Frc consts  --      1.4442                 1.3718                 1.4568
 IR Inten    --      1.3967                 0.2476                 6.5745
  Atom  AN      X      Y      Z        X      Y      Z        X      Y      Z
     1   8    -0.01  -0.01  -0.00     0.00   0.02   0.00     0.03   0.01   0.00
     2   6    -0.02   0.04   0.02     0.03  -0.06  -0.04     0.02  -0.03  -0.03
     3   6    -0.02  -0.02  -0.04     0.03   0.02  -0.05    -0.18   0.02   0.03
     4   6     0.01   0.03   0.14    -0.04  -0.03   0.09     0.02  -0.05   0.01
     5   6     0.00  -0.02  -0.08     0.02   0.02  -0.02     0.00   0.04  -0.03
     6   6    -0.02   0.00  -0.13     0.07   0.02  -0.00     0.03  -0.02   0.02
     7   6     0.03  -0.00   0.05    -0.11  -0.05  -0.02    -0.00   0.04   0.01
     8   1     0.32   0.10  -0.04     0.34   0.12  -0.06     0.62  -0.03  -0.11
     9   1    -0.11  -0.10   0.09    -0.41  -0.03   0.08     0.56   0.04  -0.09
    10   1     0.11   0.11   0.15    -0.21  -0.19   0.08     0.28  -0.08   0.01
    11   1    -0.01   0.07   0.14     0.08  -0.01   0.08     0.12  -0.04   0.06
    12   1    -0.27   0.13  -0.05    -0.08  -0.03  -0.01    -0.12  -0.03  -0.03
    13   1     0.12  -0.07   0.15    -0.07  -0.04   0.05    -0.07  -0.02   0.03
    14   1     0.14   0.04   0.12    -0.23   0.26   0.11    -0.17   0.08   0.01
    15   1    -0.12  -0.25  -0.10     0.19  -0.12  -0.01    -0.10   0.15   0.04
    16   1     0.43   0.20   0.03     0.06   0.15   0.01    -0.13  -0.11  -0.02
    17   1    -0.40  -0.30  -0.07     0.39   0.42   0.01     0.01   0.06  -0.00
                     25                     26                     27
                      A                      A                      A
 Frequencies --   1319.1039              1332.0115              1365.4142
 Red. masses --      1.3585                 1.3682                 1.3192
 Frc consts  --      1.3928                 1.4302                 1.4491
 IR Inten    --      1.9338                 6.2255                 3.6648
  Atom  AN      X      Y      Z        X      Y      Z        X      Y      Z
     1   8     0.02   0.01  -0.01     0.01  -0.00   0.00     0.00   0.00  -0.00
     2   6    -0.00   0.02   0.03    -0.02   0.04  -0.02     0.00  -0.02   0.01
     3   6    -0.03  -0.01   0.01    -0.01  -0.02   0.01     0.01   0.03   0.03
     4   6     0.01  -0.01  -0.05    -0.02   0.05   0.02    -0.04  -0.14   0.00
     5   6    -0.01   0.01   0.01     0.00  -0.02  -0.05     0.01   0.04  -0.01
     6   6     0.01   0.04  -0.01    -0.11   0.07   0.06    -0.02   0.05  -0.03
     7   6    -0.10  -0.11   0.03     0.00  -0.05  -0.03    -0.01  -0.02  -0.01
     8   1    -0.07  -0.04   0.01     0.07  -0.01  -0.00    -0.18  -0.07   0.03
     9   1     0.24   0.01  -0.04     0.05  -0.02  -0.00     0.12   0.06  -0.03
    10   1     0.07  -0.01  -0.06     0.42  -0.30   0.00     0.26   0.80   0.06
    11   1     0.02  -0.04  -0.04     0.04   0.01   0.10     0.09  -0.05  -0.02
    12   1     0.04  -0.02   0.01    -0.07   0.06  -0.03    -0.04  -0.13  -0.02
    13   1    -0.01   0.03  -0.04     0.13  -0.04   0.10    -0.08  -0.03   0.06
    14   1     0.38  -0.15   0.01     0.36  -0.30  -0.11    -0.04   0.10   0.04
    15   1    -0.38   0.20   0.05     0.49  -0.27  -0.04     0.25  -0.28  -0.06
    16   1     0.50   0.42   0.07    -0.12  -0.06   0.00    -0.00   0.06   0.01
    17   1     0.20   0.24  -0.02     0.26   0.10   0.05     0.07   0.07  -0.02
                     28                     29                     30
                      A                      A                      A
 Frequencies --   1400.8961              1441.2371              1478.6934
 Red. masses --      1.5380                 1.2562                 1.0922
 Frc consts  --      1.7783                 1.5373                 1.4070
 IR Inten    --      3.7556                 2.3347                12.0272
  Atom  AN      X      Y      Z        X      Y      Z        X      Y      Z
     1   8    -0.00   0.00  -0.00    -0.00  -0.00  -0.00    -0.00  -0.00   0.00
     2   6     0.00  -0.01   0.01     0.00  -0.00   0.00     0.00  -0.01   0.01
     3   6     0.07  -0.01   0.01    -0.00  -0.00  -0.00    -0.01  -0.07   0.02
     4   6    -0.17   0.03  -0.01     0.03  -0.01   0.01     0.02  -0.01   0.00
     5   6     0.03  -0.00  -0.05    -0.14   0.04  -0.04     0.00  -0.00   0.00
     6   6     0.08  -0.05   0.01     0.00  -0.00  -0.01    -0.01  -0.00  -0.00
     7   6    -0.01   0.02   0.00     0.00   0.01   0.00     0.02  -0.02   0.00
     8   1    -0.23   0.07   0.08     0.01   0.04   0.00     0.05   0.61   0.23
     9   1    -0.15   0.09  -0.08    -0.02   0.01  -0.02    -0.06   0.36  -0.55
    10   1     0.76  -0.16  -0.00    -0.09   0.02   0.01    -0.05   0.02   0.00
    11   1     0.11  -0.01   0.14     0.38  -0.33   0.25    -0.04   0.03  -0.00
    12   1    -0.03   0.00  -0.04     0.56  -0.12  -0.06    -0.01  -0.00   0.00
    13   1     0.09  -0.07   0.14     0.48   0.09   0.27    -0.04  -0.01   0.00
    14   1    -0.20   0.11   0.00    -0.02   0.01  -0.01     0.03   0.00   0.05
    15   1    -0.29   0.20   0.06    -0.02  -0.01  -0.00     0.06   0.03  -0.01
    16   1     0.03  -0.02  -0.02     0.01   0.00   0.00    -0.16   0.16   0.10
    17   1    -0.03  -0.04   0.03    -0.02  -0.01  -0.01    -0.10   0.11  -0.19
                     31                     32                     33
                      A                      A                      A
 Frequencies --   1481.5830              1525.3585              1527.7339
 Red. masses --      1.0864                 1.0639                 1.0602
 Frc consts  --      1.4050                 1.4584                 1.4580
 IR Inten    --      3.2628                 0.6262                 2.8413
  Atom  AN      X      Y      Z        X      Y      Z        X      Y      Z
     1   8    -0.00  -0.00  -0.00    -0.00   0.00  -0.00    -0.00  -0.00   0.00
     2   6    -0.00   0.01  -0.00     0.00  -0.00   0.00     0.00   0.00  -0.00
     3   6    -0.00  -0.03   0.01    -0.00  -0.00   0.00    -0.01  -0.01   0.00
     4   6     0.01  -0.01  -0.00     0.01  -0.03  -0.01     0.02   0.02  -0.01
     5   6    -0.00   0.00   0.00    -0.00  -0.04  -0.02     0.02   0.03  -0.02
     6   6    -0.01   0.00  -0.01     0.02   0.04   0.02     0.02   0.03   0.02
     7   6    -0.06   0.05  -0.02    -0.01   0.01  -0.00    -0.01   0.01   0.00
     8   1     0.02   0.20   0.08    -0.00   0.04   0.01     0.01   0.02   0.01
     9   1    -0.02   0.13  -0.19     0.02   0.03  -0.04     0.00   0.01  -0.02
    10   1    -0.04   0.04  -0.00    -0.03   0.05  -0.01    -0.06  -0.03  -0.02
    11   1    -0.01  -0.00  -0.03     0.02   0.17   0.53    -0.25   0.25  -0.06
    12   1    -0.01  -0.03   0.00     0.29   0.49   0.02     0.11  -0.50  -0.05
    13   1    -0.01   0.00   0.00    -0.30  -0.04  -0.19    -0.14  -0.25   0.50
    14   1     0.06   0.04   0.12    -0.11  -0.08  -0.30    -0.09  -0.11  -0.33
    15   1     0.09   0.10  -0.03    -0.17  -0.28   0.07    -0.21  -0.28   0.07
    16   1     0.42  -0.40  -0.27     0.05  -0.04  -0.03     0.04  -0.03  -0.02
    17   1     0.27  -0.29   0.52     0.03  -0.02   0.06     0.01  -0.02   0.04
                     34                     35                     36
                      A                      A                      A
 Frequencies --   1531.6872              1845.9035              3011.9175
 Red. masses --      1.0664                12.5697                 1.0820
 Frc consts  --      1.4741                25.2343                 5.7833
 IR Inten    --      7.8218               224.2350                 7.5519
  Atom  AN      X      Y      Z        X      Y      Z        X      Y      Z
     1   8     0.00   0.00  -0.00    -0.49  -0.20   0.02     0.00  -0.00  -0.00
     2   6    -0.00   0.00   0.00     0.76   0.30  -0.03    -0.00   0.00   0.00
     3   6     0.00   0.01  -0.00    -0.04  -0.01   0.00     0.00  -0.01   0.03
     4   6    -0.00  -0.00  -0.02    -0.03  -0.00  -0.00     0.00   0.00  -0.07
     5   6     0.01  -0.00  -0.04     0.00  -0.00   0.00    -0.00   0.00   0.01
     6   6    -0.04  -0.04  -0.02    -0.02  -0.01   0.00     0.00  -0.00   0.01
     7   6     0.01  -0.01   0.00    -0.04  -0.02   0.00     0.00  -0.00   0.00
     8   1    -0.02  -0.08  -0.03     0.02  -0.01  -0.00    -0.06   0.12  -0.35
     9   1     0.02  -0.04   0.07     0.15  -0.02   0.01     0.01   0.02   0.02
    10   1    -0.02   0.02  -0.02     0.03   0.01   0.00    -0.01  -0.05   0.90
    11   1    -0.15   0.29   0.34    -0.01   0.00   0.00     0.03   0.03  -0.01
    12   1     0.30  -0.03  -0.03    -0.00  -0.00   0.00    -0.00   0.01  -0.08
    13   1    -0.29  -0.22   0.26    -0.00  -0.00   0.00     0.01  -0.04  -0.02
    14   1     0.16   0.11   0.42    -0.02  -0.02   0.01     0.01   0.01  -0.01
    15   1     0.25   0.40  -0.09     0.02   0.01  -0.01    -0.03  -0.01  -0.17
    16   1    -0.04   0.04   0.02     0.02   0.04   0.00    -0.00   0.01  -0.02
    17   1    -0.02   0.02  -0.05     0.09   0.12  -0.02    -0.01   0.01   0.01
                     37                     38                     39
                      A                      A                      A
 Frequencies --   3026.3382              3037.1039              3040.7600
 Red. masses --      1.0706                 1.0492                 1.0607
 Frc consts  --      5.7771                 5.7020                 5.7783
 IR Inten    --     14.8833                15.3546                 6.1498
  Atom  AN      X      Y      Z        X      Y      Z        X      Y      Z
     1   8     0.00   0.00   0.00    -0.00   0.00   0.00     0.00   0.00   0.00
     2   6    -0.00  -0.00  -0.00    -0.00  -0.00  -0.00    -0.00  -0.00  -0.00
     3   6    -0.01   0.04  -0.05     0.00  -0.00   0.00     0.00  -0.01   0.01
     4   6    -0.00   0.00  -0.03     0.00  -0.00   0.01    -0.00  -0.00   0.01
     5   6     0.00  -0.00   0.01    -0.03   0.01  -0.02     0.03  -0.01   0.01
     6   6     0.01   0.00   0.02     0.01   0.01   0.03     0.01   0.01   0.03
     7   6    -0.00   0.00  -0.00    -0.01   0.01  -0.02    -0.02   0.03  -0.04
     8   1     0.13  -0.27   0.82    -0.01   0.01  -0.04    -0.02   0.04  -0.13
     9   1    -0.02  -0.18  -0.16     0.00   0.02   0.01     0.00   0.02   0.02
    10   1    -0.00  -0.02   0.31    -0.00   0.01  -0.09     0.00   0.01  -0.10
    11   1    -0.01  -0.01   0.01     0.28   0.30  -0.12    -0.21  -0.23   0.09
    12   1     0.00   0.01  -0.09     0.00  -0.04   0.53    -0.00   0.03  -0.35
    13   1    -0.01   0.02   0.01     0.11  -0.34  -0.16    -0.08   0.26   0.12
    14   1    -0.02  -0.04   0.03    -0.07  -0.12   0.08    -0.03  -0.04   0.03
    15   1    -0.05  -0.01  -0.24    -0.09  -0.02  -0.49    -0.06  -0.02  -0.35
    16   1     0.01  -0.01   0.03     0.06  -0.09   0.28     0.15  -0.22   0.65
    17   1    -0.00   0.00   0.00     0.02  -0.02  -0.03     0.09  -0.08  -0.12
                     40                     41                     42
                      A                      A                      A
 Frequencies --   3045.2388              3100.2992              3104.9941
 Red. masses --      1.0625                 1.0991                 1.0993
 Frc consts  --      5.8052                 6.2244                 6.2444
 IR Inten    --     56.2640                 8.9390                55.9974
  Atom  AN      X      Y      Z        X      Y      Z        X      Y      Z
     1   8    -0.00  -0.00   0.00    -0.00  -0.00  -0.00     0.00   0.00  -0.00
     2   6     0.00   0.00  -0.00     0.00   0.00   0.00    -0.00  -0.00   0.00
     3   6    -0.00   0.01  -0.01     0.00   0.00   0.00     0.00   0.01   0.01
     4   6     0.00   0.00  -0.02    -0.00   0.00  -0.00     0.00   0.00  -0.01
     5   6    -0.01   0.00  -0.00     0.02   0.01  -0.05     0.03   0.01  -0.06
     6   6    -0.02  -0.02  -0.04    -0.02  -0.05   0.05     0.02   0.04  -0.04
     7   6    -0.02   0.02  -0.03     0.01  -0.01  -0.00    -0.01   0.01   0.01
     8   1     0.02  -0.04   0.12    -0.00   0.00  -0.00    -0.01   0.01  -0.03
     9   1    -0.00  -0.04  -0.03    -0.00  -0.03  -0.02    -0.01  -0.17  -0.12
    10   1    -0.00  -0.01   0.18     0.00  -0.00   0.00    -0.00  -0.01   0.13
    11   1     0.11   0.12  -0.05    -0.25  -0.26   0.09    -0.30  -0.32   0.11
    12   1     0.00  -0.01   0.15     0.01  -0.03   0.46     0.01  -0.04   0.54
    13   1     0.05  -0.15  -0.07    -0.05   0.17   0.06    -0.06   0.19   0.07
    14   1     0.14   0.25  -0.15     0.33   0.56  -0.32    -0.25  -0.43   0.24
    15   1     0.11   0.03   0.62    -0.05  -0.02  -0.22     0.04   0.02   0.20
    16   1     0.12  -0.17   0.52    -0.01   0.02  -0.05     0.00  -0.00   0.02
    17   1     0.12  -0.12  -0.16    -0.08   0.08   0.09     0.10  -0.09  -0.11
                     43                     44                     45
                      A                      A                      A
 Frequencies --   3109.8093              3113.9061              3116.7470
 Red. masses --      1.1023                 1.0934                 1.0955
 Frc consts  --      6.2808                 6.2466                 6.2702
 IR Inten    --     24.5345                20.2419                19.4383
  Atom  AN      X      Y      Z        X      Y      Z        X      Y      Z
     1   8    -0.00   0.00  -0.00     0.00   0.00   0.00    -0.00  -0.00   0.00
     2   6     0.00  -0.00   0.00    -0.00  -0.00  -0.00     0.00   0.00  -0.00
     3   6     0.00   0.01   0.01    -0.01  -0.06  -0.06    -0.00   0.00  -0.00
     4   6    -0.00  -0.00  -0.00     0.00   0.00  -0.01    -0.00   0.00  -0.00
     5   6    -0.01  -0.09  -0.02     0.01  -0.01  -0.02     0.00  -0.00  -0.00
     6   6    -0.00  -0.00  -0.00     0.00   0.01  -0.01     0.00   0.01  -0.02
     7   6    -0.00   0.00   0.00    -0.00   0.00   0.00     0.04  -0.03  -0.07
     8   1    -0.00   0.01  -0.03     0.03  -0.09   0.20     0.00  -0.00   0.01
     9   1    -0.01  -0.09  -0.07     0.07   0.76   0.55     0.00  -0.00   0.00
    10   1     0.00   0.00   0.01    -0.00  -0.01   0.10    -0.00  -0.00   0.03
    11   1     0.39   0.39  -0.17    -0.03  -0.03   0.01    -0.01  -0.01   0.00
    12   1    -0.00  -0.03   0.13     0.00  -0.01   0.14     0.00  -0.00   0.04
    13   1    -0.23   0.69   0.31    -0.04   0.13   0.05    -0.01   0.03   0.01
    14   1     0.00   0.01  -0.00    -0.04  -0.06   0.04    -0.07  -0.12   0.07
    15   1     0.00   0.00   0.01     0.01   0.00   0.04     0.03   0.01   0.14
    16   1    -0.00   0.00  -0.00     0.00  -0.00   0.01     0.07  -0.10   0.25
    17   1     0.01  -0.01  -0.01     0.02  -0.02  -0.03    -0.51   0.51   0.59

 -------------------
 - Thermochemistry -
 -------------------
 Temperature   298.150 Kelvin.  Pressure   1.00000 Atm.
 Atom     1 has atomic number  8 and mass  15.99491
 Atom     2 has atomic number  6 and mass  12.00000
 Atom     3 has atomic number  6 and mass  12.00000
 Atom     4 has atomic number  6 and mass  12.00000
 Atom     5 has atomic number  6 and mass  12.00000
 Atom     6 has atomic number  6 and mass  12.00000
 Atom     7 has atomic number  6 and mass  12.00000
 Atom     8 has atomic number  1 and mass   1.00783
 Atom     9 has atomic number  1 and mass   1.00783
 Atom    10 has atomic number  1 and mass   1.00783
 Atom    11 has atomic number  1 and mass   1.00783
 Atom    12 has atomic number  1 and mass   1.00783
 Atom    13 has atomic number  1 and mass   1.00783
 Atom    14 has atomic number  1 and mass   1.00783
 Atom    15 has atomic number  1 and mass   1.00783
 Atom    16 has atomic number  1 and mass   1.00783
 Atom    17 has atomic number  1 and mass   1.00783
 Molecular mass:    98.07317 amu.
 Principal axes and moments of inertia in atomic units:
                           1         2         3
     Eigenvalues --   335.04732 933.758151191.59872
           X            0.99943  -0.03347   0.00478
           Y            0.03348   0.99944  -0.00199
           Z           -0.00471   0.00215   0.99999
 This molecule is an asymmetric top.
 Rotational symmetry number  1.
 Rotational temperatures (Kelvin)      0.25851     0.09276     0.07269
 Rotational constants (GHZ):           5.38653     1.93277     1.51455
 Zero-point vibrational energy     393478.2 (Joules/Mol)
                                   94.04356 (Kcal/Mol)
 Warning -- explicit consideration of   9 degrees of freedom as
           vibrations may cause significant error
 Vibrational temperatures:    123.58   243.84   348.22   401.78   590.99
          (Kelvin)            660.81   695.88   769.42   838.16  1052.14
                             1168.32  1219.46  1293.31  1356.41  1379.65
                             1445.45  1459.25  1566.11  1663.46  1679.56
                             1699.49  1773.65  1817.67  1842.20  1897.90
                             1916.47  1964.53  2015.58  2073.62  2127.51
                             2131.67  2194.65  2198.07  2203.76  2655.84
                             4333.48  4354.23  4369.72  4374.98  4381.42
                             4460.64  4467.39  4474.32  4480.22  4484.30
 
 Zero-point correction=                           0.149868 (Hartree/Particle)
 Thermal correction to Energy=                    0.156824
 Thermal correction to Enthalpy=                  0.157768
 Thermal correction to Gibbs Free Energy=         0.118951
 Sum of electronic and zero-point Energies=           -309.738558
 Sum of electronic and thermal Energies=              -309.731602
 Sum of electronic and thermal Enthalpies=            -309.730657
 Sum of electronic and thermal Free Energies=         -309.769475
 
                     E (Thermal)             CV                S
                      KCal/Mol        Cal/Mol-Kelvin    Cal/Mol-Kelvin
 Total                   98.409             26.140             81.698
 Electronic               0.000              0.000              0.000
 Translational            0.889              2.981             39.660
 Rotational               0.889              2.981             27.413
 Vibrational             96.631             20.179             14.625
 Vibration     1          0.601              1.959              3.751
 Vibration     2          0.625              1.880              2.441
 Vibration     3          0.658              1.776              1.788
 Vibration     4          0.680              1.712              1.538
 Vibration     5          0.775              1.447              0.924
 Vibration     6          0.817              1.340              0.768
 Vibration     7          0.840              1.286              0.700
 Vibration     8          0.890              1.173              0.577
 Vibration     9          0.939              1.069              0.481
                       Q            Log10(Q)             Ln(Q)
 Total Bot       0.193341D-54        -54.713676       -125.982895
 Total V=0       0.166240D+15         14.220735         32.744452
 Vib (Bot)       0.231720D-67        -67.635036       -155.735426
 Vib (Bot)    1  0.239537D+01          0.379372          0.873536
 Vib (Bot)    2  0.118930D+01          0.075291          0.173363
 Vib (Bot)    3  0.809420D+00         -0.091826         -0.211437
 Vib (Bot)    4  0.688756D+00         -0.161934         -0.372868
 Vib (Bot)    5  0.430472D+00         -0.366055         -0.842872
 Vib (Bot)    6  0.370547D+00         -0.431157         -0.992776
 Vib (Bot)    7  0.344704D+00         -0.462554         -1.065070
 Vib (Bot)    8  0.297725D+00         -0.526184         -1.211584
 Vib (Bot)    9  0.260910D+00         -0.583510         -1.343580
 Vib (V=0)       0.199239D+02          1.299375          2.991921
 Vib (V=0)    1  0.294699D+01          0.469379          1.080786
 Vib (V=0)    2  0.179013D+01          0.252884          0.582287
 Vib (V=0)    3  0.145140D+01          0.161787          0.372528
 Vib (V=0)    4  0.135111D+01          0.130690          0.300925
 Vib (V=0)    5  0.115978D+01          0.064375          0.148228
 Vib (V=0)    6  0.112234D+01          0.050124          0.115414
 Vib (V=0)    7  0.110731D+01          0.044268          0.101930
 Vib (V=0)    8  0.108193D+01          0.034198          0.078745
 Vib (V=0)    9  0.106398D+01          0.026934          0.062017
 Electronic      0.100000D+01          0.000000          0.000000
 Translational   0.381750D+08          7.581779         17.457692
 Rotational      0.218565D+06          5.339581         12.294839
 ***** Axes restored to original set *****
 -------------------------------------------------------------------
 Center     Atomic                   Forces (Hartrees/Bohr)
 Number     Number              X              Y              Z
 -------------------------------------------------------------------
      1        8          -0.000023909    0.000024821    0.000035910
      2        6          -0.000004048   -0.000072982   -0.000020490
      3        6           0.000077432    0.000011033    0.000068673
      4        6          -0.000020610   -0.000012660   -0.000012608
      5        6           0.000008133   -0.000001622    0.000001457
      6        6          -0.000026363   -0.000004851   -0.000028650
      7        6           0.000026095    0.000011743    0.000055655
      8        1          -0.000036006    0.000019430   -0.000034152
      9        1           0.000000756    0.000001814   -0.000022296
     10        1           0.000007763    0.000006156    0.000002111
     11        1          -0.000002225    0.000003107    0.000002613
     12        1          -0.000000639    0.000005019   -0.000005371
     13        1          -0.000000146   -0.000001620    0.000002823
     14        1          -0.000003166    0.000002586    0.000002448
     15        1          -0.000008359    0.000009892    0.000001761
     16        1           0.000012407    0.000006241   -0.000024269
     17        1          -0.000007114   -0.000008105   -0.000025614
 -------------------------------------------------------------------
 Cartesian Forces:  Max     0.000077432 RMS     0.000024504

 GradGradGradGradGradGradGradGradGradGradGradGradGradGradGradGradGradGrad
 Berny optimization.
 Search for a local minimum.
 Step number   1 out of a maximum of    2
 All quantities printed in internal units (Hartrees-Bohrs-Radians)
 Second derivative matrix not updated -- analytic derivatives used.
 ITU=  0
     Eigenvalues ---    0.00111   0.00208   0.00241   0.00765   0.01215
     Eigenvalues ---    0.02220   0.02957   0.03333   0.04155   0.04247
     Eigenvalues ---    0.04633   0.04676   0.05032   0.05790   0.06154
     Eigenvalues ---    0.06986   0.07398   0.08141   0.09561   0.10585
     Eigenvalues ---    0.11523   0.12087   0.14266   0.16598   0.16982
     Eigenvalues ---    0.18701   0.20971   0.27585   0.28697   0.34029
     Eigenvalues ---    0.39336   0.47548   0.52018   0.53915   0.65171
     Eigenvalues ---    0.67438   0.74861   0.76590   0.78767   0.80866
     Eigenvalues ---    0.82104   0.85277   0.86366   0.90774   1.73204
 Angle between quadratic step and forces=  74.95 degrees.
 Linear search not attempted -- first point.
 B after Tr=    -0.000028   -0.000085    0.004298
         Rot=    1.000000    0.000094    0.000463   -0.000004 Ang=   0.05 deg.
 Variable       Old X    -DE/DX   Delta X   Delta X   Delta X     New X
                                 (Linear)    (Quad)   (Total)
    X1        2.28856  -0.00002   0.00000   0.00015   0.00010   2.28867
    Y1       -0.00000   0.00002   0.00000   0.00012   0.00006   0.00006
    Z1       -0.00000   0.00004   0.00000   0.01651   0.02293   0.02293
    X2        0.00000  -0.00000   0.00000   0.00016   0.00013   0.00013
    Y2       -0.00000  -0.00007   0.00000  -0.00051  -0.00059  -0.00059
    Z2       -0.00000  -0.00002   0.00000   0.00287   0.00717   0.00717
    X3       -1.70154   0.00008   0.00000   0.00012   0.00012  -1.70142
    Y3       -2.34436   0.00001   0.00000   0.00015   0.00005  -2.34431
    Z3        0.00029   0.00007   0.00000  -0.00645  -0.00328  -0.00299
    X4       -4.36752  -0.00002   0.00000   0.00121   0.00062  -4.36691
    Y4       -1.35607  -0.00001   0.00000  -0.00074  -0.00075  -1.35682
    Z4        0.62308  -0.00001   0.00000  -0.00062  -0.00011   0.62297
    X5       -6.52974   0.00001   0.00000  -0.00043  -0.00016  -6.52990
    Y5       -3.03209  -0.00000   0.00000  -0.00037  -0.00057  -3.03266
    Z5       -0.30026   0.00000   0.00000   0.00277   0.00159  -0.29867
    X6       -4.36532  -0.00003   0.00000  -0.00088  -0.00043  -4.36575
    Y6        1.33951  -0.00000   0.00000  -0.00024  -0.00046   1.33905
    Z6       -0.52072  -0.00003   0.00000   0.00042   0.00042  -0.52030
    X7       -1.69527   0.00003   0.00000   0.00039   0.00035  -1.69493
    Y7        2.35362   0.00001   0.00000   0.00001  -0.00009   2.35354
    Z7        0.00029   0.00006   0.00000  -0.00501  -0.00272  -0.00243
    X8       -1.65201  -0.00004   0.00000  -0.00342  -0.00163  -1.65365
    Y8       -3.14927   0.00002   0.00000   0.01063   0.01017  -3.13911
    Z8       -1.91839  -0.00003   0.00000  -0.01115  -0.00779  -1.92619
    X9       -0.97500   0.00000   0.00000   0.00049  -0.00068  -0.97567
    Y9       -3.79642   0.00000   0.00000  -0.00689  -0.00675  -3.80317
    Z9        1.28156  -0.00002   0.00000  -0.01485  -0.01074   1.27082
   X10       -4.51342   0.00001   0.00000   0.00551   0.00300  -4.51042
   Y10       -1.16535   0.00001   0.00000  -0.00175  -0.00137  -1.16672
   Z10        2.68893   0.00000   0.00000  -0.00019   0.00015   2.68908
   X11       -8.37078  -0.00000   0.00000   0.00043   0.00028  -8.37050
   Y11       -2.19578   0.00000   0.00000  -0.00087  -0.00099  -2.19677
   Z11        0.15353   0.00000   0.00000   0.00726   0.00422   0.15774
   X12       -6.44091  -0.00000   0.00000  -0.00474  -0.00256  -6.44347
   Y12       -3.28606   0.00001   0.00000   0.00118   0.00059  -3.28546
   Z12       -2.35690  -0.00001   0.00000   0.00238   0.00132  -2.35558
   X13       -6.45897  -0.00000   0.00000   0.00159   0.00108  -6.45789
   Y13       -4.91027  -0.00000   0.00000  -0.00097  -0.00101  -4.91128
   Z13        0.57084   0.00000   0.00000   0.00132   0.00056   0.57140
   X14       -5.86505  -0.00000   0.00000   0.00085   0.00056  -5.86450
   Y14        2.52914   0.00000   0.00000  -0.00050  -0.00058   2.52856
   Z14        0.26493   0.00000   0.00000   0.00415   0.00254   0.26747
   X15       -4.69027  -0.00001   0.00000  -0.00567  -0.00333  -4.69360
   Y15        1.21462   0.00001   0.00000   0.00054  -0.00007   1.21455
   Z15       -2.56813   0.00000   0.00000   0.00116   0.00088  -2.56725
   X16       -1.56754   0.00001   0.00000   0.00348   0.00169  -1.56586
   Y16        3.21017   0.00001   0.00000   0.00909   0.00934   3.21951
   Z16        1.88922  -0.00002   0.00000  -0.00955  -0.00730   1.88192
   X17       -1.00316  -0.00001   0.00000  -0.00034   0.00086  -1.00230
   Y17        3.76313  -0.00001   0.00000  -0.00662  -0.00697   3.75616
   Z17       -1.34530  -0.00003   0.00000  -0.01250  -0.00983  -1.35513
         Item               Value     Threshold  Converged?
 Maximum Force            0.000077     0.000450     YES
 RMS     Force            0.000025     0.000300     YES
 Maximum Displacement     0.022928     0.001800     NO 
 RMS     Displacement     0.005005     0.001200     NO 
 Predicted change in Energy=-8.608852D-07
 GradGradGradGradGradGradGradGradGradGradGradGradGradGradGradGradGradGrad


 ----------------------------------------------------------------------

 Electric dipole moment (input orientation):
 (Debye = 10**-18 statcoulomb cm , SI units = C m)
                  (au)            (Debye)         (10**-30 SI)
   Tot        0.115833D+01      0.294419D+01      0.982076D+01
   x         -0.115800D+01     -0.294334D+01     -0.981791D+01
   y         -0.135054D-01     -0.343274D-01     -0.114504D+00
   z          0.244042D-01      0.620293D-01      0.206907D+00

 Dipole polarizability, Alpha (input orientation).
 (esu units = cm**3 , SI units = C**2 m**2 J**-1)
 Alpha(0;0):
               (au)            (10**-24 esu)      (10**-40 SI)
   iso        0.617951D+02      0.915709D+01      0.101886D+02
   aniso      0.172419D+02      0.255498D+01      0.284280D+01
   xx         0.703132D+02      0.104193D+02      0.115931D+02
   yx         0.298152D+01      0.441816D+00      0.491587D+00
   yy         0.635089D+02      0.941104D+01      0.104712D+02
   zx         0.323145D+00      0.478851D-01      0.532794D-01
   zy        -0.913285D-01     -0.135335D-01     -0.150580D-01
   zz         0.515633D+02      0.764090D+01      0.850164D+01

 ----------------------------------------------------------------------

 Dipole orientation:
     8          0.04852096         -0.02612505         -2.28789870
     6         -0.00000000         -0.00000000         -0.00000000
     6         -0.00902037         -2.32461703          1.72838428
     6          0.54578392         -1.29876858          4.39519369
     6         -0.40400482         -2.96064526          6.55687739
     6         -0.62841123          1.38309046          4.33746789
     6         -0.06251727          2.37266608          1.66734616
     1         -1.91690979         -3.15236338          1.64783398
     1          1.30385618         -3.76984238          1.04598009
     1          2.60576679         -1.08231753          4.58235188
     1          0.00107528         -2.09813974          8.39718882
     1         -2.45526580         -3.23957256          6.42769630
     1          0.48979064         -4.82923218          6.52637137
     1          0.11163215          2.59884413          5.83944701
     1         -2.68069567          1.23806052          4.62064193
     1          1.81879568          3.24966819          1.56946456
     1         -1.40913628          3.75839781          0.93065311

 Electric dipole moment (dipole orientation):
 (Debye = 10**-18 statcoulomb cm , SI units = C m)
                  (au)            (Debye)         (10**-30 SI)
   Tot        0.115833D+01      0.294419D+01      0.982076D+01
   x          0.000000D+00      0.000000D+00      0.000000D+00
   y          0.000000D+00      0.000000D+00      0.000000D+00
   z          0.115833D+01      0.294419D+01      0.982076D+01

 Dipole polarizability, Alpha (dipole orientation).
 (esu units = cm**3 , SI units = C**2 m**2 J**-1)
 Alpha(0;0):
               (au)            (10**-24 esu)      (10**-40 SI)
   iso        0.617951D+02      0.915709D+01      0.101886D+02
   aniso      0.172419D+02      0.255498D+01      0.284280D+01
   xx         0.515877D+02      0.764450D+01      0.850565D+01
   yx        -0.172177D+00     -0.255139D-01     -0.283881D-01
   yy         0.634378D+02      0.940052D+01      0.104595D+02
   zx        -0.684258D+00     -0.101397D+00     -0.112819D+00
   zy        -0.291090D+01     -0.431351D+00     -0.479943D+00
   zz         0.703599D+02      0.104263D+02      0.116008D+02

 ----------------------------------------------------------------------
 1\1\GINC-MACMINI-M1-2022NOMAC-MINI-4\Freq\RB3LYP\6-31G(d)\C6H10O1\ROOT
 \21-Feb-2024\0\\# freq b3lyp/6-31g(d)\\good luck\\0,1\O,1.211055,0.,0.
 \C,0.,0.,0.\C,-0.900415,-1.24058,0.000155\C,-2.311193,-0.717602,0.3297
 21\C,-3.455392,-1.604512,-0.158893\C,-2.310029,0.708837,-0.275553\C,-0
 .8971,1.245484,0.000155\H,-0.874207,-1.666524,-1.015169\H,-0.515947,-2
 .008979,0.678173\H,-2.3884,-0.616675,1.422923\H,-4.429626,-1.161956,0.
 081243\H,-3.408381,-1.738906,-1.24722\H,-3.417938,-2.598405,0.302077\H
 ,-3.103653,1.338363,0.140194\H,-2.481984,0.642751,-1.358998\H,-0.82950
 9,1.698751,0.999734\H,-0.530851,1.991364,-0.711902\\Version=EM64M-G16R
 evA.03\State=1-A\HF=-309.8884258\RMSD=7.854e-09\RMSF=2.450e-05\ZeroPoi
 nt=0.149868\Thermal=0.1568243\Dipole=-1.1579973,-0.0135054,0.0244042\D
 ipoleDeriv=-1.2306941,-0.0216053,-0.0041508,-0.0175309,-0.5156348,0.00
 22649,-0.0011784,0.0155017,-0.3323689,1.2725133,0.0126023,0.0014611,0.
 045659,0.9866162,0.0236748,0.00028,0.0049893,0.1518874,-0.1311787,-0.1
 342211,0.005087,-0.2711758,-0.2963924,-0.051133,-0.0527721,-0.0241908,
 0.1456624,0.1688,0.0402003,0.0218462,-0.0111693,0.1077295,0.0254388,-0
 .0288599,-0.0066737,0.1361057,0.0795037,-0.0220997,-0.0196399,-0.02459
 82,0.0736023,-0.011525,0.0060188,0.0129906,0.1266031,0.1035548,-0.0680
 259,-0.0367717,-0.004856,0.037362,0.0551874,0.0096006,0.0012283,0.1455
 49,-0.0596687,0.1347812,0.0009374,0.211303,-0.2923193,-0.0404829,0.045
 304,-0.0109018,0.1396468,0.0318143,-0.0254336,-0.0078881,-0.0037778,0.
 0364997,-0.0285189,0.0353816,-0.0554256,-0.0811927,-0.0160037,0.037420
 8,-0.0264272,0.0562587,-0.036011,0.0570316,-0.0191616,0.0837791,0.0167
 727,-0.0198003,-0.0049375,-0.0107106,-0.0007975,-0.0103454,-0.0339196,
 0.0143006,-0.0138134,-0.179702,-0.157952,0.0286638,0.0269718,0.08836,0
 .0160755,-0.0281446,0.0305518,-0.0309667,0.0469073,0.0293272,-0.009803
 3,0.0417455,-0.0185944,0.0405175,-0.0021054,-0.0120791,-0.040116,-0.15
 17721,0.0349101,-0.000296,-0.0195095,-0.0462542,-0.1451854,0.067312,-0
 .0110511,0.0767826,0.0207072,-0.102099,0.0912418,0.0320582,0.0816775,-
 0.0413642,-0.0200624,0.0591405,-0.0379336,0.0294782,0.0057869,-0.01545
 9,-0.0222241,-0.0234555,0.0263869,-0.0380083,-0.054385,0.0056275,-0.15
 29789,0.0105388,0.0135065,-0.0136821,-0.0033588,0.0410532,-0.0328435,-
 0.044256,-0.0681086,-0.0735409,-0.0193524,-0.0565354,0.0308968,-0.0576
 899,-0.0285903,0.0558339,0.0231653,0.0872311,0.0122357\Polar=70.313187
 7,2.981524,63.5088644,0.3231447,-0.0913285,51.5633262\Quadrupole=-5.71
 97249,2.9081316,2.8115933,-0.58673,-0.2032018,0.0461238\PG=C01 [X(C6H1
 0O1)]\NImag=0\\0.86993919,0.00000843,0.08130488,-0.00001221,-0.0012790
 7,0.02427043,-0.78292445,-0.00018080,0.00001298,1.01965620,0.00023428,
 -0.10447379,0.00279796,0.00084699,0.43995365,0.00012548,0.00163923,-0.
 06606996,0.00008668,-0.00226652,0.23651805,-0.04194246,-0.03544363,-0.
 00222470,-0.08551748,-0.03086845,0.00143807,0.43703901,-0.01950401,0.0
 1330805,0.00045679,-0.01347298,-0.14822927,0.00277374,-0.06698480,0.53
 668168,-0.00130352,0.00072535,0.01824540,-0.00033827,0.00312314,-0.086
 13793,0.03118437,-0.02929381,0.54200083,0.00228096,-0.00159755,-0.0001
 5735,-0.03763479,-0.00767887,0.00681496,-0.14983599,0.03217469,0.02227
 429,0.49388694,-0.00745861,-0.00861079,-0.00192733,-0.01371444,0.01631
 284,0.00834781,0.03055800,-0.09118495,-0.00540506,0.03996146,0.4522043
 9,-0.00213023,-0.00126661,0.00123007,-0.00133088,0.00146249,0.00079442
 ,0.01977290,-0.00764609,-0.08896415,-0.00912262,0.01926915,0.58595766,
 -0.00130628,-0.00232648,0.00003526,-0.00410190,0.00490989,0.00014504,-
 0.02659592,-0.01856036,-0.00763979,-0.14394793,-0.04881449,-0.02835237
 ,0.52193459,0.00172246,0.00243608,0.00022501,0.00247201,-0.00507809,-0
 .00074530,0.00747193,0.01029047,0.00459605,-0.04946776,-0.11908743,-0.
 02232116,-0.04229827,0.54669264,0.00128678,0.00057981,0.00019460,0.002
 09621,-0.00011819,-0.00085715,0.00410412,0.00514152,0.00189947,-0.0316
 2969,-0.02471402,-0.09393862,-0.02537389,-0.01978904,0.56364730,0.0009
 6461,0.00283822,0.00008733,-0.03936417,0.00536129,-0.00574327,-0.00696
 213,0.02607007,-0.01162126,-0.07393963,0.00210479,-0.00012466,0.000474
 64,-0.02534788,0.01095464,0.53843092,0.00670771,-0.00762541,-0.0015991
 4,0.01496539,0.01414130,0.00688353,0.01683622,-0.02376895,0.00627759,0
 .00422804,-0.14196539,0.03040384,-0.00396556,-0.02054815,0.00670418,-0
 .08465895,0.46116584,0.00144396,-0.00118610,0.00141053,0.00184044,0.00
 123437,0.00093237,-0.00113503,-0.00492065,0.00501354,-0.00127103,0.031
 15085,-0.09780524,0.00270382,-0.00909359,0.00460261,-0.01038675,0.0447
 0463,0.57425616,-0.04097699,0.03495168,0.00195630,-0.08501610,0.031368
 17,-0.00167064,0.00339925,-0.00805882,-0.00048080,-0.00622061,-0.01611
 434,0.00193641,0.00055990,0.00037891,0.00015174,-0.16250272,-0.0335761
 2,-0.01833714,0.43885591,0.01967051,0.01285755,0.00037993,0.01238658,-
 0.14606084,0.00250655,0.00854800,-0.02783462,0.00123622,-0.02643059,-0
 .02149520,-0.00414784,0.00082894,-0.00458543,0.00267295,-0.03254613,-0
 .09025722,-0.00793179,0.07232263,0.53064212,0.00120255,0.00045371,0.01
 773396,0.00052779,0.00282531,-0.08639736,0.00062603,0.00097540,0.02700
 335,0.01287827,0.00566386,0.00454007,-0.00091894,0.00268536,-0.0016157
 9,-0.02045809,-0.00476461,-0.08738799,-0.02392853,-0.02625083,0.548984
 51,-0.00097008,-0.00036420,0.00380123,-0.00062973,-0.00652010,-0.02182
 547,-0.04326470,0.00081587,-0.00198789,-0.00222314,0.01194813,0.030731
 93,0.00242950,-0.00001606,0.00164082,0.00059236,-0.00100295,0.00001263
 ,-0.00053007,-0.00084171,0.00267283,0.04944723,-0.00003288,0.00073078,
 0.00300558,-0.00004661,-0.01098998,-0.02663554,0.00214293,-0.08363293,
 -0.09591663,0.00035380,-0.00322476,-0.00827291,-0.00090319,0.00041546,
 0.00049305,-0.00017690,0.00020197,-0.00087638,-0.00094407,-0.00175725,
 0.00532999,-0.00237132,0.08786015,0.00037092,-0.00017985,0.00086395,-0
 .00089128,-0.00059685,0.00020332,0.00246087,-0.08754612,-0.25899867,0.
 00176300,-0.00231571,-0.00855867,-0.00131427,0.00009601,0.00112869,-0.
 00023391,0.00044572,0.00011152,-0.00031447,-0.00035514,-0.00099863,-0.
 00419352,0.10016304,0.28342422,0.00001848,0.00153425,-0.00215786,0.008
 85777,-0.01215931,0.01591818,-0.08201103,0.06472700,-0.05673922,-0.005
 68058,0.01925936,-0.01988279,0.00035661,0.00115942,0.00009068,-0.00561
 963,0.00118309,0.00225427,-0.00146569,-0.00245977,-0.00256449,0.000352
 68,0.00009882,-0.00021877,0.08302058,0.00045315,0.00348375,-0.00264402
 ,0.01068335,-0.01892081,0.01685002,0.06497149,-0.17491421,0.12191033,0
 .00024215,-0.00482502,0.00319870,0.00012705,0.00007710,-0.00027956,0.0
 0038086,-0.00125376,-0.00077747,-0.00061277,-0.00302193,-0.00166746,-0
 .00455214,0.01035736,-0.00856086,-0.07230849,0.19039438,0.00138271,0.0
 0003955,0.00044761,-0.00116089,-0.00384151,0.00039359,-0.05772355,0.12
 131960,-0.15275800,0.00297537,-0.00762001,0.00577645,-0.00030905,-0.00
 004228,-0.00019356,0.00159392,-0.00121553,0.00020751,0.00035178,-0.000
 79165,-0.00016717,-0.00984685,0.02187805,-0.01931523,0.06311883,-0.128
 56295,0.16368772,-0.00051899,-0.00047166,-0.00037566,0.00084724,0.0016
 3874,0.00077733,-0.00490718,0.00433354,0.03070660,-0.05111171,-0.00010
 941,0.01819733,0.00060164,-0.00356009,-0.02678236,-0.00009388,0.000769
 91,-0.00269121,0.00007974,-0.00007231,0.00048574,-0.00561624,0.0009069
 8,0.00174064,0.00181798,-0.00008323,-0.00048367,0.05982162,0.00016792,
 0.00036341,0.00016605,-0.00008546,-0.00092790,-0.00026291,0.00288782,-
 0.00177082,-0.01342236,-0.00027153,-0.05062865,-0.02180171,0.00014351,
 -0.00263806,-0.02102784,-0.00148825,-0.00001017,0.03300255,0.00079294,
 0.00114504,-0.00029060,0.00299095,0.00001097,-0.00099381,-0.00073547,0
 .00022071,-0.00015065,-0.00122506,0.05918132,0.00060037,0.00032744,0.0
 0015460,0.00007178,-0.00088413,-0.00044347,0.00102294,-0.00059886,-0.0
 0641106,0.01818710,-0.02254830,-0.29283710,-0.00007309,-0.00161017,-0.
 01123134,0.00024794,0.00013164,-0.01443466,-0.00025323,-0.00024532,0.0
 0022394,0.00118656,-0.00010257,0.00106933,0.00027306,-0.00022711,0.001
 09210,-0.01928860,0.02361231,0.31902001,-0.00110556,-0.00115838,-0.000
 05126,-0.00026612,0.00271251,0.00020220,-0.00193220,-0.00504091,-0.002
 20122,-0.02209066,0.01092148,0.00645586,-0.25206162,0.09535605,0.05204
 797,0.00106081,0.00106765,0.00025728,0.00000289,-0.00027568,-0.0003038
 9,0.00051351,-0.00010427,-0.00012574,-0.00026851,0.00007775,-0.0000718
 3,0.00087252,0.00019717,-0.00042605,0.27562764,-0.00004561,-0.00059646
 ,-0.00005565,-0.00141875,0.00111408,0.00018288,-0.00229699,-0.00213143
 ,-0.00141698,-0.01883361,0.00903738,0.00584538,0.09594150,-0.09451770,
 -0.02439827,-0.00001907,0.00134280,0.00041938,0.00024771,0.00006168,-0
 .00015692,0.00008906,-0.00018778,0.00008779,-0.00043379,0.00000711,-0.
 00007382,0.00086889,0.00062904,0.00028633,-0.10325471,0.09919937,-0.00
 031579,-0.00030163,-0.00014367,-0.00047200,0.00059571,0.00058998,-0.00
 107622,-0.00215591,-0.00010351,-0.01090165,0.00559721,0.00187900,0.052
 20416,-0.02419565,-0.06347529,0.00036092,0.00013692,0.00019044,0.00003
 199,0.00019832,-0.00025978,-0.00021249,0.00013648,0.00035496,0.0002647
 4,0.00007777,0.00006953,0.00024178,0.00068749,0.00039732,-0.05626247,0
 .02791114,0.06324851,0.00018321,0.00014983,-0.00002650,0.00014561,-0.0
 0032277,0.00013287,0.00194412,0.00002768,-0.00148351,-0.00002037,-0.00
 328479,-0.02655463,-0.05017017,0.00227940,0.01477183,0.00058268,0.0012
 7960,-0.00033053,0.00000581,0.00021613,-0.00006770,-0.00019823,0.00037
 733,0.00082151,-0.00000399,0.00000455,0.00012785,-0.00359464,-0.003415
 53,-0.00190513,-0.00038622,0.00204215,0.02980628,0.05211620,0.00002453
 ,-0.00008102,-0.00002913,0.00024257,0.00019432,0.00001430,0.00095801,0
 .00016866,0.00054579,0.00089450,-0.00371551,-0.02051426,0.00213412,-0.
 05290514,-0.02849079,0.00062808,0.00124723,-0.00194491,-0.00014637,0.0
 0002239,0.00024427,-0.00015423,0.00034319,0.00034821,0.00003559,0.0000
 6141,0.00008334,-0.00332680,-0.00191129,-0.00126851,0.00011095,-0.0021
 3843,-0.01413586,0.00073846,0.05373823,-0.00008648,-0.00002739,-0.0000
 5548,-0.00000220,-0.00000293,0.00032777,0.00092612,0.00028501,0.000798
 52,0.00006734,-0.00183554,-0.01239710,0.01430875,-0.02888906,-0.303378
 06,0.00036982,0.00089418,0.00048742,-0.00002021,0.00011016,0.00039416,
 -0.00101125,0.00026014,0.00041202,0.00008581,0.00001690,0.00008301,-0.
 00217183,-0.00152411,0.00083681,0.00050411,-0.00032720,-0.00600154,-0.
 01409818,0.03353454,0.33072511,0.00007906,0.00035522,0.00000494,0.0002
 2355,-0.00093517,-0.00006428,0.00168644,0.00044015,0.00047147,0.001382
 48,-0.02407728,0.01280817,-0.04981074,0.01157008,-0.00504380,-0.003725
 71,-0.00151431,-0.00244723,0.00007441,-0.00119516,0.00066539,-0.000123
 80,0.00001115,0.00016517,-0.00025264,0.00012153,-0.00022392,0.00091910
 ,0.00087997,0.00005373,-0.00024032,0.02667587,-0.01401112,-0.00090857,
 -0.00219424,0.00111662,0.05138055,-0.00017376,0.00033081,-0.00000627,0
 .00002458,-0.00096084,-0.00012885,0.00090694,0.00115497,-0.00010549,0.
 00168295,-0.01704556,0.00828022,0.01104615,-0.26305331,0.10138729,-0.0
 0384989,-0.00004862,-0.00245099,0.00045971,-0.00072031,0.00086066,-0.0
 0021045,0.00000661,0.00007033,-0.00066289,0.00012947,0.00001324,0.0004
 0369,0.00046333,-0.00044401,0.00059285,-0.01169236,0.00561731,-0.00007
 380,0.00518847,-0.00178011,-0.00976777,0.28590467,-0.00001175,0.000057
 00,0.00000907,0.00025663,-0.00018302,-0.00011186,0.00029458,0.00014250
 ,0.00018472,0.00121041,-0.01204784,0.00480490,-0.00474298,0.10164292,-
 0.09806435,-0.00200506,-0.00066081,-0.00070593,-0.00021891,-0.00055147
 ,0.00081433,-0.00002350,0.00018403,-0.00017027,0.00006738,0.00014026,0
 .00009148,0.00074604,0.00011212,0.00066046,-0.00025105,-0.00821889,0.0
 0320189,-0.00203643,0.03049316,-0.01298551,0.00685350,-0.11102540,0.10
 181499,-0.00213280,0.00230491,0.00006788,-0.00343598,-0.00506086,-0.00
 055604,0.00064802,-0.00012793,-0.00005923,0.00118062,-0.00126264,-0.00
 188815,0.00058737,0.00011710,-0.00024031,-0.18523860,0.10859813,0.0746
 5978,-0.01810737,0.01725348,0.00977369,0.00009511,0.00012564,0.0000117
 3,0.00014492,-0.00002657,0.00014772,0.00031631,0.00024444,-0.00040030,
 0.00012589,0.00025677,0.00014764,0.00002830,-0.00005582,0.00002453,0.0
 0002175,0.00012017,0.00005419,0.20032230,-0.00101245,0.00175309,-0.000
 00265,-0.00185921,-0.00387339,-0.00017143,-0.00078912,-0.00453833,0.00
 380213,0.02177023,-0.01538368,-0.01307668,0.00114903,0.00059624,-0.000
 07537,0.10948874,-0.13488467,-0.06038718,-0.01110579,0.00993256,0.0055
 0069,-0.00011813,0.00006792,-0.00016453,0.00165209,-0.00031971,-0.0004
 8328,-0.00029109,0.00176676,0.00010356,-0.00093774,-0.00010061,-0.0000
 3211,-0.00001078,-0.00001063,0.00010718,-0.00047379,0.00012321,0.00027
 535,-0.11911507,0.14519405,-0.00054272,0.00022882,0.00005467,-0.002329
 76,0.00067901,-0.00011959,-0.00003732,0.00237282,-0.00064936,-0.011093
 00,0.00887188,0.00470232,-0.00012454,-0.00052528,-0.00023266,0.0764751
 3,-0.06215412,-0.09173652,-0.00511068,0.00453863,0.00206301,-0.0003652
 3,0.00028106,0.00018502,-0.00060685,0.00036935,0.00035173,-0.00039179,
 -0.00054931,0.00102189,0.00004029,-0.00022528,0.00015065,0.00010163,0.
 00009248,0.00007054,-0.00010111,-0.00005978,0.00000756,-0.08017164,0.0
 6492890,0.09565223,-0.00052387,0.00058157,0.00046726,0.00053895,-0.001
 80396,-0.00089014,0.00009270,-0.00000086,-0.00067591,-0.00040650,-0.00
 059143,0.00200180,0.00041586,0.00000537,0.00079255,-0.05656692,0.00123
 294,-0.03575164,-0.00553782,-0.00315040,-0.03040183,0.00007528,0.00032
 975,0.00002410,0.00004026,0.00007011,0.00016980,0.00045379,-0.00092116
 ,0.00009999,-0.00003854,0.00005286,0.00016928,0.00022994,-0.00003810,-
 0.00009766,-0.00013443,0.00008049,-0.00005256,0.00443684,0.00078352,0.
 02408714,0.06039152,-0.00020251,0.00041291,0.00016376,0.00012337,-0.00
 111336,-0.00026212,-0.00084427,0.00123022,-0.00008448,0.00320690,0.000
 58811,0.03221877,0.00060730,0.00223425,0.00111145,0.00152695,-0.050287
 50,-0.01713919,-0.00318263,-0.00184058,-0.01348618,0.00027951,-0.00026
 247,-0.00031743,-0.00012545,-0.00001886,-0.00031482,0.00056281,-0.0056
 0652,0.00272707,-0.00018281,-0.00005443,-0.00009378,-0.00011616,-0.000
 24380,-0.00086943,0.00031219,0.00029856,-0.00025108,-0.00335111,-0.000
 78927,-0.01929244,0.00414062,0.05492973,-0.00047227,0.00026220,0.00009
 936,0.00000402,-0.00067881,-0.00033367,0.00032757,-0.00023834,0.000257
 26,-0.00069040,0.00026588,-0.01520500,-0.00052049,-0.00142312,0.000773
 41,-0.03615947,-0.01793161,-0.29570644,-0.00050343,-0.00040029,-0.0035
 5911,-0.00049265,0.00042478,0.00032821,-0.00007752,0.00021035,0.000268
 91,-0.00056687,0.00297435,0.00032419,0.00014782,0.00010490,-0.00008898
 ,0.00057818,0.00083607,0.00070463,-0.00005989,-0.00003450,0.00052335,-
 0.00146009,-0.00087423,-0.01259504,0.04103719,0.01653657,0.32190565,-0
 .00094914,0.00020645,-0.00369531,0.00029900,0.00687785,0.02157658,-0.0
 0058112,0.00096558,-0.00256961,0.00035427,0.00115746,-0.00041395,-0.00
 007809,-0.00035345,0.00015262,-0.00283078,-0.01289665,-0.03090020,-0.0
 4421888,-0.00457492,-0.00675497,-0.00047771,-0.00044615,0.00008489,0.0
 0055227,0.00040049,-0.00001712,0.00007361,-0.00035784,0.00049963,0.000
 05076,0.00002468,-0.00002326,0.00005655,0.00016473,0.00021917,-0.00010
 059,-0.00009058,0.00011716,0.00203845,0.00105891,-0.00000457,-0.005445
 93,-0.00344867,-0.00079163,0.05054271,-0.00005275,0.00098907,0.0030903
 4,-0.00087190,-0.01217572,-0.02666027,0.00116363,-0.00195486,0.0052763
 3,0.00010228,0.00012612,-0.00088376,-0.00020139,-0.00010572,0.00025742
 ,0.00009590,-0.00312442,-0.00724897,-0.00644163,-0.08948862,-0.1024354
 1,0.00043742,0.00102081,-0.00017565,-0.00070917,-0.00093688,-0.0001559
 5,-0.00029988,-0.00029794,0.00050231,-0.00002595,0.00000307,-0.0000408
 9,0.00007875,0.00006097,0.00008120,-0.00002317,0.00000413,0.00001749,0
 .00013358,0.00065769,0.00056418,-0.00079377,0.00022353,0.00016502,0.00
 672927,0.09419759,-0.00020777,-0.00009910,0.00102421,0.00068430,-0.000
 52992,0.00006887,0.00033904,-0.00029489,-0.00098501,0.00018938,0.00029
 931,-0.00005868,0.00005297,-0.00016969,0.00029908,-0.00120436,-0.00110
 500,-0.00510044,-0.01138235,-0.09449191,-0.25770060,-0.00006903,-0.000
 15927,-0.00003669,0.00013320,-0.00000718,-0.00001307,-0.00001506,-0.00
 025474,0.00025618,0.00002005,0.00002561,-0.00001057,0.00008820,0.00012
 879,0.00000253,-0.00005262,-0.00007294,-0.00000914,-0.00014819,0.00030
 668,0.00103727,-0.00133250,-0.00053555,0.00119150,0.01331743,0.1065500
 5,0.28021933,-0.00011488,-0.00138787,0.00226766,0.00832239,0.01139975,
 -0.01646755,-0.00125934,0.00219609,0.00246350,-0.00597337,-0.00048323,
 -0.00210413,0.00071254,-0.00148922,0.00098011,-0.00526184,-0.01925415,
 0.02007858,-0.07840165,-0.05967959,0.05656614,0.00052802,0.00067900,-0
 .00015088,0.00014051,0.00005073,-0.00003111,0.00003909,0.00019560,0.00
 010332,0.00013575,0.00010305,0.00004822,-0.00001024,-0.00001598,-0.000
 13446,-0.00047055,-0.00048841,-0.00025765,-0.00103112,-0.00018934,0.00
 017503,0.00197888,0.00069397,-0.00030006,0.00071462,0.00067876,-0.0004
 1269,0.07995117,-0.00050641,0.00341707,-0.00274215,-0.01009469,-0.0189
 1220,0.01793487,0.00078229,-0.00287367,-0.00184813,-0.00033710,-0.0011
 0188,-0.00074753,0.00018226,-0.00022321,0.00054539,-0.00040783,-0.0043
 2489,0.00344544,-0.06033921,-0.16759936,0.12451276,-0.00040965,-0.0009
 6006,-0.00000519,-0.00005528,-0.00052012,-0.00008134,-0.00004502,0.000
 01078,0.00023834,-0.00005597,0.00002467,-0.00000252,0.00002996,-0.0000
 1906,-0.00003355,-0.00018527,-0.00008322,-0.00012633,-0.00015423,-0.00
 019123,-0.00012092,0.00002246,0.00029947,-0.00019923,0.00458285,0.0108
 0118,-0.00959026,0.06699085,0.18225571,-0.00133003,0.00002663,0.000530
 66,0.00094445,-0.00361613,0.00064264,-0.00029977,-0.00077273,-0.000395
 39,-0.00149440,-0.00105214,0.00007967,-0.00008058,-0.00044101,0.000441
 68,-0.00215287,-0.00715142,0.00566513,0.05779219,0.12352347,-0.1636709
 1,-0.00001813,-0.00019292,-0.00000309,0.00004134,-0.00004708,-0.000022
 60,-0.00012841,-0.00027682,0.00030080,0.00001793,0.00000958,0.00000106
 ,0.00007427,0.00006251,-0.00002482,-0.00013502,-0.00012067,-0.00006569
 ,0.00003680,0.00024296,0.00003628,0.00035313,-0.00011111,0.00111177,0.
 00920313,0.02109655,-0.02018476,-0.06282401,-0.13117966,0.17555757\\0.
 00002391,-0.00002482,-0.00003591,0.00000405,0.00007298,0.00002049,-0.0
 0007743,-0.00001103,-0.00006867,0.00002061,0.00001266,0.00001261,-0.00
 000813,0.00000162,-0.00000146,0.00002636,0.00000485,0.00002865,-0.0000
 2609,-0.00001174,-0.00005566,0.00003601,-0.00001943,0.00003415,-0.0000
 0076,-0.00000181,0.00002230,-0.00000776,-0.00000616,-0.00000211,0.0000
 0222,-0.00000311,-0.00000261,0.00000064,-0.00000502,0.00000537,0.00000
 015,0.00000162,-0.00000282,0.00000317,-0.00000259,-0.00000245,0.000008
 36,-0.00000989,-0.00000176,-0.00001241,-0.00000624,0.00002427,0.000007
 11,0.00000811,0.00002561\\\@


 SUCCESS-- IF YOU HAVE TRIED TO DO SOMETHING AND FAILED
           YOU ARE BETTER OFF THAN IF YOU HAD TRIED TO DO
           NOTHING AND SUCCEEDED.

                   -- FROM THE BACK OF A SUGAR PACKET
 Job cpu time:       0 days  0 hours  0 minutes 42.7 seconds.
 Elapsed time:       0 days  0 hours  0 minutes 42.9 seconds.
 File lengths (MBytes):  RWF=     36 Int=      0 D2E=      0 Chk=      4 Scr=      1
 Normal termination of Gaussian 16 at Wed Feb 21 18:10:05 2024.
