 Entering Gaussian System, Link 0=g16
 Input=/Volumes/SSD-PMU3/b3lyp_6-31gd_freq/RPVKHYZQRSNSGD-SECBINFHSA-N_calculating/gaussianinput0.gjf
 Output=/Volumes/SSD-PMU3/b3lyp_6-31gd_freq/RPVKHYZQRSNSGD-SECBINFHSA-N_calculating/gaussianinput0.log
 Initial command:
 /Applications/g16/l1.exe "/Users/macmini_m1_2022/PycharmProjects/sphere_model/sphere_model_lib/Gau-54821.inp" -scrdir="/Users/macmini_m1_2022/PycharmProjects/sphere_model/sphere_model_lib/"
 Entering Link 1 = /Applications/g16/l1.exe PID=     54822.
  
 Copyright (c) 1988,1990,1992,1993,1995,1998,2003,2009,2016,
            Gaussian, Inc.  All Rights Reserved.
  
 This is part of the Gaussian(R) 16 program.  It is based on
 the Gaussian(R) 09 system (copyright 2009, Gaussian, Inc.),
 the Gaussian(R) 03 system (copyright 2003, Gaussian, Inc.),
 the Gaussian(R) 98 system (copyright 1998, Gaussian, Inc.),
 the Gaussian(R) 94 system (copyright 1995, Gaussian, Inc.),
 the Gaussian 92(TM) system (copyright 1992, Gaussian, Inc.),
 the Gaussian 90(TM) system (copyright 1990, Gaussian, Inc.),
 the Gaussian 88(TM) system (copyright 1988, Gaussian, Inc.),
 the Gaussian 86(TM) system (copyright 1986, Carnegie Mellon
 University), and the Gaussian 82(TM) system (copyright 1983,
 Carnegie Mellon University). Gaussian is a federally registered
 trademark of Gaussian, Inc.
  
 This software contains proprietary and confidential information,
 including trade secrets, belonging to Gaussian, Inc.
  
 This software is provided under written license and may be
 used, copied, transmitted, or stored only in accord with that
 written license.
  
 The following legend is applicable only to US Government
 contracts under FAR:
  
                    RESTRICTED RIGHTS LEGEND
  
 Use, reproduction and disclosure by the US Government is
 subject to restrictions as set forth in subparagraphs (a)
 and (c) of the Commercial Computer Software - Restricted
 Rights clause in FAR 52.227-19.
  
 Gaussian, Inc.
 340 Quinnipiac St., Bldg. 40, Wallingford CT 06492
  
  
 ---------------------------------------------------------------
 Warning -- This program may not be used in any manner that
 competes with the business of Gaussian, Inc. or will provide
 assistance to any competitor of Gaussian, Inc.  The licensee
 of this program is prohibited from giving any competitor of
 Gaussian, Inc. access to this program.  By using this program,
 the user acknowledges that Gaussian, Inc. is engaged in the
 business of creating and licensing software in the field of
 computational chemistry and represents and warrants to the
 licensee that it is not a competitor of Gaussian, Inc. and that
 it will not use this program in any manner prohibited above.
 ---------------------------------------------------------------
  

 Cite this work as:
 Gaussian 16, Revision A.03,
 M. J. Frisch, G. W. Trucks, H. B. Schlegel, G. E. Scuseria, 
 M. A. Robb, J. R. Cheeseman, G. Scalmani, V. Barone, 
 G. A. Petersson, H. Nakatsuji, X. Li, M. Caricato, A. V. Marenich, 
 J. Bloino, B. G. Janesko, R. Gomperts, B. Mennucci, H. P. Hratchian, 
 J. V. Ortiz, A. F. Izmaylov, J. L. Sonnenberg, D. Williams-Young, 
 F. Ding, F. Lipparini, F. Egidi, J. Goings, B. Peng, A. Petrone, 
 T. Henderson, D. Ranasinghe, V. G. Zakrzewski, J. Gao, N. Rega, 
 G. Zheng, W. Liang, M. Hada, M. Ehara, K. Toyota, R. Fukuda, 
 J. Hasegawa, M. Ishida, T. Nakajima, Y. Honda, O. Kitao, H. Nakai, 
 T. Vreven, K. Throssell, J. A. Montgomery, Jr., J. E. Peralta, 
 F. Ogliaro, M. J. Bearpark, J. J. Heyd, E. N. Brothers, K. N. Kudin, 
 V. N. Staroverov, T. A. Keith, R. Kobayashi, J. Normand, 
 K. Raghavachari, A. P. Rendell, J. C. Burant, S. S. Iyengar, 
 J. Tomasi, M. Cossi, J. M. Millam, M. Klene, C. Adamo, R. Cammi, 
 J. W. Ochterski, R. L. Martin, K. Morokuma, O. Farkas, 
 J. B. Foresman, and D. J. Fox, Gaussian, Inc., Wallingford CT, 2016.
 
 ******************************************
 Gaussian 16:  EM64M-G16RevA.03 25-Dec-2016
                21-Feb-2024 
 ******************************************
 %nprocshared=8
 Will use up to    8 processors via shared memory.
 %mem=4GB
 %chk= 0.chk
 ---------------------
 # freq b3lyp/6-31g(d)
 ---------------------
 1/10=4,30=1,38=1/1,3;
 2/12=2,17=6,18=5,40=1/2;
 3/5=1,6=6,7=1,11=2,25=1,30=1,71=2,74=-5,140=1/1,2,3;
 4//1;
 5/5=2,38=5,98=1/2;
 8/6=4,10=90,11=11/1;
 11/6=1,8=1,9=11,15=111,16=1/1,2,10;
 10/6=1/2;
 6/7=2,8=2,9=2,10=2,28=1/1;
 7/8=1,10=1,25=1/1,2,3,16;
 1/10=4,30=1/3;
 99//99;
 ---------
 good luck
 ---------
 Symbolic Z-matrix:
 Charge =  0 Multiplicity = 1
 O                     1.20685   0.        0. 
 C                     0.        0.        0. 
 C                    -1.05701  -1.11053  -0.03341 
 C                    -2.15007  -0.00466  -0.11341 
 C                    -1.06001   1.13036  -0.03341 
 C                    -1.08309   2.02484   1.25819 
 C                    -2.37293   2.86883   1.30001 
 C                    -1.02814   1.14717   2.52979 
 C                     0.14439   2.96161   1.28023 
 C                    -0.94413   1.92813  -1.34426 
 H                    -1.0696   -1.71339   0.88222 
 H                    -0.97375  -1.79165  -0.88736 
 H                    -2.70602   0.00062  -1.05501 
 H                    -2.86992  -0.02189   0.70738 
 H                    -3.2714    2.24084   1.28149 
 H                    -2.43278   3.56882   0.45977 
 H                    -2.40414   3.46212   2.22197 
 H                    -0.10464   0.55858   2.57462 
 H                    -1.05349   1.78286   3.42235 
 H                    -1.87761   0.45852   2.60025 
 H                     0.19031   3.49639   2.23651 
 H                     1.07422   2.39611   1.15959 
 H                     0.09878   3.71589   0.48792 
 H                    -1.78953   2.61333  -1.47059 
 H                    -0.01708   2.50618  -1.38361 
 H                    -0.94168   1.25015  -2.20591 
 

 GradGradGradGradGradGradGradGradGradGradGradGradGradGradGradGradGradGrad
 Berny optimization.
 Initialization pass.
 Trust Radius=3.00D-01 FncErr=1.00D-07 GrdErr=1.00D-07 EigMax=2.50D+02 EigMin=1.00D-04
 Number of steps in this run=      2 maximum allowed number of steps=      2.
 GradGradGradGradGradGradGradGradGradGradGradGradGradGradGradGradGradGrad

                          Input orientation:                          
 ---------------------------------------------------------------------
 Center     Atomic      Atomic             Coordinates (Angstroms)
 Number     Number       Type             X           Y           Z
 ---------------------------------------------------------------------
      1          8           0        1.206849    0.000000    0.000000
      2          6           0        0.000000    0.000000    0.000000
      3          6           0       -1.057013   -1.110529   -0.033407
      4          6           0       -2.150072   -0.004662   -0.113414
      5          6           0       -1.060006    1.130357   -0.033407
      6          6           0       -1.083090    2.024844    1.258186
      7          6           0       -2.372926    2.868828    1.300006
      8          6           0       -1.028144    1.147173    2.529786
      9          6           0        0.144394    2.961608    1.280227
     10          6           0       -0.944129    1.928132   -1.344262
     11          1           0       -1.069601   -1.713386    0.882222
     12          1           0       -0.973753   -1.791647   -0.887361
     13          1           0       -2.706023    0.000621   -1.055013
     14          1           0       -2.869924   -0.021889    0.707382
     15          1           0       -3.271400    2.240842    1.281492
     16          1           0       -2.432782    3.568824    0.459770
     17          1           0       -2.404141    3.462116    2.221968
     18          1           0       -0.104639    0.558584    2.574618
     19          1           0       -1.053486    1.782857    3.422350
     20          1           0       -1.877612    0.458520    2.600253
     21          1           0        0.190314    3.496392    2.236513
     22          1           0        1.074216    2.396106    1.159588
     23          1           0        0.098777    3.715887    0.487922
     24          1           0       -1.789525    2.613333   -1.470593
     25          1           0       -0.017080    2.506177   -1.383610
     26          1           0       -0.941680    1.250145   -2.205907
 ---------------------------------------------------------------------
                    Distance matrix (angstroms):
                    1          2          3          4          5
     1  O    0.000000
     2  C    1.206849   0.000000
     3  C    2.521797   1.533515   0.000000
     4  C    3.358840   2.153066   1.556959   0.000000
     5  C    2.533270   1.549979   2.240888   1.575726   0.000000
     6  C    3.305578   2.618417   3.391085   2.671822   1.571258
     7  C    4.768121   3.943472   4.398284   3.210041   2.554218
     8  C    3.565251   2.961909   3.415847   3.093857   2.563446
     9  C    3.396898   3.229699   4.444245   4.000696   2.555327
    10  C    3.186132   2.533005   3.311275   2.589397   1.538900
    11  H    2.982655   2.204099   1.096345   2.253541   2.987531
    12  H    2.958451   2.223871   1.095487   2.275090   3.045453
    13  H    4.052607   2.904413   2.235524   1.093489   2.242622
    14  H    4.137747   2.955898   2.240659   1.091874   2.269855
    15  H    5.168976   4.167212   4.226601   2.871485   2.802213
    16  H    5.118086   4.343538   4.902276   3.630188   2.841454
    17  H    5.473814   4.764796   5.273571   4.187733   3.511483
    18  H    2.942902   2.636593   3.239560   3.424406   2.835744
    19  H    4.472155   4.000111   4.507100   4.110882   3.516825
    20  H    4.060229   3.239905   3.173557   2.766362   2.838311
    21  H    4.273183   4.154873   5.285081   4.822545   3.509125
    22  H    2.665250   2.870524   4.273390   4.216664   2.753227
    23  H    3.908159   3.749085   4.990183   4.388782   2.880890
    24  H    4.239152   3.492070   4.058229   2.970829   2.190187
    25  H    3.113407   2.862794   3.998133   3.530916   2.191717
    26  H    3.323412   2.704746   3.210271   2.722734   2.179015
                    6          7          8          9         10
     6  C    0.000000
     7  C    1.541991   0.000000
     8  C    1.546057   2.506969   0.000000
     9  C    1.544257   2.519107   2.495680   0.000000
    10  C    2.607949   3.149369   3.952873   3.023392   0.000000
    11  H    3.757113   4.782247   3.301361   4.846417   4.270085
    12  H    4.379604   5.335006   4.507384   5.342483   3.747852
    13  H    3.475957   3.726081   4.120758   4.727120   2.627401
    14  H    2.772233   2.992400   2.842537   4.279663   3.423523
    15  H    2.199068   1.096342   2.790439   3.491010   3.522579
    16  H    2.200684   1.095251   3.481719   2.771948   2.857007
    17  H    2.177109   1.096804   2.710550   2.762683   4.147618
    18  H    2.200063   3.479510   1.096042   2.740801   4.235331
    19  H    2.177852   2.724812   1.096087   2.722694   4.770079
    20  H    2.210380   2.783085   1.095812   3.477992   4.311653
    21  H    2.178104   2.800193   2.662608   1.096625   4.070424
    22  H    2.191239   3.482237   2.803069   1.094950   3.249920
    23  H    2.202213   2.736111   3.469503   1.094881   2.764167
    24  H    2.879515   2.842860   4.328089   3.380584   1.095516
    25  H    2.889143   3.589334   4.264248   2.707308   1.093208
    26  H    3.552477   4.118255   4.737601   4.032591   1.096405
                   11         12         13         14         15
    11  H    0.000000
    12  H    1.773904   0.000000
    13  H    3.060813   2.498218   0.000000
    14  H    2.476468   3.044785   1.770143   0.000000
    15  H    4.543485   5.122897   3.285954   2.368699   0.000000
    16  H    5.471606   5.716483   3.886039   3.625690   1.772581
    17  H    5.510149   6.270244   4.776158   3.827429   1.768656
    18  H    2.992859   4.273669   4.500305   3.386786   3.811895
    19  H    4.321600   5.599736   5.094509   3.731971   3.116435
    20  H    2.884734   4.247783   3.775832   2.190533   2.618864
    21  H    5.528406   6.251160   5.607435   4.907301   3.804200
    22  H    4.643362   5.091311   4.993297   4.648379   4.350097
    23  H    5.567547   5.777080   4.904157   4.778317   3.763456
    24  H    4.977402   4.517687   2.799811   3.585419   3.147805
    25  H    4.903724   4.430889   3.690014   4.347653   4.214709
    26  H    4.281988   3.315432   2.449239   3.717990   4.309412
                   16         17         18         19         20
    16  H    0.000000
    17  H    1.765658   0.000000
    18  H    4.353662   3.720560   0.000000
    19  H    3.724113   2.466799   1.765731   0.000000
    20  H    3.816264   3.072771   1.775980   1.763206   0.000000
    21  H    3.169021   2.594722   2.971873   2.426819   3.692870
    22  H    3.763515   3.789986   2.601633   3.165957   3.813534
    23  H    2.535983   3.055473   3.790019   3.697997   4.356432
    24  H    2.247898   3.838384   4.839893   5.017204   4.606817
    25  H    3.219143   4.428552   4.412296   4.969364   4.850324
    26  H    3.834774   5.161171   4.902276   5.654517   4.960021
                   21         22         23         24         25
    21  H    0.000000
    22  H    1.775297   0.000000
    23  H    1.764689   1.773256   0.000000
    24  H    4.294437   3.894362   2.935488   0.000000
    25  H    3.758833   2.769639   2.231469   1.777810   0.000000
    26  H    5.105108   4.087006   3.797255   1.765732   1.763143
                   26
    26  H    0.000000
 Stoichiometry    C9H16O
 Framework group  C1[X(C9H16O)]
 Deg. of freedom    72
 Full point group                 C1      NOp   1
 Largest Abelian subgroup         C1      NOp   1
 Largest concise Abelian subgroup C1      NOp   1
                         Standard orientation:                         
 ---------------------------------------------------------------------
 Center     Atomic      Atomic             Coordinates (Angstroms)
 Number     Number       Type             X           Y           Z
 ---------------------------------------------------------------------
      1          8           0       -1.687532    1.749671    0.049107
      2          6           0       -1.419825    0.579335   -0.073909
      3          6           0       -2.139008   -0.606351   -0.728577
      4          6           0       -1.002197   -1.529122   -0.199166
      5          6           0       -0.246924   -0.298623    0.431983
      6          6           0        1.143790    0.062528   -0.203893
      7          6           0        2.162688   -1.062887    0.066332
      8          6           0        1.011643    0.249675   -1.732881
      9          6           0        1.672943    1.387157    0.387788
     10          6           0       -0.239271   -0.339079    1.970332
     11          1           0       -2.198015   -0.518132   -1.819773
     12          1           0       -3.149305   -0.791627   -0.347705
     13          1           0       -1.334137   -2.256732    0.546567
     14          1           0       -0.456316   -2.064645   -0.978537
     15          1           0        1.822900   -2.024949   -0.334848
     16          1           0        2.356565   -1.192743    1.136437
     17          1           0        3.120512   -0.825650   -0.412491
     18          1           0        0.331878    1.072658   -1.981733
     19          1           0        1.989595    0.492577   -2.164176
     20          1           0        0.653222   -0.655393   -2.236062
     21          1           0        2.581034    1.697983   -0.142631
     22          1           0        0.930474    2.186215    0.292068
     23          1           0        1.932880    1.288265    1.446758
     24          1           0        0.464922   -1.089301    2.346408
     25          1           0        0.023776    0.632143    2.397693
     26          1           0       -1.232755   -0.603832    2.351121
 ---------------------------------------------------------------------
 Rotational constants (GHZ):           1.7555702           1.1423577           1.0900531
 Standard basis: 6-31G(d) (6D, 7F)
 There are   182 symmetry adapted cartesian basis functions of A   symmetry.
 There are   182 symmetry adapted basis functions of A   symmetry.
   182 basis functions,   344 primitive gaussians,   182 cartesian basis functions
    39 alpha electrons       39 beta electrons
       nuclear repulsion energy       582.6198191314 Hartrees.
 NAtoms=   26 NActive=   26 NUniq=   26 SFac= 1.00D+00 NAtFMM=   60 NAOKFM=F Big=F
 Integral buffers will be    131072 words long.
 Raffenetti 2 integral format.
 Two-electron integral symmetry is turned on.
 One-electron integrals computed using PRISM.
 NBasis=   182 RedAO= T EigKep=  1.47D-03  NBF=   182
 NBsUse=   182 1.00D-06 EigRej= -1.00D+00 NBFU=   182
 ExpMin= 1.61D-01 ExpMax= 5.48D+03 ExpMxC= 8.25D+02 IAcc=3 IRadAn=         5 AccDes= 0.00D+00
 Harris functional with IExCor=  402 and IRadAn=       5 diagonalized for initial guess.
 HarFok:  IExCor=  402 AccDes= 0.00D+00 IRadAn=         5 IDoV= 1 UseB2=F ITyADJ=14
 ICtDFT=  3500011 ScaDFX=  1.000000  1.000000  1.000000  1.000000
 FoFCou: FMM=F IPFlag=           0 FMFlag=      100000 FMFlg1=           0
         NFxFlg=           0 DoJE=T BraDBF=F KetDBF=T FulRan=T
         wScrn=  0.000000 ICntrl=       500 IOpCl=  0 I1Cent=   200000004 NGrid=           0
         NMat0=    1 NMatS0=      1 NMatT0=    0 NMatD0=    1 NMtDS0=    0 NMtDT0=    0
 Petite list used in FoFCou.
 Requested convergence on RMS density matrix=1.00D-08 within 128 cycles.
 Requested convergence on MAX density matrix=1.00D-06.
 Requested convergence on             energy=1.00D-06.
 No special actions if energy rises.
 Integral accuracy reduced to 1.0D-05 until final iterations.
 Initial convergence to 1.0D-05 achieved.  Increase integral accuracy.
 SCF Done:  E(RB3LYP) =  -427.795994291     A.U. after   13 cycles
            NFock= 13  Conv=0.88D-08     -V/T= 2.0097
 DoSCS=F DFT=T ScalE2(SS,OS)=  1.000000  1.000000
 Range of M.O.s used for correlation:     1   182
 NBasis=   182 NAE=    39 NBE=    39 NFC=     0 NFV=     0
 NROrb=    182 NOA=    39 NOB=    39 NVA=   143 NVB=   143
 Symmetrizing basis deriv contribution to polar:
 IMax=3 JMax=2 DiffMx= 0.00D+00
 G2DrvN: will do    27 centers at a time, making    1 passes.
 Calling FoFCou, ICntrl=  3107 FMM=F I1Cent=   0 AccDes= 0.00D+00.
 End of G2Drv F.D. properties file   721 does not exist.
 End of G2Drv F.D. properties file   722 does not exist.
 End of G2Drv F.D. properties file   788 does not exist.
          IDoAtm=11111111111111111111111111
          Differentiating once with respect to electric field.
                with respect to dipole field.
          Differentiating once with respect to nuclear coordinates.
 Keep R1 ints in memory in canonical form, NReq=146744161.
          There are    81 degrees of freedom in the 1st order CPHF.  IDoFFX=6 NUNeed=     3.
     78 vectors produced by pass  0 Test12= 6.89D-15 1.23D-09 XBig12= 6.65D+01 1.67D+00.
 AX will form    78 AO Fock derivatives at one time.
     78 vectors produced by pass  1 Test12= 6.89D-15 1.23D-09 XBig12= 1.09D+01 6.48D-01.
     78 vectors produced by pass  2 Test12= 6.89D-15 1.23D-09 XBig12= 8.94D-02 3.24D-02.
     78 vectors produced by pass  3 Test12= 6.89D-15 1.23D-09 XBig12= 2.15D-04 1.46D-03.
     78 vectors produced by pass  4 Test12= 6.89D-15 1.23D-09 XBig12= 1.69D-07 6.09D-05.
     35 vectors produced by pass  5 Test12= 6.89D-15 1.23D-09 XBig12= 1.11D-10 1.11D-06.
      3 vectors produced by pass  6 Test12= 6.89D-15 1.23D-09 XBig12= 6.31D-14 3.19D-08.
 InvSVY:  IOpt=1 It=  1 EMax= 5.33D-15
 Solved reduced A of dimension   428 with    81 vectors.
 Isotropic polarizability for W=    0.000000       92.07 Bohr**3.
 End of Minotr F.D. properties file   721 does not exist.
 End of Minotr F.D. properties file   722 does not exist.
 End of Minotr F.D. properties file   788 does not exist.

 **********************************************************************

            Population analysis using the SCF density.

 **********************************************************************

 Orbital symmetries:
       Occupied  (A) (A) (A) (A) (A) (A) (A) (A) (A) (A) (A) (A)
                 (A) (A) (A) (A) (A) (A) (A) (A) (A) (A) (A) (A)
                 (A) (A) (A) (A) (A) (A) (A) (A) (A) (A) (A) (A)
                 (A) (A) (A)
       Virtual   (A) (A) (A) (A) (A) (A) (A) (A) (A) (A) (A) (A)
                 (A) (A) (A) (A) (A) (A) (A) (A) (A) (A) (A) (A)
                 (A) (A) (A) (A) (A) (A) (A) (A) (A) (A) (A) (A)
                 (A) (A) (A) (A) (A) (A) (A) (A) (A) (A) (A) (A)
                 (A) (A) (A) (A) (A) (A) (A) (A) (A) (A) (A) (A)
                 (A) (A) (A) (A) (A) (A) (A) (A) (A) (A) (A) (A)
                 (A) (A) (A) (A) (A) (A) (A) (A) (A) (A) (A) (A)
                 (A) (A) (A) (A) (A) (A) (A) (A) (A) (A) (A) (A)
                 (A) (A) (A) (A) (A) (A) (A) (A) (A) (A) (A) (A)
                 (A) (A) (A) (A) (A) (A) (A) (A) (A) (A) (A) (A)
                 (A) (A) (A) (A) (A) (A) (A) (A) (A) (A) (A) (A)
                 (A) (A) (A) (A) (A) (A) (A) (A) (A) (A) (A)
 The electronic state is 1-A.
 Alpha  occ. eigenvalues --  -19.14288 -10.26831 -10.20515 -10.19970 -10.19166
 Alpha  occ. eigenvalues --  -10.18925 -10.18229 -10.17550 -10.17517 -10.16854
 Alpha  occ. eigenvalues --   -1.03922  -0.85673  -0.79838  -0.72930  -0.68591
 Alpha  occ. eigenvalues --   -0.68055  -0.63803  -0.62427  -0.55976  -0.49036
 Alpha  occ. eigenvalues --   -0.47789  -0.45936  -0.45319  -0.43780  -0.43314
 Alpha  occ. eigenvalues --   -0.42605  -0.39844  -0.39087  -0.38587  -0.37951
 Alpha  occ. eigenvalues --   -0.37349  -0.36053  -0.35580  -0.34492  -0.33913
 Alpha  occ. eigenvalues --   -0.32734  -0.31243  -0.30167  -0.23240
 Alpha virt. eigenvalues --   -0.01897   0.07135   0.10767   0.11291   0.12260
 Alpha virt. eigenvalues --    0.12710   0.13739   0.13806   0.15209   0.15938
 Alpha virt. eigenvalues --    0.17178   0.17512   0.18765   0.19453   0.19873
 Alpha virt. eigenvalues --    0.20579   0.21058   0.21706   0.23439   0.23980
 Alpha virt. eigenvalues --    0.24277   0.25549   0.26341   0.29918   0.31376
 Alpha virt. eigenvalues --    0.32132   0.38620   0.47786   0.49350   0.50447
 Alpha virt. eigenvalues --    0.51057   0.51336   0.54532   0.57782   0.59631
 Alpha virt. eigenvalues --    0.60420   0.61080   0.63394   0.64406   0.67004
 Alpha virt. eigenvalues --    0.67757   0.69145   0.70560   0.71662   0.73671
 Alpha virt. eigenvalues --    0.75795   0.77354   0.80445   0.82271   0.83638
 Alpha virt. eigenvalues --    0.84932   0.85180   0.86065   0.87744   0.88423
 Alpha virt. eigenvalues --    0.89605   0.90312   0.91086   0.91606   0.92565
 Alpha virt. eigenvalues --    0.93045   0.93797   0.94643   0.95524   0.96538
 Alpha virt. eigenvalues --    0.98264   0.99608   1.01234   1.01912   1.02886
 Alpha virt. eigenvalues --    1.05154   1.07165   1.13232   1.15735   1.21792
 Alpha virt. eigenvalues --    1.30185   1.35054   1.36778   1.43582   1.47111
 Alpha virt. eigenvalues --    1.53044   1.53390   1.54680   1.59947   1.61226
 Alpha virt. eigenvalues --    1.66598   1.70722   1.71522   1.73030   1.76043
 Alpha virt. eigenvalues --    1.79633   1.81568   1.83760   1.85761   1.87610
 Alpha virt. eigenvalues --    1.89032   1.90739   1.91635   1.96154   2.00833
 Alpha virt. eigenvalues --    2.02082   2.02788   2.05811   2.06802   2.09602
 Alpha virt. eigenvalues --    2.10336   2.13534   2.15881   2.17637   2.19176
 Alpha virt. eigenvalues --    2.24490   2.25151   2.26878   2.27245   2.27765
 Alpha virt. eigenvalues --    2.29123   2.34323   2.36714   2.41077   2.41708
 Alpha virt. eigenvalues --    2.47068   2.48806   2.53813   2.57013   2.64253
 Alpha virt. eigenvalues --    2.68722   2.73308   2.75479   2.78024   2.82348
 Alpha virt. eigenvalues --    2.85818   3.04126   3.07564   4.06311   4.19599
 Alpha virt. eigenvalues --    4.22086   4.28613   4.32269   4.33045   4.45263
 Alpha virt. eigenvalues --    4.51091   4.70524   4.85311
          Condensed to atoms (all electrons):
               1          2          3          4          5          6
     1  O    7.997906   0.555813  -0.063729   0.009114  -0.070243  -0.000061
     2  C    0.555813   4.598218   0.315759  -0.126821   0.334469  -0.027833
     3  C   -0.063729   0.315759   5.385609   0.307429  -0.252715   0.007842
     4  C    0.009114  -0.126821   0.307429   5.223919   0.338137  -0.032635
     5  C   -0.070243   0.334469  -0.252715   0.338137   5.173669   0.374940
     6  C   -0.000061  -0.027833   0.007842  -0.032635   0.374940   4.730598
     7  C   -0.000031   0.003828  -0.000423  -0.008635  -0.051145   0.381444
     8  C   -0.002255  -0.009540   0.002062  -0.009065  -0.052925   0.385408
     9  C   -0.003386  -0.004923  -0.000221   0.005158  -0.049426   0.378639
    10  C    0.000107  -0.037797   0.013299  -0.048877   0.351743  -0.030754
    11  H    0.000305  -0.015538   0.346115  -0.024917   0.007372  -0.000765
    12  H    0.000416  -0.014544   0.345802  -0.023779   0.008705  -0.000045
    13  H   -0.000168   0.001567  -0.023045   0.356863  -0.022150   0.002240
    14  H   -0.000177   0.002312  -0.021763   0.355037  -0.023781  -0.005821
    15  H    0.000000   0.000042  -0.000039   0.003448  -0.005827  -0.028397
    16  H   -0.000001  -0.000023  -0.000009  -0.000094  -0.006014  -0.027315
    17  H    0.000001  -0.000076   0.000010   0.000090   0.005378  -0.029141
    18  H    0.001850   0.008733  -0.000954  -0.000285  -0.007130  -0.028764
    19  H    0.000011   0.000134   0.000033   0.000029   0.005210  -0.027109
    20  H    0.000053  -0.000258  -0.000867   0.003237  -0.006664  -0.028175
    21  H    0.000056   0.000061   0.000018  -0.000115   0.005238  -0.029298
    22  H    0.010691   0.003067   0.000406   0.000077  -0.008686  -0.026771
    23  H   -0.000025  -0.000040  -0.000015  -0.000041  -0.006725  -0.027442
    24  H   -0.000013   0.004403  -0.000597  -0.004446  -0.029121  -0.005969
    25  H    0.002535  -0.004198  -0.000002   0.005445  -0.029633  -0.006424
    26  H    0.000117  -0.003254   0.002694  -0.005875  -0.032970   0.004603
               7          8          9         10         11         12
     1  O   -0.000031  -0.002255  -0.003386   0.000107   0.000305   0.000416
     2  C    0.003828  -0.009540  -0.004923  -0.037797  -0.015538  -0.014544
     3  C   -0.000423   0.002062  -0.000221   0.013299   0.346115   0.345802
     4  C   -0.008635  -0.009065   0.005158  -0.048877  -0.024917  -0.023779
     5  C   -0.051145  -0.052925  -0.049426   0.351743   0.007372   0.008705
     6  C    0.381444   0.385408   0.378639  -0.030754  -0.000765  -0.000045
     7  C    5.167627  -0.064310  -0.062076  -0.008579   0.000045   0.000004
     8  C   -0.064310   5.200707  -0.065506   0.004983   0.001181  -0.000037
     9  C   -0.062076  -0.065506   5.185737  -0.008956   0.000020   0.000003
    10  C   -0.008579   0.004983  -0.008956   5.132606  -0.000120  -0.000982
    11  H    0.000045   0.001181   0.000020  -0.000120   0.537266  -0.022367
    12  H    0.000004  -0.000037   0.000003  -0.000982  -0.022367   0.537937
    13  H    0.000299   0.000227  -0.000113  -0.007197   0.003120  -0.005483
    14  H    0.000515   0.000196   0.000096   0.003583  -0.006591   0.002791
    15  H    0.365624  -0.004679   0.005694  -0.000149   0.000001   0.000002
    16  H    0.367004   0.005681  -0.005303   0.001686  -0.000000   0.000000
    17  H    0.366112  -0.005583  -0.004046   0.000141  -0.000002  -0.000000
    18  H    0.005728   0.365351  -0.003922   0.000059   0.000183   0.000052
    19  H   -0.005479   0.366464  -0.006131  -0.000123  -0.000030  -0.000001
    20  H   -0.004356   0.362017   0.005816  -0.000043   0.000656   0.000028
    21  H   -0.004574  -0.006452   0.361448   0.000281  -0.000001  -0.000000
    22  H    0.004985  -0.003572   0.364641  -0.000298  -0.000012  -0.000001
    23  H   -0.005311   0.005655   0.366648   0.002051  -0.000000   0.000000
    24  H    0.002862   0.000016  -0.000667   0.368320   0.000007   0.000035
    25  H   -0.000132   0.000007   0.003222   0.369532   0.000007   0.000002
    26  H    0.000041  -0.000110   0.000136   0.369412  -0.000047  -0.000083
              13         14         15         16         17         18
     1  O   -0.000168  -0.000177   0.000000  -0.000001   0.000001   0.001850
     2  C    0.001567   0.002312   0.000042  -0.000023  -0.000076   0.008733
     3  C   -0.023045  -0.021763  -0.000039  -0.000009   0.000010  -0.000954
     4  C    0.356863   0.355037   0.003448  -0.000094   0.000090  -0.000285
     5  C   -0.022150  -0.023781  -0.005827  -0.006014   0.005378  -0.007130
     6  C    0.002240  -0.005821  -0.028397  -0.027315  -0.029141  -0.028764
     7  C    0.000299   0.000515   0.365624   0.367004   0.366112   0.005728
     8  C    0.000227   0.000196  -0.004679   0.005681  -0.005583   0.365351
     9  C   -0.000113   0.000096   0.005694  -0.005303  -0.004046  -0.003922
    10  C   -0.007197   0.003583  -0.000149   0.001686   0.000141   0.000059
    11  H    0.003120  -0.006591   0.000001  -0.000000  -0.000002   0.000183
    12  H   -0.005483   0.002791   0.000002   0.000000  -0.000000   0.000052
    13  H    0.576788  -0.033259  -0.000270  -0.000024   0.000006  -0.000016
    14  H   -0.033259   0.572338   0.003153   0.000034  -0.000133   0.000146
    15  H   -0.000270   0.003153   0.578738  -0.031084  -0.030354  -0.000040
    16  H   -0.000024   0.000034  -0.031084   0.574502  -0.029974  -0.000184
    17  H    0.000006  -0.000133  -0.030354  -0.029974   0.576623  -0.000045
    18  H   -0.000016   0.000146  -0.000040  -0.000184  -0.000045   0.556916
    19  H    0.000001  -0.000141  -0.000116  -0.000034   0.004804  -0.027870
    20  H   -0.000017   0.004169   0.003044  -0.000041  -0.000130  -0.030902
    21  H    0.000002  -0.000005  -0.000088  -0.000162   0.003666  -0.000227
    22  H   -0.000002   0.000006  -0.000176  -0.000017  -0.000001   0.003239
    23  H   -0.000001  -0.000001   0.000008   0.004134  -0.000159  -0.000029
    24  H    0.001822   0.000143   0.000228   0.003728  -0.000150  -0.000004
    25  H    0.000121  -0.000144   0.000021   0.000021  -0.000011  -0.000011
    26  H    0.003308   0.000026  -0.000023  -0.000064   0.000002  -0.000002
              19         20         21         22         23         24
     1  O    0.000011   0.000053   0.000056   0.010691  -0.000025  -0.000013
     2  C    0.000134  -0.000258   0.000061   0.003067  -0.000040   0.004403
     3  C    0.000033  -0.000867   0.000018   0.000406  -0.000015  -0.000597
     4  C    0.000029   0.003237  -0.000115   0.000077  -0.000041  -0.004446
     5  C    0.005210  -0.006664   0.005238  -0.008686  -0.006725  -0.029121
     6  C   -0.027109  -0.028175  -0.029298  -0.026771  -0.027442  -0.005969
     7  C   -0.005479  -0.004356  -0.004574   0.004985  -0.005311   0.002862
     8  C    0.366464   0.362017  -0.006452  -0.003572   0.005655   0.000016
     9  C   -0.006131   0.005816   0.361448   0.364641   0.366648  -0.000667
    10  C   -0.000123  -0.000043   0.000281  -0.000298   0.002051   0.368320
    11  H   -0.000030   0.000656  -0.000001  -0.000012  -0.000000   0.000007
    12  H   -0.000001   0.000028  -0.000000  -0.000001   0.000000   0.000035
    13  H    0.000001  -0.000017   0.000002  -0.000002  -0.000001   0.001822
    14  H   -0.000141   0.004169  -0.000005   0.000006  -0.000001   0.000143
    15  H   -0.000116   0.003044  -0.000088  -0.000176   0.000008   0.000228
    16  H   -0.000034  -0.000041  -0.000162  -0.000017   0.004134   0.003728
    17  H    0.004804  -0.000130   0.003666  -0.000001  -0.000159  -0.000150
    18  H   -0.027870  -0.030902  -0.000227   0.003239  -0.000029  -0.000004
    19  H    0.570342  -0.029846   0.005007  -0.000096  -0.000027  -0.000001
    20  H   -0.029846   0.582423   0.000019  -0.000062  -0.000193  -0.000002
    21  H    0.005007   0.000019   0.586442  -0.026725  -0.031206  -0.000045
    22  H   -0.000096  -0.000062  -0.026725   0.535066  -0.029013   0.000022
    23  H   -0.000027  -0.000193  -0.031206  -0.029013   0.578463   0.000231
    24  H   -0.000001  -0.000002  -0.000045   0.000022   0.000231   0.568024
    25  H   -0.000001  -0.000001  -0.000039   0.000943   0.001791  -0.029633
    26  H    0.000002  -0.000003  -0.000001  -0.000020   0.000002  -0.031613
              25         26
     1  O    0.002535   0.000117
     2  C   -0.004198  -0.003254
     3  C   -0.000002   0.002694
     4  C    0.005445  -0.005875
     5  C   -0.029633  -0.032970
     6  C   -0.006424   0.004603
     7  C   -0.000132   0.000041
     8  C    0.000007  -0.000110
     9  C    0.003222   0.000136
    10  C    0.369532   0.369412
    11  H    0.000007  -0.000047
    12  H    0.000002  -0.000083
    13  H    0.000121   0.003308
    14  H   -0.000144   0.000026
    15  H    0.000021  -0.000023
    16  H    0.000021  -0.000064
    17  H   -0.000011   0.000002
    18  H   -0.000011  -0.000002
    19  H   -0.000001   0.000002
    20  H   -0.000001  -0.000003
    21  H   -0.000039  -0.000001
    22  H    0.000943  -0.000020
    23  H    0.001791   0.000002
    24  H   -0.029633  -0.031613
    25  H    0.547819  -0.029577
    26  H   -0.029577   0.579843
 Mulliken charges:
               1
     1  O   -0.438885
     2  C    0.416438
     3  C   -0.362699
     4  C   -0.322395
     5  C    0.050294
     6  C    0.097005
     7  C   -0.451066
     8  C   -0.475921
     9  C   -0.462581
    10  C   -0.473926
    11  H    0.174112
    12  H    0.171544
    13  H    0.145380
    14  H    0.147272
    15  H    0.141240
    16  H    0.143553
    17  H    0.142973
    18  H    0.158128
    19  H    0.144966
    20  H    0.140099
    21  H    0.136702
    22  H    0.172308
    23  H    0.141243
    24  H    0.152420
    25  H    0.168342
    26  H    0.143455
 Sum of Mulliken charges =  -0.00000
 Mulliken charges with hydrogens summed into heavy atoms:
               1
     1  O   -0.438885
     2  C    0.416438
     3  C   -0.017044
     4  C   -0.029744
     5  C    0.050294
     6  C    0.097005
     7  C   -0.023300
     8  C   -0.032728
     9  C   -0.012327
    10  C   -0.009709
 APT charges:
               1
     1  O   -0.664099
     2  C    0.774506
     3  C   -0.079010
     4  C    0.018562
     5  C   -0.091477
     6  C    0.156747
     7  C    0.032107
     8  C    0.021518
     9  C    0.019719
    10  C    0.056167
    11  H    0.007344
    12  H   -0.000531
    13  H   -0.034438
    14  H   -0.020980
    15  H   -0.019269
    16  H   -0.019354
    17  H   -0.029904
    18  H   -0.009448
    19  H   -0.023051
    20  H   -0.021373
    21  H   -0.029879
    22  H    0.017045
    23  H   -0.021443
    24  H   -0.014821
    25  H   -0.002091
    26  H   -0.022549
 Sum of APT charges =   0.00000
 APT charges with hydrogens summed into heavy atoms:
               1
     1  O   -0.664099
     2  C    0.774506
     3  C   -0.072196
     4  C   -0.036856
     5  C   -0.091477
     6  C    0.156747
     7  C   -0.036419
     8  C   -0.032354
     9  C   -0.014558
    10  C    0.016706
 Electronic spatial extent (au):  <R**2>=           1425.0182
 Charge=             -0.0000 electrons
 Dipole moment (field-independent basis, Debye):
    X=              0.8136    Y=             -2.4344    Z=             -0.1751  Tot=              2.5727
 Quadrupole moment (field-independent basis, Debye-Ang):
   XX=            -63.3037   YY=            -68.0695   ZZ=            -61.2970
   XY=              5.0574   XZ=              0.1544   YZ=             -0.3559
 Traceless Quadrupole moment (field-independent basis, Debye-Ang):
   XX=              0.9197   YY=             -3.8461   ZZ=              2.9264
   XY=              5.0574   XZ=              0.1544   YZ=             -0.3559
 Octapole moment (field-independent basis, Debye-Ang**2):
  XXX=             -7.4921  YYY=             -3.0535  ZZZ=              0.5823  XYY=              6.2473
  XXY=             -6.3954  XXZ=             -1.0323  XZZ=             -3.6613  YZZ=              1.8987
  YYZ=             -0.3283  XYZ=              0.2899
 Hexadecapole moment (field-independent basis, Debye-Ang**3):
 XXXX=           -914.2020 YYYY=           -510.9656 ZZZZ=           -483.9330 XXXY=             13.2144
 XXXZ=             -7.7064 YYYX=              4.4824 YYYZ=             -1.3036 ZZZX=              6.6203
 ZZZY=              2.3472 XXYY=           -258.2313 XXZZ=           -228.8975 YYZZ=           -159.6967
 XXYZ=             -3.5979 YYXZ=             -1.9156 ZZXY=             -3.5111
 N-N= 5.826198191314D+02 E-N=-2.157239565610D+03  KE= 4.236670807561D+02
  Exact polarizability:  98.688   1.745  90.149   1.805   0.638  87.377
 Approx polarizability: 131.222  -2.310 139.745   1.921   2.377 123.415
 Calling FoFJK, ICntrl=    100127 FMM=F ISym2X=0 I1Cent= 0 IOpClX= 0 NMat=1 NMatS=1 NMatT=0.
 Full mass-weighted force constant matrix:
 Low frequencies ---  -12.0086   -3.8035   -0.0006    0.0007    0.0008    2.6955
 Low frequencies ---   50.4932   84.8152  144.7840
 Diagonal vibrational polarizability:
       21.1455169       3.5287194      29.0395685
 Harmonic frequencies (cm**-1), IR intensities (KM/Mole), Raman scattering
 activities (A**4/AMU), depolarization ratios for plane and unpolarized
 incident light, reduced masses (AMU), force constants (mDyne/A),
 and normal coordinates:
                      1                      2                      3
                      A                      A                      A
 Frequencies --     50.4792                84.8141               144.7833
 Red. masses --      2.8304                 2.5688                 3.9380
 Frc consts  --      0.0042                 0.0109                 0.0486
 IR Inten    --      3.7172                 0.6618                 2.0203
  Atom  AN      X      Y      Z        X      Y      Z        X      Y      Z
     1   8    -0.08  -0.03   0.20    -0.08  -0.04  -0.05     0.22   0.04  -0.19
     2   6     0.01   0.02   0.01    -0.01  -0.02  -0.04     0.07  -0.01  -0.01
     3   6     0.14   0.07  -0.22     0.07  -0.06  -0.06     0.08   0.03  -0.08
     4   6    -0.02   0.02   0.02     0.04  -0.02   0.09    -0.05  -0.04   0.08
     5   6    -0.01   0.00   0.04    -0.00   0.03   0.03    -0.02  -0.06   0.11
     6   6    -0.02  -0.02  -0.01    -0.00  -0.00   0.01    -0.07   0.01   0.03
     7   6     0.00   0.01   0.03    -0.06  -0.09  -0.13     0.02   0.07  -0.07
     8   6    -0.04  -0.11  -0.02    -0.06   0.13   0.03    -0.19   0.03   0.04
     9   6    -0.02   0.02  -0.09     0.11  -0.09   0.09    -0.13   0.03   0.03
    10   6     0.04   0.03   0.03     0.00   0.15   0.04     0.05  -0.13   0.10
    11   1     0.47   0.13  -0.24     0.19  -0.11  -0.07     0.24   0.03  -0.09
    12   1     0.02   0.09  -0.53     0.03  -0.06  -0.17     0.02   0.09  -0.22
    13   1    -0.22   0.14   0.06    -0.02   0.05   0.13    -0.20   0.05   0.10
    14   1     0.05  -0.14   0.18     0.09  -0.09   0.17    -0.01  -0.14   0.18
    15   1     0.00  -0.02   0.10    -0.09  -0.01  -0.28     0.08   0.07  -0.11
    16   1     0.03   0.08   0.04    -0.10  -0.25  -0.14     0.07   0.03  -0.08
    17   1    -0.01  -0.01  -0.00    -0.04  -0.06  -0.06    -0.02   0.17  -0.09
    18   1    -0.04  -0.12  -0.06     0.04   0.25   0.13    -0.20   0.04   0.10
    19   1    -0.04  -0.12  -0.04    -0.05   0.02  -0.01    -0.22   0.03  -0.03
    20   1    -0.04  -0.13   0.03    -0.22   0.22  -0.02    -0.23   0.04   0.06
    21   1    -0.04   0.00  -0.12     0.08  -0.08   0.06    -0.22   0.14  -0.06
    22   1    -0.03   0.00  -0.11     0.14  -0.04   0.22    -0.22  -0.04   0.15
    23   1    -0.00   0.08  -0.09     0.17  -0.20   0.07    -0.00   0.00  -0.00
    24   1     0.03   0.02   0.03     0.10   0.28   0.11    -0.00  -0.22   0.01
    25   1     0.07   0.03   0.01    -0.13   0.23  -0.05     0.18  -0.18   0.15
    26   1     0.04   0.06   0.06     0.03   0.06   0.05     0.05  -0.05   0.14
                      4                      5                      6
                      A                      A                      A
 Frequencies --    204.8663               211.7636               260.2979
 Red. masses --      1.2634                 1.2893                 1.9073
 Frc consts  --      0.0312                 0.0341                 0.0761
 IR Inten    --      1.0336                 0.6720                 0.2277
  Atom  AN      X      Y      Z        X      Y      Z        X      Y      Z
     1   8    -0.08   0.00  -0.03    -0.04   0.01  -0.05    -0.08   0.02  -0.06
     2   6    -0.03   0.01  -0.00    -0.02   0.01   0.01    -0.04   0.02  -0.01
     3   6     0.01  -0.02   0.01     0.02  -0.01  -0.01    -0.04   0.03  -0.01
     4   6     0.02   0.02   0.02     0.04   0.02  -0.01    -0.06   0.02   0.02
     5   6     0.00   0.03   0.00    -0.01   0.02   0.03    -0.02   0.01  -0.02
     6   6     0.01   0.02   0.00    -0.01   0.02   0.02    -0.00  -0.01  -0.00
     7   6    -0.02  -0.01   0.02    -0.05  -0.02   0.01    -0.01  -0.02   0.03
     8   6     0.01   0.02   0.00    -0.04   0.03   0.02     0.10  -0.01  -0.01
     9   6     0.06   0.01  -0.02     0.06  -0.00  -0.01    -0.07  -0.01   0.07
    10   6     0.02  -0.06  -0.00     0.03  -0.06   0.02     0.19  -0.02  -0.02
    11   1     0.03  -0.02   0.00     0.03   0.00  -0.01    -0.00   0.02  -0.01
    12   1     0.00  -0.04  -0.01     0.03  -0.04  -0.03    -0.05   0.05  -0.04
    13   1     0.03   0.03   0.04     0.05  -0.01  -0.03    -0.09   0.06   0.05
    14   1     0.03  -0.00   0.04     0.07   0.05  -0.01    -0.08  -0.04   0.04
    15   1    -0.01   0.01  -0.02    -0.29  -0.10   0.40    -0.10  -0.05   0.17
    16   1    -0.09  -0.04   0.03     0.27   0.27  -0.01     0.11   0.09   0.02
    17   1     0.01  -0.01   0.09    -0.17  -0.27  -0.35    -0.06  -0.12  -0.11
    18   1     0.12   0.11   0.02    -0.16  -0.07   0.03     0.19   0.04  -0.06
    19   1     0.03  -0.13  -0.02    -0.08   0.18   0.02     0.15  -0.10   0.06
    20   1    -0.13   0.07   0.02     0.10  -0.02  -0.00     0.06   0.01  -0.02
    21   1    -0.02   0.04  -0.13     0.21  -0.18   0.13    -0.24   0.23  -0.09
    22   1     0.03   0.00   0.09     0.19   0.10  -0.22    -0.22  -0.12   0.36
    23   1     0.20  -0.01  -0.06    -0.15   0.07   0.05     0.20  -0.13  -0.01
    24   1    -0.34  -0.45  -0.10     0.07  -0.06  -0.04     0.39   0.11  -0.14
    25   1     0.51  -0.23   0.09     0.01  -0.07   0.08     0.07   0.02  -0.04
    26   1    -0.10   0.39   0.01     0.05  -0.11   0.03     0.30  -0.23   0.13
                      7                      8                      9
                      A                      A                      A
 Frequencies --    265.1196               271.7245               296.7953
 Red. masses --      1.2091                 1.3347                 1.5897
 Frc consts  --      0.0501                 0.0581                 0.0825
 IR Inten    --      0.0910                 0.8531                 0.1442
  Atom  AN      X      Y      Z        X      Y      Z        X      Y      Z
     1   8    -0.02   0.00   0.00     0.07  -0.03   0.06    -0.01   0.02  -0.02
     2   6     0.00   0.01  -0.02     0.04  -0.03  -0.02     0.00   0.02   0.02
     3   6    -0.01   0.01   0.00    -0.00  -0.02   0.00     0.05   0.00  -0.00
     4   6    -0.03  -0.00   0.04     0.01  -0.03  -0.02     0.12   0.04  -0.10
     5   6     0.00   0.00  -0.01     0.01  -0.02  -0.03     0.01   0.03   0.03
     6   6     0.02  -0.02  -0.00     0.01  -0.01  -0.00    -0.02   0.01   0.02
     7   6     0.05   0.00  -0.06     0.01   0.00   0.02    -0.08  -0.04   0.04
     8   6     0.02  -0.02  -0.00    -0.02   0.03   0.00    -0.08  -0.06   0.02
     9   6    -0.01  -0.03   0.06    -0.02   0.00   0.01     0.02   0.01  -0.02
    10   6    -0.02   0.04  -0.01    -0.07   0.07  -0.03     0.00  -0.00   0.03
    11   1     0.02  -0.02  -0.00    -0.04  -0.03   0.00    -0.07   0.05   0.01
    12   1    -0.02   0.04  -0.02     0.01  -0.00   0.04     0.09  -0.08   0.09
    13   1    -0.05   0.04   0.07     0.02  -0.04  -0.03     0.18  -0.10  -0.21
    14   1    -0.05  -0.05   0.05    -0.00  -0.01  -0.04     0.18   0.21  -0.17
    15   1     0.05  -0.01  -0.03    -0.17  -0.09   0.39    -0.07   0.00  -0.07
    16   1     0.13   0.02  -0.07     0.28   0.30   0.01    -0.19  -0.13   0.05
    17   1     0.01   0.02  -0.13    -0.10  -0.21  -0.31    -0.02  -0.04   0.16
    18   1    -0.35  -0.34  -0.04     0.09   0.14   0.05    -0.25  -0.21  -0.00
    19   1    -0.07   0.46   0.07    -0.01  -0.11  -0.04    -0.14   0.12  -0.01
    20   1     0.49  -0.19  -0.04    -0.19   0.10  -0.01     0.10  -0.15   0.05
    21   1    -0.05   0.05   0.03    -0.19   0.18  -0.17    -0.19   0.18  -0.28
    22   1    -0.05  -0.06   0.17    -0.15  -0.08   0.27    -0.10  -0.07   0.30
    23   1     0.06  -0.11   0.03     0.24  -0.08  -0.06     0.38  -0.08  -0.11
    24   1    -0.17  -0.09   0.01    -0.17   0.02   0.06     0.08   0.08   0.04
    25   1     0.16  -0.00  -0.03     0.01   0.07  -0.09    -0.10   0.03   0.03
    26   1    -0.07   0.24  -0.01    -0.12   0.21  -0.06     0.03  -0.11   0.02
                     10                     11                     12
                      A                      A                      A
 Frequencies --    301.5945               343.6292               374.1040
 Red. masses --      2.4523                 2.3806                 1.8966
 Frc consts  --      0.1314                 0.1656                 0.1564
 IR Inten    --      0.3489                 0.3311                 0.0303
  Atom  AN      X      Y      Z        X      Y      Z        X      Y      Z
     1   8    -0.11   0.03  -0.05     0.06  -0.04   0.01    -0.02   0.00   0.00
     2   6    -0.03   0.04  -0.02    -0.02  -0.06  -0.02     0.02   0.01  -0.03
     3   6    -0.03   0.04  -0.00    -0.08  -0.02  -0.05     0.01   0.02  -0.01
     4   6    -0.03   0.03  -0.02    -0.10  -0.05  -0.04     0.05   0.02  -0.10
     5   6     0.00   0.01   0.01    -0.04  -0.05  -0.05     0.01  -0.01  -0.01
     6   6     0.04  -0.03   0.03    -0.02   0.01  -0.00    -0.01  -0.05   0.01
     7   6     0.21   0.09  -0.02    -0.01   0.07   0.17     0.03  -0.02   0.02
     8   6    -0.10  -0.10   0.04    -0.08   0.09   0.02    -0.09  -0.05   0.03
     9   6     0.12  -0.06   0.03     0.14  -0.03  -0.02    -0.11  -0.06   0.09
    10   6    -0.07  -0.04   0.00     0.10   0.03  -0.06     0.12   0.11  -0.02
    11   1    -0.06   0.05   0.00    -0.05   0.00  -0.05    -0.15   0.02  -0.00
    12   1    -0.02   0.06   0.03    -0.09   0.01  -0.07     0.06  -0.00   0.13
    13   1    -0.03   0.03  -0.03    -0.13  -0.01  -0.01     0.09  -0.09  -0.19
    14   1    -0.04   0.03  -0.03    -0.13  -0.11  -0.03     0.09   0.15  -0.15
    15   1     0.33   0.01   0.05     0.14   0.03   0.15     0.09  -0.04   0.02
    16   1     0.35   0.17  -0.03    -0.20   0.14   0.21     0.03  -0.01   0.02
    17   1     0.11   0.24  -0.13     0.07   0.13   0.35     0.03   0.03   0.03
    18   1    -0.01  -0.01   0.09    -0.24  -0.00   0.14    -0.05   0.01   0.09
    19   1    -0.13  -0.28  -0.12    -0.15   0.31  -0.02    -0.12  -0.13  -0.07
    20   1    -0.32  -0.07   0.16     0.04   0.08  -0.04    -0.22  -0.01   0.06
    21   1     0.07  -0.06  -0.05     0.12  -0.16  -0.12     0.06  -0.11   0.34
    22   1     0.14  -0.03   0.17     0.24   0.08   0.06    -0.05  -0.04  -0.14
    23   1     0.23  -0.15   0.00     0.25  -0.07  -0.05    -0.40  -0.03   0.16
    24   1     0.04   0.06  -0.00     0.15   0.07  -0.07    -0.00  -0.01  -0.01
    25   1    -0.23  -0.02   0.04     0.15   0.07  -0.18     0.37   0.09  -0.14
    26   1    -0.04  -0.22  -0.05     0.15   0.06   0.09     0.10   0.37   0.11
                     13                     14                     15
                      A                      A                      A
 Frequencies --    404.2398               417.2974               442.9110
 Red. masses --      2.3917                 2.4191                 2.6245
 Frc consts  --      0.2303                 0.2482                 0.3033
 IR Inten    --      0.1123                 0.7338                 0.3589
  Atom  AN      X      Y      Z        X      Y      Z        X      Y      Z
     1   8     0.06   0.01   0.04    -0.06   0.03   0.01     0.01  -0.04   0.03
     2   6     0.00   0.00  -0.01     0.08   0.07  -0.07     0.03  -0.02  -0.09
     3   6     0.02  -0.05   0.01     0.06   0.02   0.06    -0.04  -0.01  -0.02
     4   6     0.05   0.00   0.06     0.03   0.02   0.11    -0.06  -0.02  -0.00
     5   6     0.01   0.06  -0.06     0.09   0.04  -0.08     0.03   0.01  -0.07
     6   6    -0.04   0.11  -0.07     0.07  -0.06  -0.06     0.08   0.08   0.12
     7   6    -0.11   0.11   0.01     0.03  -0.09   0.11    -0.02  -0.07  -0.05
     8   6    -0.04  -0.11  -0.11    -0.10   0.08  -0.03    -0.05  -0.07   0.16
     9   6     0.04  -0.02   0.16    -0.08  -0.03  -0.01     0.04   0.19   0.04
    10   6     0.00  -0.03  -0.08    -0.02  -0.06  -0.10     0.03  -0.01  -0.11
    11   1     0.08  -0.09   0.01     0.06  -0.11   0.05    -0.09  -0.10  -0.02
    12   1     0.01  -0.09  -0.04     0.05   0.11   0.08    -0.03   0.08   0.05
    13   1     0.07   0.09   0.15     0.04   0.16   0.24    -0.06   0.09   0.10
    14   1     0.02  -0.09   0.10    -0.05  -0.13   0.15    -0.16  -0.16   0.02
    15   1    -0.11   0.10   0.04     0.04  -0.11   0.15    -0.25   0.07  -0.20
    16   1    -0.17   0.16   0.02    -0.15  -0.00   0.15     0.05  -0.31  -0.10
    17   1    -0.07   0.06   0.05     0.12  -0.17   0.25    -0.03  -0.18  -0.11
    18   1    -0.01  -0.15  -0.31    -0.21   0.06   0.21    -0.12  -0.14   0.13
    19   1    -0.03  -0.27  -0.18    -0.20   0.24  -0.16    -0.12  -0.12  -0.04
    20   1    -0.08  -0.22   0.11    -0.12   0.13  -0.10    -0.11  -0.16   0.37
    21   1     0.13  -0.03   0.31    -0.09   0.11   0.06     0.02   0.18   0.01
    22   1     0.15   0.10   0.30    -0.18  -0.14  -0.03    -0.01   0.13  -0.07
    23   1    -0.05  -0.31   0.15    -0.15  -0.03   0.00     0.03   0.35   0.06
    24   1    -0.00  -0.07  -0.14     0.01  -0.04  -0.12     0.07   0.00  -0.16
    25   1    -0.03  -0.07   0.03    -0.18  -0.09   0.06     0.04  -0.01  -0.11
    26   1    -0.00  -0.09  -0.12    -0.03  -0.23  -0.24     0.06  -0.04  -0.06
                     16                     17                     18
                      A                      A                      A
 Frequencies --    512.3377               538.7402               612.2821
 Red. masses --      1.9569                 3.1373                 3.3102
 Frc consts  --      0.3026                 0.5365                 0.7312
 IR Inten    --      0.2917                 2.2697                 1.2130
  Atom  AN      X      Y      Z        X      Y      Z        X      Y      Z
     1   8     0.02   0.03  -0.06    -0.10  -0.13  -0.08     0.07   0.03   0.04
     2   6    -0.11  -0.03   0.20     0.12  -0.08   0.04    -0.12  -0.01  -0.04
     3   6    -0.02  -0.00   0.07     0.03   0.17   0.04    -0.13  -0.12  -0.12
     4   6     0.01  -0.02  -0.03    -0.10  -0.04  -0.06    -0.03   0.06  -0.01
     5   6     0.03  -0.01  -0.05     0.11  -0.10   0.05    -0.05   0.07   0.06
     6   6     0.06   0.00  -0.01     0.08   0.07  -0.07     0.15   0.03  -0.07
     7   6     0.03  -0.05   0.01    -0.03   0.01   0.01     0.12  -0.12   0.03
     8   6    -0.02  -0.01   0.00    -0.02   0.00  -0.12    -0.02   0.02  -0.15
     9   6    -0.00   0.03   0.02     0.04   0.08   0.06     0.03   0.09   0.05
    10   6    -0.01   0.03  -0.08    -0.01   0.01   0.11    -0.01  -0.00   0.17
    11   1     0.52   0.40   0.06    -0.08   0.28   0.06    -0.19  -0.22  -0.13
    12   1    -0.18  -0.26  -0.51     0.03   0.38   0.15    -0.09  -0.24  -0.05
    13   1     0.06  -0.00   0.01    -0.20  -0.04  -0.11    -0.03   0.01  -0.06
    14   1    -0.06  -0.04  -0.07    -0.20  -0.07  -0.11     0.08   0.11   0.04
    15   1    -0.01  -0.03   0.01    -0.18   0.04   0.06     0.03  -0.10   0.06
    16   1     0.01  -0.06   0.01    -0.19   0.04   0.04    -0.01  -0.10   0.06
    17   1     0.05  -0.10   0.02     0.06  -0.21   0.10     0.20  -0.28   0.11
    18   1    -0.05  -0.02   0.07    -0.04  -0.03  -0.15    -0.09  -0.01  -0.03
    19   1    -0.06  -0.01  -0.10    -0.05  -0.04  -0.22    -0.11   0.04  -0.34
    20   1    -0.06  -0.01   0.05    -0.06  -0.05  -0.01    -0.10   0.00  -0.07
    21   1     0.00   0.09   0.06     0.08   0.15   0.17     0.05   0.31   0.20
    22   1    -0.05  -0.02  -0.01     0.03   0.08   0.09    -0.10  -0.02   0.05
    23   1    -0.05   0.04   0.03    -0.05  -0.04   0.07    -0.10   0.03   0.07
    24   1    -0.04   0.04   0.02    -0.09   0.04   0.34     0.01  -0.04   0.06
    25   1    -0.02   0.06  -0.14    -0.06   0.06   0.02     0.02  -0.05   0.26
    26   1    -0.03   0.08  -0.10    -0.08   0.10   0.00     0.02  -0.05   0.19
                     19                     20                     21
                      A                      A                      A
 Frequencies --    708.2274               757.2173               797.4541
 Red. masses --      4.8187                 1.2458                 2.8335
 Frc consts  --      1.4241                 0.4209                 1.0616
 IR Inten    --      0.3427                 2.8496                 2.3280
  Atom  AN      X      Y      Z        X      Y      Z        X      Y      Z
     1   8    -0.08   0.28   0.03    -0.01  -0.00   0.02    -0.00   0.04   0.01
     2   6    -0.02   0.23   0.00     0.05   0.02  -0.09    -0.00   0.04  -0.04
     3   6     0.13  -0.11   0.01    -0.03  -0.00   0.06    -0.09  -0.08  -0.02
     4   6    -0.04  -0.30  -0.06    -0.03  -0.04   0.05    -0.03   0.01  -0.06
     5   6    -0.02  -0.20   0.00    -0.02   0.01   0.00     0.16   0.01  -0.05
     6   6     0.01   0.01  -0.00    -0.00  -0.00   0.00     0.11   0.03  -0.05
     7   6     0.00  -0.00  -0.00    -0.00   0.00   0.00    -0.08   0.14  -0.05
     8   6     0.00   0.01  -0.06    -0.01  -0.00  -0.01     0.04  -0.01   0.15
     9   6     0.03   0.08   0.04     0.01   0.01   0.01    -0.03  -0.13  -0.08
    10   6     0.00  -0.03   0.02     0.00   0.00   0.02     0.04  -0.00   0.13
    11   1    -0.07  -0.29   0.01     0.43  -0.18   0.02     0.08  -0.10  -0.03
    12   1     0.18  -0.14   0.14    -0.22   0.26  -0.32    -0.13  -0.17  -0.18
    13   1    -0.14  -0.29  -0.09     0.31  -0.40  -0.15     0.04   0.09   0.04
    14   1    -0.07  -0.34  -0.06    -0.07   0.40  -0.28    -0.22  -0.13  -0.11
    15   1    -0.07   0.01   0.02    -0.01   0.01  -0.00    -0.25   0.18  -0.00
    16   1    -0.05  -0.00   0.01    -0.00  -0.00   0.00    -0.25   0.18  -0.01
    17   1     0.04  -0.10   0.02     0.00  -0.00   0.01     0.00  -0.07   0.03
    18   1    -0.01  -0.00  -0.08     0.00   0.00  -0.02    -0.03  -0.04   0.24
    19   1    -0.00  -0.00  -0.08    -0.00  -0.01  -0.01    -0.04  -0.00  -0.02
    20   1    -0.01  -0.01  -0.02    -0.00   0.00  -0.03    -0.03  -0.04   0.27
    21   1     0.04   0.02   0.02     0.01   0.00   0.00    -0.03   0.02   0.02
    22   1     0.08   0.12   0.02     0.01   0.02   0.01    -0.13  -0.22  -0.06
    23   1     0.06   0.09   0.03     0.01   0.01   0.01    -0.12  -0.21  -0.07
    24   1    -0.00   0.09   0.27     0.03  -0.02  -0.08    -0.07  -0.01   0.34
    25   1     0.02   0.10  -0.30     0.03  -0.02   0.06    -0.08  -0.00   0.21
    26   1    -0.01   0.14   0.12     0.03  -0.04   0.06    -0.05   0.01  -0.11
                     22                     23                     24
                      A                      A                      A
 Frequencies --    876.5812               892.0447               938.8142
 Red. masses --      2.3660                 2.2604                 1.8502
 Frc consts  --      1.0711                 1.0597                 0.9608
 IR Inten    --      2.9876                 0.2444                 1.0795
  Atom  AN      X      Y      Z        X      Y      Z        X      Y      Z
     1   8    -0.01   0.01  -0.00     0.00   0.00  -0.01    -0.00  -0.00  -0.01
     2   6     0.00   0.02  -0.02    -0.04  -0.02   0.06     0.01   0.00   0.05
     3   6    -0.10  -0.03  -0.04     0.01   0.05  -0.06     0.05  -0.05  -0.01
     4   6     0.05   0.19   0.06     0.02   0.04   0.13    -0.10   0.03  -0.00
     5   6     0.11  -0.17  -0.00    -0.11  -0.11   0.08     0.03   0.03   0.04
     6   6    -0.07  -0.04   0.03     0.12   0.03  -0.06    -0.06  -0.03  -0.11
     7   6    -0.01  -0.01   0.00    -0.01   0.07  -0.04     0.01  -0.06  -0.06
     8   6    -0.03  -0.00  -0.04     0.05  -0.00   0.06    -0.04  -0.04   0.11
     9   6    -0.00   0.06   0.05     0.02  -0.04  -0.04     0.04   0.10  -0.02
    10   6     0.05  -0.08  -0.01    -0.03  -0.04  -0.12     0.04   0.02  -0.05
    11   1     0.04  -0.21  -0.07    -0.14  -0.12  -0.07    -0.01  -0.16  -0.01
    12   1    -0.13  -0.08  -0.13     0.06   0.16   0.13     0.09  -0.09   0.06
    13   1     0.17   0.18   0.10     0.03  -0.23  -0.13    -0.14  -0.11  -0.15
    14   1    -0.02   0.16   0.03     0.28   0.36   0.10    -0.03   0.17  -0.05
    15   1     0.02  -0.03   0.02    -0.18   0.11   0.02     0.24  -0.23   0.16
    16   1     0.00  -0.00   0.00    -0.22   0.12   0.00    -0.19   0.28   0.02
    17   1    -0.02   0.02  -0.01     0.11  -0.20   0.08     0.09  -0.00   0.13
    18   1     0.04   0.03  -0.12    -0.05  -0.05   0.17     0.10   0.05   0.03
    19   1     0.04  -0.02   0.12    -0.05  -0.00  -0.16     0.09  -0.02   0.42
    20   1     0.04   0.02  -0.14    -0.05  -0.03   0.18     0.09   0.03  -0.11
    21   1    -0.01  -0.13  -0.08     0.03   0.14   0.09     0.11   0.23   0.19
    22   1     0.11   0.16   0.02    -0.09  -0.14  -0.03     0.03   0.12   0.16
    23   1     0.12   0.14   0.03    -0.09  -0.10  -0.02    -0.11  -0.19  -0.01
    24   1    -0.06   0.09   0.54     0.03   0.06  -0.03    -0.08  -0.05   0.03
    25   1    -0.10   0.12  -0.38     0.03   0.06  -0.38    -0.08  -0.02   0.13
    26   1    -0.08   0.17  -0.16     0.02   0.07   0.08    -0.04  -0.03  -0.28
                     25                     26                     27
                      A                      A                      A
 Frequencies --    943.6821               945.7966               972.3797
 Red. masses --      2.0163                 2.0181                 1.6509
 Frc consts  --      1.0579                 1.0636                 0.9197
 IR Inten    --      1.2087                 1.2371                 1.6480
  Atom  AN      X      Y      Z        X      Y      Z        X      Y      Z
     1   8     0.00   0.01   0.01     0.00   0.01   0.01    -0.00  -0.02   0.00
     2   6    -0.04  -0.00  -0.05    -0.04  -0.00  -0.05     0.04   0.00  -0.04
     3   6    -0.07   0.08  -0.01    -0.08   0.08  -0.01     0.07  -0.03   0.09
     4   6     0.12  -0.08   0.02     0.12  -0.08   0.02    -0.02   0.11  -0.06
     5   6    -0.02  -0.02  -0.04    -0.02  -0.02  -0.05    -0.07  -0.03  -0.04
     6   6    -0.06   0.10  -0.06     0.01  -0.11  -0.05     0.01  -0.01  -0.02
     7   6     0.11  -0.07  -0.02    -0.10   0.02  -0.04    -0.01  -0.02  -0.06
     8   6    -0.04   0.05   0.09     0.01  -0.07   0.02    -0.01   0.04   0.02
     9   6    -0.05   0.00  -0.05     0.09   0.08   0.03     0.03  -0.01   0.02
    10   6    -0.01  -0.01   0.04    -0.01  -0.01   0.05    -0.07  -0.04   0.05
    11   1    -0.04   0.18  -0.01    -0.06   0.25  -0.00     0.20  -0.05   0.08
    12   1    -0.11   0.22  -0.04    -0.12   0.16  -0.06     0.06  -0.19  -0.03
    13   1     0.20   0.03   0.16     0.16   0.04   0.16    -0.03   0.25   0.07
    14   1     0.07  -0.18   0.05     0.14  -0.19   0.10    -0.17  -0.07  -0.04
    15   1     0.00  -0.09   0.11     0.23  -0.14   0.05     0.15  -0.15   0.13
    16   1    -0.15   0.04   0.04    -0.06   0.24  -0.02    -0.19   0.27   0.01
    17   1     0.25  -0.32   0.14    -0.15   0.29  -0.01     0.08  -0.00   0.12
    18   1     0.04  -0.01  -0.30     0.03   0.04   0.33    -0.01  -0.03  -0.18
    19   1     0.08  -0.13   0.25    -0.02   0.11   0.06     0.02  -0.09   0.02
    20   1     0.11  -0.11   0.26    -0.04   0.11  -0.27     0.05  -0.08   0.20
    21   1     0.03  -0.15   0.01     0.07   0.35   0.16    -0.02   0.10  -0.01
    22   1     0.14   0.21   0.14    -0.11  -0.11  -0.01    -0.09  -0.14  -0.11
    23   1    -0.01  -0.28  -0.08    -0.08   0.12   0.07    -0.00   0.17   0.04
    24   1     0.02   0.01   0.06     0.03   0.01   0.02     0.15   0.09  -0.11
    25   1     0.02   0.01  -0.03     0.03   0.00  -0.00     0.15   0.04  -0.27
    26   1     0.01   0.02   0.11     0.02   0.01   0.14     0.08   0.04   0.49
                     28                     29                     30
                      A                      A                      A
 Frequencies --    976.1718              1037.6024              1048.2651
 Red. masses --      1.3001                 1.4061                 1.4352
 Frc consts  --      0.7299                 0.8920                 0.9292
 IR Inten    --      0.6331                 3.7388                 1.9892
  Atom  AN      X      Y      Z        X      Y      Z        X      Y      Z
     1   8     0.00   0.01  -0.00     0.02  -0.01  -0.00    -0.01   0.01  -0.00
     2   6    -0.02  -0.00   0.02    -0.07  -0.03   0.02     0.03   0.01   0.03
     3   6    -0.03   0.01  -0.04     0.07   0.01  -0.00    -0.04  -0.01  -0.03
     4   6     0.00  -0.05   0.02    -0.01   0.01  -0.01     0.01  -0.02  -0.02
     5   6     0.04   0.02   0.02    -0.03   0.03  -0.03     0.02   0.02   0.05
     6   6    -0.00   0.00   0.02    -0.02   0.05  -0.03     0.02   0.04   0.05
     7   6    -0.03  -0.03  -0.04    -0.03  -0.07   0.05     0.00   0.01   0.05
     8   6    -0.01   0.07  -0.01     0.05   0.03   0.02    -0.09   0.01  -0.02
     9   6     0.03  -0.05   0.05     0.00   0.01  -0.05     0.07  -0.05  -0.06
    10   6     0.04   0.02  -0.02     0.02  -0.05   0.02    -0.02  -0.02  -0.04
    11   1    -0.09   0.00  -0.04     0.03  -0.27  -0.02    -0.01  -0.11  -0.04
    12   1    -0.03   0.09   0.01     0.05   0.28   0.09    -0.06   0.11  -0.02
    13   1     0.02  -0.13  -0.04     0.15   0.04   0.08     0.10   0.05   0.09
    14   1     0.07   0.04   0.01    -0.21  -0.01  -0.13    -0.09  -0.09  -0.04
    15   1     0.24  -0.19   0.12     0.25  -0.12  -0.06    -0.08   0.10  -0.08
    16   1    -0.10   0.25   0.01     0.27  -0.08  -0.01     0.14  -0.16   0.00
    17   1    -0.01   0.13   0.08    -0.21   0.32  -0.11    -0.05   0.04  -0.06
    18   1    -0.05  -0.07  -0.35    -0.09  -0.07   0.07     0.11   0.08  -0.34
    19   1     0.01  -0.14  -0.09    -0.06  -0.00  -0.26     0.11  -0.07   0.39
    20   1     0.05  -0.14   0.33    -0.07  -0.05   0.26     0.15  -0.01  -0.16
    21   1    -0.11   0.01  -0.15     0.05   0.11   0.10     0.06   0.39   0.20
    22   1    -0.14  -0.24  -0.23    -0.01   0.01   0.09    -0.23  -0.32  -0.03
    23   1     0.07   0.40   0.08    -0.10  -0.21  -0.04    -0.23  -0.11   0.01
    24   1    -0.07  -0.04   0.06    -0.03   0.04   0.29     0.04   0.04  -0.03
    25   1    -0.08  -0.02   0.13    -0.06   0.06  -0.15     0.04   0.02  -0.17
    26   1    -0.04  -0.03  -0.25    -0.04   0.12  -0.04     0.01   0.05   0.09
                     31                     32                     33
                      A                      A                      A
 Frequencies --   1067.3793              1088.3311              1155.2010
 Red. masses --      2.7527                 1.4804                 2.3362
 Frc consts  --      1.8478                 1.0331                 1.8369
 IR Inten    --     71.4712                10.4851                 9.8821
  Atom  AN      X      Y      Z        X      Y      Z        X      Y      Z
     1   8    -0.06   0.01  -0.02    -0.00   0.01  -0.02    -0.01  -0.01   0.01
     2   6     0.28   0.06   0.14     0.01  -0.01   0.15     0.09   0.02  -0.03
     3   6    -0.15  -0.05  -0.07     0.01  -0.01  -0.08    -0.05  -0.08   0.03
     4   6    -0.01  -0.01  -0.01     0.00  -0.01  -0.03    -0.02  -0.05  -0.07
     5   6     0.00  -0.05  -0.00     0.00   0.05  -0.03    -0.05   0.20   0.15
     6   6    -0.01   0.03  -0.03     0.00  -0.02  -0.01    -0.00   0.04   0.03
     7   6    -0.05  -0.06   0.03     0.02   0.02  -0.04     0.02  -0.02  -0.05
     8   6     0.05   0.04   0.02    -0.00  -0.04  -0.01     0.03  -0.04  -0.02
     9   6    -0.03   0.03  -0.04    -0.02  -0.00   0.05    -0.03  -0.02   0.01
    10   6    -0.06   0.03   0.00    -0.03   0.01   0.01     0.03  -0.12  -0.06
    11   1    -0.07  -0.02  -0.08    -0.06  -0.44  -0.11     0.06   0.22   0.05
    12   1    -0.14  -0.22  -0.13    -0.00   0.39   0.09    -0.15   0.19  -0.10
    13   1     0.15  -0.00   0.07     0.37   0.09   0.23    -0.02   0.07   0.04
    14   1     0.28   0.02   0.17    -0.27  -0.09  -0.16     0.20  -0.13   0.13
    15   1     0.24  -0.14  -0.02    -0.07   0.01   0.06     0.06  -0.09   0.10
    16   1     0.17   0.00  -0.01    -0.15   0.10   0.00    -0.13   0.14  -0.00
    17   1    -0.16   0.25  -0.06     0.11  -0.13   0.07     0.10  -0.06   0.09
    18   1    -0.09  -0.08   0.03     0.03   0.03   0.14     0.00   0.00   0.20
    19   1    -0.05  -0.02  -0.24     0.00   0.05   0.06    -0.04   0.11  -0.10
    20   1    -0.06  -0.06   0.28    -0.02   0.06  -0.17    -0.08   0.06  -0.12
    21   1     0.05  -0.02   0.07    -0.07  -0.17  -0.12    -0.04  -0.10  -0.05
    22   1     0.08   0.14   0.12     0.05   0.05  -0.07     0.03   0.04  -0.01
    23   1    -0.04  -0.23  -0.06     0.12   0.18   0.03     0.04   0.02  -0.00
    24   1     0.07  -0.00  -0.31     0.04   0.01  -0.12     0.04   0.12   0.38
    25   1     0.10  -0.03   0.04     0.05  -0.01   0.01    -0.10   0.11  -0.49
    26   1     0.05  -0.07   0.18     0.02  -0.02   0.13    -0.07   0.24  -0.06
                     34                     35                     36
                      A                      A                      A
 Frequencies --   1177.2266              1189.8315              1231.9487
 Red. masses --      2.2668                 1.9634                 1.3723
 Frc consts  --      1.8509                 1.6377                 1.2272
 IR Inten    --      8.1415                 8.1752                 2.6264
  Atom  AN      X      Y      Z        X      Y      Z        X      Y      Z
     1   8     0.01   0.01   0.01     0.01   0.00   0.00     0.00   0.02   0.00
     2   6    -0.09  -0.01  -0.05    -0.03  -0.01   0.01    -0.04  -0.01   0.02
     3   6    -0.04   0.02   0.00     0.03  -0.02  -0.07     0.01  -0.12   0.03
     4   6     0.09   0.01  -0.01    -0.05  -0.04   0.12    -0.00   0.04  -0.05
     5   6     0.14  -0.03   0.21     0.14   0.10  -0.09     0.04  -0.03  -0.03
     6   6     0.03  -0.00   0.08     0.07   0.02  -0.02     0.04  -0.02  -0.03
     7   6    -0.04  -0.03  -0.05    -0.04  -0.02   0.01    -0.02   0.00   0.02
     8   6     0.03   0.01  -0.04    -0.04  -0.01   0.01    -0.02   0.01   0.01
     9   6    -0.05   0.02  -0.04    -0.05  -0.00   0.02    -0.02   0.01   0.01
    10   6    -0.07   0.04  -0.08    -0.07  -0.07   0.03    -0.02   0.02   0.01
    11   1     0.03  -0.16  -0.02    -0.22   0.36  -0.03     0.10   0.05   0.05
    12   1    -0.07   0.06  -0.06     0.11  -0.16   0.09    -0.16   0.73   0.03
    13   1    -0.25   0.05  -0.11    -0.03  -0.31  -0.14    -0.29   0.08  -0.15
    14   1    -0.42  -0.22  -0.22    -0.07   0.25  -0.09     0.39  -0.00   0.25
    15   1     0.15  -0.15   0.09     0.09  -0.05  -0.03     0.02   0.02  -0.05
    16   1    -0.08   0.21  -0.01     0.08   0.04  -0.00     0.06  -0.04  -0.00
    17   1    -0.01   0.13   0.10    -0.10   0.17  -0.03    -0.07   0.05  -0.05
    18   1    -0.03  -0.02   0.03     0.05   0.05  -0.06     0.01   0.01  -0.08
    19   1    -0.02   0.02  -0.15     0.04  -0.02   0.18     0.03  -0.05   0.08
    20   1    -0.04   0.00   0.02     0.06  -0.01  -0.07     0.06  -0.03   0.02
    21   1     0.06  -0.11   0.06    -0.03  -0.19  -0.08    -0.00  -0.07  -0.02
    22   1     0.08   0.16   0.13     0.07   0.10  -0.01     0.03   0.05  -0.00
    23   1    -0.00  -0.23  -0.07     0.09  -0.00  -0.02     0.05  -0.00  -0.01
    24   1     0.08   0.02  -0.39     0.15   0.14   0.03     0.01   0.00  -0.07
    25   1     0.15  -0.05  -0.03     0.13   0.02  -0.30     0.05  -0.02   0.05
    26   1     0.06  -0.09   0.15     0.03   0.09   0.40     0.02  -0.05   0.08
                     37                     38                     39
                      A                      A                      A
 Frequencies --   1235.6114              1259.8598              1265.2848
 Red. masses --      1.4669                 2.3451                 2.6951
 Frc consts  --      1.3195                 2.1931                 2.5421
 IR Inten    --      3.2499                 0.7843                 2.7044
  Atom  AN      X      Y      Z        X      Y      Z        X      Y      Z
     1   8    -0.00   0.02   0.01     0.01  -0.00  -0.00    -0.01   0.02   0.01
     2   6    -0.00   0.01  -0.02    -0.04  -0.01   0.01     0.01   0.01  -0.03
     3   6     0.05  -0.12  -0.04     0.03   0.05   0.02     0.02  -0.08  -0.01
     4   6    -0.05   0.03   0.01    -0.09  -0.01  -0.03     0.00   0.04   0.03
     5   6    -0.00  -0.03   0.03    -0.01  -0.04  -0.10     0.01  -0.12   0.00
     6   6    -0.04  -0.08   0.06     0.10   0.07   0.24    -0.07   0.30  -0.01
     7   6     0.01   0.02  -0.02    -0.04  -0.03  -0.08     0.01  -0.08  -0.01
     8   6     0.02   0.04  -0.01    -0.02  -0.02  -0.05     0.02  -0.11  -0.00
     9   6     0.01   0.03  -0.03    -0.04   0.00  -0.07     0.03  -0.09   0.02
    10   6     0.01   0.02  -0.01     0.02   0.01   0.02    -0.00   0.04   0.00
    11   1    -0.15   0.66   0.03     0.05  -0.19   0.00    -0.04   0.36   0.02
    12   1     0.05   0.20   0.10     0.06  -0.07   0.04    -0.01   0.15   0.04
    13   1     0.45   0.04   0.24     0.23   0.03   0.15    -0.00  -0.01  -0.02
    14   1    -0.19   0.07  -0.11     0.45   0.13   0.25    -0.17   0.05  -0.09
    15   1    -0.08   0.03   0.04     0.15  -0.19   0.16     0.22  -0.17   0.05
    16   1    -0.09   0.02   0.00    -0.15   0.29  -0.02     0.11   0.03  -0.01
    17   1     0.05  -0.07   0.03     0.05   0.10   0.16     0.04   0.02   0.09
    18   1    -0.06  -0.05  -0.07     0.06   0.04  -0.07     0.09   0.07   0.36
    19   1    -0.02  -0.04  -0.15    -0.02   0.05  -0.01    -0.05   0.25   0.05
    20   1    -0.02  -0.03   0.11     0.02   0.06  -0.23    -0.13   0.13  -0.30
    21   1     0.07   0.09   0.11     0.08  -0.10   0.08    -0.11   0.05  -0.14
    22   1    -0.01   0.02   0.10    -0.01   0.04   0.14    -0.13  -0.26  -0.19
    23   1    -0.07  -0.11  -0.02    -0.08  -0.32  -0.09    -0.06   0.15   0.06
    24   1    -0.01  -0.02  -0.04    -0.04  -0.02   0.08    -0.03  -0.05  -0.11
    25   1     0.00  -0.02   0.06    -0.03  -0.02   0.12     0.02  -0.03   0.12
    26   1     0.01  -0.03  -0.04     0.02  -0.01  -0.01     0.01  -0.07  -0.02
                     40                     41                     42
                      A                      A                      A
 Frequencies --   1278.4542              1297.4604              1426.6806
 Red. masses --      2.3694                 2.0883                 1.2257
 Frc consts  --      2.2817                 2.0713                 1.4699
 IR Inten    --      9.8899                14.5444                 4.9775
  Atom  AN      X      Y      Z        X      Y      Z        X      Y      Z
     1   8    -0.00   0.00   0.01     0.01  -0.00   0.01    -0.00  -0.00  -0.00
     2   6     0.01   0.00  -0.04    -0.08  -0.01  -0.06     0.00   0.00   0.00
     3   6     0.01  -0.00   0.01     0.03   0.07   0.03    -0.00  -0.00   0.00
     4   6    -0.00   0.01  -0.03    -0.14  -0.03  -0.09     0.00  -0.01  -0.00
     5   6    -0.13  -0.05   0.10     0.14  -0.02   0.11     0.00  -0.00   0.01
     6   6     0.24   0.02  -0.10    -0.06   0.02  -0.10    -0.01   0.01  -0.01
     7   6    -0.07  -0.02   0.04     0.00   0.00   0.03     0.06  -0.06   0.02
     8   6    -0.08  -0.01   0.02     0.02  -0.00   0.02     0.01  -0.01   0.07
     9   6    -0.08   0.00   0.04     0.01  -0.01   0.03     0.01   0.00   0.01
    10   6     0.04   0.02  -0.03    -0.05   0.01  -0.03    -0.01   0.01  -0.07
    11   1     0.00   0.17   0.02     0.00  -0.12   0.02     0.01   0.00   0.00
    12   1     0.03  -0.09  -0.01     0.05  -0.15  -0.03    -0.00   0.00   0.00
    13   1     0.33   0.12   0.23     0.55   0.08   0.32    -0.03   0.04   0.02
    14   1    -0.19  -0.09  -0.09     0.47   0.04   0.29     0.00   0.03  -0.02
    15   1     0.14  -0.02  -0.13     0.02   0.02  -0.05    -0.32   0.14  -0.12
    16   1     0.18   0.06  -0.00     0.08  -0.12   0.00    -0.26   0.24   0.10
    17   1    -0.18   0.23  -0.07    -0.03  -0.05  -0.06    -0.14   0.32  -0.17
    18   1     0.13   0.11  -0.13    -0.02  -0.02   0.09     0.06  -0.06  -0.29
    19   1     0.06  -0.05   0.28     0.00   0.01  -0.01    -0.14   0.03  -0.27
    20   1     0.18  -0.04  -0.10    -0.04  -0.01   0.07     0.00   0.16  -0.25
    21   1    -0.05  -0.29  -0.11    -0.05   0.02  -0.05    -0.03   0.00  -0.05
    22   1     0.13   0.18  -0.06    -0.00  -0.03  -0.07     0.00  -0.01  -0.01
    23   1     0.22   0.01  -0.04     0.02   0.13   0.04    -0.04  -0.01   0.02
    24   1    -0.10  -0.08   0.04     0.07   0.07  -0.12    -0.08   0.09   0.27
    25   1    -0.10   0.00   0.11     0.13  -0.05  -0.02     0.01  -0.14   0.26
    26   1    -0.01  -0.02  -0.17     0.03  -0.03   0.14     0.12  -0.01   0.27
                     43                     44                     45
                      A                      A                      A
 Frequencies --   1429.7391              1436.2314              1460.8692
 Red. masses --      1.2212                 1.2104                 1.2128
 Frc consts  --      1.4708                 1.4710                 1.5249
 IR Inten    --      6.8242                 8.7011                 7.3078
  Atom  AN      X      Y      Z        X      Y      Z        X      Y      Z
     1   8     0.00  -0.00   0.00    -0.00  -0.00  -0.00    -0.00   0.00   0.00
     2   6    -0.00   0.00  -0.00     0.01   0.01   0.00    -0.00  -0.00  -0.00
     3   6     0.00   0.00   0.00    -0.01  -0.00  -0.00    -0.00   0.00  -0.00
     4   6    -0.01   0.01  -0.00     0.01   0.00   0.00    -0.00   0.01  -0.00
     5   6     0.00  -0.01  -0.01    -0.01   0.00  -0.00    -0.00  -0.00   0.00
     6   6     0.00   0.01   0.01     0.00  -0.00   0.01    -0.01   0.00   0.00
     7   6     0.04  -0.05   0.00    -0.02   0.02  -0.01     0.05  -0.05   0.01
     8   6    -0.00  -0.00  -0.05    -0.00   0.01  -0.07    -0.00   0.01  -0.07
     9   6    -0.04  -0.09  -0.04     0.00  -0.00  -0.01     0.03   0.07   0.03
    10   6     0.00   0.00   0.02    -0.01   0.00  -0.11     0.01   0.00   0.02
    11   1     0.01   0.00   0.00     0.02   0.01  -0.00     0.05   0.01  -0.00
    12   1     0.00   0.01   0.01     0.00  -0.00   0.01     0.01  -0.00   0.04
    13   1     0.02  -0.03  -0.02    -0.02   0.00  -0.01     0.05  -0.05  -0.03
    14   1     0.03  -0.02   0.04    -0.03  -0.00  -0.02     0.01  -0.06   0.05
    15   1    -0.23   0.09  -0.07     0.12  -0.06   0.06    -0.29   0.11  -0.08
    16   1    -0.14   0.20   0.06     0.05  -0.11  -0.03    -0.21   0.20   0.08
    17   1    -0.07   0.24  -0.05     0.04  -0.11   0.02    -0.10   0.28  -0.11
    18   1    -0.02   0.05   0.19    -0.06   0.06   0.29    -0.07   0.06   0.31
    19   1     0.09   0.03   0.19     0.13  -0.02   0.25     0.14  -0.00   0.27
    20   1    -0.03  -0.10   0.17    -0.01  -0.15   0.25    -0.03  -0.16   0.27
    21   1     0.00   0.38   0.27    -0.00   0.02  -0.00     0.01  -0.28  -0.19
    22   1     0.32   0.29   0.19     0.02   0.02   0.05    -0.25  -0.22  -0.13
    23   1     0.12   0.42  -0.01    -0.03   0.04   0.00    -0.09  -0.30   0.01
    24   1     0.00  -0.03  -0.06    -0.10   0.17   0.44    -0.01  -0.07  -0.09
    25   1     0.03   0.04  -0.09    -0.01  -0.22   0.44    -0.03   0.06  -0.10
    26   1    -0.02  -0.05  -0.09     0.17   0.04   0.40    -0.02  -0.01  -0.06
                     46                     47                     48
                      A                      A                      A
 Frequencies --   1465.4863              1510.0346              1518.0609
 Red. masses --      1.0928                 1.0582                 1.0476
 Frc consts  --      1.3828                 1.4217                 1.4224
 IR Inten    --      9.4537                 1.9766                 0.8609
  Atom  AN      X      Y      Z        X      Y      Z        X      Y      Z
     1   8    -0.00   0.00   0.00     0.00  -0.00  -0.00    -0.00  -0.00   0.00
     2   6    -0.01  -0.00  -0.00     0.00   0.00   0.00     0.00   0.00  -0.00
     3   6    -0.07   0.00  -0.05     0.01   0.00   0.00     0.00  -0.00   0.00
     4   6    -0.00   0.00  -0.00    -0.01   0.04   0.00     0.00  -0.01  -0.00
     5   6     0.01   0.00   0.01    -0.01   0.01  -0.01    -0.01  -0.00   0.00
     6   6    -0.00  -0.00  -0.00    -0.00  -0.00   0.01     0.00   0.01  -0.01
     7   6    -0.00   0.00  -0.00     0.01   0.02   0.02     0.03   0.02  -0.03
     8   6    -0.00  -0.00   0.01     0.01  -0.03  -0.00    -0.02  -0.01   0.00
     9   6    -0.00  -0.00  -0.00    -0.02   0.01  -0.02    -0.01   0.00   0.01
    10   6    -0.00  -0.00  -0.00    -0.01   0.02  -0.00    -0.02   0.01   0.00
    11   1     0.68   0.09  -0.06    -0.05  -0.01   0.01    -0.01  -0.00   0.00
    12   1     0.22  -0.04   0.65    -0.01  -0.00  -0.05    -0.01   0.00  -0.01
    13   1     0.05  -0.09  -0.06     0.13  -0.22  -0.17    -0.02   0.03   0.03
    14   1    -0.01  -0.10   0.06    -0.06  -0.24   0.14     0.01   0.04  -0.02
    15   1     0.02  -0.01   0.01     0.23  -0.02  -0.11    -0.12  -0.16   0.51
    16   1     0.01  -0.02  -0.01    -0.21  -0.00   0.05    -0.21  -0.45  -0.03
    17   1     0.01  -0.02   0.00    -0.09  -0.19  -0.28    -0.07   0.29  -0.05
    18   1     0.04   0.03  -0.03     0.15   0.05  -0.18     0.19   0.19   0.07
    19   1    -0.03   0.02  -0.05    -0.06   0.34   0.06    -0.08   0.02  -0.13
    20   1     0.03  -0.00  -0.02    -0.22   0.01   0.12     0.23  -0.12   0.04
    21   1    -0.00   0.01   0.01     0.19  -0.14   0.24    -0.00   0.07   0.06
    22   1     0.01   0.01   0.01    -0.16  -0.12   0.04     0.02   0.01  -0.18
    23   1     0.00   0.02   0.00     0.23   0.06  -0.06     0.14  -0.10  -0.04
    24   1     0.00   0.00   0.00    -0.09  -0.00   0.13     0.02   0.07   0.08
    25   1     0.01   0.00  -0.01     0.19  -0.01  -0.08     0.22  -0.04  -0.04
    26   1    -0.00  -0.00  -0.00     0.05  -0.25  -0.04    -0.01  -0.15  -0.11
                     49                     50                     51
                      A                      A                      A
 Frequencies --   1521.3526              1522.0014              1524.7160
 Red. masses --      1.0554                 1.0671                 1.0548
 Frc consts  --      1.4392                 1.4564                 1.4447
 IR Inten    --      1.3097                 0.4543                 3.3179
  Atom  AN      X      Y      Z        X      Y      Z        X      Y      Z
     1   8     0.00  -0.00  -0.00    -0.00   0.01   0.00    -0.00   0.00   0.00
     2   6     0.00   0.00   0.00     0.00  -0.01  -0.00     0.00  -0.00  -0.00
     3   6     0.01   0.00   0.01    -0.01  -0.00  -0.01    -0.01  -0.00  -0.00
     4   6    -0.00   0.03   0.00     0.01  -0.05  -0.00     0.01  -0.03  -0.00
[...]
 ,-0.00021462,-0.00034827,-0.00012011,-0.00142955,-0.00076375,-0.000746
 10,0.00003780,-0.00056403,-0.00104473,-0.04874843,0.00393988,0.0050095
 5,0.00000859,0.00049311,0.00112781,0.00035987,-0.00002063,-0.00011151,
 -0.00009959,0.00000452,0.00006237,0.00008031,-0.00001669,-0.00000014,0
 .00021214,-0.00000063,-0.00017377,0.00044704,0.00007037,0.00003848,-0.
 00004921,-0.00004466,-0.00011551,-0.00008243,-0.00004302,0.00021833,0.
 00007813,0.00047353,-0.00012544,0.00039218,0.01682247,0.02377413,0.048
 57472,-0.00017917,0.00018404,-0.00021195,0.00016485,-0.00076105,0.0003
 8867,0.00010224,0.00006040,-0.00006085,-0.00023605,-0.00011184,-0.0000
 0210,-0.00024098,-0.00214229,0.00286516,-0.00049472,0.00991436,0.01553
 598,-0.00028639,0.00087728,0.00071356,0.00380457,-0.14036058,-0.127110
 38,0.00028281,0.00089548,0.00089821,-0.00001502,0.00084715,0.00094759,
 0.00003665,0.00034921,0.00000600,-0.00002022,0.00004322,-0.00012801,0.
 00007299,0.00004842,-0.00013222,0.00031890,0.00003250,-0.00007780,0.00
 009856,-0.00009099,-0.00009759,-0.00024572,0.00023376,-0.00005886,0.00
 006306,-0.00001556,-0.00000086,-0.00078785,-0.01041456,-0.01344046,-0.
 00397511,0.15263673,0.00055242,-0.00019567,0.00015248,-0.00098099,0.00
 124112,-0.00004730,-0.00005279,0.00001148,0.00009122,0.00033450,0.0003
 8381,0.00003906,0.00020827,0.00446546,-0.00318715,0.00077627,-0.016501
 32,-0.02344474,0.00073873,-0.00165597,0.00048649,0.00502497,-0.1252586
 4,-0.21822310,-0.00078290,-0.00177905,0.00033004,-0.00009772,-0.001643
 50,-0.00097740,-0.00001513,-0.00009544,0.00004305,0.00000526,-0.000048
 89,0.00001380,-0.00006541,-0.00007058,-0.00001311,-0.00003302,-0.00004
 606,0.00015016,-0.00002178,0.00007675,-0.00000423,0.00020680,0.0001686
 3,0.00053020,-0.00064117,0.00095225,0.00056748,0.00052636,0.00107785,0
 .00154986,-0.00548560,0.13576876,0.23920115,0.00057081,0.00038555,0.00
 040317,-0.00114124,-0.00104176,-0.00006421,0.00004133,0.00028319,0.000
 07787,-0.00047404,-0.00015106,-0.00097498,-0.00037313,-0.00079033,-0.0
 0000834,0.00053825,0.00182007,0.00073932,0.00069103,0.00050456,0.00002
 787,-0.20880964,-0.12620364,0.01072849,0.00108110,-0.00000586,0.000578
 68,0.00006032,0.00015939,0.00016190,-0.00004277,0.00051240,0.00011268,
 -0.00000952,0.00009805,-0.00017282,0.00026971,0.00011370,-0.00033153,0
 .00046412,-0.00032262,-0.00119467,0.00036073,-0.00013537,-0.00007205,0
 .00017291,-0.00008433,0.00014321,-0.00002450,0.00002920,0.00005323,-0.
 02019261,-0.01834187,0.00063844,0.00110615,0.00153020,-0.00069890,0.22
 519587,0.00003513,0.00009514,-0.00018224,0.00026946,-0.00018500,0.0002
 4013,-0.00016063,0.00024499,-0.00028324,-0.00066142,0.00007572,-0.0006
 7270,-0.00018550,-0.00005627,-0.00069712,-0.01387757,-0.01152653,-0.00
 109590,-0.00126661,0.00048446,-0.00063410,-0.12609939,-0.15106585,0.00
 889961,0.00127622,-0.00221453,0.00385528,0.00001922,0.00003230,0.00004
 263,0.00000941,-0.00003403,0.00003740,0.00004379,-0.00001802,0.0000195
 6,0.00029096,0.00001619,-0.00030068,0.00035721,0.00033920,-0.00073851,
 0.00085365,-0.00001680,0.00033005,0.00025360,0.00029215,-0.00006334,-0
 .00005353,-0.00013824,0.00001690,0.01419329,0.01322771,-0.00099245,-0.
 01569155,-0.01227144,0.00141045,0.14142863,0.16270529,-0.00040910,-0.0
 0016166,-0.00006081,0.00058495,0.00031344,-0.00022142,0.00000225,-0.00
 022249,0.00004329,0.00036123,-0.00048467,-0.00145756,0.00074605,0.0001
 0632,0.00109773,0.02246611,0.01613861,0.00026456,0.00088737,-0.0008945
 2,0.00085236,0.01006699,0.00833974,-0.04967977,-0.00135870,0.00271929,
 -0.00497040,-0.00018877,0.00012620,0.00008258,0.00004933,-0.00020019,0
 .00005019,-0.00014627,0.00002469,0.00005275,-0.00019470,0.00004766,0.0
 0027266,-0.00142058,-0.00063728,-0.00131138,-0.00061975,0.00007971,0.0
 0017100,0.00005665,-0.00031859,-0.00006857,-0.00017795,-0.00003194,-0.
 00003720,0.00001053,-0.00055061,-0.00095587,-0.02210426,-0.01601093,0.
 00217247,-0.00970873,-0.00971315,0.05297716,0.00098151,0.00065861,0.00
 018549,-0.00148282,0.00009132,0.00005170,-0.00008411,-0.00007441,0.000
 08790,0.00042247,-0.00049280,-0.00132876,-0.00423361,-0.00287566,0.000
 86578,-0.00178125,-0.01325041,-0.02341200,0.00130721,-0.00044716,-0.00
 105374,0.00078472,0.00034294,-0.00113240,-0.04904000,-0.00260502,-0.00
 671596,-0.00010980,-0.00021548,0.00049216,0.00007246,-0.00009038,-0.00
 001295,0.00005103,-0.00003511,0.00000517,-0.00015728,-0.00036740,-0.00
 005543,0.00001087,0.00010203,0.00005508,0.00030279,0.00012040,0.000327
 42,-0.00011242,-0.00000129,0.00000602,-0.00045490,0.00028356,0.0004711
 6,-0.00000775,0.00007337,0.00020656,0.00007057,-0.00008488,0.00064579,
 -0.00000958,0.00041962,-0.00012274,0.05132931,0.00019450,-0.00051598,-
 0.00019229,-0.00014405,0.00082189,0.00025495,-0.00011899,-0.00009588,0
 .00025246,0.00027580,-0.00011117,-0.00139885,-0.00379389,-0.00209814,0
 .00115840,-0.00044794,-0.01172105,-0.01754921,0.00101755,0.00026239,0.
 00019862,0.00044624,0.00009669,-0.00157776,-0.00284542,-0.10853943,-0.
 10941380,-0.00043000,0.00016213,0.00089790,0.00000407,-0.00014002,-0.0
 0000472,0.00001969,-0.00001716,-0.00000324,-0.00024417,-0.00039942,-0.
 00004155,-0.00007690,0.00006641,0.00007288,0.00005381,-0.00005302,0.00
 024451,-0.00002773,0.00004034,0.00011085,-0.00028711,0.00056738,0.0001
 9050,0.00004524,-0.00020001,-0.00003507,-0.00052170,-0.00006401,0.0009
 8533,0.00023317,0.00043682,0.00023745,0.00710117,0.11685649,0.00012268
 ,-0.00029541,0.00001270,-0.00005778,0.00041375,-0.00012329,-0.00001951
 ,-0.00013460,0.00002631,0.00024016,0.00022612,0.00001238,-0.00030388,0
 .00048496,0.00064206,0.00034527,-0.00001711,-0.00140803,0.00034523,0.0
 0008859,-0.00014757,0.00087243,0.00133076,0.00052788,-0.00752364,-0.11
 037818,-0.24934614,0.00053433,-0.00011396,-0.00015713,-0.00001882,-0.0
 0003659,0.00003096,0.00000113,-0.00003746,-0.00001063,-0.00001648,-0.0
 0002746,0.00006851,-0.00010023,-0.00008287,0.00010457,-0.00015016,0.00
 018896,0.00025721,0.00001667,-0.00010881,-0.00004395,-0.00051755,0.000
 20504,0.00039974,-0.00007296,-0.00005880,-0.00006009,0.00012934,0.0000
 8269,0.00064609,-0.00012878,0.00015948,0.00034304,0.00709651,0.1207061
 9,0.27055350,0.00105954,0.00158329,0.00088711,-0.00183117,-0.00097525,
 -0.00074546,0.00005357,0.00005053,-0.00015151,0.00014073,-0.00008930,0
 .00027694,0.00019854,0.00067433,0.00070369,-0.02182763,0.01422055,0.00
 234483,-0.00342597,-0.00506905,-0.00016566,0.00059276,0.00123301,-0.00
 064410,-0.23876001,0.11761590,0.02487387,0.00007078,-0.00026725,-0.000
 26144,0.00004243,0.00001462,-0.00000175,0.00005827,-0.00002277,0.00000
 844,0.00008878,0.00004621,-0.00000326,0.00009221,0.00012777,-0.0000606
 5,-0.00157000,0.00096771,0.00012683,0.00028112,-0.00003484,-0.00009161
 ,0.00032035,-0.00007078,0.00010233,0.00037015,-0.00069149,0.00059074,-
 0.00003653,-0.00010577,-0.00001508,0.00031485,-0.00021852,-0.00016880,
 0.00281223,-0.00162916,0.00015239,0.26071682,0.00140260,-0.00092676,0.
 00022076,-0.00223946,-0.00042655,-0.00058197,0.00017126,0.00004516,-0.
 00011162,0.00008717,0.00009976,0.00024838,0.00029189,0.00078253,-0.000
 03520,-0.01775722,0.01200685,0.00300908,-0.00300489,-0.00270092,-0.000
 00853,-0.00024682,0.00110003,-0.00053779,0.11995874,-0.12424388,-0.014
 67118,0.00026232,0.00012333,-0.00012041,0.00005044,0.00002315,0.000005
 25,0.00002890,-0.00000423,0.00000990,0.00006612,0.00006690,0.00002264,
 0.00003914,0.00002078,-0.00001405,-0.00135374,0.00081377,-0.00004474,-
 0.00008541,0.00000240,-0.00026405,-0.00002007,-0.00009035,0.00023250,0
 .00015574,-0.00010856,0.00021557,0.00002423,-0.00009664,0.00004786,0.0
 0015422,0.00007640,-0.00017452,0.01195681,-0.00817362,-0.00041313,-0.1
 2767684,0.13309474,0.00090586,0.00024199,-0.00041687,-0.00141077,-0.00
 043621,0.00014404,0.00021790,0.00004641,0.00000048,0.00008705,0.000097
 03,-0.00004110,-0.00066716,0.00024171,0.00037445,-0.00187620,0.0006828
 8,-0.00143128,-0.00038567,-0.00030600,0.00006101,0.00065762,-0.0006243
 4,-0.00004889,0.02624890,-0.01503453,-0.05423710,-0.00023760,-0.000050
 42,0.00006913,0.00004026,0.00005139,-0.00000161,0.00002298,0.00000217,
 0.00000031,0.00002801,-0.00000125,-0.00000725,0.00007034,0.00003321,-0
 .00001236,-0.00023563,-0.00000934,0.00060695,0.00027684,-0.00026618,0.
 00017916,-0.00024260,0.00025915,0.00023108,0.00011389,0.00045088,0.000
 06011,0.00012053,-0.00004689,0.00002131,-0.00024530,0.00004161,-0.0000
 1647,0.02573551,-0.01513488,-0.00211569,-0.02734646,0.01678133,0.05317
 148,0.00036962,0.00023113,0.00032143,-0.00057965,-0.00000037,-0.000062
 93,0.00003209,0.00007576,0.00003357,-0.00007663,0.00009593,0.00005809,
 0.00051639,0.00047352,0.00029151,0.00133669,-0.01672270,0.02064816,0.0
 0160709,-0.00080590,0.00109590,-0.00455874,-0.00306427,-0.00076802,-0.
 05052679,0.01087818,-0.01115271,0.00052612,-0.00012580,-0.00050593,-0.
 00000080,0.00004177,0.00000123,0.00000808,0.00001813,-0.00001618,0.000
 02337,0.00000901,-0.00005711,0.00007825,-0.00000216,0.00004930,0.00038
 515,0.00014165,-0.00020894,-0.00045610,0.00030875,-0.00041790,-0.00010
 836,0.00006407,0.00005883,0.00016143,-0.00024906,-0.00006966,-0.000129
 18,0.00019728,-0.00017121,0.00019407,-0.00133901,0.00145616,-0.0009020
 2,0.00062447,-0.00019054,0.00005123,0.01792960,-0.02210399,0.05229220,
 -0.00026847,-0.00001968,-0.00038849,0.00027131,-0.00008577,0.00023230,
 -0.00000746,0.00006299,0.00018875,-0.00009217,0.00004669,-0.00026137,0
 .00026538,0.00009539,0.00106873,0.00260430,-0.01343680,0.01455998,0.00
 144371,0.00052029,-0.00017801,-0.00392121,-0.00213638,-0.00146600,0.00
 973095,-0.17233343,0.13064591,-0.00099614,-0.00020365,0.00038570,-0.00
 002885,0.00003980,-0.00000470,0.00000805,0.00002277,-0.00002316,-0.000
 06370,-0.00007874,-0.00009946,0.00014157,0.00011189,-0.00001327,0.0000
 8083,0.00005218,-0.00033157,-0.00056029,0.00065921,-0.00024239,-0.0000
 7711,0.00003533,-0.00008795,0.00002640,0.00027953,-0.00034556,0.000001
 20,0.00026116,0.00015460,-0.00021686,-0.00054027,0.00140663,-0.0009017
 6,0.01252260,-0.01186360,0.00014104,-0.01128962,0.01273112,-0.00866139
 ,0.18497155,-0.00009261,0.00008468,0.00005658,0.00001987,-0.00016734,-
 0.00006324,0.00002699,0.00002161,-0.00004913,-0.00004526,0.00004440,0.
 00010587,0.00052144,-0.00000008,0.00003957,0.00051275,-0.00137885,0.00
 033310,-0.00040310,-0.00001574,0.00013475,0.00097384,0.00020952,0.0005
 6747,-0.01030636,0.13203813,-0.18867249,0.00011483,-0.00094721,-0.0015
 4357,-0.00000458,-0.00001650,0.00000024,-0.00000916,0.00000635,0.00001
 355,0.00003310,0.00005072,0.00003621,-0.00002826,0.00001049,-0.0000176
 9,0.00008413,-0.00027859,0.00016718,0.00045702,-0.00017747,0.00040288,
 0.00003638,0.00012975,-0.00015232,-0.00013552,-0.00013688,-0.00005544,
 -0.00020284,-0.00005269,0.00054611,-0.00006633,0.00035800,0.00019702,-
 0.00218698,0.02035395,-0.02053198,-0.00031407,-0.00394098,0.00353061,0
 .01215878,-0.14448282,0.20646442,0.00093708,0.00007887,-0.00023499,-0.
 00019749,-0.00076774,0.00068977,0.00034791,0.00015306,-0.00042578,0.00
 087968,0.00046849,-0.00052058,0.00276180,-0.00314909,0.00050453,-0.000
 26792,0.00098274,0.00005143,-0.00008619,0.00086422,0.00024406,0.000022
 33,-0.00019908,-0.00022837,-0.00007386,0.00019204,-0.00035423,-0.20877
 970,0.12589072,-0.02143654,0.00016369,0.00020709,-0.00001866,-0.000175
 22,-0.00003736,-0.00000334,0.00002459,0.00025904,-0.00020992,0.0001755
 7,0.00022410,-0.00000461,-0.00011361,-0.00009849,0.00009680,0.00010072
 ,-0.00024932,0.00111788,0.00007393,-0.00027335,0.00015875,0.00003137,-
 0.00004299,0.00002133,-0.00000828,0.00001122,-0.00008716,-0.00001217,-
 0.00001069,0.00003142,0.00008707,-0.00008075,-0.00007852,0.00018153,-0
 .00014590,0.00019294,-0.00021293,-0.00002796,0.00010389,0.22345554,0.0
 0111865,-0.00036875,-0.00041747,-0.00254080,0.00189572,0.00330813,0.00
 016419,-0.00061392,-0.00174304,0.00026665,0.00092792,-0.00023701,0.013
 69684,-0.01275964,0.00524141,-0.00020654,0.00003841,-0.00114830,0.0002
 7147,-0.00020905,-0.00047046,0.00000236,0.00004839,-0.00004587,-0.0001
 0062,0.00016660,0.00011180,0.12728869,-0.15082168,0.01553930,-0.000057
 42,0.00026976,0.00006653,-0.00034891,-0.00021455,0.00011097,-0.0004763
 0,-0.00045511,-0.00038245,-0.00006036,-0.00003031,-0.00002628,-0.00010
 057,-0.00006943,0.00016686,0.00031792,0.00039407,-0.00111127,-0.000242
 10,0.00021569,-0.00017407,-0.00005413,0.00003844,-0.00008339,-0.000033
 51,0.00003719,0.00007774,-0.00000503,-0.00002685,-0.00000065,0.0000658
 2,0.00001383,0.00002418,-0.00000743,-0.00010522,-0.00002294,-0.0000050
 6,0.00004737,0.00008986,-0.14143671,0.16156407,-0.00201495,0.00037485,
 0.00097891,0.00406406,-0.00050783,-0.00566915,-0.00033720,0.00088982,0
 .00178315,-0.00002746,-0.00084823,0.00079683,-0.02489768,0.02056656,-0
 .00588661,-0.00060438,-0.00009742,0.00159323,0.00022657,0.00034176,-0.
 00109966,0.00025010,0.00004531,0.00014587,-0.00003596,-0.00006770,-0.0
 0027021,-0.02156408,0.01653254,-0.04909081,-0.00001373,-0.00016202,-0.
 00005446,0.00050177,0.00045815,0.00000159,0.00041762,0.00002648,0.0002
 6592,0.00008099,0.00001528,-0.00003164,0.00004401,-0.00004186,0.000009
 89,0.00075324,-0.00129554,-0.00115491,0.00005990,-0.00027114,0.0004283
 5,0.00010174,-0.00013204,0.00020411,0.00005045,-0.00009964,-0.00003159
 ,-0.00002792,-0.00000195,0.00003033,-0.00001182,-0.00015502,0.00003005
 ,0.00024559,0.00007672,0.00010782,-0.00018192,-0.00016094,-0.00000142,
 0.02177564,-0.01909421,0.05448399,0.00063840,-0.00017721,-0.00003604,0
 .00007216,0.00051698,0.00064585,-0.00043953,-0.00026131,0.00008603,0.0
 0115268,0.00020654,-0.00016963,-0.00086252,-0.00063511,0.00092408,-0.0
 0035646,-0.00083700,-0.00013680,0.00001821,0.00018965,0.00022515,0.000
 11507,0.00016911,0.00013335,0.00022064,-0.00154157,-0.00059411,-0.2456
 0530,-0.11996856,0.00602975,0.00018868,-0.00007317,-0.00000339,-0.0000
 2063,-0.00002586,0.00000407,0.00020317,0.00030518,0.00014182,0.0001219
 1,-0.00005985,0.00003556,0.00012834,0.00005856,-0.00014278,-0.00012802
 ,-0.00014565,-0.00002274,0.00001194,-0.00000923,0.00012294,-0.00001176
 ,-0.00000398,-0.00002038,-0.00001544,0.00000993,0.00008868,0.00003571,
 0.00007142,-0.00007463,0.00009079,0.00043636,-0.00047206,-0.00006318,-
 0.00003045,-0.00008647,0.00008647,0.00066769,-0.00099039,-0.01989104,-
 0.01405770,0.00006171,0.26298407,0.00176658,0.00072685,-0.00042189,-0.
 00313315,0.00012668,-0.00104431,0.00000019,0.00031872,-0.00023285,-0.0
 0068589,-0.00011543,0.00378893,-0.01370064,-0.01073530,0.00051819,0.00
 010202,-0.00007770,-0.00053490,0.00003266,-0.00013805,-0.00004988,-0.0
 0010140,-0.00001670,-0.00005069,-0.00025073,-0.00016108,-0.00118453,-0
 .11927192,-0.12337467,0.00383154,0.00002042,0.00002452,0.00004198,0.00
 020633,-0.00008723,0.00005774,0.00038964,0.00030993,0.00021750,-0.0002
 9840,-0.00116743,0.00025940,0.00004675,-0.00006337,0.00004877,0.000046
 51,0.00012897,0.00002626,-0.00002314,0.00006242,-0.00004356,0.00001667
 ,-0.00001557,0.00000793,0.00004769,0.00003990,0.00005550,0.00003501,0.
 00001425,-0.00005881,0.00017747,0.00010524,-0.00018245,0.00016860,-0.0
 0013241,0.00029647,-0.00019052,-0.00008857,-0.00153612,0.01849669,0.01
 319533,-0.00074634,0.13385424,0.13223361,-0.00108565,-0.00039024,-0.00
 029972,0.00110823,-0.00045834,0.00146654,0.00022804,-0.00003759,0.0003
 5059,-0.00038489,0.00144980,-0.00499369,0.02527496,0.01579045,0.000025
 52,0.00064667,0.00014605,0.00143875,-0.00004218,-0.00015317,-0.0002416
 5,-0.00025419,0.00005123,0.00011086,-0.00003592,-0.00042686,-0.0013810
 7,0.00480695,0.00321086,-0.04870303,-0.00005763,0.00000517,-0.00001491
 ,-0.00023703,0.00024033,-0.00004905,0.00011798,-0.00013449,0.00016970,
 0.00072912,0.00116699,0.00012982,-0.00019358,0.00003314,0.00008355,0.0
 0009169,-0.00002866,0.00001895,0.00006147,-0.00007210,-0.00001977,0.00
 001036,0.00002391,-0.00000354,-0.00002763,-0.00006949,-0.00001706,-0.0
 0007613,-0.00011707,0.00017050,-0.00015181,-0.00008575,0.00029566,-0.0
 0028311,0.00008238,-0.00021567,-0.00026166,-0.00136785,-0.00161569,-0.
 00207350,-0.00219122,-0.00093189,-0.00507810,-0.00381818,0.05301045,-0
 .00028927,-0.00002102,0.00034092,0.00061217,0.00001838,-0.00089113,0.0
 0011647,-0.00012835,0.00013897,0.00027722,0.00044787,0.00104687,-0.001
 53782,0.00088159,0.00139252,-0.00010254,-0.00042228,0.00038723,0.00009
 494,0.00034014,-0.00009522,0.00023197,0.00012941,0.00009479,0.00017435
 ,-0.00054265,-0.00017984,-0.04923056,0.00038048,-0.00021371,-0.0001291
 1,-0.00002215,-0.00002326,0.00002640,0.00006764,-0.00002643,-0.0005620
 1,-0.00023677,0.00014839,-0.00000435,-0.00002207,-0.00020001,0.0000093
 1,-0.00004193,0.00003251,0.00006386,-0.00039926,0.00012790,0.00005912,
 -0.00016677,0.00014012,0.00000066,-0.00004560,0.00001826,0.00003846,-0
 .00002136,0.00004082,-0.00000777,0.00004278,-0.00002405,0.00005252,0.0
 0019574,-0.00020520,0.00006860,-0.00001838,0.00011919,-0.00011703,0.00
 044094,-0.00025754,0.00057560,0.01654059,0.02108371,0.00132565,-0.0177
 5169,-0.02283246,0.04825315,-0.00050954,0.00003496,0.00004926,0.000978
 63,0.00072748,0.00056487,-0.00019499,0.00037866,0.00005985,-0.00031833
 ,0.00063007,0.00054758,-0.00048357,0.01140896,0.01508068,-0.00028261,-
 0.00279198,0.00249213,0.00016862,-0.00045958,0.00018805,-0.00004426,0.
 00090317,0.00088306,-0.00014609,-0.00072389,0.00006214,0.00018544,-0.1
 5318625,-0.12893059,0.00005123,0.00002293,-0.00006731,0.00001534,0.000
 00539,0.00006188,0.00003547,0.00011178,0.00016214,0.00017417,0.0000658
 8,0.00000658,0.00002801,0.00007003,-0.00006730,-0.00017594,0.00035353,
 -0.00015918,-0.00005668,0.00013999,-0.00010465,-0.00000352,0.00002197,
 -0.00004206,0.00003985,-0.00013185,0.00041754,0.00001140,0.00005319,-0
 .00007975,0.00004865,0.00017667,-0.00016030,0.00001488,0.00004297,-0.0
 0002436,0.00007699,0.00048414,-0.00026617,-0.00130885,-0.01317827,-0.0
 1564559,0.00134098,-0.01111292,-0.01284929,0.00035471,0.16595295,-0.00
 098620,0.00039071,0.00050027,0.00143970,-0.00168269,-0.00092683,0.0000
 3324,0.00036992,-0.00058649,-0.00140777,-0.00099036,0.00033946,-0.0005
 8247,-0.01561217,-0.02247849,-0.00003637,0.00480859,-0.00265501,-0.000
 45842,0.00039227,0.00013816,0.00009193,-0.00163723,-0.00111394,0.00047
 385,0.00050289,0.00017016,0.00043046,-0.12824895,-0.20498969,0.0000579
 4,0.00012300,0.00008297,0.00000369,0.00023303,0.00013214,0.00081245,0.
 00042400,0.00071533,0.00013802,-0.00024136,0.00044439,0.00010508,-0.00
 000512,-0.00001733,0.00002814,-0.00007643,0.00011879,0.00006056,-0.000
 07378,-0.00001103,-0.00006340,0.00002393,0.00002246,0.00001252,0.00039
 410,-0.00059528,0.00010584,0.00008134,0.00000180,-0.00004766,-0.000071
 85,-0.00000618,-0.00005980,-0.00003419,-0.00001367,-0.00000428,-0.0000
 5659,0.00010742,0.00068775,0.00241186,0.00336231,-0.00067147,0.0007542
 9,0.00121584,-0.00016333,0.13782078,0.22604245\\0.00009964,-0.00011540
 ,-0.00042784,-0.00009900,-0.00006573,0.00042669,0.00001506,0.00004696,
 -0.00004616,-0.00009372,0.00004993,0.00003069,0.00010584,0.00004248,-0
 .00010255,0.00005250,-0.00008122,0.00003210,-0.00001133,-0.00002448,0.
 00002669,0.00003173,-0.00005137,-0.00005544,-0.00006138,0.00016264,0.0
 0008481,-0.00001831,0.00007061,0.00001745,-0.00003351,0.00008706,0.000
 05832,0.00001571,-0.00007232,0.00006778,0.00006831,-0.00000890,-0.0000
 4184,-0.00005736,0.00001237,-0.00005138,-0.00000209,-0.00000078,-0.000
 05663,0.00002895,0.00003090,0.00002052,-0.00002760,-0.00004280,0.00002
 559,-0.00001987,-0.00002450,-0.00000349,0.00003203,-0.00000438,-0.0000
 1072,-0.00000928,0.00002190,-0.00000070,-0.00001832,0.00003053,-0.0000
 2321,-0.00000724,-0.00001515,0.00004467,0.00001987,-0.00003622,-0.0000
 2428,-0.00005526,-0.00008433,-0.00005228,-0.00005714,0.00008249,0.0000
 4918,0.00010177,-0.00001029,0.00001203\\\@


 MOM AND DAD WENT TO ALPHA CENTAURI AND ALL
 I GOT WAS THIS DUMB T-SHIRT.
 Job cpu time:       0 days  0 hours  2 minutes 18.9 seconds.
 Elapsed time:       0 days  0 hours  2 minutes 19.1 seconds.
 File lengths (MBytes):  RWF=    106 Int=      0 D2E=      0 Chk=      5 Scr=      1
 Normal termination of Gaussian 16 at Wed Feb 21 19:43:03 2024.
