 Entering Gaussian System, Link 0=g16
 Input=/Volumes/SSD-PMU3/b3lyp_6-31gd_freq/DAURZYDASGOCAL-VFPRIHSDSA-N_calculating/gaussianinput0.gjf
 Output=/Volumes/SSD-PMU3/b3lyp_6-31gd_freq/DAURZYDASGOCAL-VFPRIHSDSA-N_calculating/gaussianinput0.log
 Initial command:
 /Applications/g16/l1.exe "/Users/macmini_m1_2022/PycharmProjects/sphere_model/sphere_model_lib/Gau-78837.inp" -scrdir="/Users/macmini_m1_2022/PycharmProjects/sphere_model/sphere_model_lib/"
 Entering Link 1 = /Applications/g16/l1.exe PID=     78838.
  
 Copyright (c) 1988,1990,1992,1993,1995,1998,2003,2009,2016,
            Gaussian, Inc.  All Rights Reserved.
  
 This is part of the Gaussian(R) 16 program.  It is based on
 the Gaussian(R) 09 system (copyright 2009, Gaussian, Inc.),
 the Gaussian(R) 03 system (copyright 2003, Gaussian, Inc.),
 the Gaussian(R) 98 system (copyright 1998, Gaussian, Inc.),
 the Gaussian(R) 94 system (copyright 1995, Gaussian, Inc.),
 the Gaussian 92(TM) system (copyright 1992, Gaussian, Inc.),
 the Gaussian 90(TM) system (copyright 1990, Gaussian, Inc.),
 the Gaussian 88(TM) system (copyright 1988, Gaussian, Inc.),
 the Gaussian 86(TM) system (copyright 1986, Carnegie Mellon
 University), and the Gaussian 82(TM) system (copyright 1983,
 Carnegie Mellon University). Gaussian is a federally registered
 trademark of Gaussian, Inc.
  
 This software contains proprietary and confidential information,
 including trade secrets, belonging to Gaussian, Inc.
  
 This software is provided under written license and may be
 used, copied, transmitted, or stored only in accord with that
 written license.
  
 The following legend is applicable only to US Government
 contracts under FAR:
  
                    RESTRICTED RIGHTS LEGEND
  
 Use, reproduction and disclosure by the US Government is
 subject to restrictions as set forth in subparagraphs (a)
 and (c) of the Commercial Computer Software - Restricted
 Rights clause in FAR 52.227-19.
  
 Gaussian, Inc.
 340 Quinnipiac St., Bldg. 40, Wallingford CT 06492
  
  
 ---------------------------------------------------------------
 Warning -- This program may not be used in any manner that
 competes with the business of Gaussian, Inc. or will provide
 assistance to any competitor of Gaussian, Inc.  The licensee
 of this program is prohibited from giving any competitor of
 Gaussian, Inc. access to this program.  By using this program,
 the user acknowledges that Gaussian, Inc. is engaged in the
 business of creating and licensing software in the field of
 computational chemistry and represents and warrants to the
 licensee that it is not a competitor of Gaussian, Inc. and that
 it will not use this program in any manner prohibited above.
 ---------------------------------------------------------------
  

 Cite this work as:
 Gaussian 16, Revision A.03,
 M. J. Frisch, G. W. Trucks, H. B. Schlegel, G. E. Scuseria, 
 M. A. Robb, J. R. Cheeseman, G. Scalmani, V. Barone, 
 G. A. Petersson, H. Nakatsuji, X. Li, M. Caricato, A. V. Marenich, 
 J. Bloino, B. G. Janesko, R. Gomperts, B. Mennucci, H. P. Hratchian, 
 J. V. Ortiz, A. F. Izmaylov, J. L. Sonnenberg, D. Williams-Young, 
 F. Ding, F. Lipparini, F. Egidi, J. Goings, B. Peng, A. Petrone, 
 T. Henderson, D. Ranasinghe, V. G. Zakrzewski, J. Gao, N. Rega, 
 G. Zheng, W. Liang, M. Hada, M. Ehara, K. Toyota, R. Fukuda, 
 J. Hasegawa, M. Ishida, T. Nakajima, Y. Honda, O. Kitao, H. Nakai, 
 T. Vreven, K. Throssell, J. A. Montgomery, Jr., J. E. Peralta, 
 F. Ogliaro, M. J. Bearpark, J. J. Heyd, E. N. Brothers, K. N. Kudin, 
 V. N. Staroverov, T. A. Keith, R. Kobayashi, J. Normand, 
 K. Raghavachari, A. P. Rendell, J. C. Burant, S. S. Iyengar, 
 J. Tomasi, M. Cossi, J. M. Millam, M. Klene, C. Adamo, R. Cammi, 
 J. W. Ochterski, R. L. Martin, K. Morokuma, O. Farkas, 
 J. B. Foresman, and D. J. Fox, Gaussian, Inc., Wallingford CT, 2016.
 
 ******************************************
 Gaussian 16:  EM64M-G16RevA.03 25-Dec-2016
                23-Feb-2024 
 ******************************************
 %nprocshared=10
 Will use up to   10 processors via shared memory.
 %mem=12GB
 %chk= 0.chk
 ---------------------
 # freq b3lyp/6-31g(d)
 ---------------------
 1/10=4,30=1,38=1/1,3;
 2/12=2,17=6,18=5,40=1/2;
 3/5=1,6=6,7=1,11=2,25=1,30=1,71=2,74=-5,140=1/1,2,3;
 4//1;
 5/5=2,38=5,98=1/2;
 8/6=4,10=90,11=11/1;
 11/6=1,8=1,9=11,15=111,16=1/1,2,10;
 10/6=1/2;
 6/7=2,8=2,9=2,10=2,28=1/1;
 7/8=1,10=1,25=1/1,2,3,16;
 1/10=4,30=1/3;
 99//99;
 ---------
 good luck
 ---------
 Symbolic Z-matrix:
 Charge =  0 Multiplicity = 1
 O                     1.21987   0.        0. 
 C                     0.        0.        0. 
 C                    -0.76976  -1.31366  -0.02036 
 C                    -1.22656  -1.72862  -1.45343 
 C                    -2.32227  -0.82695  -2.02262 
 C                    -3.65686  -1.57004  -1.97219 
 C                    -3.37464  -2.84467  -1.15251 
 C                    -1.88883  -3.12849  -1.43631 
 C                    -2.16329   0.40733  -2.51665 
 C                    -0.86126   1.16864  -2.64184 
 C                    -0.50526   2.01782  -1.37347 
 C                    -1.23261   3.34739  -1.62973 
 C                    -0.92921   3.61579  -3.11341 
 C                    -0.91099   2.21968  -3.80437 
 C                     0.24127   2.06831  -4.80336 
 C                    -0.77402   1.32656  -0.02036 
 C                    -0.33216   2.18924   1.17514 
 H                    -1.64514  -1.24561   0.63828 
 H                    -0.09722  -2.08665   0.36663 
 H                    -0.33142  -1.72422  -2.08798 
 H                    -4.46618  -0.96004  -1.55466 
 H                    -3.96521  -1.84405  -2.99136 
 H                    -4.02785  -3.68039  -1.42369 
 H                    -3.52502  -2.65176  -0.08272 
 H                    -1.42821  -3.80861  -0.71177 
 H                    -1.78586  -3.58785  -2.42823 
 H                    -3.05708   0.929    -2.8649 
 H                    -0.05237   0.44848  -2.8194 
 H                     0.57665   2.20959  -1.41579 
 H                    -2.3127    3.22384  -1.46718 
 H                    -0.89495   4.16053  -0.97855 
 H                     0.0607    4.08353  -3.20076 
 H                    -1.64502   4.30185  -3.57971 
 H                    -1.84977   2.08169  -4.35562 
 H                     0.21018   1.09431  -5.30619 
 H                     0.19858   2.84528  -5.57664 
 H                     1.21293   2.15485  -4.30038 
 H                    -1.84624   1.11697   0.06148 
 H                    -0.53717   1.68207   2.12545 
 H                    -0.86431   3.14563   1.18722 
 H                     0.74357   2.38454   1.1255 
 

 GradGradGradGradGradGradGradGradGradGradGradGradGradGradGradGradGradGrad
 Berny optimization.
 Initialization pass.
 Trust Radius=3.00D-01 FncErr=1.00D-07 GrdErr=1.00D-07 EigMax=2.50D+02 EigMin=1.00D-04
 Number of steps in this run=      2 maximum allowed number of steps=      2.
 GradGradGradGradGradGradGradGradGradGradGradGradGradGradGradGradGradGrad

                          Input orientation:                          
 ---------------------------------------------------------------------
 Center     Atomic      Atomic             Coordinates (Angstroms)
 Number     Number       Type             X           Y           Z
 ---------------------------------------------------------------------
      1          8           0        1.219873    0.000000    0.000000
      2          6           0        0.000000    0.000000    0.000000
      3          6           0       -0.769759   -1.313659   -0.020355
      4          6           0       -1.226563   -1.728622   -1.453430
      5          6           0       -2.322265   -0.826950   -2.022619
      6          6           0       -3.656862   -1.570041   -1.972189
      7          6           0       -3.374641   -2.844665   -1.152505
      8          6           0       -1.888833   -3.128491   -1.436305
      9          6           0       -2.163285    0.407325   -2.516645
     10          6           0       -0.861261    1.168635   -2.641843
     11          6           0       -0.505262    2.017824   -1.373468
     12          6           0       -1.232608    3.347392   -1.629732
     13          6           0       -0.929212    3.615785   -3.113414
     14          6           0       -0.910993    2.219680   -3.804370
     15          6           0        0.241270    2.068312   -4.803359
     16          6           0       -0.774019    1.326558   -0.020355
     17          6           0       -0.332159    2.189242    1.175135
     18          1           0       -1.645139   -1.245609    0.638279
     19          1           0       -0.097224   -2.086648    0.366626
     20          1           0       -0.331415   -1.724215   -2.087976
     21          1           0       -4.466178   -0.960040   -1.554663
     22          1           0       -3.965210   -1.844045   -2.991359
     23          1           0       -4.027845   -3.680389   -1.423686
     24          1           0       -3.525024   -2.651757   -0.082715
     25          1           0       -1.428205   -3.808605   -0.711767
     26          1           0       -1.785858   -3.587849   -2.428228
     27          1           0       -3.057077    0.928997   -2.864904
     28          1           0       -0.052371    0.448477   -2.819399
     29          1           0        0.576649    2.209590   -1.415785
     30          1           0       -2.312696    3.223840   -1.467182
     31          1           0       -0.894949    4.160529   -0.978552
     32          1           0        0.060699    4.083526   -3.200759
     33          1           0       -1.645024    4.301854   -3.579712
     34          1           0       -1.849773    2.081688   -4.355625
     35          1           0        0.210176    1.094309   -5.306189
     36          1           0        0.198581    2.845284   -5.576644
     37          1           0        1.212931    2.154850   -4.300381
     38          1           0       -1.846235    1.116974    0.061476
     39          1           0       -0.537166    1.682066    2.125448
     40          1           0       -0.864314    3.145631    1.187224
     41          1           0        0.743568    2.384544    1.125499
 ---------------------------------------------------------------------
                    Distance matrix (angstroms):
                    1          2          3          4          5
     1  O    0.000000
     2  C    1.219873   0.000000
     3  C    2.384271   1.522709   0.000000
     4  C    3.329511   2.570029   1.560310   0.000000
     5  C    4.161920   3.188691   2.579965   1.528905   0.000000
     6  C    5.489727   4.441531   3.494389   2.490103   1.528357
     7  C    5.525391   4.561643   3.226632   2.439333   2.436343
     8  C    4.638371   3.926591   2.559464   1.548718   2.414274
     9  C    4.236174   3.343534   3.336939   2.563229   1.338944
    10  C    3.560360   3.014434   3.611420   3.152756   2.549575
    11  C    2.989000   2.492653   3.605503   3.816088   3.437388
    12  C    4.458220   3.921783   4.952749   5.079078   4.332072
    13  C    5.233146   4.861140   5.821671   5.604164   4.782084
    14  C    4.892934   4.497790   5.179112   4.606039   3.801089
    15  C    5.320511   5.235302   5.944496   5.271932   4.763063
    16  C    2.394948   1.535993   2.640220   3.404794   3.323210
    17  C    2.929595   2.506801   3.727064   4.801976   4.825305
    18  H    3.188610   2.159959   1.097597   2.187179   2.777436
    19  H    2.494646   2.120841   1.095249   2.171680   3.499448
    20  H    3.120746   2.728076   2.153081   1.097250   2.184683
    21  H    5.972422   4.825495   4.017793   3.331077   2.198422
    22  H    6.263690   5.298266   4.395348   3.143046   2.161529
    23  H    6.565873   5.638766   4.264490   3.414302   3.377845
    24  H    5.436240   4.411853   3.063638   2.830894   2.922290
    25  H    4.693016   4.129389   2.671396   2.217443   3.377565
    26  H    5.272890   4.685962   3.464426   2.172502   2.841622
    27  H    5.230967   4.291437   4.284015   3.522212   2.081524
    28  H    3.125500   2.855326   3.384437   2.825661   2.722865
    29  H    2.701939   2.686868   4.021607   4.331571   4.241760
    30  H    5.002480   4.230169   5.006282   5.070183   4.088704
    31  H    4.768652   4.366749   5.558826   5.917565   5.291716
    32  H    5.316364   5.188808   6.319354   6.204133   5.583843
    33  H    6.287123   5.833214   6.705900   6.408028   5.402576
    34  H    5.720806   5.169773   5.611540   4.830071   3.758502
    35  H    5.511138   5.421930   5.890554   4.987676   4.570156
    36  H    6.343314   6.263708   7.007627   6.320803   5.698338
    37  H    4.810063   4.960631   5.854933   5.397927   5.155283
    38  H    3.263806   2.158702   2.659600   3.282735   2.889446
    39  H    3.230180   2.763227   3.692281   4.991636   5.166062
    40  H    3.955797   3.471532   4.620872   5.555414   5.311319
    41  H    2.679490   2.739652   4.156903   5.239315   5.442763
                    6          7          8          9         10
     6  C    0.000000
     7  C    1.541492   0.000000
     8  C    2.416995   1.539066   0.000000
     9  C    2.537160   3.728767   3.707351   0.000000
    10  C    3.970412   4.964049   4.579795   1.513451   0.000000
    11  C    4.812881   5.650306   5.329425   2.578682   1.567365
    12  C    5.493217   6.569446   6.511920   3.208858   2.430895
    13  C    5.969528   7.180717   7.015613   3.489023   2.493098
    14  C    5.025800   6.224913   5.930163   2.551686   1.568004
    15  C    6.037265   7.109212   6.548370   3.710771   2.587884
    16  C    4.528877   5.044214   4.805745   3.001085   2.627689
    17  C    5.923808   6.325727   6.125450   4.489709   3.986340
    18  H    3.311620   2.958896   2.812211   3.599196   4.147558
    19  H    4.290450   3.691045   2.746973   4.336100   4.497945
    20  H    3.331032   3.375165   2.195955   2.843056   2.992672
    21  H    1.096094   2.214722   3.370296   2.845771   4.325349
    22  H    1.099484   2.175177   2.894708   2.922491   4.339689
    23  H    2.211799   1.094828   2.209100   4.623911   5.918124
    24  H    2.181193   1.097397   2.176374   4.139605   5.314148
    25  H    3.400992   2.216313   1.095303   4.644566   5.368383
    26  H    2.789297   2.168876   1.097964   4.013936   4.850222
    27  H    2.720638   4.156162   4.457454   1.091920   2.220088
    28  H    4.217171   4.965964   4.252087   2.132911   1.097477
    29  H    5.702439   6.420865   5.879977   3.459377   2.157404
    30  H    5.004309   6.168752   6.366531   3.009394   2.776753
    31  H    6.438549   7.433161   7.370696   4.249817   3.423317
    32  H    6.876952   7.999796   7.676403   4.350698   3.107891
    33  H    6.411768   7.743103   7.737161   4.070143   3.363175
    34  H    4.720324   6.070762   5.972430   2.506717   2.178961
    35  H    5.759193   6.754222   6.100318   3.726502   2.872671
    36  H    6.881252   8.044653   7.562122   4.570082   3.542241
    37  H    6.558214   7.479979   6.762955   4.199332   2.832956
    38  H    3.825469   4.416374   4.502126   2.692737   2.877634
    39  H    6.090922   6.267977   6.136330   5.081167   4.805800
    40  H    6.325961   6.903602   6.877292   4.785843   4.309324
    41  H    6.678188   7.035167   6.624646   5.062055   4.271625
                   11         12         13         14         15
    11  C    0.000000
    12  C    1.537028   0.000000
    13  C    2.400130   1.537984   0.000000
    14  C    2.472781   2.470672   1.557839   0.000000
    15  C    3.510557   3.725623   2.573056   1.532515   0.000000
    16  C    1.543047   2.623770   3.851189   3.890398   4.945517
    17  C    2.560220   3.165343   4.558854   5.013127   6.007149
    18  H    3.999555   5.139038   6.182306   5.681930   6.644700
    19  H    4.476730   5.899435   6.732059   6.050115   6.641311
    20  H    3.813607   5.171396   5.470328   4.340072   4.699418
    21  H    4.958766   5.386611   5.989825   5.273627   6.471863
    22  H    5.431652   6.022637   6.248354   5.148115   6.023650
    23  H    6.699309   7.566076   8.104990   7.084719   7.918023
    24  H    5.708765   6.605923   7.430038   6.664441   7.664757
    25  H    5.936072   7.217286   7.819109   6.794992   7.352988
    26  H    5.846026   7.002946   7.286677   6.032126   6.460855
    27  H    3.149871   3.271540   3.436335   2.674722   3.991834
    28  H    2.181439   3.348429   3.299566   2.201036   2.578020
    29  H    1.099589   2.147971   2.669634   2.813986   3.407066
    30  H    2.174873   1.099217   2.185802   2.904403   4.357530
    31  H    2.213368   1.095099   2.203533   3.428177   4.505276
    32  H    2.815391   2.163946   1.098333   2.186882   2.581089
    33  H    3.373924   2.209866   1.095678   2.219171   3.169247
    34  H    3.271857   3.068125   2.178067   1.097375   2.138482
    35  H    4.102563   4.546905   3.530483   2.186079   1.096580
    36  H    4.341287   4.228301   2.816574   2.182542   1.097031
    37  H    3.396731   3.812504   2.851666   2.182036   1.097543
    38  H    2.160741   2.865569   4.143056   4.127397   5.378600
    39  H    3.515134   4.166333   5.598093   5.965863   6.983088
    40  H    2.820995   2.848085   4.326747   5.076965   6.186276
    41  H    2.817605   3.524719   4.720438   5.202726   5.958495
                   16         17         18         19         20
    16  C    0.000000
    17  C    1.539045   0.000000
    18  H    2.794404   3.716226   0.000000
    19  H    3.501111   4.357995   1.782465   0.000000
    20  H    3.711896   5.095394   3.063887   2.492243   0.000000
    21  H    4.605939   5.870254   3.584523   4.903912   4.238473
    22  H    5.391038   6.842963   4.349152   5.127985   3.746322
    23  H    6.134023   7.407060   3.982103   4.603804   4.234559
    24  H    4.837242   5.933957   2.455820   3.503008   3.883368
    25  H    5.222634   6.382467   2.904933   2.428905   2.727926
    26  H    5.565345   6.962201   3.861263   3.593925   2.388369
    27  H    3.669042   5.033419   4.358299   5.319552   3.882317
    28  H    3.021001   4.366331   4.166818   4.071809   2.309423
    29  H    2.133372   2.745763   4.592812   4.699868   4.092828
    30  H    2.839104   3.460456   4.985436   6.039243   5.366014
    31  H    2.994020   2.973394   5.692386   6.439960   6.014865
    32  H    4.290990   4.784464   6.785851   7.128971   5.926373
    33  H    4.720176   5.366127   6.968916   7.666957   6.345420
    34  H    4.530125   5.736203   6.004320   6.538051   4.683219
    35  H    5.381693   6.595496   6.652376   6.511053   4.312110
    36  H    5.841646   6.804307   7.665506   7.728772   5.773389
    37  H    4.790893   5.689443   6.642443   6.441100   4.725133
    38  H    1.095568   2.163890   2.440275   3.662697   3.871328
    39  H    2.187911   1.096517   3.465625   4.182130   5.421995
    40  H    2.185275   1.094539   4.493775   5.351500   5.892904
    41  H    2.176094   1.094438   4.372793   4.612416   5.325778
                   21         22         23         24         25
    21  H    0.000000
    22  H    1.759696   0.000000
    23  H    2.758548   2.415301   0.000000
    24  H    2.431935   3.050635   1.763269   0.000000
    25  H    4.249009   3.936042   2.698406   2.476016   0.000000
    26  H    3.853909   2.847375   2.458490   3.066333   1.767169
    27  H    2.696434   2.920695   4.926047   4.558657   5.452898
    28  H    4.802621   4.538231   5.899148   5.400019   4.945481
    29  H    5.957847   6.288312   7.476181   6.498730   6.382300
    30  H    4.706378   5.544130   7.114212   6.157039   7.127991
    31  H    6.269434   7.037955   8.455364   7.357109   7.991410
    32  H    6.974224   7.168535   8.952796   8.242794   8.408189
    33  H    6.304543   6.595566   8.604794   8.007253   8.605328
    34  H    4.893166   4.663440   6.822155   6.593158   6.939090
    35  H    6.337396   5.605909   7.472108   7.434340   6.916037
    36  H    7.239945   6.783116   8.814428   8.617769   8.401649
    37  H    7.035182   6.672169   8.354108   7.958668   7.444229
    38  H    3.713488   4.751578   5.475383   4.128251   5.003397
    39  H    5.996755   7.096947   7.316906   5.708354   6.244294
    40  H    6.111293   7.209229   7.963625   6.503986   7.230874
    41  H    6.746181   7.549972   8.127001   6.711556   6.815221
                   26         27         28         29         30
    26  H    0.000000
    27  H    4.712598   0.000000
    28  H    4.410206   3.043227   0.000000
    29  H    6.341670   4.116288   2.338230   0.000000
    30  H    6.899295   2.788196   3.826251   3.062623   0.000000
    31  H    7.933010   4.321565   4.228237   2.482526   1.768093
    32  H    7.928214   4.447963   3.656747   2.638934   3.062246
    33  H    7.974532   3.725723   4.238294   3.741120   2.463876
    34  H    5.988539   2.237974   2.873678   3.813993   3.140368
    35  H    5.847172   4.081929   2.582664   4.063668   5.063374
    36  H    7.432074   4.650269   3.661975   4.226084   4.830890
    37  H    6.743611   4.668648   2.589596   2.954445   4.647559
    38  H    5.323310   3.172566   3.458942   3.040802   2.644478
    39  H    7.075818   5.640982   5.119402   3.749560   4.293782
    40  H    7.698083   5.112868   4.897644   3.119007   3.024863
    41  H    7.395705   5.699722   4.465881   2.552762   4.094773
                   31         32         33         34         35
    31  H    0.000000
    32  H    2.420206   0.000000
    33  H    2.710834   1.760898   0.000000
    34  H    4.078957   2.998495   2.360741   0.000000
    35  H    5.417698   3.659316   4.087889   2.474243   0.000000
    36  H    4.905928   2.682738   3.083539   2.503941   1.771777
    37  H    4.415932   2.501319   3.646491   3.064076   1.772545
    38  H    3.354077   4.804061   4.841714   4.521224   5.748145
    39  H    3.988183   5.873069   6.374911   6.624722   7.492210
    40  H    2.391975   4.581451   4.966894   5.729422   6.893973
    41  H    3.204043   4.697804   5.614308   6.071232   6.581476
                   36         37         38         39         40
    36  H    0.000000
    37  H    1.770438   0.000000
    38  H    6.241532   5.427843   0.000000
    39  H    7.824105   6.676649   2.508579   0.000000
    40  H    6.853456   5.950664   2.519311   1.768986   0.000000
    41  H    6.740031   5.450985   3.073428   1.770213   1.779985
                   41
    41  H    0.000000
 Stoichiometry    C16H24O
 Framework group  C1[X(C16H24O)]
 Deg. of freedom   117
 Full point group                 C1      NOp   1
 Largest Abelian subgroup         C1      NOp   1
 Largest concise Abelian subgroup C1      NOp   1
                         Standard orientation:                         
 ---------------------------------------------------------------------
 Center     Atomic      Atomic             Coordinates (Angstroms)
 Number     Number       Type             X           Y           Z
 ---------------------------------------------------------------------
      1          8           0       -0.050698    2.345873    1.658184
      2          6           0       -0.445385    1.846079    0.617742
      3          6           0       -1.882890    1.359240    0.494406
      4          6           0       -2.030124   -0.172830    0.750632
      5          6           0       -1.415220   -1.031674   -0.354733
      6          6           0       -2.535615   -1.619417   -1.212140
      7          6           0       -3.818663   -0.910681   -0.734983
      8          6           0       -3.521073   -0.591764    0.740977
      9          6           0       -0.111914   -1.269709   -0.548395
     10          6           0        1.034204   -0.760835    0.298950
     11          6           0        1.586839    0.631511   -0.162134
     12          6           0        2.627316    0.256555   -1.229501
     13          6           0        3.360394   -0.930227   -0.581781
     14          6           0        2.279643   -1.710552    0.224402
     15          6           0        2.778169   -2.159924    1.602131
     16          6           0        0.515084    1.665088   -0.567170
     17          6           0        1.126971    3.028242   -0.936040
     18          1           0       -2.277851    1.604412   -0.499885
     19          1           0       -2.469746    1.894848    1.248258
     20          1           0       -1.569268   -0.379669    1.724690
     21          1           0       -2.353151   -1.502180   -2.286563
     22          1           0       -2.615797   -2.699763   -1.024286
     23          1           0       -4.718020   -1.521019   -0.866482
     24          1           0       -3.973940    0.018068   -1.298537
     25          1           0       -4.181049    0.173247    1.163917
     26          1           0       -3.643796   -1.500529    1.344807
     27          1           0        0.164761   -1.890214   -1.403214
     28          1           0        0.688253   -0.673968    1.336846
     29          1           0        2.122313    1.058836    0.697958
     30          1           0        2.122736   -0.053295   -2.155606
     31          1           0        3.303908    1.078783   -1.485244
     32          1           0        4.128766   -0.549182    0.104327
     33          1           0        3.875161   -1.565454   -1.311173
     34          1           0        1.995776   -2.610002   -0.336528
     35          1           0        2.015478   -2.741072    2.134163
     36          1           0        3.674236   -2.786521    1.513157
     37          1           0        3.038637   -1.296676    2.227878
     38          1           0       -0.043859    1.275409   -1.425076
     39          1           0        0.349291    3.744953   -1.225676
     40          1           0        1.820745    2.932572   -1.777193
     41          1           0        1.665586    3.446823   -0.080190
 ---------------------------------------------------------------------
 Rotational constants (GHZ):           0.6410249           0.3739499           0.2942974
 Standard basis: 6-31G(d) (6D, 7F)
 There are   303 symmetry adapted cartesian basis functions of A   symmetry.
 There are   303 symmetry adapted basis functions of A   symmetry.
   303 basis functions,   572 primitive gaussians,   303 cartesian basis functions
    64 alpha electrons       64 beta electrons
       nuclear repulsion energy      1296.5376348163 Hartrees.
 NAtoms=   41 NActive=   41 NUniq=   41 SFac= 1.00D+00 NAtFMM=   60 NAOKFM=F Big=F
 Integral buffers will be    131072 words long.
 Raffenetti 2 integral format.
 Two-electron integral symmetry is turned on.
 One-electron integrals computed using PRISM.
 NBasis=   303 RedAO= T EigKep=  1.53D-03  NBF=   303
 NBsUse=   303 1.00D-06 EigRej= -1.00D+00 NBFU=   303
 ExpMin= 1.61D-01 ExpMax= 5.48D+03 ExpMxC= 8.25D+02 IAcc=3 IRadAn=         5 AccDes= 0.00D+00
 Harris functional with IExCor=  402 and IRadAn=       5 diagonalized for initial guess.
 HarFok:  IExCor=  402 AccDes= 0.00D+00 IRadAn=         5 IDoV= 1 UseB2=F ITyADJ=14
 ICtDFT=  3500011 ScaDFX=  1.000000  1.000000  1.000000  1.000000
 FoFCou: FMM=F IPFlag=           0 FMFlag=      100000 FMFlg1=           0
         NFxFlg=           0 DoJE=T BraDBF=F KetDBF=T FulRan=T
         wScrn=  0.000000 ICntrl=       500 IOpCl=  0 I1Cent=   200000004 NGrid=           0
         NMat0=    1 NMatS0=      1 NMatT0=    0 NMatD0=    1 NMtDS0=    0 NMtDT0=    0
 Petite list used in FoFCou.
 Requested convergence on RMS density matrix=1.00D-08 within 128 cycles.
 Requested convergence on MAX density matrix=1.00D-06.
 Requested convergence on             energy=1.00D-06.
 No special actions if energy rises.
 Integral accuracy reduced to 1.0D-05 until final iterations.
 Initial convergence to 1.0D-05 achieved.  Increase integral accuracy.
 SCF Done:  E(RB3LYP) =  -699.372324910     A.U. after   14 cycles
            NFock= 14  Conv=0.52D-08     -V/T= 2.0098
 DoSCS=F DFT=T ScalE2(SS,OS)=  1.000000  1.000000
 Range of M.O.s used for correlation:     1   303
 NBasis=   303 NAE=    64 NBE=    64 NFC=     0 NFV=     0
 NROrb=    303 NOA=    64 NOB=    64 NVA=   239 NVB=   239
 Symmetrizing basis deriv contribution to polar:
 IMax=3 JMax=2 DiffMx= 0.00D+00
 G2DrvN: will do    42 centers at a time, making    1 passes.
 Calling FoFCou, ICntrl=  3107 FMM=F I1Cent=   0 AccDes= 0.00D+00.
 End of G2Drv F.D. properties file   721 does not exist.
 End of G2Drv F.D. properties file   722 does not exist.
 End of G2Drv F.D. properties file   788 does not exist.
          IDoAtm=11111111111111111111111111111111111111111
          Differentiating once with respect to electric field.
                with respect to dipole field.
          Differentiating once with respect to nuclear coordinates.
 Keep R1 ints in memory in canonical form, NReq=1074666535.
          There are   126 degrees of freedom in the 1st order CPHF.  IDoFFX=6 NUNeed=     3.
    123 vectors produced by pass  0 Test12= 1.53D-14 1.00D-09 XBig12= 1.38D+02 6.09D+00.
 AX will form   123 AO Fock derivatives at one time.
    123 vectors produced by pass  1 Test12= 1.53D-14 1.00D-09 XBig12= 1.57D+01 1.12D+00.
    123 vectors produced by pass  2 Test12= 1.53D-14 1.00D-09 XBig12= 9.85D-02 3.39D-02.
    123 vectors produced by pass  3 Test12= 1.53D-14 1.00D-09 XBig12= 2.47D-04 1.51D-03.
    123 vectors produced by pass  4 Test12= 1.53D-14 1.00D-09 XBig12= 2.59D-07 3.44D-05.
     61 vectors produced by pass  5 Test12= 1.53D-14 1.00D-09 XBig12= 1.75D-10 8.64D-07.
      3 vectors produced by pass  6 Test12= 1.53D-14 1.00D-09 XBig12= 1.18D-13 2.94D-08.
 InvSVY:  IOpt=1 It=  1 EMax= 7.11D-15
 Solved reduced A of dimension   679 with   126 vectors.
 Isotropic polarizability for W=    0.000000      161.33 Bohr**3.
 End of Minotr F.D. properties file   721 does not exist.
 End of Minotr F.D. properties file   722 does not exist.
 End of Minotr F.D. properties file   788 does not exist.

 **********************************************************************

            Population analysis using the SCF density.

 **********************************************************************

 Orbital symmetries:
       Occupied  (A) (A) (A) (A) (A) (A) (A) (A) (A) (A) (A) (A)
                 (A) (A) (A) (A) (A) (A) (A) (A) (A) (A) (A) (A)
                 (A) (A) (A) (A) (A) (A) (A) (A) (A) (A) (A) (A)
                 (A) (A) (A) (A) (A) (A) (A) (A) (A) (A) (A) (A)
                 (A) (A) (A) (A) (A) (A) (A) (A) (A) (A) (A) (A)
                 (A) (A) (A) (A)
       Virtual   (A) (A) (A) (A) (A) (A) (A) (A) (A) (A) (A) (A)
                 (A) (A) (A) (A) (A) (A) (A) (A) (A) (A) (A) (A)
                 (A) (A) (A) (A) (A) (A) (A) (A) (A) (A) (A) (A)
                 (A) (A) (A) (A) (A) (A) (A) (A) (A) (A) (A) (A)
                 (A) (A) (A) (A) (A) (A) (A) (A) (A) (A) (A) (A)
                 (A) (A) (A) (A) (A) (A) (A) (A) (A) (A) (A) (A)
                 (A) (A) (A) (A) (A) (A) (A) (A) (A) (A) (A) (A)
                 (A) (A) (A) (A) (A) (A) (A) (A) (A) (A) (A) (A)
                 (A) (A) (A) (A) (A) (A) (A) (A) (A) (A) (A) (A)
                 (A) (A) (A) (A) (A) (A) (A) (A) (A) (A) (A) (A)
                 (A) (A) (A) (A) (A) (A) (A) (A) (A) (A) (A) (A)
                 (A) (A) (A) (A) (A) (A) (A) (A) (A) (A) (A) (A)
                 (A) (A) (A) (A) (A) (A) (A) (A) (A) (A) (A) (A)
                 (A) (A) (A) (A) (A) (A) (A) (A) (A) (A) (A) (A)
                 (A) (A) (A) (A) (A) (A) (A) (A) (A) (A) (A) (A)
                 (A) (A) (A) (A) (A) (A) (A) (A) (A) (A) (A) (A)
                 (A) (A) (A) (A) (A) (A) (A) (A) (A) (A) (A) (A)
                 (A) (A) (A) (A) (A) (A) (A) (A) (A) (A) (A) (A)
                 (A) (A) (A) (A) (A) (A) (A) (A) (A) (A) (A) (A)
                 (A) (A) (A) (A) (A) (A) (A) (A) (A) (A) (A)
 The electronic state is 1-A.
 Alpha  occ. eigenvalues --  -19.13026 -10.26385 -10.19898 -10.18880 -10.18780
 Alpha  occ. eigenvalues --  -10.18568 -10.18561 -10.18522 -10.18431 -10.18411
 Alpha  occ. eigenvalues --  -10.18407 -10.18351 -10.17681 -10.17557 -10.17483
 Alpha  occ. eigenvalues --  -10.17462 -10.17096  -1.02954  -0.85470  -0.83925
 Alpha  occ. eigenvalues --   -0.78579  -0.75813  -0.75638  -0.72890  -0.70137
 Alpha  occ. eigenvalues --   -0.68393  -0.65511  -0.62656  -0.61980  -0.57442
 Alpha  occ. eigenvalues --   -0.55916  -0.54693  -0.52579  -0.50905  -0.48372
 Alpha  occ. eigenvalues --   -0.47846  -0.47001  -0.45854  -0.44988  -0.43517
 Alpha  occ. eigenvalues --   -0.42177  -0.41918  -0.41001  -0.40580  -0.39798
 Alpha  occ. eigenvalues --   -0.38754  -0.38167  -0.37943  -0.37293  -0.36858
 Alpha  occ. eigenvalues --   -0.35575  -0.34990  -0.34004  -0.33808  -0.33012
 Alpha  occ. eigenvalues --   -0.32729  -0.31835  -0.31632  -0.31533  -0.31104
 Alpha  occ. eigenvalues --   -0.30625  -0.29861  -0.23296  -0.22894
 Alpha virt. eigenvalues --   -0.01420   0.01406   0.08195   0.08906   0.09372
 Alpha virt. eigenvalues --    0.10453   0.11263   0.12811   0.13414   0.13950
 Alpha virt. eigenvalues --    0.14373   0.14584   0.15199   0.15850   0.16146
 Alpha virt. eigenvalues --    0.16857   0.17300   0.17499   0.17878   0.18248
 Alpha virt. eigenvalues --    0.18949   0.19344   0.19448   0.19577   0.20233
 Alpha virt. eigenvalues --    0.20643   0.21740   0.22778   0.23032   0.23504
 Alpha virt. eigenvalues --    0.24577   0.24695   0.25151   0.26005   0.27053
 Alpha virt. eigenvalues --    0.28005   0.30039   0.30396   0.31149   0.32019
 Alpha virt. eigenvalues --    0.32657   0.34813   0.37362   0.39121   0.41511
 Alpha virt. eigenvalues --    0.49912   0.50387   0.52301   0.53000   0.53758
 Alpha virt. eigenvalues --    0.54518   0.54723   0.55758   0.56208   0.56720
 Alpha virt. eigenvalues --    0.57535   0.58024   0.58930   0.60016   0.61545
 Alpha virt. eigenvalues --    0.62243   0.62989   0.63111   0.64528   0.65932
 Alpha virt. eigenvalues --    0.66653   0.67049   0.68086   0.68555   0.69731
 Alpha virt. eigenvalues --    0.70277   0.71245   0.72736   0.73805   0.76720
 Alpha virt. eigenvalues --    0.77735   0.78665   0.79959   0.80950   0.81737
 Alpha virt. eigenvalues --    0.82360   0.82841   0.83915   0.84104   0.84661
 Alpha virt. eigenvalues --    0.85698   0.85973   0.86513   0.87566   0.87885
 Alpha virt. eigenvalues --    0.88291   0.88581   0.89745   0.89828   0.90323
 Alpha virt. eigenvalues --    0.90769   0.91856   0.92288   0.92980   0.93431
 Alpha virt. eigenvalues --    0.94308   0.94792   0.95438   0.95800   0.96675
 Alpha virt. eigenvalues --    0.97323   0.98021   0.99175   0.99785   1.00755
 Alpha virt. eigenvalues --    1.01276   1.02399   1.06773   1.07605   1.08857
 Alpha virt. eigenvalues --    1.09445   1.11012   1.13511   1.14902   1.18615
 Alpha virt. eigenvalues --    1.20554   1.22368   1.25162   1.28073   1.30541
 Alpha virt. eigenvalues --    1.32662   1.39986   1.40915   1.44667   1.45980
 Alpha virt. eigenvalues --    1.48092   1.50718   1.52572   1.55038   1.58134
 Alpha virt. eigenvalues --    1.60191   1.61567   1.65025   1.66227   1.67915
 Alpha virt. eigenvalues --    1.69564   1.70028   1.71788   1.72915   1.74451
 Alpha virt. eigenvalues --    1.75286   1.77216   1.79768   1.80041   1.81356
 Alpha virt. eigenvalues --    1.82268   1.83663   1.84256   1.87133   1.87892
 Alpha virt. eigenvalues --    1.88289   1.88705   1.89611   1.91035   1.91955
 Alpha virt. eigenvalues --    1.93857   1.94444   1.95208   1.97855   1.98745
 Alpha virt. eigenvalues --    2.00635   2.00951   2.02884   2.03230   2.04689
 Alpha virt. eigenvalues --    2.05345   2.07005   2.08219   2.08490   2.10300
 Alpha virt. eigenvalues --    2.12974   2.13870   2.14238   2.15837   2.17123
 Alpha virt. eigenvalues --    2.19440   2.21536   2.22535   2.24576   2.25829
 Alpha virt. eigenvalues --    2.27285   2.29591   2.31077   2.31992   2.34106
 Alpha virt. eigenvalues --    2.35993   2.37473   2.38243   2.39396   2.42850
 Alpha virt. eigenvalues --    2.43690   2.45632   2.47657   2.50184   2.50959
 Alpha virt. eigenvalues --    2.53074   2.54033   2.56029   2.58276   2.59993
 Alpha virt. eigenvalues --    2.60727   2.62530   2.63131   2.66964   2.68073
 Alpha virt. eigenvalues --    2.71692   2.74362   2.75115   2.76334   2.77948
 Alpha virt. eigenvalues --    2.84650   2.85796   2.91403   2.99224   2.99982
 Alpha virt. eigenvalues --    3.02077   3.12033   4.11594   4.16467   4.18395
 Alpha virt. eigenvalues --    4.20591   4.22486   4.25414   4.28440   4.32168
 Alpha virt. eigenvalues --    4.37878   4.44746   4.48810   4.51985   4.59689
 Alpha virt. eigenvalues --    4.64251   4.68200   4.71953   4.79819
          Condensed to atoms (all electrons):
               1          2          3          4          5          6
     1  O    8.071812   0.536522  -0.075923  -0.002402  -0.000197  -0.000002
     2  C    0.536522   4.553787   0.337780  -0.023740  -0.005756  -0.000133
     3  C   -0.075923   0.337780   5.293745   0.351882  -0.047040   0.000288
     4  C   -0.002402  -0.023740   0.351882   5.040460   0.398137  -0.087062
     5  C   -0.000197  -0.005756  -0.047040   0.398137   4.751792   0.377283
     6  C   -0.000002  -0.000133   0.000288  -0.087062   0.377283   5.130062
     7  C   -0.000000  -0.000053  -0.002861  -0.057138  -0.053346   0.355309
     8  C   -0.000035   0.003308  -0.042828   0.350239  -0.045155  -0.078467
     9  C    0.000243  -0.001041  -0.003734  -0.055958   0.632554  -0.046521
    10  C   -0.002145  -0.003173   0.000584  -0.012180  -0.023181   0.005371
    11  C   -0.002353  -0.024186   0.002982   0.000625  -0.008848  -0.000028
    12  C    0.000195   0.004275  -0.000170  -0.000014  -0.000023  -0.000006
    13  C   -0.000004  -0.000131   0.000004  -0.000007  -0.000198   0.000004
    14  C    0.000013  -0.000040   0.000003   0.000141   0.004503  -0.000130
    15  C   -0.000003  -0.000006   0.000000  -0.000004  -0.000281   0.000002
    16  C   -0.088515   0.296031  -0.108210  -0.001502   0.004739  -0.000033
    17  C   -0.004271  -0.025096   0.004304   0.000196   0.000028  -0.000002
    18  H    0.003080  -0.026807   0.337000  -0.032397  -0.005859   0.001988
    19  H    0.004632  -0.025716   0.335831  -0.025814   0.005227  -0.000112
    20  H    0.002640  -0.003260  -0.052060   0.366897  -0.037920   0.006305
    21  H    0.000000   0.000004  -0.000022   0.004678  -0.030709   0.363828
    22  H    0.000000  -0.000005  -0.000007   0.001572  -0.031647   0.365041
    23  H    0.000000   0.000001  -0.000003   0.005109   0.003499  -0.027723
    24  H    0.000000  -0.000067   0.001427  -0.001306  -0.002175  -0.034708
    25  H   -0.000004   0.000127  -0.006583  -0.031569   0.003643   0.005614
    26  H    0.000001  -0.000105   0.004765  -0.030653  -0.002866   0.000949
    27  H   -0.000001   0.000045  -0.000147   0.006692  -0.039842  -0.012093
    28  H    0.001421   0.005360  -0.001831   0.002901  -0.010219  -0.000007
    29  H    0.009509  -0.007948   0.000672  -0.000136   0.000285   0.000003
    30  H   -0.000001  -0.000031  -0.000006  -0.000000   0.000520  -0.000004
    31  H   -0.000001  -0.000026   0.000000   0.000000  -0.000006  -0.000000
    32  H   -0.000000  -0.000001  -0.000000  -0.000000   0.000008  -0.000000
    33  H    0.000000   0.000002  -0.000000   0.000000  -0.000000  -0.000000
    34  H   -0.000000   0.000005  -0.000001   0.000025   0.001153  -0.000043
    35  H   -0.000000  -0.000001   0.000000  -0.000006   0.000013   0.000001
    36  H   -0.000000  -0.000000  -0.000000   0.000000   0.000001  -0.000000
    37  H    0.000000  -0.000001  -0.000000  -0.000000   0.000016  -0.000000
    38  H    0.003976  -0.033859   0.001560  -0.001582   0.004633   0.000099
    39  H    0.000275  -0.002854   0.000609   0.000001   0.000009  -0.000000
    40  H    0.000182   0.004097  -0.000134  -0.000001   0.000006   0.000000
    41  H    0.009190  -0.007000   0.000471  -0.000009  -0.000005   0.000000
               7          8          9         10         11         12
     1  O   -0.000000  -0.000035   0.000243  -0.002145  -0.002353   0.000195
     2  C   -0.000053   0.003308  -0.001041  -0.003173  -0.024186   0.004275
     3  C   -0.002861  -0.042828  -0.003734   0.000584   0.002982  -0.000170
     4  C   -0.057138   0.350239  -0.055958  -0.012180   0.000625  -0.000014
     5  C   -0.053346  -0.045155   0.632554  -0.023181  -0.008848  -0.000023
     6  C    0.355309  -0.078467  -0.046521   0.005371  -0.000028  -0.000006
     7  C    5.043815   0.372250   0.004873  -0.000179  -0.000002   0.000000
     8  C    0.372250   5.092519   0.007905   0.000121   0.000008   0.000000
     9  C    0.004873   0.007905   5.076540   0.357323  -0.046548  -0.005647
    10  C   -0.000179   0.000121   0.357323   5.094929   0.363287  -0.058274
    11  C   -0.000002   0.000008  -0.046548   0.363287   4.988571   0.365842
    12  C    0.000000   0.000000  -0.005647  -0.058274   0.365842   5.080545
    13  C   -0.000000   0.000000  -0.001095  -0.063438  -0.059494   0.366722
    14  C    0.000002  -0.000003  -0.023048   0.364107  -0.055337  -0.064692
    15  C   -0.000000   0.000000   0.002226  -0.030308   0.000361   0.002839
    16  C   -0.000001  -0.000206  -0.011804  -0.038739   0.363225  -0.035300
    17  C    0.000000   0.000001   0.000614   0.004500  -0.029938  -0.005387
    18  H    0.002200  -0.005990  -0.000203  -0.000051   0.000319  -0.000002
    19  H   -0.000094  -0.007260  -0.000031  -0.000050  -0.000173   0.000002
    20  H    0.004769  -0.037453  -0.008279   0.001241  -0.000469   0.000008
    21  H   -0.028510   0.004828  -0.003818  -0.000017   0.000027  -0.000000
    22  H   -0.037056   0.000212  -0.007220  -0.000174  -0.000014   0.000000
    23  H    0.369985  -0.029474  -0.000118   0.000002   0.000000  -0.000000
    24  H    0.376400  -0.039971  -0.000236   0.000001  -0.000002   0.000000
    25  H   -0.029935   0.365550  -0.000202  -0.000004   0.000001  -0.000000
    26  H   -0.039019   0.369314  -0.000447   0.000019  -0.000001   0.000000
    27  H    0.000161  -0.000152   0.352645  -0.060880   0.001262   0.001047
    28  H    0.000007   0.000063  -0.044152   0.364315  -0.037304   0.006987
    29  H   -0.000000   0.000001   0.005823  -0.039983   0.363368  -0.049115
    30  H   -0.000000  -0.000000   0.005127  -0.008510  -0.038095   0.368190
    31  H    0.000000  -0.000000  -0.000064   0.005927  -0.027961   0.366642
    32  H    0.000000  -0.000000   0.000103  -0.001589  -0.001080  -0.036199
    33  H    0.000000  -0.000000   0.000011   0.004921   0.004685  -0.027605
    34  H    0.000000   0.000000  -0.004308  -0.053944   0.003886   0.003350
    35  H   -0.000000  -0.000000   0.000208  -0.004337   0.000138  -0.000176
    36  H    0.000000   0.000000  -0.000151   0.004376  -0.000145   0.000098
    37  H    0.000000   0.000000   0.000259  -0.006119   0.000581   0.000234
    38  H   -0.000015  -0.000019   0.009720  -0.009330  -0.039553  -0.005153
    39  H   -0.000000   0.000000   0.000008  -0.000118   0.004291   0.000096
    40  H    0.000000  -0.000000  -0.000018   0.000024  -0.007070   0.003288
    41  H   -0.000000   0.000000  -0.000003  -0.000030  -0.005129  -0.000494
              13         14         15         16         17         18
     1  O   -0.000004   0.000013  -0.000003  -0.088515  -0.004271   0.003080
     2  C   -0.000131  -0.000040  -0.000006   0.296031  -0.025096  -0.026807
     3  C    0.000004   0.000003   0.000000  -0.108210   0.004304   0.337000
     4  C   -0.000007   0.000141  -0.000004  -0.001502   0.000196  -0.032397
     5  C   -0.000198   0.004503  -0.000281   0.004739   0.000028  -0.005859
     6  C    0.000004  -0.000130   0.000002  -0.000033  -0.000002   0.001988
     7  C   -0.000000   0.000002  -0.000000  -0.000001   0.000000   0.002200
     8  C    0.000000  -0.000003   0.000000  -0.000206   0.000001  -0.005990
     9  C   -0.001095  -0.023048   0.002226  -0.011804   0.000614  -0.000203
    10  C   -0.063438   0.364107  -0.030308  -0.038739   0.004500  -0.000051
    11  C   -0.059494  -0.055337   0.000361   0.363225  -0.029938   0.000319
    12  C    0.366722  -0.064692   0.002839  -0.035300  -0.005387  -0.000002
    13  C    5.066613   0.373326  -0.037914   0.004358   0.000178  -0.000000
    14  C    0.373326   4.939646   0.368314   0.004723  -0.000129   0.000001
    15  C   -0.037914   0.368314   5.098878  -0.000060   0.000001  -0.000000
    16  C    0.004358   0.004723  -0.000060   5.220556   0.340493   0.003529
    17  C    0.000178  -0.000129   0.000001   0.340493   5.109825  -0.000408
    18  H   -0.000000   0.000001  -0.000000   0.003529  -0.000408   0.601391
    19  H   -0.000000   0.000001   0.000000   0.006342  -0.000261  -0.030939
    20  H   -0.000000   0.000032  -0.000009   0.000543  -0.000010   0.006315
    21  H   -0.000000  -0.000004  -0.000000   0.000018  -0.000001  -0.000223
    22  H   -0.000000   0.000013  -0.000000   0.000005   0.000000  -0.000006
    23  H    0.000000  -0.000000   0.000000  -0.000000  -0.000000  -0.000068
    24  H    0.000000  -0.000000   0.000000   0.000020   0.000000   0.002623
    25  H   -0.000000   0.000000  -0.000000  -0.000008  -0.000000   0.000262
    26  H    0.000000  -0.000000   0.000000   0.000007  -0.000000   0.000030
    27  H    0.000665  -0.008227   0.000161  -0.000077  -0.000004  -0.000022
    28  H    0.004529  -0.044897  -0.004972  -0.002963  -0.000018   0.000041
    29  H    0.000503  -0.001526   0.000479  -0.047275  -0.005718  -0.000016
    30  H   -0.034034  -0.000668  -0.000020  -0.005198  -0.000461   0.000001
    31  H   -0.028856   0.004748  -0.000162  -0.001823   0.001381  -0.000000
    32  H    0.371123  -0.039643  -0.009297   0.000039  -0.000010   0.000000
    33  H    0.361897  -0.027485   0.002494  -0.000164   0.000001   0.000000
    34  H   -0.040537   0.375486  -0.045643  -0.000141   0.000002  -0.000000
    35  H    0.004793  -0.029598   0.369785  -0.000001  -0.000000   0.000000
    36  H   -0.004267  -0.029376   0.369040   0.000002  -0.000000  -0.000000
    37  H   -0.005957  -0.033871   0.373095  -0.000041   0.000001   0.000000
    38  H    0.000074   0.000122  -0.000004   0.344026  -0.044271   0.001062
    39  H   -0.000001   0.000002  -0.000000  -0.032508   0.370035   0.000224
    40  H   -0.000061  -0.000003  -0.000000  -0.029076   0.369497  -0.000026
    41  H   -0.000016   0.000000  -0.000000  -0.034178   0.371742  -0.000053
              19         20         21         22         23         24
     1  O    0.004632   0.002640   0.000000   0.000000   0.000000   0.000000
     2  C   -0.025716  -0.003260   0.000004  -0.000005   0.000001  -0.000067
     3  C    0.335831  -0.052060  -0.000022  -0.000007  -0.000003   0.001427
     4  C   -0.025814   0.366897   0.004678   0.001572   0.005109  -0.001306
     5  C    0.005227  -0.037920  -0.030709  -0.031647   0.003499  -0.002175
     6  C   -0.000112   0.006305   0.363828   0.365041  -0.027723  -0.034708
     7  C   -0.000094   0.004769  -0.028510  -0.037056   0.369985   0.376400
     8  C   -0.007260  -0.037453   0.004828   0.000212  -0.029474  -0.039971
     9  C   -0.000031  -0.008279  -0.003818  -0.007220  -0.000118  -0.000236
    10  C   -0.000050   0.001241  -0.000017  -0.000174   0.000002   0.000001
    11  C   -0.000173  -0.000469   0.000027  -0.000014   0.000000  -0.000002
    12  C    0.000002   0.000008  -0.000000   0.000000  -0.000000   0.000000
    13  C   -0.000000  -0.000000  -0.000000  -0.000000   0.000000   0.000000
    14  C    0.000001   0.000032  -0.000004   0.000013  -0.000000  -0.000000
    15  C    0.000000  -0.000009  -0.000000  -0.000000   0.000000   0.000000
    16  C    0.006342   0.000543   0.000018   0.000005  -0.000000   0.000020
    17  C   -0.000261  -0.000010  -0.000001   0.000000  -0.000000   0.000000
    18  H   -0.030939   0.006315  -0.000223  -0.000006  -0.000068   0.002623
    19  H    0.576643  -0.001788   0.000002   0.000007  -0.000010   0.000274
    20  H   -0.001788   0.601238  -0.000125  -0.000167  -0.000131  -0.000023
    21  H    0.000002  -0.000125   0.581294  -0.035632   0.001752  -0.006674
    22  H    0.000007  -0.000167  -0.035632   0.590461  -0.006657   0.005269
    23  H   -0.000010  -0.000131   0.001752  -0.006657   0.585832  -0.036024
    24  H    0.000274  -0.000023  -0.006674   0.005269  -0.036024   0.594939
    25  H    0.004287   0.001701  -0.000152  -0.000112   0.001021  -0.005479
    26  H    0.000248  -0.005425  -0.000060   0.002322  -0.005965   0.005382
    27  H    0.000005  -0.000082   0.002816   0.001445  -0.000004  -0.000002
    28  H    0.000096   0.006484  -0.000007   0.000031   0.000000  -0.000000
    29  H    0.000001   0.000006  -0.000000   0.000000   0.000000   0.000000
    30  H    0.000000   0.000001  -0.000005   0.000001   0.000000   0.000000
    31  H   -0.000000  -0.000000   0.000000  -0.000000  -0.000000  -0.000000
    32  H    0.000000   0.000000  -0.000000   0.000000  -0.000000   0.000000
    33  H    0.000000  -0.000000  -0.000000   0.000000  -0.000000   0.000000
    34  H   -0.000000  -0.000007   0.000004  -0.000008  -0.000000  -0.000000
    35  H   -0.000000  -0.000002   0.000000  -0.000000   0.000000  -0.000000
    36  H    0.000000   0.000000  -0.000000   0.000000  -0.000000   0.000000
    37  H   -0.000000  -0.000001   0.000000  -0.000000   0.000000  -0.000000
    38  H    0.000063   0.000039   0.000016   0.000011   0.000000   0.000014
    39  H   -0.000036   0.000001  -0.000000   0.000000   0.000000  -0.000000
    40  H    0.000005   0.000000  -0.000000   0.000000  -0.000000   0.000000
    41  H   -0.000007  -0.000003   0.000000  -0.000000  -0.000000  -0.000000
              25         26         27         28         29         30
     1  O   -0.000004   0.000001  -0.000001   0.001421   0.009509  -0.000001
     2  C    0.000127  -0.000105   0.000045   0.005360  -0.007948  -0.000031
     3  C   -0.006583   0.004765  -0.000147  -0.001831   0.000672  -0.000006
     4  C   -0.031569  -0.030653   0.006692   0.002901  -0.000136  -0.000000
     5  C    0.003643  -0.002866  -0.039842  -0.010219   0.000285   0.000520
     6  C    0.005614   0.000949  -0.012093  -0.000007   0.000003  -0.000004
     7  C   -0.029935  -0.039019   0.000161   0.000007  -0.000000  -0.000000
     8  C    0.365550   0.369314  -0.000152   0.000063   0.000001  -0.000000
     9  C   -0.000202  -0.000447   0.352645  -0.044152   0.005823   0.005127
    10  C   -0.000004   0.000019  -0.060880   0.364315  -0.039983  -0.008510
    11  C    0.000001  -0.000001   0.001262  -0.037304   0.363368  -0.038095
    12  C   -0.000000   0.000000   0.001047   0.006987  -0.049115   0.368190
    13  C   -0.000000   0.000000   0.000665   0.004529   0.000503  -0.034034
    14  C    0.000000  -0.000000  -0.008227  -0.044897  -0.001526  -0.000668
    15  C   -0.000000   0.000000   0.000161  -0.004972   0.000479  -0.000020
    16  C   -0.000008   0.000007  -0.000077  -0.002963  -0.047275  -0.005198
    17  C   -0.000000  -0.000000  -0.000004  -0.000018  -0.005718  -0.000461
    18  H    0.000262   0.000030  -0.000022   0.000041  -0.000016   0.000001
    19  H    0.004287   0.000248   0.000005   0.000096   0.000001   0.000000
    20  H    0.001701  -0.005425  -0.000082   0.006484   0.000006   0.000001
    21  H   -0.000152  -0.000060   0.002816  -0.000007  -0.000000  -0.000005
    22  H   -0.000112   0.002322   0.001445   0.000031   0.000000   0.000001
    23  H    0.001021  -0.005965  -0.000004   0.000000   0.000000   0.000000
    24  H   -0.005479   0.005382  -0.000002  -0.000000   0.000000   0.000000
    25  H    0.589567  -0.034918   0.000004   0.000004   0.000000   0.000000
    26  H   -0.034918   0.594482  -0.000003  -0.000021  -0.000000  -0.000000
    27  H    0.000004  -0.000003   0.630311   0.005390  -0.000163   0.000390
    28  H    0.000004  -0.000021   0.005390   0.610310  -0.007615  -0.000008
    29  H    0.000000  -0.000000  -0.000163  -0.007615   0.620473   0.006004
    30  H    0.000000  -0.000000   0.000390  -0.000008   0.006004   0.607799
    31  H    0.000000  -0.000000  -0.000002  -0.000187  -0.005466  -0.037685
    32  H   -0.000000  -0.000000  -0.000023  -0.000105   0.003042   0.005202
    33  H    0.000000   0.000000  -0.000093  -0.000119  -0.000024  -0.006270
    34  H    0.000000   0.000000   0.006239   0.003857  -0.000085   0.000433
    35  H    0.000000   0.000000   0.000021   0.002328   0.000024   0.000008
    36  H   -0.000000   0.000000  -0.000001   0.000205  -0.000056  -0.000003
    37  H   -0.000000  -0.000000   0.000003   0.001756   0.001112   0.000007
    38  H   -0.000000  -0.000000  -0.000232   0.000077   0.007139   0.005224
    39  H    0.000000  -0.000000  -0.000000   0.000002  -0.000013  -0.000029
    40  H    0.000000   0.000000  -0.000000  -0.000003  -0.000171   0.000470
    41  H    0.000000  -0.000000  -0.000000  -0.000009   0.006024   0.000060
              31         32         33         34         35         36
     1  O   -0.000001  -0.000000   0.000000  -0.000000  -0.000000  -0.000000
     2  C   -0.000026  -0.000001   0.000002   0.000005  -0.000001  -0.000000
     3  C    0.000000  -0.000000  -0.000000  -0.000001   0.000000  -0.000000
     4  C    0.000000  -0.000000   0.000000   0.000025  -0.000006   0.000000
     5  C   -0.000006   0.000008  -0.000000   0.001153   0.000013   0.000001
     6  C   -0.000000  -0.000000  -0.000000  -0.000043   0.000001  -0.000000
     7  C    0.000000   0.000000   0.000000   0.000000  -0.000000   0.000000
     8  C   -0.000000  -0.000000  -0.000000   0.000000  -0.000000   0.000000
     9  C   -0.000064   0.000103   0.000011  -0.004308   0.000208  -0.000151
    10  C    0.005927  -0.001589   0.004921  -0.053944  -0.004337   0.004376
    11  C   -0.027961  -0.001080   0.004685   0.003886   0.000138  -0.000145
    12  C    0.366642  -0.036199  -0.027605   0.003350  -0.000176   0.000098
    13  C   -0.028856   0.371123   0.361897  -0.040537   0.004793  -0.004267
    14  C    0.004748  -0.039643  -0.027485   0.375486  -0.029598  -0.029376
    15  C   -0.000162  -0.009297   0.002494  -0.045643   0.369785   0.369040
    16  C   -0.001823   0.000039  -0.000164  -0.000141  -0.000001   0.000002
    17  C    0.001381  -0.000010   0.000001   0.000002  -0.000000  -0.000000
    18  H   -0.000000   0.000000   0.000000  -0.000000   0.000000  -0.000000
    19  H   -0.000000   0.000000   0.000000  -0.000000  -0.000000   0.000000
    20  H   -0.000000   0.000000  -0.000000  -0.000007  -0.000002   0.000000
    21  H    0.000000  -0.000000  -0.000000   0.000004   0.000000  -0.000000
    22  H   -0.000000   0.000000   0.000000  -0.000008  -0.000000   0.000000
    23  H   -0.000000  -0.000000  -0.000000  -0.000000   0.000000  -0.000000
    24  H   -0.000000   0.000000   0.000000  -0.000000  -0.000000   0.000000
    25  H    0.000000  -0.000000   0.000000   0.000000   0.000000  -0.000000
    26  H   -0.000000  -0.000000   0.000000   0.000000   0.000000   0.000000
    27  H   -0.000002  -0.000023  -0.000093   0.006239   0.000021  -0.000001
    28  H   -0.000187  -0.000105  -0.000119   0.003857   0.002328   0.000205
    29  H   -0.005466   0.003042  -0.000024  -0.000085   0.000024  -0.000056
    30  H   -0.037685   0.005202  -0.006270   0.000433   0.000008  -0.000003
    31  H    0.589163  -0.006629   0.001606  -0.000135   0.000003  -0.000000
    32  H   -0.006629   0.605045  -0.037247   0.005207   0.000233   0.000972
    33  H    0.001606  -0.037247   0.598276  -0.008061  -0.000202   0.000794
    34  H   -0.000135   0.005207  -0.008061   0.628411  -0.003086  -0.003259
    35  H    0.000003   0.000233  -0.000202  -0.003086   0.579557  -0.031712
    36  H   -0.000000   0.000972   0.000794  -0.003259  -0.031712   0.584008
    37  H   -0.000024   0.005471  -0.000082   0.005556  -0.031254  -0.031843
    38  H   -0.000283   0.000006   0.000000  -0.000010   0.000000   0.000000
    39  H   -0.000033  -0.000000  -0.000000  -0.000000   0.000000   0.000000
    40  H    0.001759   0.000006   0.000003   0.000000   0.000000   0.000000
    41  H    0.000274  -0.000001  -0.000000   0.000000   0.000000  -0.000000
              37         38         39         40         41
     1  O    0.000000   0.003976   0.000275   0.000182   0.009190
     2  C   -0.000001  -0.033859  -0.002854   0.004097  -0.007000
     3  C   -0.000000   0.001560   0.000609  -0.000134   0.000471
     4  C   -0.000000  -0.001582   0.000001  -0.000001  -0.000009
     5  C    0.000016   0.004633   0.000009   0.000006  -0.000005
     6  C   -0.000000   0.000099  -0.000000   0.000000   0.000000
     7  C    0.000000  -0.000015  -0.000000   0.000000  -0.000000
     8  C    0.000000  -0.000019   0.000000  -0.000000   0.000000
     9  C    0.000259   0.009720   0.000008  -0.000018  -0.000003
    10  C   -0.006119  -0.009330  -0.000118   0.000024  -0.000030
    11  C    0.000581  -0.039553   0.004291  -0.007070  -0.005129
    12  C    0.000234  -0.005153   0.000096   0.003288  -0.000494
    13  C   -0.005957   0.000074  -0.000001  -0.000061  -0.000016
    14  C   -0.033871   0.000122   0.000002  -0.000003   0.000000
    15  C    0.373095  -0.000004  -0.000000  -0.000000  -0.000000
    16  C   -0.000041   0.344026  -0.032508  -0.029076  -0.034178
    17  C    0.000001  -0.044271   0.370035   0.369497   0.371742
    18  H    0.000000   0.001062   0.000224  -0.000026  -0.000053
    19  H   -0.000000   0.000063  -0.000036   0.000005  -0.000007
    20  H   -0.000001   0.000039   0.000001   0.000000  -0.000003
    21  H    0.000000   0.000016  -0.000000  -0.000000   0.000000
    22  H   -0.000000   0.000011   0.000000   0.000000  -0.000000
    23  H    0.000000   0.000000   0.000000  -0.000000  -0.000000
    24  H   -0.000000   0.000014  -0.000000   0.000000  -0.000000
    25  H   -0.000000  -0.000000   0.000000   0.000000   0.000000
    26  H   -0.000000  -0.000000  -0.000000   0.000000  -0.000000
    27  H    0.000003  -0.000232  -0.000000  -0.000000  -0.000000
    28  H    0.001756   0.000077   0.000002  -0.000003  -0.000009
    29  H    0.001112   0.007139  -0.000013  -0.000171   0.006024
    30  H    0.000007   0.005224  -0.000029   0.000470   0.000060
    31  H   -0.000024  -0.000283  -0.000033   0.001759   0.000274
    32  H    0.005471   0.000006  -0.000000   0.000006  -0.000001
    33  H   -0.000082   0.000000  -0.000000   0.000003  -0.000000
    34  H    0.005556  -0.000010  -0.000000   0.000000   0.000000
    35  H   -0.031254   0.000000   0.000000   0.000000   0.000000
    36  H   -0.031843   0.000000   0.000000   0.000000  -0.000000
    37  H    0.575998   0.000000  -0.000000  -0.000000  -0.000000
    38  H    0.000000   0.630938  -0.002322  -0.002682   0.005380
    39  H   -0.000000  -0.002322   0.580293  -0.031198  -0.028506
    40  H   -0.000000  -0.002682  -0.031198   0.572565  -0.029053
    41  H   -0.000000   0.005380  -0.028506  -0.029053   0.543730
 Mulliken charges:
               1
     1  O   -0.467834
     2  C    0.449693
     3  C   -0.332350
     4  C   -0.166075
     5  C    0.157223
     6  C   -0.325073
     7  C   -0.281564
     8  C   -0.279306
     9  C   -0.191540
    10  C   -0.154295
    11  C   -0.079729
    12  C   -0.282105
    13  C   -0.278779
    14  C   -0.076505
    15  C   -0.458992
    16  C   -0.150832
    17  C   -0.456812
    18  H    0.143002
    19  H    0.158626
    20  H    0.148993
    21  H    0.146694
    22  H    0.152318
    23  H    0.138975
    24  H    0.140319
    25  H    0.137185
    26  H    0.141966
    27  H    0.112748
    28  H    0.138277
    29  H    0.140843
    30  H    0.131591
    31  H    0.137841
    32  H    0.135369
    33  H    0.132663
    34  H    0.125654
    35  H    0.143261
    36  H    0.141315
    37  H    0.145104
    38  H    0.125140
    39  H    0.141771
    40  H    0.147594
    41  H    0.167624
 Sum of Mulliken charges =  -0.00000
 Mulliken charges with hydrogens summed into heavy atoms:
               1
     1  O   -0.467834
     2  C    0.449693
     3  C   -0.030722
     4  C   -0.017082
     5  C    0.157223
     6  C   -0.026061
     7  C   -0.002269
     8  C   -0.000156
     9  C   -0.078792
    10  C   -0.016018
    11  C    0.061114
    12  C   -0.012673
    13  C   -0.010747
    14  C    0.049149
    15  C   -0.029311
    16  C   -0.025692
    17  C    0.000177
 APT charges:
               1
     1  O   -0.620410
     2  C    0.680015
     3  C   -0.074314
     4  C    0.119134
     5  C    0.023707
     6  C    0.105574
     7  C    0.100790
     8  C    0.119174
     9  C   -0.052829
    10  C    0.034534
    11  C    0.089456
    12  C    0.083716
    13  C    0.089348
    14  C    0.127313
    15  C    0.080726
    16  C   -0.071984
    17  C    0.082903
    18  H   -0.006341
    19  H   -0.029085
    20  H   -0.049891
    21  H   -0.048730
    22  H   -0.063521
    23  H   -0.047384
    24  H   -0.038758
    25  H   -0.041944
    26  H   -0.054225
    27  H   -0.014787
    28  H   -0.049703
    29  H   -0.046705
    30  H   -0.036955
    31  H   -0.044122
    32  H   -0.046363
    33  H   -0.058640
    34  H   -0.065358
    35  H   -0.028163
    36  H   -0.041308
    37  H   -0.021549
    38  H   -0.038706
    39  H   -0.031655
    40  H   -0.018106
    41  H    0.005144
 Sum of APT charges =   0.00000
 APT charges with hydrogens summed into heavy atoms:
               1
     1  O   -0.620410
     2  C    0.680015
     3  C   -0.109739
     4  C    0.069243
     5  C    0.023707
     6  C   -0.006676
     7  C    0.014648
     8  C    0.023005
     9  C   -0.067615
    10  C   -0.015169
    11  C    0.042751
    12  C    0.002639
    13  C   -0.015655
    14  C    0.061954
    15  C   -0.010294
    16  C   -0.110689
    17  C    0.038286
 Electronic spatial extent (au):  <R**2>=           4248.8664
 Charge=              0.0000 electrons
 Dipole moment (field-independent basis, Debye):
    X=             -0.8954    Y=             -1.5128    Z=             -2.0450  Tot=              2.6967
 Quadrupole moment (field-independent basis, Debye-Ang):
   XX=            -99.3543   YY=           -108.1859   ZZ=           -108.0406
   XY=             -0.3964   XZ=             -0.6074   YZ=             -5.1637
 Traceless Quadrupole moment (field-independent basis, Debye-Ang):
   XX=              5.8393   YY=             -2.9922   ZZ=             -2.8470
   XY=             -0.3964   XZ=             -0.6074   YZ=             -5.1637
 Octapole moment (field-independent basis, Debye-Ang**2):
  XXX=             -7.9117  YYY=             -2.9279  ZZZ=             -3.4360  XYY=             -4.2755
  XXY=              3.8288  XXZ=              3.5617  XZZ=             -2.1432  YZZ=             -9.2106
  YYZ=            -14.7726  XYZ=              0.4116
 Hexadecapole moment (field-independent basis, Debye-Ang**3):
 XXXX=          -3342.8387 YYYY=          -1730.1494 ZZZZ=           -734.6304 XXXY=             11.0646
 XXXZ=             -3.8624 YYYX=             -0.5622 YYYZ=            -15.3459 ZZZX=             -3.9287
 ZZZY=             -2.5359 XXYY=           -822.4126 XXZZ=           -679.6494 YYZZ=           -430.9976
 XXYZ=             12.1051 YYXZ=             -4.4792 ZZXY=              1.4972
 N-N= 1.296537634816D+03 E-N=-4.213687237881D+03  KE= 6.925816070954D+02
  Exact polarizability: 192.461   0.452 153.574  -2.159   3.542 137.964
 Approx polarizability: 251.132   0.530 215.169   0.221  14.670 221.182
 Calling FoFJK, ICntrl=    100127 FMM=F ISym2X=0 I1Cent= 0 IOpClX= 0 NMat=1 NMatS=1 NMatT=0.
 Full mass-weighted force constant matrix:
 Low frequencies ---   -6.2821   -3.9039   -2.8463    0.0006    0.0007    0.0009
 Low frequencies ---   29.4078   76.9093   81.3189
 Diagonal vibrational polarizability:
        9.1859513      20.3714662       5.4222750
 Harmonic frequencies (cm**-1), IR intensities (KM/Mole), Raman scattering
 activities (A**4/AMU), depolarization ratios for plane and unpolarized
 incident light, reduced masses (AMU), force constants (mDyne/A),
 and normal coordinates:
                      1                      2                      3
                      A                      A                      A
 Frequencies --     29.3602                76.9086                81.3185
 Red. masses --      2.8570                 3.1040                 3.2317
 Frc consts  --      0.0015                 0.0108                 0.0126
 IR Inten    --      0.1259                 1.1144                 0.7260
  Atom  AN      X      Y      Z        X      Y      Z        X      Y      Z
     1   8     0.02  -0.07   0.06     0.02   0.15  -0.04    -0.11   0.09  -0.04
     2   6     0.02  -0.03   0.04    -0.00   0.02   0.03    -0.02   0.04  -0.06
     3   6     0.01  -0.01   0.02     0.01  -0.05   0.14    -0.00  -0.02  -0.11
     4   6    -0.01  -0.01  -0.02     0.05  -0.07   0.02     0.05  -0.01  -0.03
     5   6    -0.00  -0.00  -0.01     0.02   0.02  -0.07    -0.00   0.00  -0.06
     6   6     0.01   0.00  -0.03     0.00   0.17  -0.15    -0.04   0.01  -0.02
     7   6     0.01   0.02  -0.07     0.01   0.07   0.01    -0.05  -0.10   0.14
     8   6    -0.02   0.01  -0.06     0.07  -0.11   0.04     0.08  -0.09   0.11
     9   6     0.00  -0.01   0.00     0.02  -0.01  -0.05    -0.01   0.02  -0.09
    10   6    -0.01   0.00   0.02    -0.02  -0.04   0.00    -0.03  -0.00  -0.05
    11   6     0.00  -0.02  -0.01    -0.03  -0.03   0.02     0.01  -0.01   0.01
    12   6    -0.08  -0.07  -0.08    -0.01  -0.02   0.03     0.02  -0.00   0.02
    13   6    -0.08  -0.10  -0.14    -0.01  -0.02   0.02    -0.03  -0.06  -0.03
    14   6    -0.02   0.00   0.06    -0.00  -0.02   0.04    -0.04  -0.02  -0.00
    15   6     0.10   0.24   0.10    -0.00   0.04   0.06    -0.06   0.05   0.02
    16   6     0.01   0.00   0.03    -0.05  -0.05   0.01     0.07   0.05   0.01
    17   6     0.03   0.01   0.08    -0.07  -0.07  -0.11     0.16   0.05   0.14
    18   1     0.02   0.02   0.02    -0.08   0.02   0.19     0.04  -0.09  -0.15
    19   1     0.01  -0.02   0.03     0.06  -0.12   0.23    -0.05   0.01  -0.17
    20   1    -0.04  -0.03  -0.01     0.09  -0.15  -0.02     0.14   0.04  -0.06
    21   1     0.04  -0.01  -0.03    -0.02   0.39  -0.13    -0.14   0.12  -0.03
    22   1    -0.01   0.01  -0.03     0.02   0.13  -0.37     0.04  -0.01  -0.12
    23   1     0.00   0.04  -0.09     0.02   0.06  -0.02    -0.01  -0.18   0.24
    24   1     0.04   0.03  -0.07    -0.05   0.14   0.14    -0.20  -0.11   0.17
    25   1    -0.02   0.02  -0.07     0.06  -0.18   0.17     0.08  -0.13   0.18
    26   1    -0.05   0.01  -0.06     0.12  -0.19  -0.07     0.20  -0.09   0.13
    27   1     0.02  -0.01   0.01     0.04   0.05  -0.09     0.00   0.04  -0.10
    28   1    -0.03   0.03   0.01    -0.05  -0.06  -0.01    -0.07  -0.02  -0.06
    29   1     0.06  -0.03  -0.04    -0.04  -0.02   0.03     0.01  -0.05   0.04
    30   1    -0.16  -0.04  -0.05     0.00  -0.01   0.02     0.02   0.06  -0.00
    31   1    -0.06  -0.09  -0.12    -0.01  -0.01   0.05     0.06  -0.02   0.06
    32   1     0.06  -0.14  -0.27    -0.00  -0.03   0.01     0.02  -0.12  -0.05
    33   1    -0.24  -0.17  -0.20    -0.02  -0.02   0.01    -0.09  -0.07  -0.06
    34   1    -0.05  -0.10   0.23     0.02  -0.05   0.07    -0.05  -0.05   0.04
    35   1     0.16   0.30   0.25     0.01   0.04   0.07    -0.07   0.08   0.04
    36   1     0.11   0.25   0.13     0.01   0.06   0.09    -0.06   0.04   0.07
    37   1     0.13   0.35  -0.06    -0.03   0.07   0.03    -0.06   0.08  -0.02
    38   1     0.00   0.04   0.02    -0.08  -0.10   0.05     0.12   0.12  -0.05
    39   1     0.04   0.02   0.09    -0.09  -0.09  -0.10     0.22   0.10   0.12
    40   1     0.03   0.03   0.08    -0.12  -0.12  -0.15     0.23   0.07   0.20
    41   1     0.02  -0.02   0.09    -0.02  -0.02  -0.17     0.10  -0.03   0.22
                      4                      5                      6
                      A                      A                      A
 Frequencies --    100.4253               124.0204               160.2956
 Red. masses --      5.0099                 3.3177                 2.3271
 Frc consts  --      0.0298                 0.0301                 0.0352
 IR Inten    --      2.8320                 1.8474                 0.0222
  Atom  AN      X      Y      Z        X      Y      Z        X      Y      Z
     1   8    -0.15   0.33  -0.05    -0.09  -0.14   0.01     0.01  -0.03   0.04
     2   6    -0.05   0.09   0.03    -0.07  -0.02  -0.05     0.01   0.00   0.02
     3   6    -0.02  -0.00   0.02    -0.08   0.08  -0.16     0.00   0.04  -0.02
     4   6    -0.03   0.00   0.01    -0.02   0.10  -0.01    -0.00   0.03  -0.03
     5   6     0.01  -0.03   0.05     0.02   0.07   0.04    -0.00   0.03  -0.03
     6   6     0.05  -0.06   0.03     0.04   0.18  -0.07    -0.01  -0.04   0.02
     7   6     0.04   0.01  -0.09    -0.02   0.02   0.05    -0.02  -0.05   0.02
     8   6    -0.05   0.04  -0.08     0.02  -0.01   0.05    -0.00   0.03  -0.00
     9   6     0.01  -0.04   0.09     0.01  -0.02   0.11    -0.00   0.05  -0.05
    10   6     0.03  -0.06   0.07     0.04  -0.03   0.08    -0.00  -0.00  -0.02
    11   6    -0.01  -0.03   0.10     0.00  -0.02   0.04     0.04   0.02   0.10
    12   6    -0.06   0.01   0.02    -0.02  -0.01   0.01     0.11   0.11   0.14
    13   6    -0.04  -0.05  -0.12     0.01  -0.01  -0.02    -0.02  -0.09  -0.08
    14   6     0.03  -0.06  -0.05     0.05  -0.02   0.02    -0.04  -0.03  -0.03
    15   6     0.17  -0.11  -0.12     0.15  -0.05  -0.03    -0.01   0.04  -0.01
    16   6     0.01  -0.02   0.09    -0.02  -0.05  -0.00     0.02  -0.03   0.04
    17   6     0.06  -0.05   0.06    -0.04  -0.04  -0.03    -0.07  -0.03  -0.11
    18   1    -0.00  -0.01   0.01     0.01  -0.03  -0.22     0.03   0.05  -0.02
    19   1    -0.05  -0.00  -0.00    -0.15   0.15  -0.26    -0.01   0.03  -0.02
    20   1    -0.09  -0.01   0.04     0.02   0.22  -0.00     0.01   0.03  -0.03
    21   1     0.11  -0.16   0.04     0.03   0.41  -0.05    -0.04  -0.10   0.01
    22   1     0.00  -0.04   0.12     0.10   0.13  -0.30     0.02  -0.03   0.09
    23   1     0.02   0.05  -0.14     0.05  -0.08   0.07    -0.01  -0.08   0.07
    24   1     0.13  -0.00  -0.13    -0.16   0.03   0.10    -0.05  -0.08  -0.03
    25   1    -0.05   0.06  -0.14    -0.02  -0.08   0.11     0.00   0.05  -0.04
    26   1    -0.11   0.05  -0.07     0.13  -0.04   0.03     0.00   0.06   0.05
    27   1     0.00  -0.07   0.10    -0.00  -0.05   0.13    -0.01   0.05  -0.06
    28   1     0.07  -0.11   0.09     0.09  -0.03   0.10    -0.03  -0.06  -0.02
    29   1     0.02  -0.05   0.09     0.01   0.02   0.02    -0.05  -0.00   0.17
    30   1    -0.13   0.09   0.03    -0.05  -0.02   0.03     0.16   0.36   0.03
    31   1    -0.06   0.02   0.04    -0.04  -0.01  -0.01     0.20   0.11   0.36
    32   1     0.06  -0.12  -0.19     0.03  -0.00  -0.05     0.14  -0.32  -0.13
    33   1    -0.14  -0.03  -0.22    -0.01   0.00  -0.04    -0.22  -0.08  -0.23
    34   1    -0.03  -0.05  -0.04     0.03  -0.01   0.01    -0.07  -0.06   0.03
    35   1     0.23  -0.12  -0.05     0.20  -0.07   0.01    -0.01   0.10   0.05
    36   1     0.16  -0.11  -0.24     0.15  -0.04  -0.12    -0.03  -0.00  -0.00
    37   1     0.25  -0.14  -0.11     0.20  -0.07  -0.03     0.05   0.07  -0.08
    38   1     0.02  -0.03   0.08     0.02  -0.08  -0.01     0.03  -0.13   0.08
    39   1     0.09  -0.03   0.05    -0.05  -0.08  -0.07    -0.13  -0.11  -0.16
    40   1     0.06  -0.09   0.06    -0.01  -0.05   0.00    -0.10  -0.08  -0.13
    41   1     0.07  -0.05   0.06    -0.08  -0.00  -0.02    -0.06   0.09  -0.18
                      7                      8                      9
                      A                      A                      A
 Frequencies --    171.9854               189.8593               227.3899
 Red. masses --      2.8285                 2.4210                 2.5964
 Frc consts  --      0.0493                 0.0514                 0.0791
 IR Inten    --      0.0323                 0.0781                 0.7621
  Atom  AN      X      Y      Z        X      Y      Z        X      Y      Z
     1   8    -0.04  -0.03  -0.02    -0.07  -0.01  -0.06    -0.09   0.00   0.10
     2   6    -0.02  -0.03  -0.03    -0.02  -0.05  -0.05    -0.02   0.05   0.06
     3   6    -0.00  -0.04  -0.05    -0.01  -0.10  -0.04     0.01   0.05  -0.09
     4   6     0.01  -0.03   0.00     0.00  -0.08   0.09     0.11   0.05  -0.07
     5   6    -0.04  -0.07  -0.00     0.02  -0.04   0.08     0.06   0.00  -0.07
     6   6    -0.12  -0.00   0.04     0.02   0.03   0.04     0.02  -0.06   0.04
     7   6    -0.03   0.18   0.01     0.06   0.16  -0.02     0.09   0.08   0.01
     8   6    -0.01   0.05   0.03     0.00  -0.05   0.03     0.13   0.01   0.02
     9   6    -0.04  -0.11  -0.04     0.03   0.07   0.01     0.05  -0.03  -0.06
    10   6    -0.01  -0.10  -0.07     0.03   0.06   0.01    -0.00  -0.02  -0.01
    11   6    -0.04  -0.05   0.01     0.06   0.04  -0.01    -0.01  -0.01   0.01
    12   6     0.05   0.08   0.07     0.06  -0.01  -0.01    -0.08  -0.05  -0.04
    13   6     0.07   0.08   0.03    -0.01  -0.08  -0.04    -0.03  -0.01  -0.01
    14   6     0.07   0.00  -0.04    -0.03  -0.00   0.01    -0.01  -0.02   0.01
    15   6     0.08   0.11   0.00    -0.05  -0.03   0.00    -0.07  -0.03   0.02
    16   6    -0.01  -0.04  -0.01     0.02   0.01  -0.03    -0.02   0.01   0.07
    17   6     0.05  -0.06   0.03    -0.07   0.07   0.02    -0.09   0.01  -0.03
    18   1     0.02  -0.08  -0.07     0.01  -0.21  -0.07     0.09   0.02  -0.13
    19   1    -0.03  -0.02  -0.08    -0.03  -0.03  -0.11    -0.09   0.02  -0.14
    20   1     0.03  -0.01   0.00    -0.01  -0.03   0.10     0.17   0.09  -0.08
    21   1    -0.11  -0.10   0.03     0.08  -0.03   0.05    -0.01  -0.24   0.02
    22   1    -0.26   0.02   0.12    -0.11   0.04   0.08    -0.05  -0.02   0.23
    23   1    -0.12   0.32  -0.05    -0.01   0.29  -0.17     0.02   0.20  -0.02
    24   1     0.14   0.23   0.05     0.25   0.24   0.06     0.23   0.12   0.03
    25   1     0.05   0.07   0.10     0.01  -0.09   0.12     0.14  -0.04   0.10
    26   1    -0.05   0.01  -0.03    -0.03  -0.13  -0.10     0.20  -0.04  -0.04
    27   1    -0.08  -0.14  -0.04     0.04   0.17  -0.06     0.06  -0.09  -0.01
    28   1    -0.01  -0.14  -0.06     0.03   0.08   0.01    -0.04  -0.04  -0.02
    29   1    -0.11  -0.08   0.08     0.06   0.06  -0.02     0.04  -0.03  -0.01
    30   1     0.14   0.13   0.00     0.05   0.05  -0.02    -0.14  -0.12   0.02
    31   1     0.03   0.14   0.19     0.11  -0.04   0.02    -0.11  -0.06  -0.14
    32   1     0.03   0.07   0.07     0.06  -0.15  -0.07    -0.05   0.04  -0.02
    33   1     0.12   0.13   0.02    -0.10  -0.11  -0.07    -0.01  -0.01   0.01
    34   1     0.18  -0.04  -0.03    -0.10   0.01   0.03    -0.01  -0.02   0.01
    35   1     0.16  -0.01  -0.02    -0.12   0.10   0.04    -0.11  -0.01  -0.01
    36   1     0.20   0.28   0.06    -0.14  -0.16   0.00    -0.08  -0.06   0.06
    37   1    -0.12   0.18  -0.01     0.09  -0.04  -0.03    -0.07  -0.04   0.04
    38   1     0.00  -0.02  -0.03     0.07  -0.01  -0.06    -0.06  -0.01   0.10
    39   1     0.08   0.00   0.10    -0.11  -0.06  -0.19    -0.16   0.04   0.24
    40   1     0.01  -0.06  -0.00     0.13   0.12   0.18    -0.35   0.03  -0.25
    41   1     0.11  -0.13   0.03    -0.32   0.18   0.12     0.18  -0.04  -0.18
                     10                     11                     12
                      A                      A                      A
 Frequencies --    231.3082               252.2947               266.3017
 Red. masses --      1.2715                 2.4352                 1.2284
 Frc consts  --      0.0401                 0.0913                 0.0513
 IR Inten    --      0.6860                 0.3550                 0.3292
  Atom  AN      X      Y      Z        X      Y      Z        X      Y      Z
     1   8    -0.01  -0.02  -0.02     0.02  -0.08   0.04     0.03   0.00  -0.02
     2   6    -0.01  -0.01  -0.02    -0.01   0.04  -0.01     0.00   0.00  -0.01
     3   6    -0.01  -0.03  -0.00    -0.01  -0.01   0.01     0.00   0.01   0.01
     4   6    -0.03  -0.03   0.04     0.03  -0.02  -0.00     0.02   0.01  -0.03
     5   6    -0.01  -0.01   0.05     0.01  -0.01  -0.02    -0.01  -0.01  -0.04
     6   6     0.02   0.02  -0.00     0.01  -0.04   0.01    -0.03  -0.01  -0.01
     7   6     0.01   0.00  -0.01     0.04   0.03  -0.01    -0.01   0.01   0.01
     8   6    -0.03  -0.04   0.00     0.04  -0.07   0.01     0.02   0.02  -0.00
     9   6    -0.00   0.03   0.03     0.01   0.02  -0.00    -0.00  -0.06   0.00
    10   6     0.00   0.03   0.02    -0.05   0.03   0.05    -0.01  -0.02   0.00
    11   6     0.00   0.02  -0.01    -0.07   0.04   0.06    -0.03  -0.01  -0.01
    12   6     0.02   0.03   0.01    -0.10   0.05   0.04     0.00   0.01   0.02
    13   6    -0.01  -0.00  -0.01    -0.08   0.06  -0.00     0.01   0.02   0.02
    14   6    -0.02   0.02   0.00    -0.05   0.04   0.02     0.01   0.00   0.02
    15   6    -0.02   0.00  -0.01     0.02  -0.02  -0.03     0.04  -0.01   0.01
    16   6     0.00   0.01  -0.02    -0.02   0.05  -0.02    -0.02   0.00  -0.02
    17   6     0.07  -0.02  -0.02     0.19  -0.06  -0.12    -0.03   0.02   0.04
    18   1    -0.01  -0.07  -0.01    -0.04   0.00   0.03    -0.02   0.05   0.03
    19   1    -0.01  -0.00  -0.02    -0.01  -0.04   0.04     0.02  -0.02   0.04
    20   1    -0.05  -0.01   0.05     0.05  -0.02  -0.01     0.04  -0.01  -0.05
    21   1     0.05   0.06   0.01     0.01  -0.12   0.00    -0.05  -0.03  -0.02
    22   1     0.01   0.01  -0.05    -0.03  -0.02   0.09    -0.04  -0.01   0.00
    23   1     0.01   0.01  -0.05    -0.00   0.12  -0.08    -0.02   0.02   0.03
    24   1     0.02   0.02   0.01     0.14   0.08   0.03    -0.01   0.00   0.00
    25   1    -0.04  -0.06   0.01     0.02  -0.14   0.09     0.03   0.02   0.01
    26   1    -0.03  -0.06  -0.03     0.10  -0.13  -0.07     0.02   0.02   0.01
    27   1     0.00   0.07   0.00     0.05   0.02   0.01     0.01  -0.10   0.04
    28   1     0.02   0.05   0.02    -0.07   0.00   0.04    -0.02  -0.01  -0.00
    29   1    -0.01   0.04  -0.01    -0.08   0.05   0.05    -0.05  -0.00   0.01
    30   1     0.04   0.07  -0.01    -0.13   0.07   0.05     0.03   0.02   0.00
    31   1     0.03   0.03   0.05    -0.11   0.05   0.03    -0.00   0.03   0.05
    32   1     0.02  -0.04  -0.03    -0.07   0.06  -0.02    -0.00   0.02   0.03
    33   1    -0.05  -0.01  -0.04    -0.10   0.07  -0.02     0.02   0.03   0.02
    34   1    -0.04   0.02   0.00    -0.07   0.06   0.01     0.01   0.00   0.02
    35   1    -0.06   0.09   0.03     0.02   0.01   0.02    -0.14   0.43   0.23
    36   1    -0.08  -0.09  -0.02    -0.04  -0.09  -0.12    -0.28  -0.46  -0.07
    37   1     0.09  -0.01  -0.03     0.13  -0.06  -0.02     0.57  -0.04  -0.18
    38   1     0.01   0.03  -0.03    -0.02   0.04  -0.01    -0.02   0.02  -0.03
    39   1     0.08   0.19   0.46     0.34  -0.04  -0.46    -0.04   0.03   0.07
    40   1    -0.33   0.01  -0.35     0.39  -0.31   0.08    -0.02   0.08   0.04
    41   1     0.53  -0.27  -0.19     0.03   0.04  -0.07    -0.05  -0.01   0.06
                     13                     14                     15
                      A                      A                      A
 Frequencies --    279.5477               285.3929               306.3634
 Red. masses --      2.3518                 2.9220                 2.8924
 Frc consts  --      0.1083                 0.1402                 0.1599
 IR Inten    --      0.7807                 1.2191                 1.2301
  Atom  AN      X      Y      Z        X      Y      Z        X      Y      Z
     1   8     0.10  -0.02  -0.10    -0.06   0.02   0.08    -0.05  -0.01  -0.02
     2   6     0.01   0.01  -0.07     0.06  -0.02   0.05    -0.06  -0.02  -0.01
     3   6     0.01   0.01   0.00     0.10  -0.12  -0.06    -0.11   0.07   0.07
[...]
 ,-0.00004561,0.00060803,0.00069716,-0.00033756,-0.02701807,-0.00126090
 ,-0.01388709,0.02204977,0.00244787,0.01086744,0.01986098,0.05032665,0.
 00003450,-0.00004652,0.00001783,-0.00003458,0.00009648,-0.00002055,0.0
 0000082,-0.00000537,-0.00001375,0.00000413,0.00002249,0.00000509,-0.00
 015651,0.00002058,-0.00003178,0.00000468,-0.00001992,-0.00001253,-0.00
 000467,-0.00000186,0.00000063,-0.00000613,0.00000541,-0.00001079,0.000
 32867,-0.00001876,0.00017642,-0.00001791,-0.00033713,0.00140565,0.0002
 3669,-0.00011094,0.00023545,0.00018423,0.00006763,0.00006003,0.0001943
 5,0.00112823,0.00118664,0.02119932,0.00141531,0.01009199,-0.10839732,-
 0.00979733,-0.10717645,-0.00009446,0.00005191,-0.00000291,-0.00000881,
 -0.00002943,0.00001867,0.00000237,0.00000003,-0.00000056,0.00000092,-0
 .00000796,0.00000175,-0.00000506,0.00000813,-0.00000493,-0.00000286,-0
 .00000189,0.00000549,0.00000010,-0.00000195,0.00000026,-0.00000095,-0.
 00000209,-0.00000066,0.00000139,0.00000012,0.00000178,0.00000099,0.000
 00079,0.00000480,-0.00000301,0.00000133,-0.00000096,-0.00015346,0.0000
 9531,-0.00011370,-0.00035956,0.00011185,0.00017382,-0.00008525,-0.0000
 4403,-0.00018563,-0.00007969,-0.00002055,-0.00002388,-0.00005961,0.000
 00640,0.00003576,-0.00053789,0.00000360,0.00016301,-0.00003600,0.00007
 880,0.00005402,0.00424736,-0.00067224,-0.00236694,-0.01224345,0.000057
 28,-0.00742305,-0.02010301,-0.00335566,-0.01095782,0.11595602,0.011317
 67,0.11464330,-0.00231280,0.00524171,-0.00015973,-0.01604590,-0.008090
 28,0.00160919,0.00028230,-0.00041362,0.00061772,-0.00004166,0.00041609
 ,0.00016583,0.00006590,-0.00006211,-0.00157720,0.00013712,0.00010059,-
 0.00009225,0.00001709,0.00003821,0.00002214,0.00002618,0.00001510,0.00
 007635,-0.00004334,-0.00123979,-0.00129345,-0.00040675,-0.00062621,-0.
 00016989,-0.00640864,-0.00134485,0.00220875,0.00060749,0.00038398,-0.0
 0016874,0.00033676,0.00006739,-0.00000616,0.00008842,0.00005937,0.0001
 1329,-0.00002532,0.00001224,-0.00001575,-0.29566887,-0.04331039,0.0198
 4753,-0.00740002,-0.00172081,-0.00001394,0.00094081,0.00042362,-0.0003
 8873,0.00024530,-0.00031115,-0.00044758,0.00002069,-0.00005603,-0.0001
 4148,-0.00000386,0.00000895,0.00007507,-0.00005398,-0.00003032,-0.0000
 0077,0.00000025,-0.00002549,-0.00001242,0.00001281,0.00001433,-0.00002
 187,0.00000885,-0.00002866,0.00001768,0.00001591,0.00001943,-0.0000111
 9,0.00005558,0.00000706,0.00008745,0.00003101,-0.00004380,-0.00004757,
 0.00054388,-0.00056873,0.00088828,0.00045803,-0.00060868,0.00029823,0.
 00004348,0.00007865,-0.00002482,-0.00000371,0.00008071,-0.00016814,-0.
 00000686,-0.00002159,0.00008276,0.00003792,-0.00005956,0.00009301,-0.0
 0000250,0.00000474,0.00001888,0.00000694,-0.00000554,0.00000950,0.0000
 4418,0.00000911,-0.00001129,0.32276182,0.00598122,-0.00718343,0.000375
 26,0.02941089,0.00967342,-0.00253586,-0.00028145,-0.00047113,-0.000022
 78,0.00001197,-0.00018685,0.00014497,-0.00005236,-0.00047704,-0.000570
 07,-0.00008423,-0.00002353,-0.00004939,0.00001978,-0.00001229,-0.00001
 637,-0.00001408,0.00000063,-0.00005297,0.00020144,0.00008883,-0.000755
 44,0.00022739,-0.00016533,-0.00063975,-0.01682713,-0.00381097,0.003340
 13,-0.00130426,0.00078696,-0.00074192,0.00010696,0.00010620,0.00007390
 ,-0.00004803,0.00011772,-0.00009812,-0.00002956,-0.00004214,-0.0000239
 5,-0.05040255,-0.06039448,0.00400297,-0.02003618,-0.00439356,0.0002977
 2,0.00001449,-0.00096782,0.00027779,-0.00008817,0.00051861,-0.00004597
 ,0.00005163,0.00008869,0.00010393,-0.00001763,-0.00000267,-0.00001300,
 0.00000686,0.00001126,0.00000962,-0.00000313,0.00001917,0.00000899,-0.
 00001457,-0.00001914,0.00001568,0.00000467,0.00000714,-0.00000049,-0.0
 0000376,-0.00001037,0.00000732,0.00009213,0.00004166,0.00012592,-0.000
 02392,0.00000002,-0.00000424,-0.00047184,-0.00134247,0.00294944,0.0007
 4841,-0.00013677,0.00007283,0.00004210,0.00001397,0.00003579,0.0001351
 9,0.00002931,-0.00013816,0.00007404,0.00000453,0.00000883,0.00001910,0
 .00000075,0.00001331,0.00001950,-0.00000378,0.00000088,0.00000142,-0.0
 0000478,0.00002313,0.00003214,-0.00000253,-0.00002558,0.05242296,0.069
 00934,-0.00003252,-0.00001243,0.00202920,-0.00105380,0.00075064,-0.002
 27945,-0.00023842,0.00004001,0.00001901,0.00027353,-0.00027800,0.00012
 090,-0.00053689,-0.00103122,-0.00009451,-0.00008552,-0.00014408,-0.000
 00709,0.00001808,-0.00004237,0.00007869,-0.00007922,0.00002067,-0.0000
 7325,-0.00025264,0.00025685,-0.00110786,0.00063955,0.00015588,0.001082
 91,0.02970382,0.00626196,-0.00417977,0.00054299,-0.00112513,0.00109869
 ,-0.00003950,-0.00010219,0.00009538,-0.00013706,0.00001072,0.00023341,
 0.00005664,-0.00008249,0.00008646,0.01885474,0.00360061,-0.04952333,-0
 .02670988,-0.00574011,0.00065501,0.00004141,0.00018887,0.00013475,-0.0
 0003607,-0.00000331,-0.00009039,-0.00006665,0.00007796,-0.00005399,0.0
 0001577,-0.00000033,-0.00003556,0.00005811,0.00005092,-0.00001206,-0.0
 0000015,0.00003233,-0.00002176,-0.00000181,0.00001307,-0.00003055,-0.0
 0000039,0.00005267,-0.00000964,-0.00000286,-0.00001387,-0.00000464,-0.
 00014035,-0.00011371,-0.00009937,-0.00007859,0.00003021,0.00012097,0.0
 0113535,0.00265524,-0.00519488,-0.00078712,0.00034369,0.00009253,-0.00
 008321,0.00002939,0.00000405,-0.00015038,-0.00008959,0.00011693,-0.000
 10619,-0.00002123,-0.00005715,-0.00006246,0.00002572,-0.00008661,-0.00
 001113,-0.00001304,-0.00003941,-0.00004429,0.00000676,0.00001212,-0.00
 008370,-0.00000024,0.00005340,-0.01982409,-0.00371207,0.05889308,-0.00
 019109,0.00037330,-0.00027011,0.00051676,0.00001312,0.00051960,0.00008
 380,0.00005908,-0.00018282,-0.00004323,-0.00003816,0.00003842,-0.00000
 248,-0.00000497,0.00003917,0.00000650,-0.00001328,-0.00001284,0.000000
 39,-0.00000677,-0.00001649,0.00000417,0.00000167,-0.00001074,0.0000823
 9,0.00012001,0.00009090,0.00043269,0.00027311,-0.00049080,-0.00036170,
 -0.00160423,-0.00095945,0.00016191,0.00001772,0.00001488,-0.00003991,-
 0.00014809,0.00002993,-0.00003521,-0.00009711,-0.00014453,-0.00003753,
 0.00000951,-0.00001969,0.00111484,0.00559244,-0.00902799,-0.05978770,-
 0.02364148,0.04381590,-0.00004308,-0.00003436,0.00003648,-0.00002022,0
 .00004663,0.00003687,-0.00000089,0.00000909,0.00001780,-0.00001204,0.0
 0000103,-0.00000665,-0.00000563,-0.00000014,0.00000365,-0.00000221,0.0
 0000125,0.00000461,-0.00000065,-0.00000500,0.00000980,-0.00000168,0.00
 000089,-0.00000152,-0.00000611,-0.00000387,0.00000169,-0.00000389,-0.0
 0000036,-0.00000659,-0.00001458,-0.00003713,-0.00004829,0.00036957,0.0
 0008578,-0.00036299,0.00001027,-0.00000390,0.00005832,-0.00013270,-0.0
 0011562,-0.00003836,0.00002143,0.00001244,-0.00001908,0.00000573,0.000
 01326,-0.00000290,-0.00000573,0.00001964,-0.00004906,0.00000557,-0.000
 00176,0.00000018,0.00001283,0.00000547,-0.00000734,0.00000937,-0.00000
 228,0.00000460,0.00028215,0.00069792,0.00021747,0.05853950,0.00003544,
 0.00009422,0.00032069,0.00018440,0.00104503,-0.00089321,0.00000341,0.0
 0016026,0.00006327,-0.00009665,0.00003926,-0.00013600,-0.00004189,-0.0
 0003137,0.00003959,-0.00000026,-0.00000984,-0.00000294,-0.00000672,0.0
 0000868,-0.00000413,-0.00000659,-0.00001056,0.00004444,0.00019604,0.00
 015657,0.00003352,0.00003249,0.00078414,-0.00092911,-0.00128394,-0.003
 09330,-0.00236617,-0.00022985,-0.00060308,0.00000651,0.00005512,0.0002
 2944,-0.00009946,-0.00014695,-0.00025249,-0.00012757,-0.00001487,0.000
 09065,-0.00001841,0.00507474,0.00967975,-0.01825149,-0.02386414,-0.108
 46566,0.10712378,-0.00008524,-0.00004982,-0.00000181,0.00001288,0.0000
 4414,0.00001255,0.00001201,0.00001461,0.00003540,0.00000506,-0.0000066
 0,0.00000180,-0.00000182,-0.00000253,0.00000162,0.00000918,0.00000173,
 0.00000583,-0.00000729,-0.00000346,0.00000414,-0.00000029,-0.00001211,
 -0.00000217,0.00001634,0.00001951,0.00000664,-0.00002101,-0.00001637,-
 0.00000389,0.00003751,0.00000864,0.00004589,0.00007898,-0.00013733,0.0
 0002870,0.00001763,0.00007012,0.00000218,0.00010083,0.00055615,0.00010
 427,-0.00000280,0.00000497,0.00000627,0.00000452,0.00001697,0.00001335
 ,-0.00000526,0.00009574,-0.00007118,-0.00001794,0.00001118,0.00001587,
 0.00002901,-0.00000197,-0.00002151,0.00000702,-0.00000751,0.00000534,0
 .00025703,0.00067446,0.00095069,0.02717871,0.11543380,0.00110225,-0.00
 048927,0.00059654,-0.00140853,0.00169066,-0.00050777,0.00031013,-0.000
 28351,-0.00034169,-0.00012236,-0.00005327,-0.00003394,-0.00010330,0.00
 012142,0.00002019,0.00003273,-0.00001442,-0.00002247,-0.00002763,0.000
 00420,-0.00006543,0.00001459,0.00001624,0.00001875,0.00034097,0.000048
 22,0.00003666,0.00029946,0.00148514,-0.00077029,-0.00241943,-0.0047241
 9,-0.00269130,0.00017531,-0.00046803,0.00025996,-0.00002528,-0.0000737
 4,0.00000412,-0.00012730,-0.00038459,-0.00032649,-0.00009392,0.0000878
 6,-0.00005034,0.00579792,0.01058682,-0.02062910,0.04378418,0.10686249,
 -0.24132002,-0.00017111,-0.00009412,-0.00002580,0.00000715,-0.00008384
 ,0.00003189,0.00001672,0.00002009,0.00006914,-0.00002841,-0.00001517,0
 .00000874,-0.00003828,-0.00002893,0.00000981,-0.00000466,-0.00001990,0
 .00001732,-0.00000635,-0.00000651,0.00003365,0.00000343,-0.00003601,0.
 00000530,-0.00000263,0.00000847,0.00000212,-0.00005549,-0.00002152,0.0
 0000045,0.00002807,-0.00010021,-0.00006217,-0.00002734,-0.00011184,0.0
 0031089,-0.00007664,0.00004509,-0.00003471,0.00002282,0.00004631,0.000
 06132,0.00002052,0.00001987,0.00000573,-0.00001324,0.00004335,-0.00005
 383,-0.00002301,0.00009953,-0.00017546,0.00000262,-0.00001793,-0.00000
 753,0.00005053,0.00001848,-0.00005065,0.00000471,-0.00000525,0.0000202
 5,-0.00037616,0.00020316,0.00098450,-0.04679131,-0.11493899,0.26431752
 ,0.00188636,0.00065774,0.00074901,-0.00257847,0.00002455,-0.00213155,0
 .00020362,-0.00029966,0.00060214,0.00008448,0.00014619,-0.00000509,-0.
 00000670,0.00000104,0.00002603,0.00000323,-0.00001018,-0.00001011,-0.0
 0000203,0.00000032,-0.00000326,0.00000781,-0.00000385,0.00003475,-0.00
 001025,0.00001158,0.00003173,0.00000256,-0.00012896,0.00013763,-0.0000
 0986,0.00079603,0.00049636,0.00057947,0.00079817,0.00001834,-0.0001434
 0,-0.00027922,-0.00005421,0.00002822,0.00010573,-0.00005200,-0.0000116
 1,-0.00004959,0.00000241,0.00526029,-0.01180242,-0.00159475,-0.1144985
 7,0.11383563,0.00132276,0.00000666,-0.00004394,0.00000428,-0.00004243,
 -0.00014935,0.00004737,-0.00001069,-0.00000590,-0.00002124,-0.00000848
 ,-0.00000163,-0.00000355,-0.00000318,0.00000140,0.00000405,0.00000163,
 0.00000041,0.00000087,0.00000163,-0.00000258,0.00000372,-0.00000367,0.
 00000206,-0.00000303,0.00000357,0.00000980,-0.00000124,0.00000195,-0.0
 0000081,-0.00001111,-0.00000785,-0.00001412,0.00000002,0.00001394,0.00
 007488,-0.00000803,-0.00023947,-0.00007512,-0.00006768,-0.00001078,-0.
 00042087,-0.00037334,-0.00001651,-0.00000342,0.00005240,-0.00000289,-0
 .00000084,-0.00000803,-0.00000512,-0.00002584,-0.00000119,0.00001439,-
 0.00000871,-0.00001464,-0.00000456,0.00000069,0.00000948,0.00000236,0.
 00000720,-0.00000067,0.00051382,0.00019027,0.00070720,0.00329466,-0.00
 714846,-0.00055512,0.11923991,0.00035966,0.00006091,0.00031334,-0.0028
 6624,0.00043030,-0.00302010,0.00056932,-0.00053659,0.00041848,0.000065
 72,0.00009349,0.00020490,0.00009743,-0.00002448,0.00000572,0.00001965,
 0.00001402,0.00000678,0.00000716,-0.00002357,0.00000430,0.00000194,0.0
 0002107,-0.00005834,-0.00003004,-0.00001871,-0.00001524,-0.00010751,0.
 00009240,-0.00002927,0.00001028,0.00009961,0.00114565,0.00004781,-0.00
 052095,0.00032368,-0.00007173,0.00044192,-0.00004476,-0.00006188,-0.00
 014886,0.00017237,0.00002689,0.00007467,0.00000849,0.00900791,-0.01662
 212,-0.00175162,0.11459169,-0.25039326,0.00036014,-0.00003145,-0.00004
 722,0.00003792,-0.00013506,-0.00025722,0.00002856,-0.00001246,-0.00000
 527,-0.00002736,-0.00002704,0.00000885,-0.00000006,-0.00000725,-0.0000
 0319,-0.00000788,-0.00002229,-0.00000583,-0.00001033,0.00001801,0.0000
 0719,-0.00000899,-0.00000550,0.00003009,-0.00000097,-0.00003074,-0.000
 03890,-0.00002403,-0.00003737,0.00001818,-0.00003015,-0.00001025,0.000
 06860,0.00010786,-0.00003370,0.00005818,-0.00006189,-0.00013168,-0.000
 01020,-0.00015134,0.00030366,0.00057092,0.00093767,-0.00002766,-0.0000
 0600,0.00004865,0.00000975,0.00001820,-0.00003516,-0.00000249,0.000044
 35,0.00000180,-0.00002020,0.00001737,0.00002528,0.00000822,0.00000393,
 -0.00002198,-0.00000625,-0.00001285,0.00000167,-0.00043066,0.00039914,
 0.00037144,0.00748814,-0.01313274,0.00006277,-0.12545571,0.27197125,0.
 00100867,-0.00017915,0.00064664,-0.00369687,-0.00129908,-0.00438837,0.
 00085231,-0.00078580,0.00061222,0.00005210,0.00009899,0.00018185,0.000
 09831,-0.00002152,0.00001345,-0.00000100,0.00001909,0.00001459,0.00001
 501,-0.00001871,0.00000905,-0.00001037,-0.00000125,-0.00004479,-0.0001
 1641,-0.00001043,0.00002589,-0.00017512,0.00002626,0.00016384,0.000761
 22,-0.00021266,0.00134912,-0.00023890,-0.00006238,-0.00055412,0.000122
 42,0.00025861,-0.00018767,-0.00005233,-0.00009348,0.00010697,0.0000384
 9,0.00007577,0.00001577,0.01440527,-0.02426997,-0.00182791,0.00022243,
 0.00126081,-0.04774770,-0.00012480,-0.00007397,0.00000385,-0.00017653,
 -0.00039738,0.00003607,-0.00000013,0.00000593,-0.00000768,-0.00000410,
 0.00000954,-0.00000337,0.00000727,0.00000449,-0.00000674,-0.00001248,0
 .00000353,-0.00000889,0.00000847,0.00000676,-0.00001254,-0.00000485,0.
 00003121,-0.00000899,-0.00002106,-0.00002789,-0.00002097,-0.00001742,0
 .00001273,-0.00002471,-0.00000899,0.00012587,0.00014360,0.00001546,0.0
 0004976,-0.00011791,-0.00011473,0.00004654,-0.00002971,-0.00002611,0.0
 0095150,-0.00103939,-0.00004340,-0.00001029,0.00004722,0.00000845,-0.0
 0000573,0.00008785,0.00001086,0.00003438,0.00003132,-0.00002694,0.0000
 2194,0.00003149,0.00000112,-0.00000658,-0.00001142,-0.00000345,-0.0000
 1194,-0.00000227,-0.00011245,0.00082926,0.00095668,-0.01532405,0.02490
 780,0.00102755,0.00145149,0.00065178,0.05173059,0.00161449,0.00130695,
 0.00094274,-0.00199452,0.00140214,-0.00016604,-0.00002063,-0.00011976,
 0.00006888,-0.00001142,0.00006447,0.00006195,0.00004587,0.00006175,-0.
 00005580,0.00000981,0.00001725,-0.00001033,0.00000476,0.00000592,0.000
 00544,0.00000520,-0.00000096,-0.00000901,0.00000040,-0.00005651,0.0000
 2993,0.00022215,0.00005849,-0.00007153,0.00035241,-0.00006920,0.000999
 85,-0.00002810,-0.00002087,-0.00028527,-0.00002189,0.00002146,-0.00000
 579,-0.00000446,-0.00002266,-0.00000088,-0.00001929,0.00001206,-0.0000
 0726,-0.00973502,-0.00367971,-0.00083767,-0.30830825,-0.04595354,0.014
 58222,0.00007851,0.00001598,-0.00001547,0.00000971,-0.00007975,-0.0000
 1350,0.00001199,-0.00000803,-0.00002692,0.00001618,0.00000304,0.000007
 39,-0.00000604,-0.00001189,-0.00000826,-0.00000394,-0.00000743,-0.0000
 0489,0.00000487,0.00000729,-0.00000788,0.00000113,-0.00000039,0.000002
 46,-0.00000457,-0.00000973,-0.00000911,0.00001716,0.00000756,0.0000152
 9,0.00000581,0.00000008,-0.00000282,0.00048356,0.00017938,-0.00071137,
 0.00015510,-0.00000710,0.00012285,-0.00015549,0.00011563,-0.00001585,0
 .00002994,0.00001588,-0.00004256,0.00000588,0.00000917,-0.00001088,0.0
 0000709,0.00001043,0.00000174,0.00000103,-0.00000003,0.00000472,0.0000
 0696,0.00000280,-0.00000783,0.00001077,-0.00000349,0.00000101,0.000839
 50,-0.00080963,-0.00161974,-0.00420627,-0.00036644,0.00048337,-0.01353
 403,-0.00306810,0.00123315,0.33411367,0.00197709,0.00059722,0.00052094
 ,-0.00395588,0.00059990,0.00083653,0.00033834,0.00018503,0.00005666,-0
 .00004392,0.00011220,-0.00015789,0.00000583,0.00009054,-0.00015877,0.0
 0001713,0.00001174,-0.00002342,-0.00000802,0.00002180,-0.00000282,0.00
 001292,-0.00000536,0.00005238,0.00003945,-0.00018387,-0.00007347,0.000
 02879,-0.00009224,0.00008513,0.00056070,0.00047826,0.00120601,0.000101
 51,0.00005377,0.00003794,-0.00003494,0.00002166,0.00000213,0.00002545,
 0.00001297,-0.00000430,-0.00000669,0.00000120,-0.00000090,-0.01943927,
 -0.00510096,0.00030273,-0.04340937,-0.05730826,0.00409911,0.00016079,0
 .00024889,-0.00007854,0.00004959,-0.00008537,-0.00003205,-0.00001161,-
 0.00002154,-0.00002580,0.00001303,-0.00000440,0.00001638,-0.00001435,-
 0.00001504,0.00000206,0.00000853,-0.00000822,0.00000387,-0.00000225,0.
 00000093,0.00000125,0.00000216,-0.00002053,0.00000493,0.00001492,0.000
 02240,0.00000763,0.00000811,-0.00000629,0.00001275,0.00001649,-0.00003
 577,-0.00005914,0.00025628,0.00043899,-0.00037392,-0.00008111,-0.00009
 286,-0.00005416,0.00007850,-0.00004555,-0.00005487,-0.00001887,-0.0000
 0618,0.00003211,-0.00000954,-0.00000336,-0.00002281,-0.00000152,-0.000
 01310,-0.00000117,-0.00000240,-0.00000467,-0.00000666,0.00000416,0.000
 00021,-0.00000005,-0.00000035,0.00000797,0.00000287,-0.00066298,-0.001
 94075,-0.00340088,-0.01626168,-0.00340330,0.00050106,0.02926749,0.0072
 6331,-0.00194436,0.05097750,0.05822866,0.00097241,0.00062975,-0.000419
 32,-0.00144110,0.00072588,0.00088029,0.00020189,0.00010901,0.00020593,
 -0.00005899,0.00011603,-0.00002609,0.00008348,0.00010986,-0.00026628,0
 .00001932,0.00003406,-0.00001752,0.00000221,0.00000966,-0.00001066,0.0
 0001038,-0.00000242,0.00002118,-0.00005668,-0.00031033,-0.00010347,0.0
 0018597,-0.00010379,0.00010281,-0.00163763,-0.00014470,0.00206038,0.00
 006467,0.00006311,-0.00014505,-0.00001016,0.00006549,-0.00003009,0.000
 01486,0.00002230,0.00001515,-0.00001271,0.00000976,-0.00001061,-0.0272
 3696,-0.00528001,0.00032271,0.01566051,0.00437069,-0.04960646,0.000024
 75,0.00008601,-0.00004484,0.00002847,-0.00007320,-0.00001347,0.0000053
 1,-0.00001717,-0.00000371,0.00000396,0.00000228,0.00001395,-0.00001411
 ,-0.00001430,0.00000266,0.00000156,-0.00000532,0.00000164,0.00000114,0
 .00000101,0.00000092,0.00000178,-0.00000894,0.00000118,0.00000273,0.00
 000563,0.00000207,0.00002765,0.00001920,0.00000467,0.00000749,-0.00000
 583,-0.00004241,0.00064148,0.00022942,-0.00053285,0.00016423,-0.000114
 54,0.00009515,-0.00003489,0.00008917,0.00001051,0.00001639,0.00002125,
 -0.00003743,0.00001569,0.00000501,-0.00000123,0.00001325,-0.00001114,0
 .00002665,0.00000063,0.00000481,0.00000921,0.00000490,-0.00000291,0.00
 000367,0.00001740,0.00000027,-0.00000688,-0.00114601,-0.00347471,-0.00
 386739,0.02885332,0.00408793,-0.00067342,-0.00078221,0.00006021,-0.001
 19047,-0.01461637,-0.00130848,0.05326893\\0.00002399,0.00000900,-0.000
 04972,-0.00006285,-0.00001639,0.00003145,0.00004792,-0.00000542,0.0000
 4285,0.00001644,0.00000060,-0.00000686,-0.00001330,0.00002588,-0.00000
 647,-0.00001529,-0.00000010,-0.00001284,0.00000567,-0.00001092,0.00001
 132,0.00000212,-0.00000359,-0.00000341,-0.00000931,-0.00002644,0.00000
 387,0.00004590,-0.00000808,-0.00003407,-0.00000547,-0.00005702,-0.0000
 0569,-0.00003098,0.00000714,0.00007286,0.00001704,-0.00000816,-0.00001
 938,-0.00001286,0.00000812,0.00003043,-0.00000663,0.00000939,-0.000016
 47,-0.00000154,-0.00001107,-0.00001570,0.00001002,0.00002079,0.0000104
 8,-0.00000431,0.00000361,-0.00000657,-0.00000849,0.00000099,-0.0000030
 3,-0.00000319,0.00001589,0.00000793,0.00000579,-0.00000142,0.00000169,
 0.00000493,0.00000453,0.00000387,0.00000538,0.00000669,-0.00000141,0.0
 0000953,0.00001220,0.00000325,-0.00001055,0.00000762,0.00000110,-0.000
 00168,0.00000219,0.00000364,0.00000849,0.00000393,-0.00000734,-0.00000
 484,0.00000547,0.00000820,-0.00001594,0.00000498,0.00000443,0.00000472
 ,0.00000822,-0.00000495,0.00000496,-0.00000352,-0.00000575,0.00001354,
 0.00000022,0.00000002,-0.00000403,0.00000312,-0.00000011,-0.00000689,0
 .00000169,0.00000746,0.00000304,0.00000159,-0.00000313,-0.00000073,-0.
 00000346,-0.00000012,0.00000984,0.00000356,-0.00001004,-0.00000550,-0.
 00002321,-0.00002237,-0.00000558,0.00000767,-0.00000256,-0.00000142,-0
 .00000028,-0.00000588,-0.00000795,0.00000400,-0.00000094\\\@


 NO HUMAN INVESTIGATION CAN BECOME REAL SCIENCE
 WITHOUT GOING THROUGH MATHEMATICAL PEOPLE.
 -- LEONARDO DA VINCI, IN "PENSIERI" CA. 1492
 Job cpu time:       0 days  0 hours  6 minutes 52.7 seconds.
 Elapsed time:       0 days  0 hours  7 minutes 26.8 seconds.
 File lengths (MBytes):  RWF=    433 Int=      0 D2E=      0 Chk=     16 Scr=      1
 Normal termination of Gaussian 16 at Fri Feb 23 23:25:23 2024.
