 Entering Gaussian System, Link 0=g16
 Input=/Volumes/SSD-PMU3/b3lyp_6-31gd_freq/CJAUDSQXFVZPTO-LLVKDONJSA-N_calculating/gaussianinput1.gjf
 Output=/Volumes/SSD-PMU3/b3lyp_6-31gd_freq/CJAUDSQXFVZPTO-LLVKDONJSA-N_calculating/gaussianinput1.log
 Initial command:
 /Applications/g16/l1.exe "/Users/macmini_m1_2022/PycharmProjects/sphere_model/sphere_model_lib/Gau-91933.inp" -scrdir="/Users/macmini_m1_2022/PycharmProjects/sphere_model/sphere_model_lib/"
 Entering Link 1 = /Applications/g16/l1.exe PID=     91934.
  
 Copyright (c) 1988,1990,1992,1993,1995,1998,2003,2009,2016,
            Gaussian, Inc.  All Rights Reserved.
  
 This is part of the Gaussian(R) 16 program.  It is based on
 the Gaussian(R) 09 system (copyright 2009, Gaussian, Inc.),
 the Gaussian(R) 03 system (copyright 2003, Gaussian, Inc.),
 the Gaussian(R) 98 system (copyright 1998, Gaussian, Inc.),
 the Gaussian(R) 94 system (copyright 1995, Gaussian, Inc.),
 the Gaussian 92(TM) system (copyright 1992, Gaussian, Inc.),
 the Gaussian 90(TM) system (copyright 1990, Gaussian, Inc.),
 the Gaussian 88(TM) system (copyright 1988, Gaussian, Inc.),
 the Gaussian 86(TM) system (copyright 1986, Carnegie Mellon
 University), and the Gaussian 82(TM) system (copyright 1983,
 Carnegie Mellon University). Gaussian is a federally registered
 trademark of Gaussian, Inc.
  
 This software contains proprietary and confidential information,
 including trade secrets, belonging to Gaussian, Inc.
  
 This software is provided under written license and may be
 used, copied, transmitted, or stored only in accord with that
 written license.
  
 The following legend is applicable only to US Government
 contracts under FAR:
  
                    RESTRICTED RIGHTS LEGEND
  
 Use, reproduction and disclosure by the US Government is
 subject to restrictions as set forth in subparagraphs (a)
 and (c) of the Commercial Computer Software - Restricted
 Rights clause in FAR 52.227-19.
  
 Gaussian, Inc.
 340 Quinnipiac St., Bldg. 40, Wallingford CT 06492
  
  
 ---------------------------------------------------------------
 Warning -- This program may not be used in any manner that
 competes with the business of Gaussian, Inc. or will provide
 assistance to any competitor of Gaussian, Inc.  The licensee
 of this program is prohibited from giving any competitor of
 Gaussian, Inc. access to this program.  By using this program,
 the user acknowledges that Gaussian, Inc. is engaged in the
 business of creating and licensing software in the field of
 computational chemistry and represents and warrants to the
 licensee that it is not a competitor of Gaussian, Inc. and that
 it will not use this program in any manner prohibited above.
 ---------------------------------------------------------------
  

 Cite this work as:
 Gaussian 16, Revision A.03,
 M. J. Frisch, G. W. Trucks, H. B. Schlegel, G. E. Scuseria, 
 M. A. Robb, J. R. Cheeseman, G. Scalmani, V. Barone, 
 G. A. Petersson, H. Nakatsuji, X. Li, M. Caricato, A. V. Marenich, 
 J. Bloino, B. G. Janesko, R. Gomperts, B. Mennucci, H. P. Hratchian, 
 J. V. Ortiz, A. F. Izmaylov, J. L. Sonnenberg, D. Williams-Young, 
 F. Ding, F. Lipparini, F. Egidi, J. Goings, B. Peng, A. Petrone, 
 T. Henderson, D. Ranasinghe, V. G. Zakrzewski, J. Gao, N. Rega, 
 G. Zheng, W. Liang, M. Hada, M. Ehara, K. Toyota, R. Fukuda, 
 J. Hasegawa, M. Ishida, T. Nakajima, Y. Honda, O. Kitao, H. Nakai, 
 T. Vreven, K. Throssell, J. A. Montgomery, Jr., J. E. Peralta, 
 F. Ogliaro, M. J. Bearpark, J. J. Heyd, E. N. Brothers, K. N. Kudin, 
 V. N. Staroverov, T. A. Keith, R. Kobayashi, J. Normand, 
 K. Raghavachari, A. P. Rendell, J. C. Burant, S. S. Iyengar, 
 J. Tomasi, M. Cossi, J. M. Millam, M. Klene, C. Adamo, R. Cammi, 
 J. W. Ochterski, R. L. Martin, K. Morokuma, O. Farkas, 
 J. B. Foresman, and D. J. Fox, Gaussian, Inc., Wallingford CT, 2016.
 
 ******************************************
 Gaussian 16:  EM64M-G16RevA.03 25-Dec-2016
                24-Feb-2024 
 ******************************************
 %nprocshared=10
 Will use up to   10 processors via shared memory.
 %mem=12GB
 %chk= 1.chk
 ---------------------
 # freq b3lyp/6-31g(d)
 ---------------------
 1/10=4,30=1,38=1/1,3;
 2/12=2,17=6,18=5,40=1/2;
 3/5=1,6=6,7=1,11=2,25=1,30=1,71=2,74=-5,140=1/1,2,3;
 4//1;
 5/5=2,38=5,98=1/2;
 8/6=4,10=90,11=11/1;
 11/6=1,8=1,9=11,15=111,16=1/1,2,10;
 10/6=1/2;
 6/7=2,8=2,9=2,10=2,28=1/1;
 7/8=1,10=1,25=1/1,2,3,16;
 1/10=4,30=1/3;
 99//99;
 ---------
 good luck
 ---------
 Symbolic Z-matrix:
 Charge =  0 Multiplicity = 1
 O                     1.21769   0.        0. 
 C                     0.        0.        0. 
 C                    -0.81052  -1.29353   0.01265 
 C                    -1.99345  -1.31949  -0.98727 
 C                    -1.59403  -1.58681  -2.43694 
 C                    -0.29085  -1.42477  -2.92645 
 C                     0.00504  -1.67061  -4.27102 
 C                    -0.99281  -2.08615  -5.15017 
 C                    -2.29519  -2.2595   -4.67464 
 C                    -2.58662  -2.01327  -3.33497 
 C                    -2.82057  -0.01385  -0.84656 
 C                    -1.9607    1.2441   -1.01889 
 C                    -0.81525   1.28502   0.01265 
 H                    -1.23206  -1.3837    1.02545 
 H                    -0.12888  -2.1365   -0.13186 
 H                    -2.64819  -2.14867  -0.6869 
 H                     0.51132  -1.11474  -2.26481 
 H                     1.02404  -1.53832  -4.62531 
 H                    -0.75994  -2.27951  -6.19386 
 H                    -3.08214  -2.59315  -5.34623 
 H                    -3.60267  -2.16111  -2.97349 
 H                    -3.63684  -0.01577  -1.57785 
 H                    -3.28799  -0.00087   0.14912 
 H                    -1.53977   1.26506  -2.03199 
 H                    -2.57966   2.14334  -0.91667 
 H                    -0.13719   2.12807  -0.14941 
 H                    -1.24606   1.39417   1.0204 
 

 GradGradGradGradGradGradGradGradGradGradGradGradGradGradGradGradGradGrad
 Berny optimization.
 Initialization pass.
 Trust Radius=3.00D-01 FncErr=1.00D-07 GrdErr=1.00D-07 EigMax=2.50D+02 EigMin=1.00D-04
 Number of steps in this run=      2 maximum allowed number of steps=      2.
 GradGradGradGradGradGradGradGradGradGradGradGradGradGradGradGradGradGrad

                          Input orientation:                          
 ---------------------------------------------------------------------
 Center     Atomic      Atomic             Coordinates (Angstroms)
 Number     Number       Type             X           Y           Z
 ---------------------------------------------------------------------
      1          8           0        1.217693    0.000000    0.000000
      2          6           0        0.000000    0.000000    0.000000
      3          6           0       -0.810517   -1.293529    0.012646
      4          6           0       -1.993454   -1.319487   -0.987274
      5          6           0       -1.594031   -1.586812   -2.436938
      6          6           0       -0.290849   -1.424765   -2.926452
      7          6           0        0.005042   -1.670609   -4.271023
      8          6           0       -0.992812   -2.086147   -5.150174
      9          6           0       -2.295188   -2.259502   -4.674638
     10          6           0       -2.586615   -2.013274   -3.334968
     11          6           0       -2.820570   -0.013852   -0.846562
     12          6           0       -1.960695    1.244104   -1.018885
     13          6           0       -0.815247    1.285019    0.012646
     14          1           0       -1.232062   -1.383703    1.025446
     15          1           0       -0.128877   -2.136501   -0.131858
     16          1           0       -2.648192   -2.148675   -0.686902
     17          1           0        0.511324   -1.114743   -2.264813
     18          1           0        1.024039   -1.538323   -4.625310
     19          1           0       -0.759939   -2.279509   -6.193862
     20          1           0       -3.082142   -2.593150   -5.346228
     21          1           0       -3.602665   -2.161112   -2.973487
     22          1           0       -3.636838   -0.015773   -1.577853
     23          1           0       -3.287992   -0.000874    0.149123
     24          1           0       -1.539769    1.265057   -2.031994
     25          1           0       -2.579658    2.143344   -0.916674
     26          1           0       -0.137188    2.128070   -0.149414
     27          1           0       -1.246061    1.394167    1.020403
 ---------------------------------------------------------------------
                    Distance matrix (angstroms):
                    1          2          3          4          5
     1  O    0.000000
     2  C    1.217693   0.000000
     3  C    2.405621   1.526537   0.000000
     4  C    3.609324   2.586429   1.549146   0.000000
     5  C    4.045050   3.316259   2.588507   1.527261   0.000000
     6  C    3.587447   3.267823   2.987570   2.582704   1.401487
     7  C    4.743743   4.586131   4.376888   3.860088   2.434733
     8  C    5.980187   5.644641   5.226489   4.349573   2.823553
     9  C    6.268806   5.676749   5.010787   3.817240   2.439556
    10  C    5.445002   4.676095   3.857341   2.518898   1.404831
    11  C    4.126067   2.944906   2.533007   1.551968   2.551058
    12  C    3.562032   2.535793   2.970951   2.563995   3.187382
    13  C    2.405053   1.521861   2.578552   3.028442   3.854138
    14  H    2.994574   2.117581   1.100725   2.152878   3.487173
    15  H    2.528888   2.144442   1.093671   2.208143   2.786078
    16  H    4.475903   3.478730   2.144223   1.098389   2.118861
    17  H    2.621257   2.575555   2.639327   2.819209   2.164485
    18  H    4.878261   4.980822   4.993611   4.731644   3.412567
    19  H    6.889929   6.643613   6.284541   5.436153   3.910245
    20  H    7.334519   6.693742   5.963793   4.669897   3.419234
    21  H    6.062003   5.146963   4.179208   2.691270   2.156923
    22  H    5.104541   3.964399   3.485748   2.179258   2.716478
    23  H    4.508152   3.291372   2.797761   2.169324   3.474538
    24  H    3.651433   2.846095   3.355402   2.824383   2.880986
    25  H    4.455793   3.476902   3.975625   3.512808   4.146894
    26  H    2.527194   2.137715   3.490985   4.004171   4.599511
    27  H    3.009154   2.130162   2.903271   3.457352   4.578267
                    6          7          8          9         10
     6  C    0.000000
     7  C    1.398521   0.000000
     8  C    2.423864   1.393302   0.000000
     9  C    2.787528   2.408476   1.397272   0.000000
    10  C    2.404947   2.776743   2.416711   1.392937   0.000000
    11  C    3.565965   4.738761   5.114312   4.469131   3.200717
    12  C    3.681041   4.789162   5.393971   5.074610   4.045557
    13  C    4.031900   5.268627   6.168549   6.060073   5.022251
    14  H    4.062643   5.446588   6.220044   5.864147   4.609163
    15  H    2.888349   4.167454   5.092388   5.034370   4.039254
    16  H    3.331170   4.484877   4.760776   4.004864   2.652240
    17  H    1.085063   2.142472   3.395785   3.872240   3.398502
    18  H    2.151266   1.086910   2.154827   3.397028   3.863597
    19  H    3.409780   2.157143   1.086694   2.159961   3.403072
    20  H    3.874501   3.396741   2.158886   1.087038   2.151039
    21  H    3.393014   3.865196   3.399253   2.147811   1.088523
    22  H    3.872934   4.822337   4.902938   4.052706   2.860145
    23  H    4.524322   5.759321   6.139932   5.418093   4.084186
    24  H    3.097579   4.002228   4.610073   4.469535   3.679821
    25  H    4.691402   5.698997   6.191058   5.795539   4.808915
    26  H    4.512005   5.606947   6.595401   6.662237   5.770457
    27  H    4.943326   6.241578   7.088917   6.847150   5.690079
                   11         12         13         14         15
    11  C    0.000000
    12  C    1.533471   0.000000
    13  C    2.539020   1.542006   0.000000
    14  H    2.811452   3.408162   2.884714   0.000000
    15  H    3.501664   3.945993   3.492676   1.767222   0.000000
    16  H    2.147714   3.477616   3.954657   2.350051   2.579762
    17  H    3.784827   3.636946   3.564473   3.733301   2.450172
    18  H    5.602139   5.445809   5.732789   6.086456   4.677408
    19  H    6.162225   6.374798   7.157490   7.289978   6.096440
    20  H    5.193091   5.891355   6.992606   6.744167   6.009988
    21  H    3.121892   4.255823   5.344390   4.713342   4.488058
    22  H    1.095940   2.170067   3.490433   3.798861   4.346744
    23  H    1.100018   2.162390   2.790451   2.628118   3.823593
    24  H    2.163633   1.097273   2.169305   4.056914   4.143879
    25  H    2.171739   1.096446   2.171060   4.245928   4.993930
    26  H    3.503482   2.205120   1.093966   3.861553   4.264615
    27  H    2.819070   2.166083   1.101403   2.777910   3.878327
                   16         17         18         19         20
    16  H    0.000000
    17  H    3.679859   0.000000
    18  H    5.419305   2.452395   0.000000
    19  H    5.823163   4.290713   2.488431   0.000000
    20  H    4.700552   4.959214   4.300361   2.491883   0.000000
    21  H    2.477831   4.303721   4.952048   4.297200   2.467286
    22  H    2.514058   4.345906   5.773121   5.891399   4.599044
    23  H    2.391930   4.637089   6.614573   7.198381   6.079568
    24  H    3.832941   3.150339   4.599711   5.522067   5.314962
    25  H    4.298711   4.689006   6.347857   7.121918   6.504446
    26  H    4.988445   3.925725   5.901231   7.506659   7.613774
    27  H    4.175235   4.491734   6.754771   8.110353   7.733297
                   21         22         23         24         25
    21  H    0.000000
    22  H    2.559578   0.000000
    23  H    3.810032   1.761920   0.000000
    24  H    4.108599   2.498893   3.068572   0.000000
    25  H    4.879074   2.493306   2.497065   1.759743   0.000000
    26  H    6.195321   4.345578   3.814327   2.501226   2.560192
    27  H    5.843351   3.801931   2.621975   3.069212   2.468201
                   26         27
    26  H    0.000000
    27  H    1.771069   0.000000
 Stoichiometry    C12H14O
 Framework group  C1[X(C12H14O)]
 Deg. of freedom    75
 Full point group                 C1      NOp   1
 Largest Abelian subgroup         C1      NOp   1
 Largest concise Abelian subgroup C1      NOp   1
                         Standard orientation:                         
 ---------------------------------------------------------------------
 Center     Atomic      Atomic             Coordinates (Angstroms)
 Number     Number       Type             X           Y           Z
 ---------------------------------------------------------------------
      1          8           0       -2.392845    2.043340    0.148439
      2          6           0       -2.204118    0.841135    0.191596
      3          6           0       -1.468921    0.177286    1.353106
      4          6           0       -0.409559   -0.869864    0.927567
      5          6           0        0.908756   -0.275996    0.435740
      6          6           0        1.051809    1.051095    0.008504
      7          6           0        2.285103    1.528059   -0.446856
      8          6           0        3.398358    0.690906   -0.480463
      9          6           0        3.272676   -0.632535   -0.050258
     10          6           0        2.042739   -1.104555    0.402207
     11          6           0       -1.029197   -1.842202   -0.111283
     12          6           0       -1.617077   -1.106993   -1.321819
     13          6           0       -2.705104   -0.102178   -0.892486
     14          1           0       -2.235024   -0.348781    1.942966
     15          1           0       -1.045398    0.957140    1.992302
     16          1           0       -0.169739   -1.463347    1.820160
     17          1           0        0.207349    1.731964    0.034340
     18          1           0        2.369691    2.561798   -0.771823
     19          1           0        4.356390    1.064562   -0.831832
     20          1           0        4.134705   -1.294686   -0.060933
     21          1           0        1.958942   -2.134575    0.744141
     22          1           0       -0.270193   -2.561603   -0.439094
     23          1           0       -1.822890   -2.422536    0.381976
     24          1           0       -0.817407   -0.574124   -1.851522
     25          1           0       -2.040780   -1.825974   -2.032971
     26          1           0       -3.074641    0.496533   -1.730191
     27          1           0       -3.561029   -0.658043   -0.478367
 ---------------------------------------------------------------------
 Rotational constants (GHZ):           1.4789459           0.5659307           0.4859515
 Standard basis: 6-31G(d) (6D, 7F)
 There are   223 symmetry adapted cartesian basis functions of A   symmetry.
 There are   223 symmetry adapted basis functions of A   symmetry.
   223 basis functions,   420 primitive gaussians,   223 cartesian basis functions
    47 alpha electrons       47 beta electrons
       nuclear repulsion energy       771.6614851115 Hartrees.
 NAtoms=   27 NActive=   27 NUniq=   27 SFac= 1.00D+00 NAtFMM=   60 NAOKFM=F Big=F
 Integral buffers will be    131072 words long.
 Raffenetti 2 integral format.
 Two-electron integral symmetry is turned on.
 One-electron integrals computed using PRISM.
 NBasis=   223 RedAO= T EigKep=  4.56D-04  NBF=   223
 NBsUse=   223 1.00D-06 EigRej= -1.00D+00 NBFU=   223
 ExpMin= 1.61D-01 ExpMax= 5.48D+03 ExpMxC= 8.25D+02 IAcc=3 IRadAn=         5 AccDes= 0.00D+00
 Harris functional with IExCor=  402 and IRadAn=       5 diagonalized for initial guess.
 HarFok:  IExCor=  402 AccDes= 0.00D+00 IRadAn=         5 IDoV= 1 UseB2=F ITyADJ=14
 ICtDFT=  3500011 ScaDFX=  1.000000  1.000000  1.000000  1.000000
 FoFCou: FMM=F IPFlag=           0 FMFlag=      100000 FMFlg1=           0
         NFxFlg=           0 DoJE=T BraDBF=F KetDBF=T FulRan=T
         wScrn=  0.000000 ICntrl=       500 IOpCl=  0 I1Cent=   200000004 NGrid=           0
         NMat0=    1 NMatS0=      1 NMatT0=    0 NMatD0=    1 NMtDS0=    0 NMtDT0=    0
 Petite list used in FoFCou.
 Requested convergence on RMS density matrix=1.00D-08 within 128 cycles.
 Requested convergence on MAX density matrix=1.00D-06.
 Requested convergence on             energy=1.00D-06.
 No special actions if energy rises.
 Integral accuracy reduced to 1.0D-05 until final iterations.
 Initial convergence to 1.0D-05 achieved.  Increase integral accuracy.
 SCF Done:  E(RB3LYP) =  -540.938623270     A.U. after   14 cycles
            NFock= 14  Conv=0.65D-08     -V/T= 2.0097
 DoSCS=F DFT=T ScalE2(SS,OS)=  1.000000  1.000000
 Range of M.O.s used for correlation:     1   223
 NBasis=   223 NAE=    47 NBE=    47 NFC=     0 NFV=     0
 NROrb=    223 NOA=    47 NOB=    47 NVA=   176 NVB=   176
 Symmetrizing basis deriv contribution to polar:
 IMax=3 JMax=2 DiffMx= 0.00D+00
 G2DrvN: will do    28 centers at a time, making    1 passes.
 Calling FoFCou, ICntrl=  3107 FMM=F I1Cent=   0 AccDes= 0.00D+00.
 End of G2Drv F.D. properties file   721 does not exist.
 End of G2Drv F.D. properties file   722 does not exist.
 End of G2Drv F.D. properties file   788 does not exist.
          IDoAtm=111111111111111111111111111
          Differentiating once with respect to electric field.
                with respect to dipole field.
          Differentiating once with respect to nuclear coordinates.
 Keep R1 ints in memory in canonical form, NReq=322414327.
          There are    84 degrees of freedom in the 1st order CPHF.  IDoFFX=6 NUNeed=     3.
     81 vectors produced by pass  0 Test12= 9.85D-15 1.19D-09 XBig12= 1.34D+02 5.14D+00.
 AX will form    81 AO Fock derivatives at one time.
     81 vectors produced by pass  1 Test12= 9.85D-15 1.19D-09 XBig12= 2.28D+01 9.57D-01.
     81 vectors produced by pass  2 Test12= 9.85D-15 1.19D-09 XBig12= 1.73D-01 4.08D-02.
     81 vectors produced by pass  3 Test12= 9.85D-15 1.19D-09 XBig12= 4.39D-04 1.81D-03.
     81 vectors produced by pass  4 Test12= 9.85D-15 1.19D-09 XBig12= 4.07D-07 4.40D-05.
     51 vectors produced by pass  5 Test12= 9.85D-15 1.19D-09 XBig12= 2.37D-10 1.16D-06.
      4 vectors produced by pass  6 Test12= 9.85D-15 1.19D-09 XBig12= 1.67D-13 3.40D-08.
      1 vectors produced by pass  7 Test12= 9.85D-15 1.19D-09 XBig12= 1.38D-16 1.33D-09.
 InvSVY:  IOpt=1 It=  1 EMax= 1.42D-14
 Solved reduced A of dimension   461 with    84 vectors.
 Isotropic polarizability for W=    0.000000      117.56 Bohr**3.
 End of Minotr F.D. properties file   721 does not exist.
 End of Minotr F.D. properties file   722 does not exist.
 End of Minotr F.D. properties file   788 does not exist.

 **********************************************************************

            Population analysis using the SCF density.

 **********************************************************************

 Orbital symmetries:
       Occupied  (A) (A) (A) (A) (A) (A) (A) (A) (A) (A) (A) (A)
                 (A) (A) (A) (A) (A) (A) (A) (A) (A) (A) (A) (A)
                 (A) (A) (A) (A) (A) (A) (A) (A) (A) (A) (A) (A)
                 (A) (A) (A) (A) (A) (A) (A) (A) (A) (A) (A)
       Virtual   (A) (A) (A) (A) (A) (A) (A) (A) (A) (A) (A) (A)
                 (A) (A) (A) (A) (A) (A) (A) (A) (A) (A) (A) (A)
                 (A) (A) (A) (A) (A) (A) (A) (A) (A) (A) (A) (A)
                 (A) (A) (A) (A) (A) (A) (A) (A) (A) (A) (A) (A)
                 (A) (A) (A) (A) (A) (A) (A) (A) (A) (A) (A) (A)
                 (A) (A) (A) (A) (A) (A) (A) (A) (A) (A) (A) (A)
                 (A) (A) (A) (A) (A) (A) (A) (A) (A) (A) (A) (A)
                 (A) (A) (A) (A) (A) (A) (A) (A) (A) (A) (A) (A)
                 (A) (A) (A) (A) (A) (A) (A) (A) (A) (A) (A) (A)
                 (A) (A) (A) (A) (A) (A) (A) (A) (A) (A) (A) (A)
                 (A) (A) (A) (A) (A) (A) (A) (A) (A) (A) (A) (A)
                 (A) (A) (A) (A) (A) (A) (A) (A) (A) (A) (A) (A)
                 (A) (A) (A) (A) (A) (A) (A) (A) (A) (A) (A) (A)
                 (A) (A) (A) (A) (A) (A) (A) (A) (A) (A) (A) (A)
                 (A) (A) (A) (A) (A) (A) (A) (A)
 The electronic state is 1-A.
 Alpha  occ. eigenvalues --  -19.13472 -10.27168 -10.20605 -10.19624 -10.19297
 Alpha  occ. eigenvalues --  -10.19274 -10.19250 -10.19161 -10.18942 -10.18785
 Alpha  occ. eigenvalues --  -10.18763 -10.18719 -10.18520  -1.03381  -0.85940
 Alpha  occ. eigenvalues --   -0.82942  -0.77180  -0.74333  -0.73368  -0.71958
 Alpha  occ. eigenvalues --   -0.63786  -0.60787  -0.59756  -0.57153  -0.53196
 Alpha  occ. eigenvalues --   -0.50663  -0.47501  -0.46047  -0.46002  -0.45031
 Alpha  occ. eigenvalues --   -0.44322  -0.42842  -0.41732  -0.41349  -0.40331
 Alpha  occ. eigenvalues --   -0.38997  -0.37933  -0.36292  -0.35569  -0.34763
 Alpha  occ. eigenvalues --   -0.34372  -0.33056  -0.32241  -0.31884  -0.24807
 Alpha  occ. eigenvalues --   -0.24247  -0.23612
 Alpha virt. eigenvalues --   -0.01915   0.00172   0.00274   0.08209   0.10131
 Alpha virt. eigenvalues --    0.11246   0.12163   0.13920   0.14543   0.15554
 Alpha virt. eigenvalues --    0.15818   0.16056   0.16524   0.16742   0.17251
 Alpha virt. eigenvalues --    0.18243   0.19522   0.20745   0.21412   0.22214
 Alpha virt. eigenvalues --    0.24057   0.24364   0.26489   0.27478   0.30782
 Alpha virt. eigenvalues --    0.31174   0.31583   0.33956   0.34666   0.40422
 Alpha virt. eigenvalues --    0.46329   0.50232   0.51644   0.52128   0.52952
 Alpha virt. eigenvalues --    0.54425   0.55330   0.56114   0.57430   0.58067
 Alpha virt. eigenvalues --    0.59031   0.59313   0.59941   0.61068   0.61357
 Alpha virt. eigenvalues --    0.61627   0.62147   0.64904   0.65189   0.66387
 Alpha virt. eigenvalues --    0.67266   0.69884   0.71272   0.73340   0.74261
 Alpha virt. eigenvalues --    0.76503   0.78094   0.78874   0.79754   0.82300
 Alpha virt. eigenvalues --    0.83075   0.83808   0.84358   0.84982   0.85642
 Alpha virt. eigenvalues --    0.86227   0.87828   0.88554   0.90396   0.91457
 Alpha virt. eigenvalues --    0.92952   0.93559   0.94273   0.94535   0.96364
 Alpha virt. eigenvalues --    0.97288   0.98969   1.01462   1.04287   1.06507
 Alpha virt. eigenvalues --    1.08061   1.09937   1.12194   1.13495   1.15203
 Alpha virt. eigenvalues --    1.18911   1.19779   1.20524   1.22978   1.26284
 Alpha virt. eigenvalues --    1.32042   1.36345   1.40624   1.42634   1.44011
 Alpha virt. eigenvalues --    1.46483   1.48146   1.49046   1.49591   1.51704
 Alpha virt. eigenvalues --    1.53478   1.56836   1.58275   1.65358   1.69541
 Alpha virt. eigenvalues --    1.71249   1.76187   1.77669   1.79130   1.79809
 Alpha virt. eigenvalues --    1.80434   1.83255   1.84445   1.87104   1.87545
 Alpha virt. eigenvalues --    1.89436   1.90513   1.93358   1.95420   1.97470
 Alpha virt. eigenvalues --    1.98544   2.00082   2.01620   2.03387   2.05599
 Alpha virt. eigenvalues --    2.07609   2.11246   2.13212   2.14766   2.15062
 Alpha virt. eigenvalues --    2.15921   2.17479   2.21937   2.23397   2.25652
 Alpha virt. eigenvalues --    2.30616   2.30911   2.31726   2.32542   2.35700
 Alpha virt. eigenvalues --    2.39255   2.41344   2.42947   2.47846   2.49687
 Alpha virt. eigenvalues --    2.56920   2.57798   2.59028   2.60747   2.63673
 Alpha virt. eigenvalues --    2.66539   2.67773   2.71314   2.74051   2.75849
 Alpha virt. eigenvalues --    2.77098   2.78314   2.80942   2.90863   2.99044
 Alpha virt. eigenvalues --    3.01655   3.07865   3.41031   4.05700   4.09528
 Alpha virt. eigenvalues --    4.11271   4.12582   4.16048   4.27369   4.30869
 Alpha virt. eigenvalues --    4.34455   4.41541   4.54487   4.59145   4.62289
 Alpha virt. eigenvalues --    4.71989
          Condensed to atoms (all electrons):
               1          2          3          4          5          6
     1  O    8.039952   0.551647  -0.078735   0.001820   0.000224  -0.005425
     2  C    0.551647   4.479926   0.322452  -0.014676  -0.003673  -0.000817
     3  C   -0.078735   0.322452   5.377785   0.304098  -0.040330  -0.001261
     4  C    0.001820  -0.014676   0.304098   5.111360   0.355756  -0.060679
     5  C    0.000224  -0.003673  -0.040330   0.355756   4.679465   0.544660
     6  C   -0.005425  -0.000817  -0.001261  -0.060679   0.544660   5.021862
     7  C    0.000050   0.000062   0.000088   0.006838  -0.017137   0.511953
     8  C    0.000000  -0.000001  -0.000011   0.000301  -0.035552  -0.034851
     9  C   -0.000000  -0.000005  -0.000154   0.006067  -0.016923  -0.047295
    10  C   -0.000001  -0.000010   0.003962  -0.053151   0.534163  -0.043724
    11  C    0.000132  -0.018148  -0.044765   0.353757  -0.043777  -0.001895
    12  C    0.001294  -0.024398  -0.004711  -0.039906  -0.008265   0.000984
    13  C   -0.074441   0.334467  -0.137993  -0.001574  -0.000138  -0.000939
    14  H    0.001484  -0.028298   0.343316  -0.028187   0.005067   0.000104
    15  H    0.003819  -0.026664   0.346273  -0.028285  -0.003034   0.001317
    16  H   -0.000080   0.003310  -0.035755   0.363335  -0.042056   0.003924
    17  H    0.013107   0.007903  -0.004405  -0.012378  -0.042105   0.343041
    18  H   -0.000005  -0.000002   0.000012  -0.000175   0.003575  -0.037565
    19  H    0.000000   0.000000  -0.000000   0.000008   0.000700   0.004862
    20  H   -0.000000   0.000000   0.000002  -0.000169   0.003886   0.000715
    21  H    0.000000   0.000002   0.000156  -0.009323  -0.049157   0.006330
    22  H    0.000001   0.000323   0.004985  -0.033353  -0.006186  -0.000017
    23  H   -0.000005  -0.001219  -0.001961  -0.036348   0.005294  -0.000092
    24  H    0.000316  -0.002226   0.000419  -0.007609   0.007697   0.003114
    25  H   -0.000065   0.003162  -0.000217   0.004695   0.000161  -0.000006
    26  H    0.004474  -0.023423   0.006533  -0.000121  -0.000036   0.000045
    27  H    0.001207  -0.028366   0.003799  -0.001683   0.000114  -0.000019
               7          8          9         10         11         12
     1  O    0.000050   0.000000  -0.000000  -0.000001   0.000132   0.001294
     2  C    0.000062  -0.000001  -0.000005  -0.000010  -0.018148  -0.024398
     3  C    0.000088  -0.000011  -0.000154   0.003962  -0.044765  -0.004711
     4  C    0.006838   0.000301   0.006067  -0.053151   0.353757  -0.039906
     5  C   -0.017137  -0.035552  -0.016923   0.534163  -0.043777  -0.008265
     6  C    0.511953  -0.034851  -0.047295  -0.043724  -0.001895   0.000984
     7  C    4.872826   0.553614  -0.025447  -0.046890  -0.000128  -0.000057
     8  C    0.553614   4.853752   0.545461  -0.034969   0.000018   0.000007
     9  C   -0.025447   0.545461   4.866866   0.527126   0.000092   0.000001
    10  C   -0.046890  -0.034969   0.527126   4.980013  -0.006544  -0.000511
    11  C   -0.000128   0.000018   0.000092  -0.006544   5.079015   0.370035
    12  C   -0.000057   0.000007   0.000001  -0.000511   0.370035   5.037806
    13  C   -0.000009   0.000001   0.000001  -0.000006  -0.044236   0.332740
    14  H   -0.000002   0.000000   0.000001  -0.000100  -0.001065  -0.001456
    15  H   -0.000111  -0.000006  -0.000008   0.000167   0.004684  -0.000147
    16  H   -0.000151   0.000007   0.000140  -0.007475  -0.040924   0.005753
    17  H   -0.040339   0.004699   0.000324   0.005514   0.000369  -0.000660
    18  H    0.356550  -0.043489   0.004574   0.000889   0.000001   0.000000
    19  H   -0.042993   0.358907  -0.043670   0.004703   0.000000  -0.000000
    20  H    0.004714  -0.043535   0.356631  -0.040223  -0.000000   0.000000
    21  H    0.000303   0.004953  -0.045396   0.354010   0.000236   0.000088
    22  H   -0.000006  -0.000004  -0.000140   0.004994   0.364729  -0.030568
    23  H    0.000002  -0.000000   0.000003   0.000207   0.361080  -0.043850
    24  H    0.000069  -0.000032  -0.000081   0.000710  -0.039207   0.376255
    25  H    0.000000   0.000000  -0.000002  -0.000010  -0.030295   0.368605
    26  H   -0.000000  -0.000000   0.000000  -0.000001   0.004038  -0.025653
    27  H    0.000000   0.000000  -0.000000   0.000001  -0.002865  -0.036920
              13         14         15         16         17         18
     1  O   -0.074441   0.001484   0.003819  -0.000080   0.013107  -0.000005
     2  C    0.334467  -0.028298  -0.026664   0.003310   0.007903  -0.000002
     3  C   -0.137993   0.343316   0.346273  -0.035755  -0.004405   0.000012
     4  C   -0.001574  -0.028187  -0.028285   0.363335  -0.012378  -0.000175
     5  C   -0.000138   0.005067  -0.003034  -0.042056  -0.042105   0.003575
     6  C   -0.000939   0.000104   0.001317   0.003924   0.343041  -0.037565
     7  C   -0.000009  -0.000002  -0.000111  -0.000151  -0.040339   0.356550
     8  C    0.000001   0.000000  -0.000006   0.000007   0.004699  -0.043489
     9  C    0.000001   0.000001  -0.000008   0.000140   0.000324   0.004574
    10  C   -0.000006  -0.000100   0.000167  -0.007475   0.005514   0.000889
    11  C   -0.044236  -0.001065   0.004684  -0.040924   0.000369   0.000001
    12  C    0.332740  -0.001456  -0.000147   0.005753  -0.000660   0.000000
    13  C    5.301590   0.002921   0.006316  -0.000313   0.001173  -0.000001
    14  H    0.002921   0.577075  -0.025487  -0.008198   0.000364  -0.000000
    15  H    0.006316  -0.025487   0.551955  -0.002248   0.001626   0.000000
    16  H   -0.000313  -0.008198  -0.002248   0.623108  -0.000058   0.000003
    17  H    0.001173   0.000364   0.001626  -0.000058   0.570696  -0.005336
    18  H   -0.000001  -0.000000   0.000000   0.000003  -0.005336   0.593337
    19  H    0.000000  -0.000000  -0.000000  -0.000000  -0.000168  -0.005564
    20  H   -0.000000  -0.000000   0.000000  -0.000005   0.000015  -0.000188
    21  H   -0.000001  -0.000006   0.000003   0.004575  -0.000162   0.000018
    22  H    0.004454  -0.000080  -0.000143  -0.001951  -0.000016   0.000000
    23  H   -0.003655   0.003475  -0.000102  -0.005313  -0.000007  -0.000000
    24  H   -0.041495   0.000057  -0.000067   0.000099   0.000185  -0.000004
    25  H   -0.028916  -0.000027   0.000014  -0.000169   0.000021  -0.000000
    26  H    0.345460  -0.000118  -0.000170   0.000016  -0.000056   0.000000
    27  H    0.346889   0.001028  -0.000144  -0.000031   0.000030  -0.000000
              19         20         21         22         23         24
     1  O    0.000000  -0.000000   0.000000   0.000001  -0.000005   0.000316
     2  C    0.000000   0.000000   0.000002   0.000323  -0.001219  -0.002226
     3  C   -0.000000   0.000002   0.000156   0.004985  -0.001961   0.000419
     4  C    0.000008  -0.000169  -0.009323  -0.033353  -0.036348  -0.007609
     5  C    0.000700   0.003886  -0.049157  -0.006186   0.005294   0.007697
     6  C    0.004862   0.000715   0.006330  -0.000017  -0.000092   0.003114
     7  C   -0.042993   0.004714   0.000303  -0.000006   0.000002   0.000069
     8  C    0.358907  -0.043535   0.004953  -0.000004  -0.000000  -0.000032
     9  C   -0.043670   0.356631  -0.045396  -0.000140   0.000003  -0.000081
    10  C    0.004703  -0.040223   0.354010   0.004994   0.000207   0.000710
    11  C    0.000000  -0.000000   0.000236   0.364729   0.361080  -0.039207
    12  C   -0.000000   0.000000   0.000088  -0.030568  -0.043850   0.376255
    13  C    0.000000  -0.000000  -0.000001   0.004454  -0.003655  -0.041495
    14  H   -0.000000  -0.000000  -0.000006  -0.000080   0.003475   0.000057
    15  H   -0.000000   0.000000   0.000003  -0.000143  -0.000102  -0.000067
    16  H   -0.000000  -0.000005   0.004575  -0.001951  -0.005313   0.000099
    17  H   -0.000168   0.000015  -0.000162  -0.000016  -0.000007   0.000185
    18  H   -0.005564  -0.000188   0.000018   0.000000  -0.000000  -0.000004
    19  H    0.600043  -0.005503  -0.000184  -0.000000   0.000000   0.000000
    20  H   -0.005503   0.600976  -0.005880   0.000007  -0.000000  -0.000001
    21  H   -0.000184  -0.005880   0.615304   0.002364  -0.000142   0.000002
    22  H   -0.000000   0.000007   0.002364   0.584848  -0.033751  -0.003111
    23  H    0.000000  -0.000000  -0.000142  -0.033751   0.618989   0.005846
    24  H    0.000000  -0.000001   0.000002  -0.003111   0.005846   0.573198
    25  H    0.000000  -0.000000   0.000002  -0.002832  -0.003811  -0.035315
    26  H   -0.000000   0.000000  -0.000000  -0.000140  -0.000010  -0.003077
    27  H    0.000000  -0.000000   0.000000  -0.000018   0.005100   0.005483
              25         26         27
     1  O   -0.000065   0.004474   0.001207
     2  C    0.003162  -0.023423  -0.028366
     3  C   -0.000217   0.006533   0.003799
     4  C    0.004695  -0.000121  -0.001683
     5  C    0.000161  -0.000036   0.000114
     6  C   -0.000006   0.000045  -0.000019
     7  C    0.000000  -0.000000   0.000000
     8  C    0.000000  -0.000000   0.000000
     9  C   -0.000002   0.000000  -0.000000
    10  C   -0.000010  -0.000001   0.000001
    11  C   -0.030295   0.004038  -0.002865
    12  C    0.368605  -0.025653  -0.036920
    13  C   -0.028916   0.345460   0.346889
    14  H   -0.000027  -0.000118   0.001028
    15  H    0.000014  -0.000170  -0.000144
    16  H   -0.000169   0.000016  -0.000031
    17  H    0.000021  -0.000056   0.000030
    18  H   -0.000000   0.000000  -0.000000
    19  H    0.000000  -0.000000   0.000000
    20  H   -0.000000   0.000000  -0.000000
    21  H    0.000002  -0.000000   0.000000
    22  H   -0.002832  -0.000140  -0.000018
    23  H   -0.003811  -0.000010   0.005100
    24  H   -0.035315  -0.003077   0.005483
    25  H    0.590359  -0.002272  -0.006392
    26  H   -0.002272   0.556613  -0.026570
    27  H   -0.006392  -0.026570   0.586140
 Mulliken charges:
               1
     1  O   -0.460770
     2  C    0.468673
     3  C   -0.363580
     4  C   -0.180417
     5  C    0.167608
     6  C   -0.208326
     7  C   -0.133801
     8  C   -0.129270
     9  C   -0.128165
    10  C   -0.182846
    11  C   -0.264339
    12  C   -0.276467
    13  C   -0.342295
    14  H    0.158132
    15  H    0.170441
    16  H    0.140458
    17  H    0.156622
    18  H    0.133372
    19  H    0.128860
    20  H    0.128559
    21  H    0.121905
    22  H    0.145609
    23  H    0.130270
    24  H    0.158776
    25  H    0.143308
    26  H    0.164466
    27  H    0.153216
 Sum of Mulliken charges =  -0.00000
 Mulliken charges with hydrogens summed into heavy atoms:
               1
     1  O   -0.460770
     2  C    0.468673
     3  C   -0.035007
     4  C   -0.039959
     5  C    0.167608
     6  C   -0.051704
     7  C   -0.000428
     8  C   -0.000410
     9  C    0.000393
    10  C   -0.060941
    11  C    0.011541
    12  C    0.025617
    13  C   -0.024613
 APT charges:
               1
     1  O   -0.643077
     2  C    0.715205
     3  C   -0.081211
     4  C    0.179658
     5  C    0.029876
     6  C   -0.092578
     7  C    0.020417
     8  C   -0.039616
     9  C    0.003169
    10  C   -0.053847
    11  C    0.090315
    12  C    0.116912
    13  C   -0.040716
    14  H   -0.013685
    15  H   -0.009884
    16  H   -0.079076
    17  H    0.054770
    18  H    0.012385
    19  H    0.012671
    20  H    0.007446
    21  H    0.016261
    22  H   -0.030920
    23  H   -0.067934
    24  H   -0.021750
    25  H   -0.050896
    26  H   -0.021672
    27  H   -0.012221
 Sum of APT charges =   0.00000
 APT charges with hydrogens summed into heavy atoms:
               1
     1  O   -0.643077
     2  C    0.715205
     3  C   -0.104780
     4  C    0.100582
     5  C    0.029876
     6  C   -0.037808
     7  C    0.032802
     8  C   -0.026945
     9  C    0.010615
    10  C   -0.037585
    11  C   -0.008539
    12  C    0.044266
    13  C   -0.074610
 Electronic spatial extent (au):  <R**2>=           2456.3480
 Charge=             -0.0000 electrons
 Dipole moment (field-independent basis, Debye):
    X=              0.4817    Y=             -2.9486    Z=              0.0414  Tot=              2.9880
 Quadrupole moment (field-independent basis, Debye-Ang):
   XX=            -74.3422   YY=            -79.8620   ZZ=            -76.8009
   XY=              7.2778   XZ=             -1.3372   YZ=             -2.0482
 Traceless Quadrupole moment (field-independent basis, Debye-Ang):
   XX=              2.6595   YY=             -2.8603   ZZ=              0.2008
   XY=              7.2778   XZ=             -1.3372   YZ=             -2.0482
 Octapole moment (field-independent basis, Debye-Ang**2):
  XXX=              7.8196  YYY=             -7.4778  ZZZ=              1.9793  XYY=             19.2009
  XXY=            -17.3477  XXZ=             -6.9929  XZZ=            -13.2837  YZZ=              1.7196
  YYZ=             -2.0247  XYZ=             -3.3333
 Hexadecapole moment (field-independent basis, Debye-Ang**3):
 XXXX=          -2078.5101 YYYY=           -748.1573 ZZZZ=           -368.6315 XXXY=             25.3844
 XXXZ=            -32.2797 YYYX=             25.9300 YYYZ=             -9.6675 ZZZX=              1.3356
 ZZZY=              1.3645 XXYY=           -508.4760 XXZZ=           -432.6817 YYZZ=           -181.4832
 XXYZ=            -15.6274 YYXZ=             -1.6508 ZZXY=             -4.3705
 N-N= 7.716614851115D+02 E-N=-2.798029682537D+03  KE= 5.357248895348D+02
  Exact polarizability: 145.092   0.863 124.344  -7.849  -9.753  83.253
 Approx polarizability: 202.873  -4.035 212.827 -18.000 -23.407 124.809
 Calling FoFJK, ICntrl=    100127 FMM=F ISym2X=0 I1Cent= 0 IOpClX= 0 NMat=1 NMatS=1 NMatT=0.
 Full mass-weighted force constant matrix:
 Low frequencies ---   -8.6564   -2.1834   -0.0008   -0.0008    0.0005    5.3119
 Low frequencies ---   40.7643   77.6914   93.8666
 Diagonal vibrational polarizability:
       22.2689101       2.8374973      15.8886705
 Harmonic frequencies (cm**-1), IR intensities (KM/Mole), Raman scattering
 activities (A**4/AMU), depolarization ratios for plane and unpolarized
 incident light, reduced masses (AMU), force constants (mDyne/A),
 and normal coordinates:
                      1                      2                      3
                      A                      A                      A
 Frequencies --     40.7325                77.6913                93.8663
 Red. masses --      4.0381                 3.8849                 6.7948
 Frc consts  --      0.0039                 0.0138                 0.0353
 IR Inten    --      0.5475                 2.2706                 2.9467
  Atom  AN      X      Y      Z        X      Y      Z        X      Y      Z
     1   8     0.09   0.00  -0.14    -0.16  -0.00   0.12     0.45   0.05  -0.06
     2   6     0.03  -0.00  -0.06     0.01   0.02  -0.00     0.16   0.00   0.01
     3   6    -0.03   0.03  -0.00    -0.04  -0.00   0.03    -0.06  -0.13   0.06
     4   6    -0.01   0.03   0.06    -0.02   0.01   0.09    -0.04  -0.11   0.04
     5   6    -0.02   0.02   0.02    -0.02   0.00   0.08    -0.07  -0.04   0.05
     6   6     0.03   0.08   0.22    -0.03  -0.01   0.04    -0.17  -0.05  -0.01
     7   6     0.02   0.08   0.20    -0.06  -0.04  -0.07    -0.22   0.01  -0.08
     8   6    -0.03   0.02  -0.01    -0.08  -0.06  -0.14    -0.16   0.09  -0.07
     9   6    -0.07  -0.04  -0.21    -0.06  -0.04  -0.07    -0.05   0.11   0.03
    10   6    -0.07  -0.04  -0.19    -0.03  -0.01   0.04    -0.01   0.04   0.09
    11   6    -0.00  -0.03   0.11     0.03   0.01   0.06    -0.03  -0.06  -0.01
    12   6     0.02  -0.09   0.06     0.22   0.03  -0.01     0.02  -0.00  -0.01
    13   6     0.03  -0.05  -0.02     0.22   0.08  -0.16     0.08   0.07  -0.01
    14   1    -0.05   0.04  -0.02    -0.08  -0.01  -0.03    -0.14  -0.18  -0.08
    15   1    -0.05   0.05  -0.01    -0.10  -0.00   0.06    -0.09  -0.21   0.19
    16   1    -0.00   0.08   0.09    -0.04   0.02   0.10    -0.04  -0.14   0.01
    17   1     0.06   0.12   0.37    -0.02   0.00   0.08    -0.20  -0.09  -0.01
    18   1     0.05   0.13   0.36    -0.07  -0.05  -0.11    -0.31  -0.00  -0.15
    19   1    -0.04   0.02  -0.03    -0.10  -0.09  -0.24    -0.20   0.13  -0.12
    20   1    -0.11  -0.09  -0.38    -0.07  -0.05  -0.12    -0.00   0.18   0.05
    21   1    -0.09  -0.09  -0.34    -0.02   0.00   0.07     0.08   0.06   0.15
    22   1    -0.01  -0.06   0.16     0.02  -0.05   0.16    -0.03  -0.06  -0.02
    23   1    -0.02   0.00   0.13    -0.05   0.07  -0.00    -0.05  -0.06  -0.06
    24   1     0.04  -0.14   0.04     0.32  -0.02   0.08     0.06  -0.05   0.00
    25   1     0.02  -0.13   0.09     0.27   0.05  -0.06    -0.02   0.04  -0.02
    26   1     0.06  -0.09  -0.06     0.40   0.14  -0.20     0.16   0.12  -0.02
    27   1     0.01  -0.01  -0.01     0.10   0.12  -0.35     0.03   0.13  -0.05
                      4                      5                      6
                      A                      A                      A
 Frequencies --    139.7748               222.4172               237.5626
 Red. masses --      3.0419                 3.3657                 3.0300
 Frc consts  --      0.0350                 0.0981                 0.1008
 IR Inten    --      0.3559                 0.5066                 1.9256
  Atom  AN      X      Y      Z        X      Y      Z        X      Y      Z
     1   8     0.04  -0.03  -0.09     0.08  -0.04   0.08     0.03  -0.02  -0.04
     2   6    -0.07  -0.04   0.01    -0.02  -0.06   0.05    -0.01  -0.02   0.05
     3   6    -0.07  -0.02   0.03    -0.15  -0.13   0.06     0.02   0.03   0.07
     4   6    -0.01   0.03   0.03    -0.01   0.07  -0.02    -0.01   0.02   0.03
     5   6     0.01   0.06   0.12    -0.05   0.16  -0.07    -0.07   0.00  -0.11
     6   6     0.03   0.05   0.10     0.06   0.15  -0.09    -0.07  -0.02  -0.16
     7   6     0.02  -0.03  -0.03     0.14   0.03  -0.05    -0.02  -0.01  -0.02
     8   6    -0.03  -0.09  -0.12     0.07  -0.06   0.02    -0.00   0.01   0.14
     9   6    -0.04  -0.06  -0.03    -0.05  -0.05   0.03    -0.06  -0.03   0.01
    10   6    -0.02   0.02   0.10    -0.11   0.09  -0.02    -0.11  -0.04  -0.14
    11   6     0.13   0.08  -0.11     0.04  -0.01   0.02     0.01   0.01   0.04
    12   6     0.07   0.14  -0.04    -0.04  -0.09   0.01     0.19   0.12   0.03
    13   6    -0.10  -0.09   0.08     0.03   0.01  -0.04     0.04  -0.07   0.07
    14   1    -0.05  -0.07  -0.00    -0.15  -0.33  -0.11     0.05   0.07   0.13
    15   1    -0.11  -0.02   0.05    -0.30  -0.18   0.22     0.07   0.06   0.00
    16   1    -0.06  -0.03   0.00     0.11   0.08  -0.04     0.06   0.05   0.03
    17   1     0.06   0.07   0.13     0.11   0.22  -0.13    -0.07  -0.02  -0.22
    18   1     0.04  -0.04  -0.07     0.24   0.01  -0.06     0.02  -0.00   0.01
    19   1    -0.05  -0.15  -0.25     0.12  -0.14   0.06     0.05   0.04   0.32
    20   1    -0.07  -0.09  -0.08    -0.12  -0.13   0.08    -0.06  -0.03   0.06
    21   1    -0.04   0.03   0.14    -0.22   0.10   0.01    -0.15  -0.05  -0.19
    22   1     0.22   0.21  -0.16     0.08   0.04   0.02     0.00  -0.03   0.11
    23   1     0.18  -0.07  -0.20     0.10  -0.05   0.07    -0.08   0.06  -0.05
    24   1    -0.01   0.34   0.05    -0.05  -0.17  -0.10     0.23   0.28   0.26
    25   1     0.20   0.16  -0.14    -0.11  -0.14   0.10     0.36   0.21  -0.17
    26   1    -0.29  -0.14   0.13     0.17   0.07  -0.07    -0.09  -0.10   0.11
    27   1     0.06  -0.27   0.17    -0.07   0.09  -0.15     0.16  -0.24   0.10
                      7                      8                      9
                      A                      A                      A
 Frequencies --    308.2029               353.1457               414.5730
 Red. masses --      2.7949                 2.5806                 2.7209
 Frc consts  --      0.1564                 0.1896                 0.2755
 IR Inten    --      0.6272                 0.3274                 1.9012
  Atom  AN      X      Y      Z        X      Y      Z        X      Y      Z
     1   8    -0.04   0.04   0.04    -0.04   0.11  -0.01     0.05  -0.11  -0.03
     2   6     0.11   0.06  -0.00    -0.05   0.10  -0.03    -0.05  -0.12   0.04
     3   6     0.12   0.08  -0.02    -0.14  -0.04  -0.03     0.04   0.06   0.10
     4   6     0.00   0.00  -0.04     0.01   0.02   0.06     0.03   0.07   0.09
     5   6    -0.05   0.04  -0.00     0.04  -0.06   0.03     0.04  -0.00   0.09
     6   6    -0.07   0.04   0.00    -0.02  -0.09  -0.05    -0.04  -0.05  -0.06
     7   6    -0.05  -0.00   0.02    -0.03  -0.04  -0.03    -0.04  -0.01  -0.00
     8   6    -0.08  -0.04   0.04     0.02   0.04   0.07    -0.01   0.02   0.09
     9   6    -0.10  -0.05   0.03     0.04  -0.00  -0.04    -0.01  -0.03  -0.07
    10   6    -0.11  -0.00   0.02     0.05  -0.07  -0.08     0.01  -0.04  -0.01
    11   6     0.17  -0.04  -0.10     0.17  -0.01   0.02     0.06   0.16  -0.01
    12   6    -0.02  -0.10  -0.05    -0.01   0.00   0.10    -0.07   0.01  -0.05
    13   6     0.10  -0.02   0.07    -0.02   0.05   0.02    -0.04   0.04  -0.11
    14   1     0.09   0.22   0.06    -0.22  -0.22  -0.28     0.15   0.13   0.31
    15   1     0.26   0.06  -0.09    -0.32  -0.13   0.20     0.07   0.22  -0.12
    16   1     0.00  -0.01  -0.04    -0.04   0.08   0.11     0.00  -0.02   0.03
    17   1    -0.06   0.05  -0.01    -0.05  -0.14  -0.07    -0.08  -0.11  -0.15
    18   1    -0.00  -0.01   0.01    -0.09  -0.04  -0.05    -0.05  -0.02  -0.02
    19   1    -0.07  -0.07   0.05     0.03   0.10   0.16     0.01   0.06   0.17
    20   1    -0.11  -0.06   0.04     0.06   0.02  -0.07    -0.02  -0.04  -0.18
    21   1    -0.17   0.01   0.03     0.08  -0.10  -0.15     0.01  -0.05  -0.04
    22   1     0.34   0.17  -0.17     0.32   0.21  -0.12     0.12   0.23  -0.05
    23   1     0.32  -0.27  -0.14     0.32  -0.26  -0.03     0.12   0.05  -0.03
    24   1    -0.11  -0.19  -0.27    -0.06  -0.00   0.02    -0.15  -0.05  -0.23
    25   1    -0.21  -0.15   0.11    -0.04  -0.03   0.14    -0.11  -0.14   0.12
    26   1    -0.01  -0.07   0.07     0.01  -0.05  -0.06     0.22   0.26  -0.07
    27   1     0.13   0.03   0.21    -0.04   0.10   0.05    -0.21   0.11  -0.37
                     10                     11                     12
                      A                      A                      A
 Frequencies --    417.4471               454.2020               485.2093
 Red. masses --      3.0186                 3.4382                 2.3206
 Frc consts  --      0.3099                 0.4179                 0.3219
 IR Inten    --      0.0591                 4.2332                 6.5465
  Atom  AN      X      Y      Z        X      Y      Z        X      Y      Z
     1   8    -0.00   0.03   0.00    -0.09   0.01  -0.14     0.04   0.01   0.15
     2   6     0.00   0.03  -0.01     0.07   0.04   0.10     0.07   0.00  -0.10
     3   6    -0.01  -0.01  -0.02    -0.10   0.01   0.21    -0.01   0.00  -0.09
     4   6    -0.00  -0.01  -0.02    -0.09   0.01   0.02     0.03   0.07   0.02
     5   6    -0.01  -0.00  -0.01    -0.01  -0.02   0.05     0.04   0.02   0.09
     6   6    -0.05  -0.06  -0.20     0.04  -0.04  -0.01    -0.01  -0.01  -0.01
     7   6     0.05   0.06   0.20     0.03  -0.02  -0.02    -0.03  -0.01  -0.04
     8   6     0.00   0.00  -0.01     0.07   0.04  -0.00    -0.01   0.02   0.07
     9   6    -0.05  -0.05  -0.19     0.04   0.03  -0.04    -0.02  -0.02  -0.04
    10   6     0.05   0.06   0.20     0.04   0.01  -0.02     0.00  -0.03  -0.00
    11   6    -0.01  -0.04   0.00    -0.08   0.04  -0.08    -0.03   0.12   0.03
    12   6     0.02   0.00   0.02    -0.01  -0.05  -0.15     0.02  -0.03  -0.10
    13   6     0.01  -0.00   0.02     0.17  -0.01   0.11    -0.02  -0.09  -0.02
    14   1    -0.03  -0.03  -0.06    -0.16  -0.08   0.05    -0.09  -0.08  -0.26
    15   1    -0.01  -0.04   0.02    -0.11  -0.11   0.38    -0.19   0.01   0.01
    16   1     0.01   0.01  -0.01    -0.11  -0.12  -0.06    -0.05   0.04   0.02
    17   1    -0.10  -0.11  -0.40     0.04  -0.04  -0.05    -0.04  -0.05  -0.05
    18   1     0.11   0.13   0.43    -0.02  -0.02  -0.03    -0.05  -0.03  -0.11
    19   1     0.00  -0.00  -0.01     0.07   0.06   0.02    -0.00   0.03   0.12
    20   1    -0.10  -0.12  -0.39     0.02   0.01  -0.07    -0.02  -0.03  -0.13
    21   1     0.11   0.14   0.43     0.09  -0.01  -0.06    -0.02  -0.05  -0.07
    22   1    -0.01  -0.04   0.01    -0.09  -0.04   0.08    -0.16  -0.09   0.18
    23   1    -0.01  -0.02   0.00    -0.18   0.14  -0.13    -0.17   0.33   0.07
    24   1     0.03   0.01   0.05    -0.04  -0.21  -0.35    -0.03  -0.08  -0.22
    25   1     0.03   0.03  -0.02    -0.26  -0.08   0.02    -0.02  -0.15   0.04
    26   1    -0.03  -0.04   0.01    -0.05   0.02   0.23    -0.39  -0.27   0.02
    27   1     0.03  -0.01   0.06     0.28  -0.09   0.24     0.22  -0.22   0.31
                     13                     14                     15
                      A                      A                      A
 Frequencies --    510.1568               529.1094               610.3053
 Red. masses --      3.0109                 3.7536                 4.0370
 Frc consts  --      0.4617                 0.6191                 0.8859
 IR Inten    --      6.0367                 2.1989                 2.3510
  Atom  AN      X      Y      Z        X      Y      Z        X      Y      Z
     1   8    -0.08  -0.04  -0.12    -0.09  -0.04  -0.09    -0.04  -0.12   0.03
     2   6     0.08  -0.01   0.00     0.12   0.00  -0.06     0.23  -0.07  -0.15
     3   6     0.07  -0.10   0.00     0.10  -0.10  -0.05     0.01  -0.01  -0.01
     4   6     0.18   0.06  -0.05     0.05  -0.15   0.05    -0.07  -0.05   0.20
     5   6     0.07   0.01  -0.11     0.01   0.11   0.22    -0.13  -0.06  -0.06
     6   6    -0.06   0.03   0.00     0.00   0.07  -0.00     0.01  -0.07  -0.05
     7   6    -0.07   0.03   0.05     0.01  -0.02  -0.12     0.07  -0.04   0.08
     8   6    -0.13  -0.06  -0.00     0.07   0.03   0.15     0.09   0.01  -0.14
     9   6    -0.01  -0.06   0.06    -0.06  -0.03  -0.10    -0.01   0.09   0.05
    10   6     0.01  -0.06   0.02    -0.05   0.08   0.01    -0.06   0.06  -0.07
    11   6     0.02   0.13   0.05    -0.05  -0.08  -0.01     0.00   0.11   0.04
    12   6    -0.03   0.06   0.03    -0.06   0.07   0.07    -0.07   0.09   0.03
    13   6     0.03   0.06   0.04    -0.01   0.08   0.03    -0.01   0.04  -0.02
    14   1     0.03  -0.41  -0.32    -0.04  -0.02  -0.15    -0.22   0.14  -0.18
    15   1    -0.18  -0.22   0.32     0.13  -0.18   0.03    -0.11   0.02   0.02
    16   1     0.24   0.04  -0.08     0.01  -0.19   0.04    -0.02  -0.07   0.18
    17   1    -0.09  -0.02   0.11    -0.00   0.08  -0.20     0.11   0.06   0.06
    18   1     0.03   0.04   0.12    -0.01  -0.09  -0.36     0.03   0.04   0.32
    19   1    -0.14  -0.06  -0.02     0.10   0.02   0.21     0.10   0.02  -0.09
    20   1     0.06   0.02   0.11    -0.15  -0.15  -0.32    -0.02   0.07   0.31
    21   1    -0.07  -0.02   0.12    -0.13   0.02  -0.19     0.07   0.10   0.08
    22   1    -0.14  -0.03   0.03    -0.14  -0.12  -0.14     0.15   0.32  -0.09
    23   1    -0.04   0.30   0.17    -0.06  -0.05   0.02     0.10  -0.16  -0.12
    24   1    -0.07   0.02  -0.07    -0.01   0.13   0.20    -0.11   0.11  -0.02
    25   1    -0.07  -0.00   0.13     0.01   0.17  -0.06     0.00  -0.01   0.09
    26   1     0.05   0.12   0.08     0.05   0.11   0.03    -0.16   0.02   0.03
    27   1     0.00   0.10   0.04    -0.07   0.19   0.06     0.05   0.13   0.24
                     16                     17                     18
                      A                      A                      A
 Frequencies --    633.8477               702.3757               719.4234
 Red. masses --      6.2163                 3.0731                 1.8268
 Frc consts  --      1.4715                 0.8932                 0.5571
 IR Inten    --      0.2461                 2.0647                22.0376
  Atom  AN      X      Y      Z        X      Y      Z        X      Y      Z
     1   8     0.00   0.03   0.00     0.01  -0.13   0.03    -0.00   0.02  -0.01
     2   6    -0.03   0.02  -0.00     0.13  -0.09  -0.00    -0.02   0.02  -0.00
     3   6    -0.00   0.00   0.02    -0.07   0.12  -0.05     0.02  -0.02   0.02
     4   6     0.02  -0.03   0.02    -0.11   0.17  -0.12     0.02  -0.02   0.02
     5   6    -0.07   0.12  -0.02     0.01  -0.00  -0.06    -0.05  -0.04  -0.10
     6   6    -0.29   0.11   0.04    -0.00   0.02   0.06     0.03  -0.00   0.08
     7   6    -0.12  -0.30   0.12    -0.05  -0.03  -0.05    -0.02  -0.05  -0.12
     8   6     0.06  -0.12   0.02    -0.01   0.01   0.08     0.04   0.03   0.05
     9   6     0.31  -0.12  -0.04     0.05  -0.05  -0.07    -0.06  -0.02  -0.13
    10   6     0.11   0.27  -0.11     0.07  -0.01   0.06    -0.00   0.03   0.06
    11   6     0.00   0.01   0.00    -0.07  -0.03  -0.02     0.02   0.02   0.01
    12   6     0.01  -0.01  -0.02    -0.05  -0.00   0.05     0.01   0.00  -0.01
    13   6    -0.01  -0.00  -0.02     0.07  -0.01   0.08    -0.02  -0.00  -0.02
    14   1     0.01   0.05   0.07    -0.13   0.00  -0.24     0.04  -0.02   0.04
    15   1     0.03   0.03  -0.03    -0.22   0.11   0.06     0.03  -0.02   0.02
    16   1     0.05  -0.03   0.01    -0.15   0.22  -0.08     0.07  -0.03  -0.00
    17   1    -0.18   0.24  -0.02    -0.02   0.00   0.10     0.13   0.11   0.44
    18   1     0.04  -0.32   0.10    -0.04  -0.05  -0.12     0.02   0.04   0.20
    19   1    -0.11   0.25  -0.05    -0.04   0.08   0.08     0.16   0.16   0.52
    20   1     0.22  -0.25   0.04     0.07  -0.02  -0.15     0.01   0.06   0.23
    21   1    -0.03   0.30  -0.06     0.05   0.00   0.09     0.12   0.16   0.48
    22   1    -0.02  -0.03   0.02     0.14   0.20  -0.06     0.01   0.00   0.02
    23   1    -0.03   0.05  -0.01     0.12  -0.25   0.01    -0.00   0.03  -0.01
    24   1    -0.00  -0.04  -0.08     0.05   0.15   0.36    -0.01  -0.02  -0.07
    25   1    -0.02  -0.04   0.03     0.11   0.20  -0.24    -0.00  -0.05   0.05
    26   1    -0.07  -0.04  -0.02     0.23   0.13   0.11    -0.05  -0.03  -0.03
    27   1     0.03  -0.05   0.01    -0.07   0.18   0.04     0.01  -0.04  -0.02
                     19                     20                     21
                      A                      A                      A
 Frequencies --    734.5213               763.5452               778.1966
 Red. masses --      3.4761                 2.2036                 1.8791
 Frc consts  --      1.1050                 0.7569                 0.6705
 IR Inten    --      7.1159                 1.0655                24.8654
  Atom  AN      X      Y      Z        X      Y      Z        X      Y      Z
     1   8    -0.02   0.03   0.02    -0.02   0.06   0.01     0.01  -0.01  -0.00
     2   6     0.08   0.04  -0.06     0.08   0.07   0.02    -0.01  -0.01   0.05
     3   6    -0.03   0.03   0.15     0.11   0.03   0.11     0.02   0.03  -0.07
     4   6     0.01  -0.05   0.15     0.03   0.05  -0.02     0.01   0.04  -0.04
     5   6     0.11   0.05  -0.00    -0.03  -0.02  -0.00     0.03   0.05   0.17
     6   6    -0.02   0.13  -0.07     0.00  -0.06   0.02    -0.02  -0.04  -0.07
     7   6    -0.00   0.15  -0.05    -0.00  -0.06   0.03    -0.00  -0.03   0.01
     8   6    -0.14  -0.06   0.01     0.05   0.02  -0.00    -0.01  -0.03  -0.11
     9   6     0.09  -0.10   0.01    -0.04   0.04   0.01    -0.01   0.02   0.00
    10   6     0.08  -0.10  -0.03    -0.03   0.04   0.01    -0.03  -0.01  -0.08
    11   6    -0.07  -0.10  -0.02    -0.01   0.02  -0.01     0.00  -0.03  -0.04
    12   6    -0.05  -0.03  -0.08    -0.02  -0.09  -0.06    -0.00  -0.03  -0.01
    13   6    -0.07  -0.03  -0.09    -0.11  -0.12  -0.07     0.00  -0.02   0.06
    14   1    -0.15   0.15   0.11     0.01  -0.20  -0.22     0.01  -0.06  -0.16
    15   1    -0.06   0.08   0.13    -0.04  -0.14   0.43    -0.04  -0.02   0.04
    16   1     0.07  -0.10   0.10     0.07  -0.03  -0.08    -0.14   0.03  -0.01
    17   1    -0.04   0.10   0.11     0.01  -0.04  -0.03     0.02   0.01   0.06
    18   1     0.25   0.19   0.15    -0.11  -0.08  -0.07     0.09   0.11   0.47
    19   1    -0.07  -0.00   0.25     0.01  -0.02  -0.15     0.13   0.15   0.44
    20   1     0.26   0.11   0.17    -0.12  -0.05  -0.09     0.08   0.13   0.46
    21   1     0.00  -0.04   0.15    -0.02   0.01  -0.08     0.02   0.03   0.06
    22   1     0.06   0.07  -0.11     0.07   0.07   0.05    -0.06  -0.13   0.05
    23   1     0.03  -0.29  -0.10     0.07  -0.03   0.06    -0.04   0.11   0.05
    24   1     0.04   0.10   0.18     0.00   0.19   0.25    -0.01   0.06   0.06
    25   1     0.16   0.05  -0.29     0.35  -0.06  -0.32     0.02   0.05  -0.10
    26   1    -0.17  -0.07  -0.08     0.12  -0.02  -0.11     0.20   0.09   0.05
    27   1    -0.02   0.02   0.07    -0.28   0.06  -0.21    -0.13   0.06  -0.12
                     22                     23                     24
                      A                      A                      A
 Frequencies --    850.3901               865.1839               866.7332
 Red. masses --      2.4852                 1.3690                 1.6877
 Frc consts  --      1.0589                 0.6038                 0.7470
 IR Inten    --      1.1132                 0.0158                 0.0685
  Atom  AN      X      Y      Z        X      Y      Z        X      Y      Z
     1   8    -0.01   0.03   0.01    -0.00  -0.01  -0.00     0.00   0.02   0.01
     2   6     0.02   0.03  -0.05    -0.01  -0.01  -0.01     0.02   0.01   0.03
     3   6    -0.00  -0.09   0.07    -0.01  -0.01   0.03     0.02   0.02  -0.06
     4   6    -0.08  -0.02  -0.15     0.04   0.04  -0.02    -0.08  -0.08   0.04
     5   6     0.01   0.02   0.06     0.01   0.01   0.03    -0.02  -0.02  -0.02
     6   6     0.00   0.01  -0.00     0.02  -0.01   0.06     0.00   0.05   0.02
     7   6    -0.00   0.01  -0.01     0.01  -0.01   0.08     0.02   0.07   0.02
     8   6    -0.02  -0.01  -0.03     0.01   0.01  -0.01    -0.01  -0.00   0.03
     9   6     0.02  -0.01  -0.01    -0.04  -0.00  -0.06     0.03  -0.04  -0.04
    10   6     0.01  -0.01  -0.00    -0.03  -0.02  -0.07     0.01  -0.03  -0.04
    11   6    -0.07   0.18  -0.01    -0.01  -0.04   0.02     0.02   0.08  -0.03
    12   6    -0.01  -0.01   0.17    -0.02  -0.00  -0.02     0.04  -0.00   0.03
    13   6     0.07  -0.08  -0.06     0.01   0.05  -0.03    -0.02  -0.09   0.06
    14   1     0.06   0.04   0.26     0.07  -0.05   0.09    -0.16   0.09  -0.21
    15   1     0.26  -0.12  -0.07    -0.01   0.04  -0.03     0.04  -0.10   0.06
    16   1    -0.08  -0.26  -0.30     0.07   0.05  -0.03    -0.16  -0.11   0.04
    17   1    -0.02  -0.02  -0.09    -0.10  -0.14  -0.40    -0.05   0.00  -0.19
    18   1     0.03   0.04   0.09    -0.15  -0.15  -0.40     0.00  -0.04  -0.35
    19   1     0.03   0.07   0.18     0.00   0.01  -0.02    -0.05  -0.06  -0.12
    20   1     0.07   0.04   0.09     0.07   0.13   0.44     0.12   0.07   0.19
    21   1    -0.01  -0.04  -0.08     0.10   0.14   0.42     0.09   0.09   0.33
    22   1     0.02   0.35  -0.19     0.03   0.03  -0.03    -0.03  -0.04   0.09
    23   1     0.11  -0.02   0.05     0.07  -0.08   0.09    -0.14   0.17  -0.17
    24   1     0.04  -0.03   0.23     0.07  -0.04   0.08    -0.14   0.08  -0.14
    25   1     0.14  -0.11   0.18    -0.00   0.07  -0.09     0.03  -0.13   0.16
    26   1     0.04  -0.32  -0.23    -0.18  -0.02   0.01     0.36   0.04  -0.01
    27   1     0.10  -0.02   0.08     0.13  -0.02   0.13    -0.26   0.05  -0.26
                     25                     26                     27
                      A                      A                      A
 Frequencies --    909.2219               924.6446               936.3844
 Red. masses --      1.6760                 2.1618                 1.4895
 Frc consts  --      0.8163                 1.0890                 0.7695
 IR Inten    --      2.8087                 3.1470                 6.3102
  Atom  AN      X      Y      Z        X      Y      Z        X      Y      Z
     1   8     0.02   0.00  -0.02     0.02   0.01   0.02     0.01  -0.00   0.01
     2   6    -0.07  -0.01   0.08    -0.06  -0.01  -0.03     0.00  -0.00  -0.01
     3   6     0.13   0.01  -0.08    -0.01   0.09   0.01    -0.02   0.06   0.02
     4   6    -0.04  -0.00   0.04     0.13  -0.01   0.06     0.05  -0.03   0.03
     5   6    -0.01  -0.01   0.01     0.03   0.01   0.01    -0.00  -0.02  -0.07
     6   6    -0.01   0.02  -0.00    -0.01  -0.02  -0.04     0.02   0.02   0.08
     7   6     0.01   0.03  -0.01    -0.00  -0.03   0.01     0.00  -0.00   0.03
     8   6    -0.00  -0.01  -0.01     0.03   0.01   0.05    -0.02  -0.03  -0.09
     9   6     0.02  -0.01  -0.00    -0.04   0.03   0.01    -0.02   0.00  -0.02
    10   6     0.00   0.00   0.00    -0.03   0.01  -0.05     0.02   0.04   0.08
    11   6    -0.12   0.02   0.05    -0.08  -0.02  -0.11    -0.01  -0.02  -0.03
    12   6     0.02   0.02  -0.02    -0.05   0.05   0.09    -0.01   0.04   0.03
    13   6     0.02   0.00  -0.03     0.11  -0.10  -0.01     0.01  -0.04  -0.00
    14   1     0.10  -0.23  -0.31     0.01  -0.06  -0.10    -0.07   0.01  -0.08
    15   1    -0.03  -0.14   0.20    -0.30   0.21   0.07    -0.14   0.10   0.06
    16   1    -0.11   0.06   0.10     0.12  -0.08   0.01     0.11   0.01   0.03
    17   1    -0.02   0.01  -0.05     0.06   0.05   0.26    -0.11  -0.13  -0.42
    18   1     0.04   0.03  -0.01    -0.02  -0.02   0.03    -0.05  -0.06  -0.16
    19   1     0.02   0.00   0.06    -0.05  -0.11  -0.30     0.13   0.14   0.52
    20   1     0.03  -0.00   0.01    -0.09  -0.03  -0.02    -0.00   0.03   0.11
    21   1    -0.01  -0.01  -0.04     0.04   0.11   0.26    -0.13  -0.13  -0.47
    22   1     0.17   0.40  -0.12    -0.19  -0.00  -0.39    -0.08  -0.06  -0.11
    23   1     0.10  -0.40  -0.10    -0.05  -0.05  -0.10    -0.06   0.01  -0.09
    24   1     0.18  -0.25  -0.05    -0.04  -0.03   0.04    -0.06   0.01  -0.08
    25   1    -0.09  -0.03   0.09    -0.20   0.13   0.09    -0.08   0.02   0.09
    26   1    -0.14   0.06   0.08     0.21  -0.27  -0.17     0.09  -0.07  -0.06
    27   1     0.17  -0.32  -0.15     0.09  -0.14  -0.11    -0.02  -0.04  -0.07
                     28                     29                     30
                      A                      A                      A
 Frequencies --    974.1759               998.0159              1004.2601
 Red. masses --      1.3399                 1.3951                 2.1229
 Frc consts  --      0.7492                 0.8187                 1.2615
 IR Inten    --      0.2647                 1.0654                 1.1369
  Atom  AN      X      Y      Z        X      Y      Z        X      Y      Z
     1   8    -0.00   0.00  -0.00    -0.00  -0.02   0.00     0.00   0.05  -0.01
     2   6    -0.00   0.00   0.00     0.03  -0.01  -0.01    -0.05   0.01   0.02
     3   6     0.00  -0.01  -0.00     0.01   0.05   0.04    -0.03  -0.09  -0.09
     4   6    -0.00   0.00   0.00    -0.02  -0.01  -0.04     0.05  -0.01   0.11
     5   6     0.00   0.00   0.01     0.00   0.00   0.01    -0.00  -0.01  -0.04
     6   6    -0.02  -0.02  -0.08     0.02   0.01   0.05     0.01   0.01   0.05
     7   6     0.02   0.02   0.06    -0.02  -0.02  -0.08    -0.01  -0.02  -0.05
     8   6     0.01   0.01   0.03     0.01   0.02   0.07     0.01   0.01   0.03
     9   6    -0.02  -0.03  -0.09    -0.01  -0.02  -0.05    -0.02  -0.00  -0.03
    10   6     0.02   0.02   0.08     0.00   0.01   0.01     0.01   0.02   0.02
    11   6    -0.00   0.00   0.00     0.02  -0.03  -0.01    -0.04   0.09   0.03
    12   6    -0.00  -0.01  -0.00     0.04   0.03   0.04    -0.09  -0.06  -0.10
    13   6     0.00   0.00   0.00    -0.05   0.02  -0.03     0.12  -0.05   0.07
    14   1     0.02  -0.00   0.02    -0.06   0.00  -0.08     0.08   0.01   0.14
    15   1     0.01  -0.01  -0.01    -0.03  -0.00   0.13     0.03   0.04  -0.29
    16   1    -0.02   0.00   0.00     0.00   0.01  -0.04     0.05   0.00   0.11
    17   1     0.12   0.13   0.47    -0.08  -0.10  -0.36    -0.08  -0.09  -0.33
    18   1    -0.07  -0.09  -0.31     0.13   0.15   0.51     0.08   0.08   0.31
    19   1    -0.04  -0.06  -0.18    -0.12  -0.13  -0.45    -0.05  -0.08  -0.22
    20   1     0.13   0.16   0.54     0.09   0.11   0.36     0.03   0.06   0.20
    21   1    -0.11  -0.14  -0.45    -0.04  -0.05  -0.17    -0.04  -0.04  -0.17
    22   1     0.00   0.00  -0.00    -0.03  -0.08  -0.01     0.05   0.19   0.01
    23   1     0.01  -0.00   0.01    -0.04   0.01  -0.04     0.09  -0.04   0.08
    24   1     0.01   0.00   0.02     0.02  -0.08  -0.10    -0.06   0.20   0.21
    25   1     0.01   0.00  -0.02    -0.05  -0.05   0.17     0.12   0.11  -0.39
    26   1    -0.01   0.01   0.01    -0.09   0.01  -0.02     0.23  -0.00   0.06
    27   1     0.01   0.00   0.01     0.01  -0.07  -0.04    -0.03   0.16   0.07
                     31                     32                     33
                      A                      A                      A
 Frequencies --   1017.1993              1031.8192              1059.9312
 Red. masses --      6.0489                 1.8964                 2.4475
 Frc consts  --      3.6876                 1.1895                 1.6200
 IR Inten    --      0.2763                 5.1212                 5.1148
  Atom  AN      X      Y      Z        X      Y      Z        X      Y      Z
     1   8     0.00  -0.00  -0.00    -0.01   0.02   0.00     0.01  -0.01   0.00
     2   6    -0.01  -0.00   0.00     0.02   0.02  -0.03    -0.03  -0.01  -0.01
     3   6    -0.00   0.01  -0.00     0.06  -0.10   0.02     0.02   0.03   0.01
     4   6    -0.01  -0.01  -0.00    -0.08   0.12   0.03     0.02  -0.01   0.00
     5   6    -0.02  -0.01   0.02    -0.03   0.01   0.01    -0.06  -0.03   0.01
     6   6     0.30  -0.26  -0.01     0.02  -0.02   0.00    -0.04  -0.06   0.03
     7   6    -0.01   0.09  -0.02    -0.01   0.01  -0.00    -0.05   0.19  -0.05
     8   6    -0.31  -0.13   0.11    -0.00   0.02  -0.00     0.14   0.06  -0.05
     9   6     0.06  -0.06   0.01     0.04  -0.03  -0.00     0.11  -0.17   0.02
    10   6     0.00   0.38  -0.12    -0.00  -0.02   0.01    -0.07   0.02   0.01
    11   6    -0.00   0.01   0.00     0.03  -0.09   0.02     0.02   0.01  -0.02
    12   6     0.00  -0.01  -0.00    -0.07   0.12  -0.00    -0.01  -0.03   0.01
    13   6     0.00   0.01   0.01     0.04  -0.09  -0.04     0.02   0.03  -0.01
    14   1     0.01  -0.02  -0.01     0.16  -0.12   0.13     0.07  -0.09  -0.03
    15   1    -0.03   0.02  -0.01     0.27  -0.22   0.03    -0.11   0.07   0.04
    16   1     0.00  -0.04  -0.02    -0.02   0.39   0.19    -0.03  -0.08  -0.04
    17   1     0.26  -0.33   0.11     0.02  -0.02  -0.01    -0.21  -0.26   0.09
    18   1    -0.09   0.07  -0.05    -0.06   0.02   0.02    -0.40   0.26   0.04
    19   1    -0.31  -0.13   0.14    -0.04   0.09  -0.02     0.16   0.06  -0.06
    20   1     0.00  -0.12   0.01     0.07  -0.00  -0.01    -0.09  -0.46   0.17
    21   1    -0.08   0.42  -0.07    -0.05  -0.01   0.01    -0.38   0.05   0.06
    22   1     0.02   0.02   0.02     0.03  -0.13   0.14    -0.03  -0.06  -0.00
    23   1     0.01  -0.00   0.02    -0.10   0.00  -0.08     0.02   0.08   0.07
    24   1     0.01  -0.01   0.01    -0.24   0.18  -0.20     0.01   0.02   0.08
    25   1     0.02  -0.01  -0.01    -0.32   0.25   0.02     0.04   0.02  -0.06
    26   1    -0.01   0.02   0.02     0.16  -0.28  -0.23    -0.05  -0.03  -0.02
    27   1     0.00   0.00   0.01    -0.00  -0.08  -0.12     0.04   0.06   0.10
                     34                     35                     36
                      A                      A                      A
 Frequencies --   1080.4870              1092.2157              1121.9195
 Red. masses --      1.8857                 1.6128                 1.7108
 Frc consts  --      1.2971                 1.1335                 1.2687
 IR Inten    --      1.7961                 6.3093                 3.3426
  Atom  AN      X      Y      Z        X      Y      Z        X      Y      Z
     1   8     0.01  -0.00   0.00    -0.02   0.03  -0.00     0.01  -0.01  -0.01
     2   6     0.01   0.00   0.04     0.09   0.03   0.03    -0.03  -0.01   0.06
     3   6    -0.04   0.07   0.00    -0.08  -0.05  -0.02     0.02   0.03  -0.02
     4   6     0.00  -0.11  -0.08     0.05   0.01  -0.02    -0.01  -0.02   0.04
     5   6    -0.00  -0.02   0.01     0.06   0.06  -0.01    -0.07   0.02  -0.01
     6   6    -0.02   0.01  -0.00     0.04  -0.04  -0.01     0.09   0.01  -0.02
     7   6     0.01   0.02  -0.01    -0.03  -0.03   0.02     0.00  -0.06   0.02
     8   6     0.01  -0.01   0.00     0.02   0.05  -0.02    -0.05   0.06  -0.01
     9   6    -0.01   0.00   0.00     0.01  -0.03   0.01     0.07  -0.02  -0.01
    10   6     0.01   0.01  -0.01    -0.04  -0.02   0.01    -0.06  -0.07   0.04
    11   6     0.08   0.01   0.12    -0.06  -0.00   0.03     0.06   0.02  -0.05
    12   6    -0.11   0.09  -0.05     0.03   0.03  -0.03    -0.05  -0.03   0.03
    13   6     0.05  -0.05  -0.05    -0.04  -0.06   0.03     0.03   0.03  -0.05
    14   1    -0.26   0.22  -0.14    -0.25   0.31   0.09    -0.05   0.02  -0.12
    15   1     0.04  -0.05   0.09     0.17  -0.06  -0.18     0.03  -0.07   0.09
    16   1    -0.03  -0.20  -0.13     0.24   0.19   0.05    -0.10  -0.01   0.07
    17   1    -0.03   0.00   0.04     0.05  -0.04   0.04     0.29   0.26  -0.16
    18   1     0.05   0.01  -0.03    -0.26   0.00   0.06    -0.08  -0.05   0.03
    19   1     0.04  -0.09   0.02    -0.05   0.19  -0.05    -0.23   0.44  -0.07
    20   1    -0.03  -0.02   0.01    -0.02  -0.07   0.03     0.24   0.19  -0.12
    21   1     0.08   0.01  -0.00    -0.27   0.02   0.08    -0.31  -0.04   0.07
    22   1     0.05  -0.03   0.13    -0.07   0.12  -0.27    -0.16  -0.16  -0.16
    23   1     0.27   0.08   0.51     0.04  -0.16   0.01     0.04   0.20   0.14
    24   1    -0.03   0.05   0.03     0.11  -0.15  -0.10     0.03  -0.00   0.18
    25   1    -0.21   0.26  -0.17     0.03  -0.13   0.13     0.12  -0.03  -0.08
    26   1    -0.03   0.01   0.03     0.07   0.23   0.18    -0.15  -0.02  -0.00
    27   1     0.15  -0.33  -0.24    -0.08  -0.22  -0.28     0.14  -0.06   0.07
                     37                     38                     39
                      A                      A                      A
 Frequencies --   1129.5788              1171.0272              1193.9006
 Red. masses --      1.4284                 1.6767                 1.1052
 Frc consts  --      1.0738                 1.3547                 0.9282
 IR Inten    --     19.2691                 5.4745                 0.1789
  Atom  AN      X      Y      Z        X      Y      Z        X      Y      Z
     1   8     0.00   0.01   0.01    -0.01   0.01   0.01    -0.00   0.00   0.00
     2   6    -0.04  -0.01  -0.10     0.02   0.01  -0.06     0.00   0.00  -0.00
     3   6     0.03   0.00   0.03     0.02  -0.07   0.01    -0.00   0.00  -0.00
     4   6     0.00  -0.03  -0.02     0.00   0.11   0.08     0.01  -0.00  -0.01
     5   6     0.00   0.03   0.01    -0.08  -0.02  -0.01    -0.01  -0.01   0.01
     6   6     0.05   0.00  -0.02    -0.02  -0.01   0.02    -0.00  -0.01   0.00
     7   6    -0.01  -0.04   0.01     0.02   0.03  -0.01     0.04   0.00  -0.01
     8   6    -0.01   0.04  -0.01    -0.01  -0.01   0.00    -0.03   0.05  -0.01
     9   6     0.03  -0.01  -0.00     0.02  -0.01  -0.00    -0.03  -0.04   0.02
    10   6    -0.04  -0.03   0.02     0.02  -0.00   0.00     0.02  -0.00  -0.00
    11   6    -0.04  -0.01   0.05     0.01   0.01  -0.10    -0.00  -0.00   0.01
    12   6     0.05   0.01  -0.03     0.03  -0.05   0.03     0.00   0.01  -0.00
    13   6    -0.02   0.01   0.07    -0.06   0.02   0.06     0.00  -0.01  -0.00
    14   1     0.03  -0.07  -0.03    -0.11   0.12   0.01     0.02  -0.02   0.01
    15   1    -0.23   0.18  -0.02     0.05  -0.01  -0.07    -0.01   0.01  -0.01
    16   1     0.15  -0.37  -0.29     0.00  -0.17  -0.11     0.02   0.01  -0.00
    17   1     0.13   0.11  -0.05    -0.03  -0.01  -0.04    -0.06  -0.07   0.04
    18   1    -0.10  -0.02   0.03     0.10   0.02  -0.03     0.45  -0.06  -0.10
    19   1    -0.11   0.24  -0.05     0.02  -0.06   0.01    -0.27   0.58  -0.10
    20   1     0.09   0.06  -0.03     0.04   0.02  -0.02    -0.30  -0.39   0.19
    21   1    -0.21  -0.01   0.05     0.19  -0.04  -0.07     0.25  -0.04  -0.05
    22   1     0.26   0.15   0.39    -0.05  -0.07  -0.06    -0.01   0.01  -0.02
    23   1     0.01  -0.14  -0.04     0.12   0.18   0.27     0.00  -0.01   0.00
    24   1    -0.01  -0.00  -0.13     0.34  -0.36   0.18    -0.01   0.01  -0.02
    25   1    -0.27   0.21  -0.04    -0.29   0.30  -0.13     0.02  -0.03   0.02
    26   1     0.16  -0.06  -0.05     0.04   0.07   0.05     0.00   0.02   0.01
    27   1    -0.11   0.08  -0.03    -0.00  -0.32  -0.31    -0.01   0.01   0.01
                     40                     41                     42
                      A                      A                      A
 Frequencies --   1200.9091              1225.5891              1247.6132
 Red. masses --      1.9385                 1.1523                 1.3749
 Frc consts  --      1.6472                 1.0198                 1.2609
 IR Inten    --      1.4928                 1.8374                11.5027
  Atom  AN      X      Y      Z        X      Y      Z        X      Y      Z
     1   8     0.01  -0.03  -0.01     0.00  -0.00   0.00     0.02  -0.02   0.01
     2   6    -0.04  -0.01   0.03    -0.01  -0.00  -0.02    -0.11  -0.02  -0.04
     3   6     0.04  -0.02  -0.01     0.00   0.00   0.01     0.04   0.01   0.01
     4   6    -0.06   0.01   0.06    -0.01   0.00   0.00     0.01   0.02  -0.01
     5   6     0.19   0.05  -0.08     0.03   0.00  -0.01    -0.08   0.05   0.03
     6   6     0.03   0.02  -0.01    -0.04  -0.05   0.03    -0.01  -0.04   0.01
     7   6    -0.04  -0.05   0.03     0.05  -0.01  -0.01     0.03   0.01  -0.01
     8   6     0.02   0.01  -0.01     0.01   0.01  -0.01    -0.01   0.01  -0.00
     9   6    -0.07   0.01   0.01     0.01   0.03  -0.01     0.01  -0.03   0.01
    10   6     0.02   0.02  -0.01    -0.05   0.01   0.01     0.02  -0.02  -0.00
    11   6     0.01   0.02  -0.05     0.00   0.01   0.00    -0.02   0.00   0.01
    12   6    -0.01  -0.05   0.04     0.00  -0.01  -0.00     0.01  -0.01  -0.02
    13   6    -0.00   0.06  -0.02     0.00   0.00   0.01     0.04   0.01   0.01
    14   1    -0.33   0.31  -0.16    -0.05   0.05  -0.01    -0.39   0.35  -0.22
    15   1     0.19  -0.22   0.13     0.06  -0.06   0.04     0.21  -0.22   0.18
    16   1    -0.17  -0.12   0.00    -0.01   0.02   0.01     0.56   0.10  -0.11
    17   1    -0.08  -0.14   0.05    -0.30  -0.38   0.18    -0.02  -0.04   0.03
    18   1    -0.21  -0.03   0.06     0.53  -0.08  -0.11    -0.04   0.02   0.01
    19   1    -0.02   0.08  -0.02    -0.01   0.05  -0.01     0.02  -0.07   0.01
    20   1    -0.27  -0.24   0.14     0.20   0.28  -0.14     0.08   0.06  -0.03
    21   1    -0.12   0.05   0.01    -0.50   0.08   0.10     0.24  -0.06  -0.04
    22   1     0.10  -0.03   0.26    -0.01   0.00  -0.01    -0.03   0.04  -0.09
    23   1    -0.09   0.07  -0.15     0.00   0.00   0.00    -0.04  -0.03  -0.06
    24   1     0.03  -0.02   0.12     0.01  -0.01   0.01    -0.07   0.10  -0.04
    25   1    -0.14   0.19  -0.13    -0.02   0.03  -0.02     0.05  -0.04  -0.00
    26   1    -0.07  -0.20  -0.17     0.01   0.00   0.00     0.00  -0.01   0.01
    27   1     0.07  -0.03   0.03    -0.01   0.02   0.01    -0.02   0.20   0.16
                     43                     44                     45
                      A                      A                      A
 Frequencies --   1252.2859              1281.7529              1315.8543
 Red. masses --      1.7330                 1.3407                 1.4505
 Frc consts  --      1.6013                 1.2978                 1.4798
 IR Inten    --     26.4149                 2.7475                 2.1186
  Atom  AN      X      Y      Z        X      Y      Z        X      Y      Z
     1   8    -0.02   0.00  -0.03     0.00   0.04   0.01     0.00   0.01  -0.01
     2   6     0.08   0.02   0.19    -0.02  -0.00  -0.06    -0.03   0.00   0.04
     3   6     0.01  -0.06  -0.05     0.04  -0.03   0.01     0.06  -0.06  -0.00
     4   6     0.03   0.03  -0.00    -0.05   0.04   0.02    -0.02   0.10   0.04
     5   6    -0.06   0.02   0.02     0.02   0.03  -0.01     0.02  -0.01  -0.03
     6   6    -0.02  -0.03   0.01     0.00  -0.01   0.00     0.01   0.01  -0.00
     7   6     0.02   0.01  -0.01     0.00  -0.01   0.00    -0.01  -0.00   0.01
     8   6    -0.00   0.01  -0.00     0.00   0.00  -0.00     0.00  -0.01   0.00
     9   6     0.01  -0.01   0.00    -0.01  -0.00   0.00     0.00   0.01  -0.00
    10   6    -0.00  -0.01   0.00     0.01  -0.00  -0.00     0.00   0.01   0.00
    11   6    -0.02  -0.01  -0.03     0.03  -0.03  -0.01    -0.03  -0.08  -0.00
    12   6    -0.02  -0.01   0.03    -0.07  -0.00   0.06     0.03   0.07  -0.02
    13   6    -0.02   0.04  -0.05     0.06  -0.03  -0.03     0.02  -0.05  -0.03
    14   1    -0.17   0.19  -0.06     0.03  -0.04  -0.01    -0.18   0.20  -0.07
    15   1    -0.32   0.32  -0.30    -0.11   0.10  -0.05    -0.17   0.12  -0.07
    16   1     0.27  -0.07  -0.14     0.11  -0.19  -0.17    -0.31  -0.38  -0.20
    17   1    -0.04  -0.05   0.04    -0.05  -0.08   0.03    -0.02  -0.03  -0.00
    18   1     0.09   0.00  -0.02    -0.03  -0.01   0.01     0.00  -0.01   0.00
    19   1     0.01  -0.03   0.00     0.01  -0.01   0.00     0.00  -0.01   0.00
    20   1     0.09   0.08  -0.05    -0.00   0.01  -0.00    -0.03  -0.02   0.01
    21   1     0.06  -0.02  -0.02     0.01  -0.00  -0.01    -0.04   0.01  -0.00
    22   1     0.19   0.03   0.35     0.04  -0.10   0.16    -0.09  -0.05  -0.20
    23   1    -0.11  -0.02  -0.20    -0.15   0.02  -0.23     0.21  -0.03   0.42
    24   1    -0.10   0.08   0.01    -0.19   0.19   0.09    -0.08   0.06  -0.21
    25   1     0.06  -0.04   0.01     0.18  -0.16   0.07     0.14  -0.19   0.18
[...]
 4968,-0.00329677,0.00103536,0.07343710,0.05683973,-0.00012664,-0.00008
 501,0.00001125,0.00014269,0.00023311,-0.00002488,0.00026548,-0.0001603
 5,-0.00037282,-0.00150042,-0.00037777,-0.00016240,0.00343237,-0.002129
 82,-0.00413256,0.00097393,0.00016580,-0.00053357,0.00272493,-0.0009632
 2,0.00031475,0.00903948,0.00397279,0.01075005,-0.12264096,-0.05769899,
 -0.16504506,-0.02441684,-0.00941993,-0.01441626,-0.00010811,0.00013622
 ,-0.00006076,0.00003717,-0.00000019,-0.00000128,0.00000479,-0.00001516
 ,0.00001552,-0.00011355,-0.00002010,-0.00013103,-0.00001429,-0.0000013
 6,0.00002594,0.00004985,0.00003982,-0.00000867,-0.00019210,0.00026976,
 0.00001221,0.00057691,0.00014561,0.00046281,-0.00068931,0.00087522,0.0
 0061384,0.13245975,0.06396679,0.17185713,0.00028769,-0.00000898,-0.000
 18618,-0.00023065,0.00000323,0.00025421,0.00025374,0.00038673,-0.00025
 172,-0.00022850,0.00089372,0.00198656,-0.01855671,-0.00277898,0.009442
 30,-0.00125052,-0.00259268,-0.00393912,0.00052543,0.00001126,-0.000617
 40,0.00210060,-0.00086296,0.00154476,-0.00323715,-0.00113133,0.0001358
 2,-0.29556515,-0.03965879,0.08481169,-0.00009317,0.00011583,-0.0004324
 6,0.00001705,-0.00012229,0.00024332,0.00006383,0.00009230,-0.00005392,
 -0.00005838,-0.00003736,-0.00009980,0.00006179,-0.00006946,0.00008766,
 0.00055150,0.00042193,-0.00107956,-0.00095795,-0.00010849,0.00069257,-
 0.00011542,0.00027514,0.00002901,-0.00026778,-0.00016260,-0.00002203,0
 .00072491,0.00110639,0.00004268,0.31541613,0.00016201,-0.00005123,-0.0
 0010170,-0.00021294,0.00005691,0.00012902,0.00007040,0.00003447,0.0001
 9081,0.00107474,-0.00254627,0.00036688,-0.00889154,0.00186573,0.004816
 05,-0.00204299,0.00488002,-0.00288910,0.00006316,-0.00032079,-0.000224
 04,-0.00118406,0.00648234,-0.00258544,0.00595703,0.00329932,-0.0020223
 2,-0.04016867,-0.04313607,0.00701517,-0.00048368,0.00016153,-0.0007017
 2,0.00001165,-0.00011370,0.00014328,0.00007067,0.00004583,-0.00004551,
 0.00004959,0.00003186,0.00001612,0.00005329,-0.00001221,0.00005502,-0.
 00056336,-0.00018985,0.00000358,-0.00055693,0.00045027,0.00016481,0.00
 024457,-0.00112601,0.00031418,0.00023150,0.00030935,-0.00017524,0.0009
 2018,-0.00355317,0.00116166,0.04444753,0.03418085,0.00018117,0.0000708
 8,-0.00008115,-0.00015352,-0.00016940,0.00010594,0.00012102,0.00024069
 ,0.00005884,-0.00116511,0.00018420,0.00076446,-0.01844917,-0.00255734,
 0.00998773,-0.00270803,-0.00250139,-0.00227387,-0.00053114,-0.00028104
 ,-0.00092531,0.00003738,-0.00291649,-0.00510762,0.03084062,0.00489592,
 -0.00585738,0.08455402,0.00731793,-0.08884361,-0.00001945,-0.00026562,
 -0.00001770,-0.00008242,-0.00000825,0.00003454,0.00002246,0.00001715,0
 .00000333,0.00001643,-0.00000453,0.00001941,0.00004312,-0.00001550,0.0
 0002959,0.00016310,0.00041878,-0.00014444,-0.00103009,-0.00023899,0.00
 057871,0.00004371,0.00033705,0.00009147,0.00160227,0.00019857,-0.00042
 759,-0.00060607,0.00101527,0.00082917,-0.09279160,-0.00563764,0.091282
 65,-0.00056054,0.00006028,0.00009827,0.00130032,-0.00010636,0.00022349
 ,-0.00091801,0.00338433,0.00139381,-0.01412308,0.00091113,-0.01088214,
 0.00053549,-0.00059780,-0.00157121,-0.00053603,-0.00006477,0.00050582,
 -0.00003598,-0.00008688,-0.00051799,0.00046778,0.00016761,0.00007500,-
 0.00005621,-0.00010033,0.00069512,0.00009739,-0.00058126,-0.00001683,-
 0.19065419,-0.00093885,-0.12878837,-0.01374451,-0.00013298,-0.01257934
 ,-0.00108959,-0.00345434,0.00173612,0.00016339,-0.00000884,-0.00018070
 ,-0.00072363,-0.00011050,-0.00086589,0.00069274,0.00005241,0.00023786,
 0.00011364,-0.00002432,-0.00005840,0.00001218,0.00001217,-0.00000486,0
 .00003434,0.00003435,-0.00002352,-0.00001695,-0.00000517,0.00001352,0.
 00037353,0.00043792,-0.00008210,0.20648488,0.00003296,0.00097560,-0.00
 000330,-0.00004835,-0.00225685,-0.00000289,0.00308487,-0.00483439,-0.0
 0184427,0.02134471,-0.00054253,0.01883700,-0.00051966,0.00080415,0.001
 07244,0.00024611,0.00009592,-0.00036099,0.00007267,0.00003969,0.000378
 79,-0.00035570,-0.00007996,0.00003492,-0.00010675,-0.00004386,-0.00046
 559,0.00068187,0.00023996,0.00003238,-0.00097241,-0.04740611,-0.000237
 51,-0.02091624,-0.00014996,-0.02043966,-0.00317251,-0.00464752,0.00214
 732,-0.00040793,0.00001908,-0.00021696,0.00155129,0.00024787,0.0011898
 4,-0.00081531,0.00096837,0.00023832,-0.00007226,-0.00003021,0.00004250
 ,-0.00000525,-0.00000949,-0.00000442,-0.00004124,-0.00001755,0.0000201
 0,0.00002812,-0.00000105,-0.00001503,-0.00022797,-0.00067627,-0.000225
 25,0.00062099,0.05562266,-0.00008018,-0.00005153,-0.00007177,0.0002469
 8,0.00014223,-0.00004004,0.00080057,-0.00016679,0.00066726,0.00328068,
 -0.00024978,0.00148719,0.00120418,-0.00008866,0.00027408,-0.00021587,-
 0.00008517,0.00027888,0.00002624,-0.00005400,-0.00014214,0.00006153,0.
 00005327,0.00002582,0.00007612,-0.00001007,0.00002706,-0.00004290,-0.0
 0049582,-0.00011067,-0.13086538,0.00026015,-0.16958218,0.00470172,0.00
 007236,0.00340697,0.00070060,0.00030584,0.00067374,0.00017239,-0.00013
 402,0.00037615,-0.00004714,-0.00009821,0.00031957,-0.00016325,0.000464
 36,-0.00001060,0.00002474,0.00000126,-0.00000578,-0.00001091,0.0000160
 7,0.00000567,0.00000532,0.00001260,0.00000507,0.00000996,-0.00002918,0
 .00004106,0.00022375,-0.00021883,-0.00008670,0.14201616,0.00106445,0.1
 8110218,0.00026527,-0.00001238,0.00003919,-0.00061374,-0.00002853,-0.0
 0004494,0.00039502,-0.00055243,0.00085809,-0.00809532,0.00149280,0.016
 72747,-0.00098015,0.00272037,-0.00135747,0.00006323,-0.00002325,0.0005
 6000,0.00001823,-0.00024855,-0.00002844,0.00007002,0.00009643,0.000090
 48,-0.00001080,-0.00019545,0.00022311,-0.00012471,-0.00023554,0.000088
 51,-0.09495965,0.00102287,0.09258814,-0.00903716,-0.00078337,0.0179634
 3,0.00069846,0.00080614,0.00121720,-0.00025228,0.00030453,-0.00058463,
 0.00028226,0.00002967,-0.00021133,0.00095615,-0.00038221,-0.00047872,-
 0.00002336,0.00012491,0.00000724,-0.00002635,0.00001260,0.00004411,-0.
 00000075,0.00003930,0.00000221,0.00001048,0.00000046,0.00004498,0.0001
 1152,0.00028826,-0.00005074,0.01161285,-0.00027876,-0.02203934,0.10027
 852,-0.00017003,0.00018876,0.00008261,0.00026241,-0.00042703,-0.000059
 56,-0.00080806,0.00092203,-0.00032468,0.01217228,-0.00342918,-0.027139
 48,0.00374065,-0.00392703,0.00142756,-0.00028578,-0.00028147,-0.000973
 65,0.00004801,0.00044003,-0.00033555,0.00026322,-0.00004430,-0.0001543
 7,-0.00015103,0.00021089,0.00019160,0.00029847,0.00000432,-0.00038217,
 0.00111656,-0.04761121,-0.00232240,-0.01321067,-0.00103350,0.02745786,
 0.00103007,0.00117139,0.00055561,0.00017120,0.00001726,0.00052131,-0.0
 0035137,-0.00005401,0.00005965,-0.00065038,0.00115224,-0.00039921,0.00
 010145,-0.00024775,0.00007029,0.00005803,0.00000244,-0.00011902,0.0000
 1244,-0.00004240,-0.00001611,-0.00002164,-0.00003346,-0.00005756,-0.00
 008650,-0.00007390,0.00005470,-0.00009870,-0.00038902,0.00009721,-0.00
 068085,0.05706561,-0.00002326,-0.00001489,-0.00005245,0.00015580,0.000
 15534,0.00009200,-0.00022847,0.00037197,0.00026627,0.00008077,0.000303
 47,-0.00306629,0.00056190,-0.00086924,0.00060926,-0.00044191,-0.000344
 68,0.00032601,-0.00008491,-0.00003674,-0.00034592,0.00029680,0.0000516
 2,0.00000660,-0.00007957,0.00000560,0.00031354,0.00041017,-0.00020278,
 -0.00008247,0.09301235,-0.00283899,-0.25621381,0.00137087,0.00055554,-
 0.00425166,-0.00050778,-0.00042155,0.00082846,0.00024410,-0.00005699,0
 .00050607,0.00004636,-0.00009104,0.00023152,-0.00024295,-0.00058859,0.
 00040397,0.00002609,-0.00000898,0.00001986,0.00001291,0.00003816,-0.00
 003257,0.00001321,0.00000746,-0.00002627,-0.00001963,-0.00001388,-0.00
 002737,0.00003048,0.00020796,-0.00001101,0.00928368,-0.00022314,-0.020
 04727,-0.10443704,0.00246667,0.27810919,-0.00029893,-0.00015514,0.0003
 1754,0.00181506,-0.00099682,-0.00068796,-0.00001457,0.00005308,-0.0002
 1358,0.00028512,0.00076920,-0.00025224,0.00053410,0.00005368,0.0000368
 3,0.00002854,0.00011138,-0.00009580,0.00002340,0.00003325,0.00011090,-
 0.00003925,-0.00001863,-0.00003695,-0.00000073,-0.00001886,-0.00009183
 ,-0.00019274,0.00011167,-0.00017364,-0.00896693,-0.00095326,0.01876927
 ,-0.08909558,0.00064861,0.09279192,0.00902372,0.00061192,-0.02540862,-
 0.00009223,-0.00002242,0.00000064,0.00010110,0.00004564,0.00005477,-0.
 00005152,0.00010584,-0.00006772,-0.00005706,0.00014324,-0.00002064,0.0
 0000257,-0.00000397,-0.00000328,-0.00000230,-0.00000493,-0.00000847,-0
 .00000436,-0.00001520,-0.00000381,0.00000505,-0.00000937,0.00001777,0.
 00025066,0.00061266,-0.00005410,-0.00148863,-0.00391525,0.00009001,0.0
 9825724,-0.00011910,0.00002790,-0.00016333,-0.00023128,-0.00005000,0.0
 0082708,0.00017603,-0.00023267,-0.00018767,0.00021942,0.00112473,0.000
 56513,0.00007042,-0.00049574,0.00009809,0.00038890,-0.00008169,-0.0003
 3508,0.00011462,-0.00004968,-0.00031497,0.00014491,-0.00001420,0.00005
 361,-0.00007208,-0.00002840,0.00010365,-0.00034140,-0.00008510,-0.0003
 2675,-0.01202713,-0.00068802,0.02725209,0.00127598,-0.05202947,0.00254
 284,0.00003358,-0.00018995,-0.00080606,-0.00007556,0.00013712,-0.00012
 061,0.00006902,-0.00001826,0.00004720,-0.00000627,0.00037202,-0.000236
 59,0.00007179,-0.00009664,0.00004483,-0.00003367,0.00001602,0.00001363
 ,0.00000146,0.00001936,0.00002983,0.00001806,0.00001284,0.00002448,0.0
 0007574,0.00002839,0.00001178,0.00053952,0.00104015,-0.00054409,-0.003
 48080,-0.00460209,0.00085622,0.00302944,0.05387580,-0.00113597,0.00033
 869,0.00028349,0.00181108,-0.00144660,-0.00043499,-0.00010848,0.000382
 07,-0.00020520,0.00021936,-0.00031933,-0.00036322,-0.00014536,-0.00039
 058,-0.00010855,0.00009245,-0.00047540,-0.00020640,0.00004001,-0.00012
 524,0.00032809,-0.00024157,-0.00005306,-0.00003319,0.00012413,0.000001
 60,-0.00023212,0.00018136,-0.00000964,0.00041355,0.00184772,0.00140071
 ,-0.00255938,0.09211048,0.00328890,-0.26742546,0.00609021,0.00070987,-
 0.02028509,-0.00001065,-0.00003135,0.00013266,-0.00000868,0.00010157,-
 0.00002188,-0.00005372,0.00009452,0.00007124,-0.00015583,0.00014164,-0
 .00013076,-0.00000273,0.00002702,0.00000177,-0.00000991,0.00000796,-0.
 00001420,-0.00000630,0.00000239,-0.00000547,-0.00005014,-0.00001093,-0
 .00001037,0.00020216,0.00035745,0.00058103,0.00036152,0.00016091,0.001
 34367,-0.09890363,-0.00322463,0.29237596,-0.00199047,0.00200242,0.0009
 6340,-0.00110527,-0.00510082,-0.00409106,0.00005481,0.00013957,0.00053
 057,-0.00249023,-0.00288130,0.00048630,-0.00006957,0.00009723,0.000548
 54,-0.00009864,0.00010690,-0.00005086,0.00004429,0.00001569,-0.0001526
 3,0.00012849,0.00001545,-0.00001122,-0.00005346,0.00001899,0.00012956,
 -0.00005308,0.00001265,-0.00019302,0.01239291,-0.01771780,-0.00255104,
 -0.13212170,0.12177187,0.01727886,-0.01517508,0.02136709,-0.00006017,-
 0.00004053,-0.00006111,0.00001563,0.00011227,0.00010793,0.00010651,0.0
 0064366,-0.00110972,0.00008396,0.00005018,-0.00008052,-0.00005090,0.00
 000064,-0.00000215,-0.00001669,0.00000876,0.00000310,0.00001294,0.0000
 0359,0.00000370,0.00000003,0.00002735,-0.00000642,0.00002104,0.0008704
 1,0.00076464,-0.00020693,0.00072857,0.00078767,-0.00010466,-0.00754934
 ,0.01043614,0.00146848,0.14387153,-0.00001004,0.00016757,0.00021802,-0
 .00068506,0.00053670,-0.00045597,-0.00041085,0.00082023,-0.00024849,-0
 .00515233,-0.00316486,0.00108915,-0.00027801,0.00036298,0.00090982,-0.
 00004997,0.00003022,-0.00009665,-0.00000851,-0.00001291,-0.00005946,0.
 00008890,0.00000605,-0.00005442,-0.00005015,0.00002328,0.00008521,0.00
 001093,0.00003848,-0.00025534,0.01591949,-0.02235799,-0.00359114,0.120
 78613,-0.22222621,-0.02202609,-0.00122412,0.00268696,0.00010692,-0.000
 00474,-0.00003104,0.00001713,0.00011197,0.00006263,0.00002479,0.000956
 06,-0.00168094,-0.00021045,-0.00001232,-0.00000478,0.00001693,0.000023
 63,-0.00000318,-0.00002784,0.00000858,-0.00000899,-0.00002123,-0.00001
 339,-0.00001753,-0.00003499,0.00002549,-0.00001452,0.00005187,-0.00003
 954,0.00087050,-0.00056248,0.00020085,0.00099185,0.00053075,-0.0005714
 0,0.00095721,-0.00077226,-0.12997215,0.24140981,-0.00230351,0.00182909
 ,0.00096963,-0.00180450,-0.00359103,-0.00362615,0.00027434,-0.00013865
 ,0.00034395,0.00049665,0.00069506,0.00016034,0.00002144,-0.00005883,0.
 00004034,-0.00015751,-0.00016647,-0.00004962,0.00001963,-0.00002392,0.
 00017147,-0.00010465,-0.00001059,0.00000709,0.00005559,-0.00000924,-0.
 00010355,0.00015116,0.00000549,0.00025744,-0.00229284,0.00447817,-0.00
 043669,0.01755112,-0.02307166,-0.05260724,-0.01524119,0.02138722,-0.00
 034614,-0.00003182,-0.00000013,0.00000965,0.00002467,0.00009104,0.0000
 5068,0.00006626,0.00019681,0.00024123,-0.00007706,0.00005146,-0.000100
 10,0.00000523,0.00000806,-0.00001035,-0.00000053,-0.00000289,-0.000012
 44,-0.00000783,-0.00000275,-0.00001080,-0.00003266,0.00000529,0.000002
 05,0.00012717,-0.00042855,0.00009243,-0.00054697,-0.00002887,0.0002363
 9,0.01749051,-0.02575934,-0.00245753,-0.01516578,0.02452704,0.05522013
 ,0.00174626,-0.00122062,0.00017182,0.01156811,0.01567248,-0.00359700,-
 0.00211321,0.00276525,0.00051459,-0.00030441,0.00019766,-0.00008783,0.
 00005755,-0.00005973,0.00017199,-0.00005689,-0.00001391,-0.00005507,0.
 00001224,0.00000486,-0.00002124,0.00002518,0.00000599,-0.00002042,0.00
 002385,0.00001255,0.00004872,-0.00003900,-0.00005150,-0.00002382,-0.00
 281631,0.00173082,-0.00441940,-0.01295840,-0.01774324,0.00532149,-0.15
 253326,-0.13031206,0.02675246,-0.00011259,-0.00012183,-0.00001708,0.00
 060467,0.00090554,0.00008439,0.00009179,-0.00010223,0.00003896,0.00003
 263,-0.00001223,-0.00002270,0.00001339,-0.00000267,-0.00001209,0.00000
 725,-0.00000138,-0.00000906,-0.00000532,-0.00000229,-0.00000490,0.0000
 4556,0.00004328,0.00001040,-0.00073016,-0.00152770,0.00000832,0.000330
 15,0.00039289,-0.00002149,0.00121010,0.00023551,0.00002912,0.00018211,
 0.00034277,0.00060340,0.16323907,0.00000223,0.00597863,-0.00095677,-0.
 02198401,-0.02676936,0.00557811,0.00495365,-0.00310370,-0.00096885,0.0
 0047110,0.00019407,0.00041424,-0.00013846,0.00005085,0.00013006,-0.000
 02216,0.00005558,-0.00007937,-0.00000735,0.00002528,0.00000690,-0.0000
 0232,-0.00000993,-0.00002742,-0.00000524,-0.00000640,-0.00000700,0.000
 06241,0.00000362,-0.00007421,0.00059697,0.00105023,0.00009475,0.001318
 77,0.00202371,-0.00121471,-0.12580377,-0.20720903,0.03376103,0.0000863
 0,0.00043212,0.00016412,-0.00090770,-0.00146011,-0.00001651,-0.0001131
 7,0.00003999,-0.00011053,-0.00002746,-0.00007886,0.00006882,0.00001736
 ,-0.00001171,-0.00002110,0.00000255,-0.00000560,-0.00000751,-0.0000010
 1,-0.00000298,-0.00001522,0.00000572,-0.00000040,0.00001559,0.00014270
 ,0.00015334,0.00015119,-0.00000743,-0.00006476,0.00006066,-0.00010740,
 0.00012401,-0.00037004,-0.00023768,0.00034625,-0.00040806,0.13843329,0
 .22424528,-0.00089560,0.00029622,-0.00113006,0.00070061,-0.00315174,-0
 .00057869,0.00014400,0.00025393,0.00118547,-0.00018811,0.00044558,-0.0
 0010351,0.00001977,0.00000979,0.00014771,-0.00006195,0.00001407,-0.000
 06262,0.00002199,0.00001202,-0.00002023,0.00001634,0.00000218,-0.00001
 912,0.00001940,0.00000885,0.00002813,-0.00003874,-0.00003633,-0.000016
 36,-0.00306604,0.00121042,-0.00348773,-0.01359709,-0.01930953,0.004340
 70,0.02617452,0.03409783,-0.05723023,-0.00031382,-0.00041844,0.0002390
 5,0.00008302,0.00006048,0.00035975,0.00012889,-0.00004732,0.00003959,0
 .00002658,-0.00004936,0.00001181,0.00001164,-0.00001024,-0.00001306,0.
 00000588,-0.00000087,-0.00000049,0.00000028,0.00000204,-0.00000043,0.0
 0004199,0.00002573,0.00000551,-0.00090287,-0.00116573,0.00031774,-0.00
 026493,-0.00009927,0.00027251,0.00088907,-0.00032923,0.00081946,0.0006
 0165,0.00037778,0.00063855,-0.02719338,-0.03603022,0.05840578,-0.00109
 824,0.00359771,-0.00344162,-0.01077562,0.00011683,0.01819642,0.0002520
 7,-0.00011584,-0.00113472,-0.00012859,-0.00027775,-0.00004864,-0.00006
 302,0.00005462,-0.00001465,-0.00007453,0.00000185,0.00001664,0.0000168
 3,0.00000521,0.00002383,0.00000325,-0.00000004,0.00000971,-0.00000836,
 0.00000316,0.00001849,0.00003594,-0.00001728,0.00000301,0.00169194,0.0
 0058256,-0.00033811,0.00860512,-0.00343860,-0.02639186,-0.08400675,0.0
 0830427,0.09801746,0.00050062,0.00039736,-0.00029379,-0.00008377,-0.00
 006156,-0.00031989,-0.00000665,-0.00001566,-0.00000022,0.00002496,-0.0
 0005153,-0.00001136,-0.00000131,-0.00000219,-0.00000431,0.00000151,0.0
 0000142,0.00000660,0.00000375,0.00000280,0.00000238,-0.00000432,-0.000
 00580,-0.00000508,0.00017928,0.00042715,0.00016673,-0.00020782,-0.0000
 2510,0.00055615,-0.00368248,-0.00051323,-0.00374511,0.00162780,0.00000
 779,0.00087968,-0.00752037,0.00327211,0.01763692,0.09471878,0.00239188
 ,-0.00250618,0.00352635,0.01136415,0.00072600,-0.02927967,-0.00120293,
 -0.00039823,0.00361494,0.00040884,0.00028063,0.00003540,-0.00003567,0.
 00009582,-0.00003809,0.00009439,-0.00000287,0.00002138,-0.00003285,-0.
 00001288,0.00000076,-0.00001281,0.00000124,-0.00000371,-0.00000341,-0.
 00000435,-0.00001776,-0.00001820,0.00001710,0.00001685,0.00048226,-0.0
 0002985,-0.00112130,-0.00073302,0.00039224,0.00116884,0.00966753,-0.05
 400447,-0.02833424,-0.00034469,-0.00163254,0.00001174,0.00008826,0.000
 36743,0.00043077,0.00003470,-0.00001534,0.00001283,-0.00004935,0.00007
 030,0.00004876,-0.00000014,-0.00000304,0.00000767,-0.00000495,-0.00000
 064,-0.00000113,0.00000108,-0.00000171,0.00000345,-0.00001261,-0.00001
 248,-0.00000893,-0.00001277,0.00000750,0.00014764,-0.00022964,0.000094
 31,0.00010004,0.00046308,0.00092635,0.00021375,-0.00048137,0.00021219,
 0.00042623,-0.00957153,0.00399987,0.02383138,-0.01225025,0.05143359,-0
 .00070290,-0.00066563,-0.00067368,0.00113406,-0.00016969,0.00033663,0.
 00060758,0.00014903,-0.00065637,-0.00039232,-0.00001231,-0.00005314,0.
 00006053,0.00007984,-0.00003460,0.00000491,-0.00007349,0.00004035,-0.0
 0001722,-0.00001759,0.00005219,-0.00002243,-0.00000470,0.00001286,0.00
 002047,0.00000190,-0.00000631,0.00003036,-0.00001065,0.00007905,0.0014
 8360,0.00058894,0.00070180,0.00745082,-0.00224636,-0.02446648,0.093713
 64,-0.02235080,-0.25040393,-0.00023927,0.00004078,0.00050354,-0.000018
 49,-0.00018463,0.00021063,0.00001817,-0.00006152,-0.00000359,-0.000031
 51,0.00005411,-0.00001544,-0.00000372,0.00000779,0.00000581,-0.0000018
 1,0.00000261,-0.00000452,-0.00000482,0.00000436,-0.00000037,-0.0000102
 2,-0.00000310,-0.00000666,-0.00013395,0.00021779,0.00041524,-0.0007711
 2,-0.00073407,0.00059177,-0.00454699,-0.00012215,-0.00185713,0.0004074
 8,0.00046140,0.00131922,0.00174980,-0.00013793,-0.00414925,-0.09978466
 ,0.02518607,0.27806238\\-0.00001380,0.00000412,0.00001582,0.00012170,0
 .00002233,-0.00000439,-0.00007376,0.00001673,0.00000530,0.00001868,-0.
 00000696,-0.00004126,-0.00003385,-0.00008423,0.00002546,-0.00000245,0.
 00004427,0.00000554,-0.00000922,0.00001931,-0.00000478,0.00002617,-0.0
 0000580,0.00001312,-0.00001686,0.00000817,0.00000333,-0.00000383,0.000
 01432,-0.00000192,-0.00002753,-0.00000359,-0.00001907,0.00003522,0.000
 01546,0.00000064,-0.00002152,-0.00006550,-0.00002727,-0.00000257,-0.00
 000683,-0.00001643,0.00001627,-0.00000476,0.00000044,-0.00002098,0.000
 00123,-0.00000969,-0.00001651,0.00000662,0.00000068,-0.00000511,-0.000
 00248,-0.00000432,0.00000090,0.00000124,0.00000639,0.00001012,-0.00000
 141,0.00000252,0.00001223,0.00001030,0.00000747,0.00001261,-0.00001643
 ,-0.00000037,-0.00000305,0.00001234,0.00001510,-0.00002054,-0.00000235
 ,0.00002542,-0.00001443,0.00000250,0.00000035,0.00002449,0.00000608,0.
 00000836,0.00000762,0.00001530,-0.00000645\\\@


 TIME IS IN FACT THE HERO OF THE PLOT. THE TIME
 WITH WHICH WE HAVE TO DEAL IS OF THE ORDER OF TWO
 BILLION YEARS...GIVEN SO MUCH TIME, THE "IMPOSSIBLE"
 BECOMES POSSIBLE, THE POSSIBLE PROBABLE, THE PROBABLE
 VIRTUALLY CERTAIN.  ONE HAS ONLY TO WAIT, TIME
 ITSELF PERFORMS THE MIRACLES.
 "ORIGIN OF LIFE" LECTURES, GEORGE WALD, 1954
 Job cpu time:       0 days  0 hours  2 minutes 45.2 seconds.
 Elapsed time:       0 days  0 hours  2 minutes 51.1 seconds.
 File lengths (MBytes):  RWF=    161 Int=      0 D2E=      0 Chk=     16 Scr=      1
 Normal termination of Gaussian 16 at Sat Feb 24 04:20:32 2024.
