 Entering Gaussian System, Link 0=g16
 Input=/Volumes/SSD-PMU3/b3lyp_6-31gd_freq/CJAUDSQXFVZPTO-LLVKDONJSA-N_calculating/gaussianinput0.gjf
 Output=/Volumes/SSD-PMU3/b3lyp_6-31gd_freq/CJAUDSQXFVZPTO-LLVKDONJSA-N_calculating/gaussianinput0.log
 Initial command:
 /Applications/g16/l1.exe "/Users/macmini_m1_2022/PycharmProjects/sphere_model/sphere_model_lib/Gau-91786.inp" -scrdir="/Users/macmini_m1_2022/PycharmProjects/sphere_model/sphere_model_lib/"
 Entering Link 1 = /Applications/g16/l1.exe PID=     91787.
  
 Copyright (c) 1988,1990,1992,1993,1995,1998,2003,2009,2016,
            Gaussian, Inc.  All Rights Reserved.
  
 This is part of the Gaussian(R) 16 program.  It is based on
 the Gaussian(R) 09 system (copyright 2009, Gaussian, Inc.),
 the Gaussian(R) 03 system (copyright 2003, Gaussian, Inc.),
 the Gaussian(R) 98 system (copyright 1998, Gaussian, Inc.),
 the Gaussian(R) 94 system (copyright 1995, Gaussian, Inc.),
 the Gaussian 92(TM) system (copyright 1992, Gaussian, Inc.),
 the Gaussian 90(TM) system (copyright 1990, Gaussian, Inc.),
 the Gaussian 88(TM) system (copyright 1988, Gaussian, Inc.),
 the Gaussian 86(TM) system (copyright 1986, Carnegie Mellon
 University), and the Gaussian 82(TM) system (copyright 1983,
 Carnegie Mellon University). Gaussian is a federally registered
 trademark of Gaussian, Inc.
  
 This software contains proprietary and confidential information,
 including trade secrets, belonging to Gaussian, Inc.
  
 This software is provided under written license and may be
 used, copied, transmitted, or stored only in accord with that
 written license.
  
 The following legend is applicable only to US Government
 contracts under FAR:
  
                    RESTRICTED RIGHTS LEGEND
  
 Use, reproduction and disclosure by the US Government is
 subject to restrictions as set forth in subparagraphs (a)
 and (c) of the Commercial Computer Software - Restricted
 Rights clause in FAR 52.227-19.
  
 Gaussian, Inc.
 340 Quinnipiac St., Bldg. 40, Wallingford CT 06492
  
  
 ---------------------------------------------------------------
 Warning -- This program may not be used in any manner that
 competes with the business of Gaussian, Inc. or will provide
 assistance to any competitor of Gaussian, Inc.  The licensee
 of this program is prohibited from giving any competitor of
 Gaussian, Inc. access to this program.  By using this program,
 the user acknowledges that Gaussian, Inc. is engaged in the
 business of creating and licensing software in the field of
 computational chemistry and represents and warrants to the
 licensee that it is not a competitor of Gaussian, Inc. and that
 it will not use this program in any manner prohibited above.
 ---------------------------------------------------------------
  

 Cite this work as:
 Gaussian 16, Revision A.03,
 M. J. Frisch, G. W. Trucks, H. B. Schlegel, G. E. Scuseria, 
 M. A. Robb, J. R. Cheeseman, G. Scalmani, V. Barone, 
 G. A. Petersson, H. Nakatsuji, X. Li, M. Caricato, A. V. Marenich, 
 J. Bloino, B. G. Janesko, R. Gomperts, B. Mennucci, H. P. Hratchian, 
 J. V. Ortiz, A. F. Izmaylov, J. L. Sonnenberg, D. Williams-Young, 
 F. Ding, F. Lipparini, F. Egidi, J. Goings, B. Peng, A. Petrone, 
 T. Henderson, D. Ranasinghe, V. G. Zakrzewski, J. Gao, N. Rega, 
 G. Zheng, W. Liang, M. Hada, M. Ehara, K. Toyota, R. Fukuda, 
 J. Hasegawa, M. Ishida, T. Nakajima, Y. Honda, O. Kitao, H. Nakai, 
 T. Vreven, K. Throssell, J. A. Montgomery, Jr., J. E. Peralta, 
 F. Ogliaro, M. J. Bearpark, J. J. Heyd, E. N. Brothers, K. N. Kudin, 
 V. N. Staroverov, T. A. Keith, R. Kobayashi, J. Normand, 
 K. Raghavachari, A. P. Rendell, J. C. Burant, S. S. Iyengar, 
 J. Tomasi, M. Cossi, J. M. Millam, M. Klene, C. Adamo, R. Cammi, 
 J. W. Ochterski, R. L. Martin, K. Morokuma, O. Farkas, 
 J. B. Foresman, and D. J. Fox, Gaussian, Inc., Wallingford CT, 2016.
 
 ******************************************
 Gaussian 16:  EM64M-G16RevA.03 25-Dec-2016
                24-Feb-2024 
 ******************************************
 %nprocshared=10
 Will use up to   10 processors via shared memory.
 %mem=12GB
 %chk= 0.chk
 ---------------------
 # freq b3lyp/6-31g(d)
 ---------------------
 1/10=4,30=1,38=1/1,3;
 2/12=2,17=6,18=5,40=1/2;
 3/5=1,6=6,7=1,11=2,25=1,30=1,71=2,74=-5,140=1/1,2,3;
 4//1;
 5/5=2,38=5,98=1/2;
 8/6=4,10=90,11=11/1;
 11/6=1,8=1,9=11,15=111,16=1/1,2,10;
 10/6=1/2;
 6/7=2,8=2,9=2,10=2,28=1/1;
 7/8=1,10=1,25=1/1,2,3,16;
 1/10=4,30=1/3;
 99//99;
 ---------
 good luck
 ---------
 Symbolic Z-matrix:
 Charge =  0 Multiplicity = 1
 O                     1.21638   0.        0. 
 C                     0.        0.        0. 
 C                    -0.81415  -1.28881   0.00397 
 C                    -1.90012  -1.29148   1.11382 
 C                    -2.72736  -2.56728   1.09535 
 C                    -3.5413   -2.89724   0.00109 
 C                    -4.29927  -4.06781  -0.00269 
 C                    -4.25711  -4.93606   1.09042 
 C                    -3.45148  -4.6221    2.18487 
 C                    -2.69576  -3.4481    2.18387 
 C                    -2.76271  -0.0136    1.02279 
 C                    -1.90348   1.25606   1.10166 
 C                    -0.82027   1.28332   0.00397 
 H                    -1.30596  -1.38067  -0.97609 
 H                    -0.13078  -2.1359    0.11178 
 H                    -1.37383  -1.25836   2.07862 
 H                    -3.58644  -2.2344   -0.86 
 H                    -4.92345  -4.30269  -0.86104 
 H                    -4.84671  -5.84886   1.08731 
 H                    -3.40893  -5.29002   3.04131 
 H                    -2.06976  -3.21141   3.04162 
 H                    -3.32691  -0.01778   0.07917 
 H                    -3.50592  -0.01796   1.82907 
 H                    -1.41863   1.3069    2.08639 
 H                    -2.53489   2.1487    1.01938 
 H                    -0.14056   2.13306   0.11534 
 H                    -1.30933   1.37166  -0.97862 
 

 GradGradGradGradGradGradGradGradGradGradGradGradGradGradGradGradGradGrad
 Berny optimization.
 Initialization pass.
 Trust Radius=3.00D-01 FncErr=1.00D-07 GrdErr=1.00D-07 EigMax=2.50D+02 EigMin=1.00D-04
 Number of steps in this run=      2 maximum allowed number of steps=      2.
 GradGradGradGradGradGradGradGradGradGradGradGradGradGradGradGradGradGrad

                          Input orientation:                          
 ---------------------------------------------------------------------
 Center     Atomic      Atomic             Coordinates (Angstroms)
 Number     Number       Type             X           Y           Z
 ---------------------------------------------------------------------
      1          8           0        1.216384    0.000000    0.000000
      2          6           0        0.000000    0.000000    0.000000
      3          6           0       -0.814153   -1.288806    0.003966
      4          6           0       -1.900121   -1.291479    1.113818
      5          6           0       -2.727364   -2.567279    1.095354
      6          6           0       -3.541295   -2.897236    0.001094
      7          6           0       -4.299267   -4.067806   -0.002687
      8          6           0       -4.257114   -4.936063    1.090420
      9          6           0       -3.451481   -4.622104    2.184874
     10          6           0       -2.695762   -3.448105    2.183866
     11          6           0       -2.762706   -0.013595    1.022789
     12          6           0       -1.903479    1.256055    1.101655
     13          6           0       -0.820274    1.283316    0.003966
     14          1           0       -1.305957   -1.380671   -0.976085
     15          1           0       -0.130777   -2.135901    0.111777
     16          1           0       -1.373834   -1.258364    2.078622
     17          1           0       -3.586436   -2.234404   -0.860003
     18          1           0       -4.923449   -4.302690   -0.861039
     19          1           0       -4.846709   -5.848856    1.087308
     20          1           0       -3.408926   -5.290015    3.041315
     21          1           0       -2.069760   -3.211413    3.041623
     22          1           0       -3.326912   -0.017779    0.079169
     23          1           0       -3.505916   -0.017957    1.829074
     24          1           0       -1.418630    1.306903    2.086386
     25          1           0       -2.534891    2.148702    1.019383
     26          1           0       -0.140557    2.133058    0.115338
     27          1           0       -1.309334    1.371662   -0.978615
 ---------------------------------------------------------------------
                    Distance matrix (angstroms):
                    1          2          3          4          5
     1  O    0.000000
     2  C    1.216384   0.000000
     3  C    2.405019   1.524428   0.000000
     4  C    3.552620   2.553227   1.552773   0.000000
     5  C    4.831549   3.902465   2.546762   1.520637   0.000000
     6  C    5.570412   4.575451   3.166127   2.551482   1.403125
     7  C    6.853427   5.918678   4.457455   3.835424   2.434780
     8  C    7.450699   6.608839   5.131944   4.340387   2.819804
     9  C    6.922896   6.168488   4.777315   3.827132   2.435920
    10  C    5.653635   4.891404   3.599304   2.535564   1.400611
    11  C    4.108459   2.945985   2.541854   1.544450   2.554959
    12  C    3.539048   2.532696   2.977897   2.547565   3.911101
    13  C    2.407258   1.523078   2.572129   3.004565   4.433419
    14  H    3.036643   2.136473   1.100368   2.174553   2.778362
    15  H    2.527728   2.142818   1.093707   2.201752   2.809942
    16  H    3.551532   2.791338   2.149039   1.099510   2.124175
    17  H    5.366493   4.312156   3.053875   2.762017   2.161535
    18  H    7.546660   6.595065   5.168950   4.701911   3.414954
    19  H    8.494260   7.673457   6.182976   5.427041   3.906461
    20  H    7.656850   6.989609   5.654026   4.688286   3.415345
    21  H    5.510298   4.883498   3.807929   2.726051   2.152978
    22  H    4.544021   3.327901   2.816935   2.174521   2.809277
    23  H    5.064183   3.954400   3.491656   2.170720   2.764694
    24  H    3.606148   2.841393   3.382243   2.815903   4.207638
    25  H    4.441636   3.475879   3.975987   3.499528   4.720518
    26  H    2.530717   2.140793   3.489311   3.977497   5.453913
    27  H    3.036181   2.133893   2.879021   3.437968   4.671982
                    6          7          8          9         10
     6  C    0.000000
     7  C    1.394550   0.000000
     8  C    2.419885   1.396614   0.000000
     9  C    2.784265   2.410687   1.394792   0.000000
    10  C    2.404761   2.781415   2.418153   1.396204   0.000000
    11  C    3.156810   4.455249   5.144757   4.802417   3.626078
    12  C    4.598206   5.941622   6.624353   6.174336   4.891627
    13  C    4.988084   6.382628   7.188388   6.823020   5.536765
    14  H    2.872557   4.138611   5.061678   5.010172   4.023821
    15  H    3.496214   4.595832   5.081861   4.637457   3.548884
    16  H    3.420513   4.558834   4.776538   3.955079   2.559987
    17  H    1.087599   2.145806   3.398959   3.871770   3.395808
    18  H    2.151493   1.086987   2.157164   3.397985   3.868378
    19  H    3.405294   2.158685   1.086657   2.157831   3.404793
    20  H    3.871157   3.398890   2.156547   1.086926   2.153243
    21  H    3.392483   3.869358   3.400901   2.152492   1.087956
    22  H    2.888482   4.165920   5.106606   5.064516   4.073725
    23  H    3.410720   4.515089   5.029679   4.618195   3.542336
    24  H    5.150625   6.445913   6.929904   6.268597   4.924497
    25  H    5.245117   6.542371   7.291433   6.931257   5.718929
    26  H    6.073049   7.467229   8.238282   7.802398   6.477442
    27  H    4.915788   6.283307   7.263450   7.107861   5.929049
                   11         12         13         14         15
    11  C    0.000000
    12  C    1.535090   0.000000
    13  C    2.548141   1.542400   0.000000
    14  H    2.826042   3.409745   2.879794   0.000000
    15  H    3.501596   3.953188   3.489710   1.770555   0.000000
    16  H    2.143175   2.749053   3.327276   3.057908   2.486713
    17  H    3.025794   4.343242   4.557680   2.437810   3.591050
    18  H    5.158871   6.623597   6.984822   4.651632   5.348930
    19  H    6.196572   7.690421   8.261579   6.062936   6.080930
    20  H    5.686181   6.991401   7.689947   5.987065   5.410812
    21  H    3.844724   4.873335   5.566971   4.480735   3.674286
    22  H    1.099438   2.166632   2.825197   2.656180   3.834421
    23  H    1.096574   2.172567   3.498143   3.816507   4.338935
    24  H    2.163676   1.098799   2.166809   4.076086   4.172595
    25  H    2.174268   1.096480   2.172528   4.236584   4.996132
    26  H    3.508169   2.202237   1.093837   3.859489   4.268972
    27  H    2.834933   2.166540   1.101113   2.752336   3.857583
                   16         17         18         19         20
    16  H    0.000000
    17  H    3.805756   0.000000
    18  H    5.523522   2.462806   0.000000
    19  H    5.840906   4.294714   2.488488   0.000000
    20  H    4.617639   4.958684   4.300809   2.489511   0.000000
    21  H    2.286063   4.298551   4.956329   4.299639   2.472641
    22  H    3.058002   2.421327   4.668338   6.109631   6.047934
    23  H    2.479245   3.485722   5.254050   6.028874   5.410502
    24  H    2.565670   5.091311   7.241450   7.997173   6.956471
    25  H    3.752085   4.883591   7.131736   8.325266   7.758006
    26  H    4.108187   5.648017   8.077637   9.316842   8.622389
    27  H    4.033348   4.266494   6.728590   8.301623   8.058912
                   21         22         23         24         25
    21  H    0.000000
    22  H    4.533857   0.000000
    23  H    3.705534   1.759037   0.000000
    24  H    4.663864   3.070056   2.485604   0.000000
    25  H    5.747750   2.490972   2.508565   1.758738   0.000000
    26  H    6.391270   3.844511   4.346193   2.490187   2.559371
    27  H    6.143707   2.668347   3.826112   3.067633   2.469368
                   26         27
    26  H    0.000000
    27  H    1.772709   0.000000
 Stoichiometry    C12H14O
 Framework group  C1[X(C12H14O)]
 Deg. of freedom    75
 Full point group                 C1      NOp   1
 Largest Abelian subgroup         C1      NOp   1
 Largest concise Abelian subgroup C1      NOp   1
                         Standard orientation:                         
 ---------------------------------------------------------------------
 Center     Atomic      Atomic             Coordinates (Angstroms)
 Number     Number       Type             X           Y           Z
 ---------------------------------------------------------------------
      1          8           0       -3.316114   -1.834805    0.067934
      2          6           0       -2.635079   -0.847038    0.268177
      3          6           0       -1.128430   -0.927392    0.485975
      4          6           0       -0.351755    0.059543   -0.427173
      5          6           0        1.148260   -0.004849   -0.186033
      6          6           0        1.708701    0.361061    1.047164
      7          6           0        3.086384    0.302401    1.255294
      8          6           0        3.934276   -0.126618    0.231794
      9          6           0        3.391546   -0.494980   -0.999140
     10          6           0        2.011612   -0.432976   -1.202419
     11          6           0       -0.923782    1.486845   -0.282531
     12          6           0       -2.427631    1.527526   -0.587955
     13          6           0       -3.220972    0.558157    0.312008
     14          1           0       -0.925227   -0.675044    1.537564
     15          1           0       -0.804591   -1.959582    0.325016
     16          1           0       -0.528677   -0.256090   -1.465439
     17          1           0        1.064681    0.696544    1.856831
     18          1           0        3.498502    0.591612    2.218652
     19          1           0        5.007731   -0.173562    0.394011
     20          1           0        4.040455   -0.831734   -1.803454
     21          1           0        1.596912   -0.722682   -2.165614
     22          1           0       -0.746026    1.851958    0.739163
     23          1           0       -0.383170    2.165309   -0.953278
     24          1           0       -2.592814    1.257664   -1.640213
     25          1           0       -2.813853    2.546192   -0.463779
     26          1           0       -4.277266    0.506022    0.032715
     27          1           0       -3.166535    0.911768    1.353375
 ---------------------------------------------------------------------
 Rotational constants (GHZ):           1.9093682           0.4125612           0.3931745
 Standard basis: 6-31G(d) (6D, 7F)
 There are   223 symmetry adapted cartesian basis functions of A   symmetry.
 There are   223 symmetry adapted basis functions of A   symmetry.
   223 basis functions,   420 primitive gaussians,   223 cartesian basis functions
    47 alpha electrons       47 beta electrons
       nuclear repulsion energy       749.6203178546 Hartrees.
 NAtoms=   27 NActive=   27 NUniq=   27 SFac= 1.00D+00 NAtFMM=   60 NAOKFM=F Big=F
 Integral buffers will be    131072 words long.
 Raffenetti 2 integral format.
 Two-electron integral symmetry is turned on.
 One-electron integrals computed using PRISM.
 NBasis=   223 RedAO= T EigKep=  4.60D-04  NBF=   223
 NBsUse=   223 1.00D-06 EigRej= -1.00D+00 NBFU=   223
 ExpMin= 1.61D-01 ExpMax= 5.48D+03 ExpMxC= 8.25D+02 IAcc=3 IRadAn=         5 AccDes= 0.00D+00
 Harris functional with IExCor=  402 and IRadAn=       5 diagonalized for initial guess.
 HarFok:  IExCor=  402 AccDes= 0.00D+00 IRadAn=         5 IDoV= 1 UseB2=F ITyADJ=14
 ICtDFT=  3500011 ScaDFX=  1.000000  1.000000  1.000000  1.000000
 FoFCou: FMM=F IPFlag=           0 FMFlag=      100000 FMFlg1=           0
         NFxFlg=           0 DoJE=T BraDBF=F KetDBF=T FulRan=T
         wScrn=  0.000000 ICntrl=       500 IOpCl=  0 I1Cent=   200000004 NGrid=           0
         NMat0=    1 NMatS0=      1 NMatT0=    0 NMatD0=    1 NMtDS0=    0 NMtDT0=    0
 Petite list used in FoFCou.
 Requested convergence on RMS density matrix=1.00D-08 within 128 cycles.
 Requested convergence on MAX density matrix=1.00D-06.
 Requested convergence on             energy=1.00D-06.
 No special actions if energy rises.
 Integral accuracy reduced to 1.0D-05 until final iterations.
 Initial convergence to 1.0D-05 achieved.  Increase integral accuracy.
 SCF Done:  E(RB3LYP) =  -540.940721911     A.U. after   14 cycles
            NFock= 14  Conv=0.57D-08     -V/T= 2.0097
 DoSCS=F DFT=T ScalE2(SS,OS)=  1.000000  1.000000
 Range of M.O.s used for correlation:     1   223
 NBasis=   223 NAE=    47 NBE=    47 NFC=     0 NFV=     0
 NROrb=    223 NOA=    47 NOB=    47 NVA=   176 NVB=   176
 Symmetrizing basis deriv contribution to polar:
 IMax=3 JMax=2 DiffMx= 0.00D+00
 G2DrvN: will do    28 centers at a time, making    1 passes.
 Calling FoFCou, ICntrl=  3107 FMM=F I1Cent=   0 AccDes= 0.00D+00.
 End of G2Drv F.D. properties file   721 does not exist.
 End of G2Drv F.D. properties file   722 does not exist.
 End of G2Drv F.D. properties file   788 does not exist.
          IDoAtm=111111111111111111111111111
          Differentiating once with respect to electric field.
                with respect to dipole field.
          Differentiating once with respect to nuclear coordinates.
 Keep R1 ints in memory in canonical form, NReq=322414355.
          There are    84 degrees of freedom in the 1st order CPHF.  IDoFFX=6 NUNeed=     3.
     81 vectors produced by pass  0 Test12= 9.85D-15 1.19D-09 XBig12= 1.45D+02 5.36D+00.
 AX will form    81 AO Fock derivatives at one time.
     81 vectors produced by pass  1 Test12= 9.85D-15 1.19D-09 XBig12= 2.32D+01 1.18D+00.
     81 vectors produced by pass  2 Test12= 9.85D-15 1.19D-09 XBig12= 1.85D-01 6.22D-02.
     81 vectors produced by pass  3 Test12= 9.85D-15 1.19D-09 XBig12= 4.88D-04 1.98D-03.
     81 vectors produced by pass  4 Test12= 9.85D-15 1.19D-09 XBig12= 4.92D-07 5.37D-05.
     48 vectors produced by pass  5 Test12= 9.85D-15 1.19D-09 XBig12= 3.49D-10 1.41D-06.
      3 vectors produced by pass  6 Test12= 9.85D-15 1.19D-09 XBig12= 2.25D-13 4.49D-08.
      2 vectors produced by pass  7 Test12= 9.85D-15 1.19D-09 XBig12= 1.77D-16 1.60D-09.
 InvSVY:  IOpt=1 It=  1 EMax= 7.11D-15
 Solved reduced A of dimension   458 with    84 vectors.
 Isotropic polarizability for W=    0.000000      120.20 Bohr**3.
 End of Minotr F.D. properties file   721 does not exist.
 End of Minotr F.D. properties file   722 does not exist.
 End of Minotr F.D. properties file   788 does not exist.

 **********************************************************************

            Population analysis using the SCF density.

 **********************************************************************

 Orbital symmetries:
       Occupied  (A) (A) (A) (A) (A) (A) (A) (A) (A) (A) (A) (A)
                 (A) (A) (A) (A) (A) (A) (A) (A) (A) (A) (A) (A)
                 (A) (A) (A) (A) (A) (A) (A) (A) (A) (A) (A) (A)
                 (A) (A) (A) (A) (A) (A) (A) (A) (A) (A) (A)
       Virtual   (A) (A) (A) (A) (A) (A) (A) (A) (A) (A) (A) (A)
                 (A) (A) (A) (A) (A) (A) (A) (A) (A) (A) (A) (A)
                 (A) (A) (A) (A) (A) (A) (A) (A) (A) (A) (A) (A)
                 (A) (A) (A) (A) (A) (A) (A) (A) (A) (A) (A) (A)
                 (A) (A) (A) (A) (A) (A) (A) (A) (A) (A) (A) (A)
                 (A) (A) (A) (A) (A) (A) (A) (A) (A) (A) (A) (A)
                 (A) (A) (A) (A) (A) (A) (A) (A) (A) (A) (A) (A)
                 (A) (A) (A) (A) (A) (A) (A) (A) (A) (A) (A) (A)
                 (A) (A) (A) (A) (A) (A) (A) (A) (A) (A) (A) (A)
                 (A) (A) (A) (A) (A) (A) (A) (A) (A) (A) (A) (A)
                 (A) (A) (A) (A) (A) (A) (A) (A) (A) (A) (A) (A)
                 (A) (A) (A) (A) (A) (A) (A) (A) (A) (A) (A) (A)
                 (A) (A) (A) (A) (A) (A) (A) (A) (A) (A) (A) (A)
                 (A) (A) (A) (A) (A) (A) (A) (A) (A) (A) (A) (A)
                 (A) (A) (A) (A) (A) (A) (A) (A)
 The electronic state is 1-A.
 Alpha  occ. eigenvalues --  -19.13363 -10.26964 -10.20580 -10.19801 -10.19630
 Alpha  occ. eigenvalues --  -10.19247 -10.19235 -10.19191 -10.19160 -10.19140
 Alpha  occ. eigenvalues --  -10.19102 -10.19048 -10.19008  -1.03235  -0.86165
 Alpha  occ. eigenvalues --   -0.83163  -0.77513  -0.74516  -0.73451  -0.71993
 Alpha  occ. eigenvalues --   -0.63689  -0.61074  -0.60168  -0.57210  -0.53277
 Alpha  occ. eigenvalues --   -0.51099  -0.47799  -0.46719  -0.45942  -0.44337
 Alpha  occ. eigenvalues --   -0.43667  -0.43530  -0.42252  -0.41727  -0.40342
 Alpha  occ. eigenvalues --   -0.39600  -0.36817  -0.35994  -0.35892  -0.35602
 Alpha  occ. eigenvalues --   -0.34416  -0.33053  -0.32775  -0.32061  -0.25140
 Alpha  occ. eigenvalues --   -0.24746  -0.23334
 Alpha virt. eigenvalues --   -0.01734  -0.00193   0.00176   0.08479   0.09425
 Alpha virt. eigenvalues --    0.09649   0.12617   0.13515   0.14006   0.15382
 Alpha virt. eigenvalues --    0.15571   0.15917   0.16485   0.16816   0.17160
 Alpha virt. eigenvalues --    0.17358   0.19396   0.20519   0.22007   0.22524
 Alpha virt. eigenvalues --    0.23540   0.24871   0.26986   0.27619   0.30428
 Alpha virt. eigenvalues --    0.32146   0.33018   0.33291   0.34768   0.37074
 Alpha virt. eigenvalues --    0.46674   0.50358   0.51802   0.52320   0.53287
 Alpha virt. eigenvalues --    0.53883   0.55179   0.55703   0.55967   0.56472
 Alpha virt. eigenvalues --    0.58688   0.59341   0.59806   0.60678   0.60953
 Alpha virt. eigenvalues --    0.62005   0.62349   0.63585   0.63890   0.67040
 Alpha virt. eigenvalues --    0.67489   0.69235   0.70043   0.72432   0.74349
 Alpha virt. eigenvalues --    0.75411   0.76791   0.77687   0.80870   0.82305
 Alpha virt. eigenvalues --    0.82935   0.83674   0.84127   0.85046   0.85266
 Alpha virt. eigenvalues --    0.86551   0.88058   0.88420   0.89467   0.91097
 Alpha virt. eigenvalues --    0.92865   0.93123   0.94384   0.94630   0.94870
 Alpha virt. eigenvalues --    0.97534   0.97795   0.99224   1.01549   1.04468
 Alpha virt. eigenvalues --    1.08760   1.10137   1.10670   1.11757   1.13625
 Alpha virt. eigenvalues --    1.17144   1.18367   1.20439   1.25016   1.26051
 Alpha virt. eigenvalues --    1.33696   1.39153   1.39909   1.42931   1.43989
 Alpha virt. eigenvalues --    1.45768   1.47833   1.48855   1.49878   1.51247
 Alpha virt. eigenvalues --    1.52129   1.52566   1.63533   1.66458   1.68422
 Alpha virt. eigenvalues --    1.70121   1.72068   1.77183   1.77667   1.80371
 Alpha virt. eigenvalues --    1.81575   1.82457   1.83617   1.85608   1.87040
 Alpha virt. eigenvalues --    1.89280   1.91834   1.92232   1.94862   1.97081
 Alpha virt. eigenvalues --    1.98100   2.00478   2.02797   2.03286   2.04158
 Alpha virt. eigenvalues --    2.06289   2.06911   2.10461   2.12211   2.13761
 Alpha virt. eigenvalues --    2.14581   2.16834   2.18185   2.20296   2.27697
 Alpha virt. eigenvalues --    2.30343   2.30899   2.31231   2.34579   2.36955
 Alpha virt. eigenvalues --    2.38624   2.42120   2.43372   2.46962   2.50916
 Alpha virt. eigenvalues --    2.54168   2.58031   2.60434   2.62474   2.63957
 Alpha virt. eigenvalues --    2.65879   2.69175   2.72404   2.73484   2.74910
 Alpha virt. eigenvalues --    2.75466   2.76800   2.81428   2.93503   2.98414
 Alpha virt. eigenvalues --    3.02036   3.07343   3.40814   3.99527   4.08932
 Alpha virt. eigenvalues --    4.11460   4.13527   4.17667   4.25441   4.27714
 Alpha virt. eigenvalues --    4.33014   4.39814   4.52654   4.57574   4.62368
 Alpha virt. eigenvalues --    4.71488
          Condensed to atoms (all electrons):
               1          2          3          4          5          6
     1  O    7.993473   0.593064  -0.077167   0.000702  -0.000079   0.000000
     2  C    0.593064   4.484333   0.303458  -0.018206   0.002401   0.000223
     3  C   -0.077167   0.303458   5.379694   0.319290  -0.034056  -0.005691
     4  C    0.000702  -0.018206   0.319290   5.106356   0.352375  -0.062015
     5  C   -0.000079   0.002401  -0.034056   0.352375   4.649375   0.532351
     6  C    0.000000   0.000223  -0.005691  -0.062015   0.532351   4.990277
     7  C    0.000000   0.000001   0.000162   0.005940  -0.015088   0.525950
     8  C    0.000000  -0.000000   0.000013   0.000379  -0.033896  -0.036258
     9  C   -0.000000   0.000001  -0.000223   0.006807  -0.019836  -0.046549
    10  C   -0.000000  -0.000063  -0.000377  -0.041444   0.551252  -0.046897
    11  C    0.000058  -0.012934  -0.047141   0.361008  -0.035728  -0.006305
    12  C    0.001363  -0.026077  -0.002463  -0.037263   0.004215   0.000222
    13  C   -0.079242   0.325661  -0.137095  -0.003746  -0.000154  -0.000009
    14  H    0.001289  -0.025982   0.342062  -0.034585  -0.008820   0.003913
    15  H    0.004554  -0.022667   0.342281  -0.027691  -0.000642   0.000039
    16  H    0.000542  -0.001460  -0.050058   0.364577  -0.042950   0.005677
    17  H    0.000000  -0.000075   0.000434  -0.008407  -0.048429   0.353296
    18  H    0.000000  -0.000000  -0.000001  -0.000177   0.003434  -0.039896
    19  H    0.000000  -0.000000   0.000000   0.000007   0.000732   0.004738
    20  H    0.000000  -0.000000   0.000002  -0.000173   0.003686   0.000834
    21  H   -0.000000  -0.000010   0.000200  -0.011733  -0.042253   0.006480
    22  H   -0.000006  -0.001247  -0.004821  -0.041289  -0.006097   0.003533
    23  H    0.000001   0.000235   0.005157  -0.033193  -0.000121   0.000132
    24  H    0.000445  -0.002600   0.000289  -0.006283  -0.000006   0.000002
    25  H   -0.000068   0.003062  -0.000283   0.004320  -0.000118  -0.000003
    26  H    0.004866  -0.023440   0.006560  -0.000028   0.000009   0.000000
    27  H    0.001369  -0.028162   0.003746  -0.001779  -0.000013  -0.000012
               7          8          9         10         11         12
     1  O    0.000000   0.000000  -0.000000  -0.000000   0.000058   0.001363
     2  C    0.000001  -0.000000   0.000001  -0.000063  -0.012934  -0.026077
     3  C    0.000162   0.000013  -0.000223  -0.000377  -0.047141  -0.002463
     4  C    0.005940   0.000379   0.006807  -0.041444   0.361008  -0.037263
     5  C   -0.015088  -0.033896  -0.019836   0.551252  -0.035728   0.004215
     6  C    0.525950  -0.036258  -0.046549  -0.046897  -0.006305   0.000222
     7  C    4.861753   0.548992  -0.026570  -0.045629   0.000185   0.000000
     8  C    0.548992   4.851508   0.553161  -0.036495   0.000017  -0.000000
     9  C   -0.026570   0.553161   4.870935   0.516919  -0.000219   0.000002
    10  C   -0.045629  -0.036495   0.516919   4.976638  -0.000111  -0.000061
    11  C    0.000185   0.000017  -0.000219  -0.000111   5.072492   0.354416
    12  C    0.000000  -0.000000   0.000002  -0.000061   0.354416   5.038780
    13  C   -0.000000   0.000000  -0.000000  -0.000004  -0.044133   0.335280
    14  H   -0.000095  -0.000003   0.000008   0.000056  -0.004747  -0.001141
    15  H   -0.000043  -0.000006  -0.000044   0.001190   0.004694  -0.000234
    16  H   -0.000182  -0.000002   0.000308  -0.006723  -0.047163  -0.004469
    17  H   -0.043901   0.004776   0.000414   0.005976   0.000727  -0.000117
    18  H    0.356876  -0.042702   0.004576   0.000880  -0.000001  -0.000000
    19  H   -0.042852   0.358728  -0.043006   0.004637   0.000000  -0.000000
    20  H    0.004586  -0.043228   0.356490  -0.038894   0.000002  -0.000000
    21  H    0.000363   0.004781  -0.046520   0.352263   0.000172  -0.000015
    22  H   -0.000064  -0.000003   0.000008   0.000047   0.368546  -0.040143
    23  H   -0.000057  -0.000009  -0.000040   0.001245   0.364712  -0.029744
    24  H    0.000000   0.000000   0.000000  -0.000007  -0.038392   0.376049
    25  H   -0.000000   0.000000  -0.000000   0.000001  -0.029079   0.368081
    26  H    0.000000  -0.000000   0.000000  -0.000000   0.004041  -0.025518
    27  H   -0.000000  -0.000000  -0.000000   0.000000  -0.002643  -0.036264
              13         14         15         16         17         18
     1  O   -0.079242   0.001289   0.004554   0.000542   0.000000   0.000000
     2  C    0.325661  -0.025982  -0.022667  -0.001460  -0.000075  -0.000000
     3  C   -0.137095   0.342062   0.342281  -0.050058   0.000434  -0.000001
     4  C   -0.003746  -0.034585  -0.027691   0.364577  -0.008407  -0.000177
     5  C   -0.000154  -0.008820  -0.000642  -0.042950  -0.048429   0.003434
     6  C   -0.000009   0.003913   0.000039   0.005677   0.353296  -0.039896
     7  C   -0.000000  -0.000095  -0.000043  -0.000182  -0.043901   0.356876
     8  C    0.000000  -0.000003  -0.000006  -0.000002   0.004776  -0.042702
     9  C   -0.000000   0.000008  -0.000044   0.000308   0.000414   0.004576
    10  C   -0.000004   0.000056   0.001190  -0.006723   0.005976   0.000880
    11  C   -0.044133  -0.004747   0.004694  -0.047163   0.000727  -0.000001
    12  C    0.335280  -0.001141  -0.000234  -0.004469  -0.000117  -0.000000
    13  C    5.315401   0.003159   0.006466   0.000272   0.000021  -0.000000
    14  H    0.003159   0.582797  -0.026071   0.006162   0.002883   0.000007
    15  H    0.006466  -0.026071   0.553390  -0.003573   0.000114   0.000000
    16  H    0.000272   0.006162  -0.003573   0.626745   0.000028   0.000003
    17  H    0.000021   0.002883   0.000114   0.000028   0.611963  -0.005631
    18  H   -0.000000   0.000007   0.000000   0.000003  -0.005631   0.598134
    19  H    0.000000  -0.000000  -0.000000  -0.000000  -0.000186  -0.005447
    20  H    0.000000   0.000000   0.000001  -0.000012   0.000018  -0.000189
    21  H    0.000001   0.000004   0.000072   0.008561  -0.000181   0.000018
    22  H   -0.003538   0.004351  -0.000032   0.006215   0.003013   0.000005
    23  H    0.004450  -0.000024  -0.000147  -0.004189   0.000095   0.000000
    24  H   -0.042979   0.000091  -0.000042   0.005421   0.000000   0.000000
    25  H   -0.028421  -0.000008   0.000017  -0.000019   0.000006   0.000000
    26  H    0.344458  -0.000132  -0.000175  -0.000052  -0.000000  -0.000000
    27  H    0.346612   0.001256  -0.000132   0.000117  -0.000007   0.000000
              19         20         21         22         23         24
     1  O    0.000000   0.000000  -0.000000  -0.000006   0.000001   0.000445
     2  C   -0.000000  -0.000000  -0.000010  -0.001247   0.000235  -0.002600
     3  C    0.000000   0.000002   0.000200  -0.004821   0.005157   0.000289
     4  C    0.000007  -0.000173  -0.011733  -0.041289  -0.033193  -0.006283
     5  C    0.000732   0.003686  -0.042253  -0.006097  -0.000121  -0.000006
     6  C    0.004738   0.000834   0.006480   0.003533   0.000132   0.000002
     7  C   -0.042852   0.004586   0.000363  -0.000064  -0.000057   0.000000
     8  C    0.358728  -0.043228   0.004781  -0.000003  -0.000009   0.000000
     9  C   -0.043006   0.356490  -0.046520   0.000008  -0.000040   0.000000
    10  C    0.004637  -0.038894   0.352263   0.000047   0.001245  -0.000007
    11  C    0.000000   0.000002   0.000172   0.368546   0.364712  -0.038392
    12  C   -0.000000  -0.000000  -0.000015  -0.040143  -0.029744   0.376049
    13  C    0.000000   0.000000   0.000001  -0.003538   0.004450  -0.042979
    14  H   -0.000000   0.000000   0.000004   0.004351  -0.000024   0.000091
    15  H   -0.000000   0.000001   0.000072  -0.000032  -0.000147  -0.000042
    16  H   -0.000000  -0.000012   0.008561   0.006215  -0.004189   0.005421
    17  H   -0.000186   0.000018  -0.000181   0.003013   0.000095   0.000000
    18  H   -0.005447  -0.000189   0.000018   0.000005   0.000000   0.000000
    19  H    0.598230  -0.005552  -0.000180  -0.000000  -0.000000   0.000000
    20  H   -0.005552   0.597125  -0.005559   0.000000   0.000001  -0.000000
    21  H   -0.000180  -0.005559   0.606606   0.000003   0.000053  -0.000002
    22  H   -0.000000   0.000000   0.000003   0.605735  -0.034681   0.005693
    23  H   -0.000000   0.000001   0.000053  -0.034681   0.585189  -0.003949
    24  H    0.000000  -0.000000  -0.000002   0.005693  -0.003949   0.594425
    25  H   -0.000000   0.000000   0.000000  -0.004140  -0.002321  -0.036618
    26  H   -0.000000  -0.000000  -0.000000  -0.000027  -0.000141  -0.003279
    27  H    0.000000  -0.000000  -0.000000   0.004713  -0.000034   0.005754
              25         26         27
     1  O   -0.000068   0.004866   0.001369
     2  C    0.003062  -0.023440  -0.028162
     3  C   -0.000283   0.006560   0.003746
     4  C    0.004320  -0.000028  -0.001779
     5  C   -0.000118   0.000009  -0.000013
     6  C   -0.000003   0.000000  -0.000012
     7  C   -0.000000   0.000000  -0.000000
     8  C    0.000000  -0.000000  -0.000000
     9  C   -0.000000   0.000000  -0.000000
    10  C    0.000001  -0.000000   0.000000
    11  C   -0.029079   0.004041  -0.002643
    12  C    0.368081  -0.025518  -0.036264
    13  C   -0.028421   0.344458   0.346612
    14  H   -0.000008  -0.000132   0.001256
    15  H    0.000017  -0.000175  -0.000132
    16  H   -0.000019  -0.000052   0.000117
    17  H    0.000006  -0.000000  -0.000007
    18  H    0.000000  -0.000000   0.000000
    19  H   -0.000000  -0.000000   0.000000
    20  H    0.000000  -0.000000  -0.000000
    21  H    0.000000  -0.000000  -0.000000
    22  H   -0.004140  -0.000027   0.004713
    23  H   -0.002321  -0.000141  -0.000034
    24  H   -0.036618  -0.003279   0.005754
    25  H    0.589209  -0.002337  -0.006444
    26  H   -0.002337   0.557965  -0.026608
    27  H   -0.006444  -0.026608   0.585847
 Mulliken charges:
               1
     1  O   -0.445164
     2  C    0.450483
     3  C   -0.343972
     4  C   -0.193749
     5  C    0.188457
     6  C   -0.184034
     7  C   -0.130329
     8  C   -0.129752
     9  C   -0.126622
    10  C   -0.194401
    11  C   -0.262476
    12  C   -0.274899
    13  C   -0.342460
    14  H    0.153570
    15  H    0.168680
    16  H    0.136222
    17  H    0.123170
    18  H    0.130112
    19  H    0.130149
    20  H    0.130863
    21  H    0.126875
    22  H    0.134227
    23  H    0.147377
    24  H    0.145986
    25  H    0.145164
    26  H    0.163839
    27  H    0.152682
 Sum of Mulliken charges =  -0.00000
 Mulliken charges with hydrogens summed into heavy atoms:
               1
     1  O   -0.445164
     2  C    0.450483
     3  C   -0.021722
     4  C   -0.057528
     5  C    0.188457
     6  C   -0.060864
     7  C   -0.000217
     8  C    0.000397
     9  C    0.004241
    10  C   -0.067526
    11  C    0.019129
    12  C    0.016252
    13  C   -0.025938
 APT charges:
               1
     1  O   -0.679649
     2  C    0.792366
     3  C   -0.121548
     4  C    0.165508
     5  C    0.060988
     6  C   -0.079628
     7  C    0.015495
     8  C   -0.042000
     9  C    0.009092
    10  C   -0.063037
    11  C    0.064776
    12  C    0.151379
    13  C   -0.062789
    14  H    0.005137
    15  H   -0.015102
    16  H   -0.056400
    17  H    0.019878
    18  H    0.008407
    19  H    0.012888
    20  H    0.008484
    21  H    0.017016
    22  H   -0.033256
    23  H   -0.036427
    24  H   -0.042132
    25  H   -0.062651
    26  H   -0.026887
    27  H   -0.009907
 Sum of APT charges =  -0.00000
 APT charges with hydrogens summed into heavy atoms:
               1
     1  O   -0.679649
     2  C    0.792366
     3  C   -0.131514
     4  C    0.109108
     5  C    0.060988
     6  C   -0.059751
     7  C    0.023902
     8  C   -0.029112
     9  C    0.017576
    10  C   -0.046020
    11  C   -0.004907
    12  C    0.046596
    13  C   -0.099583
 Electronic spatial extent (au):  <R**2>=           2926.1987
 Charge=             -0.0000 electrons
 Dipole moment (field-independent basis, Debye):
    X=              1.7147    Y=              2.4905    Z=              0.2782  Tot=              3.0365
 Quadrupole moment (field-independent basis, Debye-Ang):
   XX=            -81.0909   YY=            -83.3211   ZZ=            -72.0960
   XY=            -10.2018   XZ=             -0.6218   YZ=              1.8218
 Traceless Quadrupole moment (field-independent basis, Debye-Ang):
   XX=             -2.2549   YY=             -4.4851   ZZ=              6.7400
   XY=            -10.2018   XZ=             -0.6218   YZ=              1.8218
 Octapole moment (field-independent basis, Debye-Ang**2):
  XXX=             44.8862  YYY=              5.9872  ZZZ=              1.1706  XYY=              5.3861
  XXY=             28.7168  XXZ=              2.8747  XZZ=             -1.3092  YZZ=             -2.2990
  YYZ=             -0.6292  XYZ=              5.4734
 Hexadecapole moment (field-independent basis, Debye-Ang**3):
 XXXX=          -2971.7610 YYYY=           -529.1180 ZZZZ=           -366.2557 XXXY=           -117.0117
 XXXZ=              2.0735 YYYX=            -19.1307 YYYZ=             -2.3969 ZZZX=             -1.1269
 ZZZY=             10.7556 XXYY=           -672.6430 XXZZ=           -535.1006 YYZZ=           -148.3678
 XXYZ=             18.4071 YYXZ=             -2.9245 ZZXY=              7.5858
 N-N= 7.496203178546D+02 E-N=-2.753817716283D+03  KE= 5.357276829043D+02
  Exact polarizability: 162.877  -3.233  89.178   2.340  11.613 108.554
 Approx polarizability: 218.304   0.991 136.122   5.034  28.881 187.233
 Calling FoFJK, ICntrl=    100127 FMM=F ISym2X=0 I1Cent= 0 IOpClX= 0 NMat=1 NMatS=1 NMatT=0.
 Full mass-weighted force constant matrix:
 Low frequencies ---   -5.3114   -3.6608   -1.6071   -0.0009   -0.0008   -0.0006
 Low frequencies ---   34.6637   79.6204   84.1410
 Diagonal vibrational polarizability:
       10.2820981       6.9193075      22.9185159
 Harmonic frequencies (cm**-1), IR intensities (KM/Mole), Raman scattering
 activities (A**4/AMU), depolarization ratios for plane and unpolarized
 incident light, reduced masses (AMU), force constants (mDyne/A),
 and normal coordinates:
                      1                      2                      3
                      A                      A                      A
 Frequencies --     34.6578                79.6200                84.1406
 Red. masses --      3.9766                 4.1448                 3.9552
 Frc consts  --      0.0028                 0.0155                 0.0165
 IR Inten    --      0.6477                 1.2807                 1.1294
  Atom  AN      X      Y      Z        X      Y      Z        X      Y      Z
     1   8    -0.06   0.03   0.16    -0.04  -0.02   0.23    -0.14   0.11  -0.11
     2   6    -0.03   0.03   0.06     0.03  -0.02   0.01    -0.05   0.02   0.01
     3   6    -0.03   0.01   0.05     0.06  -0.05  -0.26    -0.04  -0.12  -0.06
     4   6     0.00  -0.07  -0.01     0.02   0.07  -0.17     0.00  -0.14  -0.05
     5   6     0.00  -0.06   0.00     0.01   0.07  -0.11    -0.00  -0.12  -0.01
     6   6    -0.03  -0.21   0.06    -0.07   0.04  -0.06    -0.04  -0.02  -0.02
     7   6    -0.03  -0.16   0.06    -0.09  -0.04   0.06    -0.04   0.14  -0.01
     8   6     0.01   0.06   0.00    -0.03  -0.08   0.13     0.01   0.19   0.01
     9   6     0.04   0.23  -0.06     0.05  -0.03   0.08     0.05   0.05   0.03
    10   6     0.04   0.16  -0.06     0.07   0.04  -0.04     0.05  -0.10   0.02
    11   6     0.03  -0.05  -0.11    -0.02   0.04  -0.04     0.07  -0.11  -0.06
    12   6     0.04  -0.03  -0.12    -0.04   0.02   0.05     0.05  -0.01   0.08
    13   6     0.01   0.05  -0.05     0.05  -0.01   0.08     0.08   0.07   0.18
    14   1    -0.02   0.06   0.04     0.19  -0.23  -0.24     0.02  -0.19  -0.05
    15   1    -0.06  -0.01   0.12     0.03  -0.04  -0.45    -0.13  -0.14  -0.13
    16   1     0.01  -0.14   0.01     0.05   0.16  -0.20     0.01  -0.14  -0.05
    17   1    -0.06  -0.38   0.11    -0.12   0.06  -0.11    -0.08  -0.04  -0.05
    18   1    -0.05  -0.28   0.11    -0.16  -0.06   0.10    -0.07   0.24  -0.03
    19   1     0.01   0.11   0.00    -0.05  -0.15   0.22     0.02   0.32   0.01
    20   1     0.07   0.40  -0.11     0.10  -0.06   0.13     0.09   0.08   0.05
    21   1     0.06   0.29  -0.11     0.14   0.07  -0.08     0.08  -0.18   0.03
    22   1     0.04   0.01  -0.13     0.02  -0.02  -0.03     0.17  -0.08  -0.09
    23   1     0.05  -0.11  -0.15    -0.07   0.10  -0.03     0.06  -0.16  -0.12
    24   1     0.04  -0.11  -0.10    -0.10   0.04   0.05    -0.08  -0.02   0.10
    25   1     0.06  -0.02  -0.20    -0.05   0.01   0.09     0.14   0.02   0.09
    26   1     0.01   0.05  -0.05     0.02  -0.01   0.19     0.03   0.18   0.34
    27   1     0.01   0.13  -0.08     0.14  -0.05   0.09     0.29   0.04   0.18
                      4                      5                      6
                      A                      A                      A
 Frequencies --    103.9212               199.6397               263.9310
 Red. masses --      3.3416                 2.9595                 3.3293
 Frc consts  --      0.0213                 0.0695                 0.1366
 IR Inten    --      1.1632                 0.8019                 0.2603
  Atom  AN      X      Y      Z        X      Y      Z        X      Y      Z
     1   8     0.12   0.02  -0.16     0.12  -0.05   0.03     0.08   0.03  -0.01
     2   6     0.06   0.02   0.07     0.06   0.00   0.00     0.12  -0.00   0.03
     3   6     0.05   0.08   0.11     0.03   0.07   0.09     0.09  -0.07  -0.01
     4   6    -0.01   0.01  -0.03    -0.02  -0.04  -0.05    -0.00   0.03   0.04
     5   6    -0.01   0.05  -0.04    -0.04  -0.08  -0.10    -0.07   0.00   0.02
     6   6    -0.04  -0.00  -0.01    -0.12  -0.07  -0.07    -0.11  -0.00   0.02
     7   6    -0.05  -0.08   0.04    -0.14   0.01   0.00    -0.12   0.01   0.00
     8   6    -0.04  -0.09   0.05    -0.07   0.06   0.04    -0.14   0.02  -0.03
     9   6    -0.01  -0.01   0.02     0.01   0.00   0.02    -0.14   0.00  -0.02
    10   6     0.00   0.05  -0.03     0.01  -0.07  -0.06    -0.13  -0.01  -0.01
    11   6    -0.05   0.01  -0.19     0.08  -0.00   0.01     0.06   0.03   0.10
    12   6    -0.10  -0.06  -0.00     0.06   0.13   0.13     0.13  -0.06  -0.13
    13   6     0.04   0.00   0.20    -0.00  -0.01  -0.08     0.18   0.03   0.01
    14   1     0.06   0.22   0.07    -0.00   0.27   0.05     0.17  -0.20   0.00
    15   1     0.10   0.08   0.21     0.07   0.06   0.27     0.08  -0.05  -0.18
    16   1    -0.03  -0.12   0.01    -0.12  -0.07  -0.03    -0.04   0.10   0.02
    17   1    -0.05  -0.00  -0.02    -0.18  -0.09  -0.11    -0.13  -0.01   0.01
    18   1    -0.07  -0.13   0.06    -0.20   0.04   0.02    -0.09   0.01  -0.01
    19   1    -0.04  -0.16   0.10    -0.08   0.13   0.08    -0.14   0.04  -0.04
    20   1     0.01  -0.02   0.03     0.07   0.02   0.06    -0.13   0.00  -0.02
    21   1     0.02   0.09  -0.05     0.07  -0.11  -0.08    -0.17  -0.00   0.01
    22   1     0.07   0.17  -0.26     0.19  -0.06   0.01    -0.12  -0.06   0.16
    23   1    -0.15  -0.07  -0.36     0.07  -0.01  -0.00     0.18   0.06   0.24
    24   1    -0.23  -0.18   0.05    -0.01   0.39   0.07     0.28  -0.28  -0.09
    25   1    -0.10  -0.06  -0.05     0.13   0.13   0.37     0.02  -0.07  -0.35
    26   1    -0.00   0.00   0.37     0.04  -0.05  -0.25     0.15   0.04   0.12
    27   1     0.24   0.05   0.17    -0.21  -0.09  -0.04     0.31   0.12  -0.03
                      7                      8                      9
                      A                      A                      A
 Frequencies --    277.6215               295.0864               402.9381
 Red. masses --      3.5891                 2.8159                 2.9406
 Frc consts  --      0.1630                 0.1445                 0.2813
 IR Inten    --      1.3490                 0.7368                 1.3466
  Atom  AN      X      Y      Z        X      Y      Z        X      Y      Z
     1   8    -0.07   0.06  -0.04     0.05   0.05  -0.02     0.14   0.12  -0.01
     2   6    -0.04   0.01   0.06    -0.01   0.07   0.06     0.10   0.12   0.08
     3   6    -0.02  -0.05   0.13     0.01   0.09  -0.01     0.09  -0.12  -0.04
     4   6    -0.01  -0.11   0.03     0.00   0.07  -0.03    -0.00  -0.11  -0.03
     5   6     0.02   0.04  -0.12     0.03  -0.06  -0.08    -0.01   0.01   0.04
     6   6    -0.01   0.16  -0.14    -0.01  -0.13  -0.05     0.01   0.00   0.04
     7   6    -0.04   0.04  -0.02    -0.01  -0.03  -0.00     0.02   0.00   0.00
     8   6    -0.01  -0.15   0.09     0.05   0.09   0.01    -0.00  -0.01  -0.01
     9   6     0.07   0.03   0.00     0.09  -0.03   0.02    -0.03  -0.00  -0.00
    10   6     0.08   0.15  -0.12     0.08  -0.12  -0.03    -0.02   0.02   0.03
    11   6     0.01  -0.12   0.13    -0.10   0.03   0.14    -0.10  -0.14  -0.03
    12   6     0.06  -0.06  -0.01    -0.08  -0.09  -0.06    -0.10   0.07  -0.01
    13   6    -0.02   0.02  -0.02    -0.09   0.03   0.05    -0.10   0.06  -0.04
    14   1    -0.02   0.03   0.10     0.07   0.10  -0.03     0.33  -0.35  -0.03
    15   1    -0.07  -0.08   0.20    -0.03   0.08  -0.01    -0.15  -0.15  -0.30
    16   1    -0.10  -0.11   0.05    -0.06   0.15  -0.05     0.06  -0.14  -0.03
    17   1    -0.05   0.23  -0.20    -0.05  -0.17  -0.06     0.03  -0.00   0.06
    18   1    -0.10   0.03   0.01    -0.08  -0.01   0.02     0.05   0.00  -0.01
    19   1    -0.04  -0.35   0.21     0.06   0.23   0.02    -0.00  -0.02  -0.03
    20   1     0.11   0.02   0.04     0.13  -0.01   0.05    -0.05  -0.01  -0.02
    21   1     0.14   0.21  -0.17     0.14  -0.17  -0.04    -0.05   0.02   0.04
    22   1    -0.09  -0.26   0.20    -0.29  -0.14   0.24    -0.11  -0.20   0.00
    23   1     0.10  -0.05   0.29    -0.08   0.21   0.34    -0.04  -0.11   0.05
    24   1     0.15  -0.12  -0.01     0.08  -0.33  -0.02    -0.20   0.21  -0.03
    25   1     0.09  -0.04  -0.11    -0.15  -0.09  -0.32     0.05   0.11   0.14
    26   1    -0.00   0.00  -0.09    -0.09  -0.03   0.05    -0.03  -0.20  -0.23
    27   1    -0.10   0.08  -0.04    -0.09   0.14   0.01    -0.35   0.16  -0.07
                     10                     11                     12
                      A                      A                      A
 Frequencies --    417.2382               449.7284               472.0562
 Red. masses --      2.9839                 3.7397                 1.6883
 Frc consts  --      0.3061                 0.4456                 0.2217
 IR Inten    --      0.0023                 3.4098                 0.5962
  Atom  AN      X      Y      Z        X      Y      Z        X      Y      Z
     1   8     0.00  -0.01   0.00     0.12  -0.06   0.01     0.03  -0.03   0.04
     2   6    -0.00  -0.00  -0.00    -0.09   0.08   0.01     0.01   0.01  -0.10
     3   6    -0.00   0.01   0.00    -0.08   0.15  -0.15    -0.02   0.05  -0.01
     4   6    -0.00   0.00   0.00     0.08  -0.03  -0.13    -0.01  -0.06  -0.07
     5   6    -0.00  -0.01   0.00     0.01  -0.04   0.08    -0.01  -0.00   0.03
     6   6    -0.02  -0.20   0.07    -0.01   0.05   0.07     0.01   0.01   0.02
     7   6     0.02   0.20  -0.07    -0.00   0.03   0.00     0.02   0.00  -0.01
     8   6    -0.00  -0.01   0.00    -0.06  -0.05  -0.02     0.02  -0.01  -0.01
     9   6    -0.02  -0.19   0.07    -0.06   0.03  -0.03    -0.01   0.01   0.00
    10   6     0.02   0.20  -0.07    -0.05   0.03   0.03    -0.01   0.01   0.03
    11   6     0.00   0.00  -0.00     0.14  -0.10   0.00    -0.07  -0.10   0.03
    12   6     0.00  -0.00  -0.00     0.12  -0.14   0.09    -0.05   0.06  -0.06
    13   6     0.00   0.00   0.00    -0.15   0.05   0.09     0.07   0.04   0.01
    14   1    -0.02   0.01   0.00    -0.03   0.28  -0.19    -0.14   0.32  -0.05
    15   1     0.00   0.01   0.01    -0.17   0.10   0.00     0.03   0.02   0.27
    16   1    -0.00   0.00   0.00     0.19   0.01  -0.16     0.05  -0.08  -0.08
    17   1    -0.04  -0.43   0.14     0.01   0.11   0.06     0.04   0.02   0.04
    18   1     0.04   0.42  -0.14     0.06   0.06  -0.03     0.03   0.00  -0.01
    19   1    -0.00  -0.02   0.01    -0.06  -0.10  -0.03     0.02  -0.02  -0.01
    20   1    -0.04  -0.42   0.14    -0.07   0.07  -0.06    -0.03   0.01  -0.02
    21   1     0.04   0.43  -0.15    -0.11   0.10   0.04    -0.02   0.02   0.04
    22   1     0.01   0.00  -0.00     0.23  -0.20   0.02    -0.24  -0.36   0.16
    23   1    -0.00   0.00  -0.01     0.03  -0.01   0.01     0.06   0.07   0.31
    24   1     0.00  -0.01   0.00     0.17  -0.33   0.12    -0.12   0.19  -0.07
    25   1    -0.00  -0.00  -0.01     0.18  -0.09  -0.16     0.04   0.08   0.10
    26   1    -0.00   0.01   0.01    -0.10   0.14  -0.13    -0.03   0.15   0.34
    27   1     0.01  -0.00   0.00    -0.31   0.04   0.09     0.43  -0.02   0.01
                     13                     14                     15
                      A                      A                      A
 Frequencies --    500.9370               548.1096               606.5473
 Red. masses --      3.1488                 3.2192                 4.7016
 Frc consts  --      0.4655                 0.5698                 1.0191
 IR Inten    --     11.8308                 6.8312                 0.3497
  Atom  AN      X      Y      Z        X      Y      Z        X      Y      Z
     1   8     0.16  -0.14   0.01     0.07  -0.11  -0.01    -0.04  -0.04  -0.07
     2   6    -0.07   0.02   0.01    -0.10   0.00   0.03    -0.02  -0.10   0.24
     3   6    -0.12  -0.05  -0.01    -0.08  -0.05   0.02    -0.00  -0.01   0.00
     4   6    -0.07  -0.00   0.11    -0.03  -0.03   0.03    -0.19   0.02  -0.22
     5   6    -0.04  -0.16   0.01     0.01   0.24  -0.09    -0.20   0.01   0.01
     6   6     0.01  -0.01  -0.06     0.01   0.04  -0.03     0.00  -0.03  -0.05
     7   6     0.02   0.06  -0.03    -0.01  -0.12   0.04     0.06  -0.03  -0.11
     8   6     0.04  -0.10   0.05     0.03   0.17  -0.05     0.20  -0.03   0.01
     9   6     0.04   0.07  -0.00    -0.01  -0.12   0.05    -0.00   0.05   0.11
    10   6     0.02  -0.01  -0.02     0.01   0.04  -0.01    -0.04   0.06   0.18
    11   6    -0.00   0.08   0.00     0.03  -0.06  -0.00     0.03   0.06  -0.02
    12   6    -0.01   0.09  -0.06     0.06   0.03  -0.02     0.09   0.04  -0.03
    13   6    -0.03   0.11   0.02    -0.04   0.10   0.02     0.07  -0.01   0.00
    14   1    -0.03  -0.40   0.05    -0.03  -0.20   0.05     0.32   0.16  -0.11
    15   1    -0.28  -0.05  -0.33    -0.20  -0.07  -0.11     0.10   0.02   0.01
    16   1    -0.13   0.04   0.10    -0.04  -0.07   0.04    -0.18   0.04  -0.22
    17   1     0.02   0.12  -0.10    -0.01  -0.23   0.07     0.19   0.04   0.08
    18   1    -0.02   0.20  -0.06    -0.05  -0.42   0.14    -0.05   0.03  -0.08
    19   1     0.03  -0.15   0.09     0.03   0.20  -0.06     0.20  -0.02  -0.00
    20   1     0.06   0.21  -0.05    -0.04  -0.42   0.15    -0.18   0.05  -0.04
    21   1     0.09   0.10  -0.08    -0.00  -0.20   0.07     0.09   0.06   0.12
    22   1    -0.02   0.22  -0.04     0.07  -0.04  -0.01     0.04  -0.21   0.07
    23   1     0.05  -0.05  -0.08     0.08  -0.11  -0.02     0.13   0.14   0.14
    24   1     0.01   0.04  -0.05     0.06   0.02  -0.01     0.13   0.03  -0.03
    25   1    -0.02   0.10  -0.11     0.13   0.06  -0.05    -0.02  -0.00  -0.02
    26   1    -0.08   0.27   0.21    -0.06   0.26   0.07     0.13  -0.06  -0.22
    27   1     0.20   0.11   0.01     0.07   0.10   0.01    -0.19   0.19  -0.05
                     16                     17                     18
                      A                      A                      A
 Frequencies --    635.2185               659.9054               715.4581
 Red. masses --      6.3592                 3.8566                 1.8158
 Frc consts  --      1.5118                 0.9895                 0.5476
 IR Inten    --      0.0260                 3.5280                24.4736
  Atom  AN      X      Y      Z        X      Y      Z        X      Y      Z
     1   8    -0.01  -0.02  -0.01    -0.07  -0.11  -0.08     0.00   0.00  -0.00
     2   6    -0.02  -0.02   0.03    -0.11  -0.12   0.24     0.00   0.00   0.01
     3   6     0.00  -0.02   0.03     0.06   0.00   0.03    -0.01   0.00  -0.00
     4   6     0.04   0.01   0.02     0.11   0.05  -0.08     0.00  -0.00  -0.00
     5   6     0.02   0.04   0.13     0.14  -0.02   0.01    -0.01  -0.11   0.04
     6   6    -0.26   0.08   0.18     0.04   0.00   0.09     0.01   0.07  -0.02
     7   6    -0.23  -0.06  -0.24     0.02   0.06   0.12    -0.01  -0.13   0.05
     8   6    -0.02  -0.05  -0.13    -0.15  -0.01  -0.00     0.00   0.07  -0.02
     9   6     0.28  -0.10  -0.21    -0.01  -0.01  -0.08    -0.01  -0.14   0.04
    10   6     0.22   0.04   0.20     0.01  -0.06  -0.11     0.01   0.07  -0.03
    11   6    -0.00   0.03   0.00     0.01   0.03  -0.05     0.00   0.01  -0.00
    12   6    -0.01   0.02  -0.01    -0.01   0.09  -0.10    -0.01  -0.00  -0.00
    13   6    -0.01   0.01   0.00    -0.03   0.05   0.02     0.00  -0.01  -0.00
    14   1     0.01  -0.07   0.04     0.30  -0.01  -0.02     0.01   0.01  -0.01
    15   1    -0.01  -0.01  -0.01     0.09   0.02  -0.04    -0.01   0.00  -0.00
    16   1     0.07   0.00   0.02     0.17   0.01  -0.07     0.00   0.00  -0.00
    17   1    -0.15   0.10   0.25    -0.07   0.04  -0.01     0.04   0.49  -0.16
    18   1    -0.04  -0.09  -0.31     0.15   0.10   0.05     0.02   0.18  -0.06
    19   1    -0.08   0.10   0.27    -0.14  -0.00  -0.06     0.05   0.53  -0.18
    20   1     0.19  -0.11  -0.29     0.12   0.08  -0.00     0.02   0.18  -0.06
    21   1     0.04   0.09   0.26    -0.08   0.01  -0.08     0.05   0.49  -0.17
    22   1    -0.04   0.04   0.01    -0.21  -0.20   0.08    -0.02   0.01   0.00
    23   1     0.01   0.04   0.02     0.11   0.24   0.24     0.00   0.01   0.01
    24   1    -0.01   0.04  -0.02    -0.14   0.33  -0.13    -0.01   0.02  -0.01
    25   1    -0.02   0.02   0.01     0.06   0.09   0.19    -0.01  -0.00   0.02
    26   1    -0.01   0.03   0.02    -0.05   0.10   0.04     0.00  -0.02   0.00
    27   1     0.01   0.04  -0.01    -0.01   0.29  -0.07     0.00  -0.00  -0.00
                     19                     20                     21
                      A                      A                      A
 Frequencies --    762.0901               771.6336               806.6115
 Red. masses --      2.0062                 1.9638                 3.4371
 Frc consts  --      0.6865                 0.6889                 1.3176
 IR Inten    --      1.8391                23.6719                 3.7845
  Atom  AN      X      Y      Z        X      Y      Z        X      Y      Z
     1   8     0.02   0.05  -0.01    -0.01  -0.01   0.00    -0.07  -0.04  -0.01
     2   6    -0.04   0.07   0.08    -0.03   0.01  -0.02    -0.03  -0.05  -0.04
     3   6    -0.09   0.12   0.00     0.04   0.02   0.03     0.22   0.06   0.01
     4   6     0.01   0.05   0.03     0.03   0.04   0.03     0.15   0.05   0.10
     5   6    -0.01  -0.03   0.01     0.00   0.18  -0.06    -0.03  -0.11   0.04
     6   6    -0.00   0.01  -0.02    -0.02  -0.10  -0.00    -0.03  -0.00  -0.12
     7   6    -0.01  -0.00  -0.01    -0.02  -0.00  -0.04    -0.06  -0.04  -0.12
     8   6     0.01   0.02  -0.00     0.02  -0.11   0.04     0.09   0.06  -0.00
     9   6     0.00   0.00   0.00    -0.01   0.01   0.02    -0.07   0.04   0.09
    10   6     0.00   0.01  -0.00    -0.02  -0.07   0.05    -0.05   0.06   0.06
    11   6     0.02  -0.04  -0.03    -0.00  -0.07  -0.01     0.05  -0.07   0.00
    12   6     0.03  -0.12  -0.01     0.03  -0.04   0.01    -0.02  -0.00  -0.04
    13   6     0.05  -0.14  -0.07    -0.03   0.02  -0.02    -0.15   0.07   0.02
    14   1     0.10  -0.23   0.05     0.05  -0.11   0.06     0.21  -0.08   0.04
    15   1    -0.27   0.12  -0.33     0.02   0.03  -0.09     0.36   0.13  -0.13
    16   1    -0.01  -0.00   0.05     0.00  -0.01   0.05     0.15   0.02   0.10
    17   1    -0.01  -0.03  -0.00     0.01   0.08  -0.05     0.01   0.01  -0.10
    18   1    -0.03  -0.10   0.03    -0.01   0.49  -0.18    -0.24  -0.22   0.00
    19   1    -0.00  -0.09   0.05     0.07   0.47  -0.15     0.05  -0.26   0.12
    20   1    -0.01  -0.10   0.03     0.00   0.49  -0.16    -0.20  -0.20   0.09
    21   1     0.00  -0.03   0.01     0.01   0.09  -0.02     0.00   0.05   0.04
    22   1    -0.12  -0.09   0.02     0.00  -0.03  -0.02    -0.05   0.03  -0.02
    23   1    -0.00   0.08   0.07    -0.04  -0.07  -0.03     0.02  -0.05  -0.00
    24   1    -0.12   0.35  -0.10    -0.01   0.07  -0.01    -0.11   0.15  -0.06
    25   1     0.07  -0.17   0.51     0.14  -0.01   0.10     0.23   0.08   0.07
    26   1    -0.00  -0.03   0.14    -0.06   0.13   0.06    -0.21   0.17   0.21
    27   1     0.31  -0.05  -0.11     0.09   0.00  -0.02     0.08   0.07   0.00
                     22                     23                     24
                      A                      A                      A
 Frequencies --    858.6567               867.8563               879.5185
 Red. masses --      1.2506                 1.6692                 2.1354
 Frc consts  --      0.5432                 0.7407                 0.9732
 IR Inten    --      0.0057                 0.4373                 0.5342
  Atom  AN      X      Y      Z        X      Y      Z        X      Y      Z
     1   8     0.00  -0.00  -0.00    -0.01   0.00  -0.01     0.00   0.02   0.01
     2   6    -0.00   0.00   0.00    -0.03   0.01   0.02    -0.02   0.05  -0.04
     3   6     0.00   0.00  -0.00     0.09   0.02   0.01     0.02  -0.03   0.11
     4   6    -0.01  -0.00  -0.00    -0.09  -0.01  -0.06     0.05  -0.08  -0.10
     5   6    -0.00   0.00  -0.00    -0.02  -0.02   0.00     0.01   0.01  -0.01
     6   6    -0.01  -0.07   0.03     0.01   0.02   0.05    -0.00   0.01   0.01
     7   6    -0.00  -0.07   0.03     0.03   0.02   0.05     0.00  -0.01  -0.00
     8   6    -0.00   0.00  -0.00    -0.02   0.01  -0.01     0.00  -0.02  -0.00
     9   6     0.01   0.06  -0.02     0.03  -0.02  -0.03    -0.03   0.01   0.02
    10   6     0.01   0.07  -0.03     0.01  -0.01  -0.01    -0.01   0.02   0.02
    11   6    -0.01  -0.01   0.01    -0.05  -0.04   0.09     0.13   0.12  -0.01
    12   6     0.00  -0.00   0.00     0.01  -0.02   0.04    -0.07   0.06  -0.01
    13   6     0.00   0.00  -0.01    -0.04   0.02  -0.11    -0.11  -0.10  -0.02
    14   1     0.03   0.02  -0.01     0.32   0.06  -0.05     0.21  -0.21   0.11
    15   1     0.00  -0.00   0.01     0.07   0.02  -0.03    -0.22  -0.08  -0.08
    16   1    -0.01   0.03  -0.01    -0.17   0.11  -0.08     0.01  -0.21  -0.05
    17   1     0.05   0.49  -0.16     0.02   0.01   0.06     0.01  -0.04   0.03
    18   1     0.05   0.44  -0.15     0.09  -0.08   0.05     0.01   0.06  -0.03
    19   1    -0.00  -0.02   0.01    -0.03  -0.08   0.01     0.02   0.09  -0.07
    20   1    -0.04  -0.45   0.15     0.07   0.00  -0.01    -0.06   0.02  -0.01
    21   1    -0.04  -0.47   0.16     0.01   0.08  -0.04    -0.02  -0.08   0.06
    22   1     0.00   0.03  -0.01     0.32   0.22  -0.07     0.21  -0.17   0.08
    23   1    -0.02  -0.03  -0.03    -0.26  -0.25  -0.29     0.17   0.24   0.14
    24   1     0.02   0.01  -0.00     0.29   0.03  -0.02     0.13  -0.11   0.00
    25   1     0.01  -0.00   0.01    -0.02  -0.03  -0.02    -0.30  -0.01  -0.21
    26   1    -0.00   0.02   0.01    -0.14   0.21   0.24    -0.20  -0.06   0.33
    27   1     0.02   0.01  -0.01     0.37   0.03  -0.12     0.26  -0.29   0.03
                     25                     26                     27
                      A                      A                      A
 Frequencies --    895.3200               918.6593               929.9548
 Red. masses --      1.7020                 2.1066                 1.6725
 Frc consts  --      0.8038                 1.0475                 0.8522
 IR Inten    --      3.9112                 4.1354                 1.9437
  Atom  AN      X      Y      Z        X      Y      Z        X      Y      Z
     1   8     0.02   0.02  -0.01     0.02  -0.01   0.00    -0.00  -0.02  -0.00
     2   6     0.01   0.01   0.09    -0.04   0.03   0.00    -0.03   0.00  -0.01
     3   6    -0.06  -0.07  -0.09    -0.03  -0.11   0.07     0.02  -0.01   0.03
     4   6     0.08  -0.03   0.02     0.13  -0.00  -0.07     0.04  -0.01  -0.03
     5   6     0.02   0.02   0.00     0.04   0.03  -0.01     0.01  -0.08   0.03
     6   6    -0.00   0.01  -0.04    -0.01  -0.06  -0.01     0.01   0.08  -0.04
     7   6    -0.02  -0.01  -0.04    -0.02  -0.01  -0.04    -0.01  -0.01  -0.01
     8   6     0.01  -0.03   0.01     0.02   0.06  -0.02    -0.00  -0.08   0.03
     9   6    -0.03   0.01   0.03    -0.05   0.02   0.04    -0.02   0.00   0.02
    10   6    -0.01   0.02   0.01    -0.02  -0.05   0.04     0.01   0.09  -0.02
    11   6     0.04   0.03   0.09    -0.08   0.07  -0.01    -0.07   0.04  -0.01
    12   6    -0.04   0.01  -0.06     0.01  -0.07   0.08     0.01  -0.05   0.07
    13   6    -0.03  -0.04  -0.01     0.06   0.06  -0.07     0.05   0.06  -0.05
    14   1    -0.15   0.34  -0.17     0.00   0.01   0.03     0.08  -0.05   0.03
    15   1    -0.09  -0.15   0.36    -0.22  -0.20   0.22    -0.02  -0.02  -0.01
    16   1     0.18   0.24  -0.07     0.21   0.01  -0.09     0.07  -0.05  -0.02
    17   1    -0.02  -0.15   0.01     0.02   0.30  -0.14    -0.05  -0.44   0.14
    18   1    -0.07   0.03  -0.03    -0.07  -0.04  -0.01    -0.02  -0.00  -0.01
    19   1     0.03   0.17  -0.05    -0.02  -0.37   0.11     0.05   0.48  -0.17
    20   1    -0.06   0.06  -0.01    -0.09  -0.01   0.02    -0.03   0.00   0.00
    21   1    -0.02  -0.12   0.06     0.02   0.35  -0.09    -0.05  -0.47   0.17
    22   1     0.14   0.31  -0.04    -0.06   0.05  -0.00    -0.07  -0.00   0.00
    23   1     0.00  -0.18  -0.16    -0.31   0.25  -0.02    -0.22   0.17  -0.00
    24   1     0.07   0.22  -0.13     0.01  -0.02   0.07    -0.02  -0.06   0.07
    25   1    -0.08  -0.03   0.13    -0.07  -0.11   0.12    -0.03  -0.06   0.06
    26   1    -0.08  -0.20   0.19     0.06   0.28  -0.12     0.07   0.25  -0.14
    27   1     0.12   0.22  -0.11     0.08   0.05  -0.07     0.01   0.03  -0.03
                     28                     29                     30
                      A                      A                      A
 Frequencies --    965.3632               990.6606               994.7516
 Red. masses --      1.3498                 2.4275                 1.2859
 Frc consts  --      0.7412                 1.4036                 0.7497
 IR Inten    --      0.0046                 5.9394                 0.6443
  Atom  AN      X      Y      Z        X      Y      Z        X      Y      Z
     1   8    -0.00  -0.00  -0.00    -0.03  -0.03  -0.02    -0.00  -0.01  -0.00
     2   6     0.00  -0.00   0.00    -0.03  -0.02   0.08    -0.00  -0.00   0.02
     3   6     0.00   0.00  -0.00    -0.04   0.16  -0.04    -0.01   0.02  -0.00
     4   6     0.00   0.00  -0.00     0.08  -0.06   0.04     0.02  -0.00   0.00
     5   6     0.00  -0.00   0.00     0.06   0.02   0.01     0.01   0.00   0.00
     6   6     0.01   0.08  -0.03     0.01  -0.01  -0.04     0.00  -0.04   0.00
     7   6    -0.01  -0.09   0.03    -0.03  -0.04  -0.05     0.00   0.07  -0.03
     8   6    -0.00  -0.00   0.00    -0.01   0.04  -0.00    -0.01  -0.08   0.03
     9   6     0.01   0.09  -0.03    -0.04  -0.01   0.05     0.00   0.08  -0.02
    10   6    -0.01  -0.08   0.03     0.00   0.01   0.01    -0.00  -0.03   0.01
    11   6    -0.00  -0.00   0.00    -0.06  -0.08   0.04    -0.01  -0.02   0.01
    12   6    -0.00  -0.00   0.00    -0.08   0.14   0.04    -0.01   0.03   0.01
    13   6     0.00   0.00  -0.00     0.14  -0.02  -0.05     0.02  -0.01  -0.01
    14   1    -0.02  -0.00   0.00     0.14  -0.07  -0.02     0.03  -0.01  -0.00
    15   1     0.01   0.00  -0.00    -0.16   0.15  -0.23    -0.04   0.02  -0.04
    16   1     0.00  -0.02   0.01     0.22  -0.18   0.06     0.04  -0.02   0.01
    17   1    -0.04  -0.45   0.15     0.00  -0.05  -0.04     0.03   0.26  -0.10
    18   1     0.05   0.50  -0.17    -0.07   0.15  -0.10    -0.06  -0.46   0.15
    19   1     0.00   0.00  -0.00    -0.04  -0.19   0.10     0.04   0.51  -0.17
    20   1    -0.05  -0.47   0.16    -0.02   0.20  -0.03    -0.05  -0.47   0.17
    21   1     0.04   0.43  -0.15    -0.01  -0.05   0.03     0.03   0.27  -0.09
    22   1     0.02  -0.01  -0.00     0.21  -0.05  -0.02     0.04  -0.01  -0.01
    23   1    -0.01   0.00  -0.00    -0.08  -0.20  -0.09    -0.01  -0.05  -0.02
    24   1     0.01   0.00  -0.00     0.18  -0.27   0.10     0.04  -0.05   0.02
    25   1    -0.00  -0.00   0.00    -0.31   0.10  -0.38    -0.04   0.03  -0.08
    26   1     0.00  -0.00   0.00     0.16  -0.10  -0.10     0.03  -0.03  -0.01
    27   1     0.00   0.01  -0.01     0.00  -0.14  -0.00     0.00  -0.04   0.00
                     31                     32                     33
                      A                      A                      A
 Frequencies --   1017.8457              1046.0806              1060.9532
 Red. masses --      6.1899                 1.9108                 2.1676
 Frc consts  --      3.7783                 1.2320                 1.4376
 IR Inten    --      0.9210                 7.2695                 1.4411
  Atom  AN      X      Y      Z        X      Y      Z        X      Y      Z
     1   8     0.00   0.00   0.00     0.00   0.01   0.00    -0.00  -0.00  -0.00
     2   6     0.00   0.00  -0.01     0.04  -0.01   0.01    -0.01   0.00   0.01
     3   6     0.00  -0.01   0.00    -0.07  -0.04   0.07    -0.01   0.00   0.00
     4   6    -0.03   0.01   0.00     0.04   0.11  -0.06     0.04   0.00   0.00
     5   6    -0.04   0.00   0.00     0.02  -0.04   0.02    -0.02  -0.00   0.00
     6   6     0.22  -0.13  -0.31     0.01   0.01  -0.00    -0.05  -0.01  -0.06
     7   6     0.03   0.02   0.09    -0.01  -0.01  -0.03    -0.00   0.06   0.17
     8   6    -0.36   0.02  -0.05    -0.01  -0.00  -0.00     0.16  -0.01   0.02
     9   6     0.04  -0.03  -0.08    -0.02   0.01   0.03     0.04  -0.06  -0.16
    10   6     0.14   0.11   0.36     0.01   0.01  -0.01    -0.07   0.02   0.03
    11   6     0.00   0.01  -0.00    -0.11  -0.06  -0.02    -0.02  -0.01  -0.00
    12   6     0.01  -0.01  -0.00     0.12   0.09  -0.02     0.01   0.02   0.01
    13   6    -0.01  -0.00   0.01    -0.05  -0.07   0.04     0.00  -0.01  -0.01
    14   1     0.01   0.02  -0.00    -0.02  -0.08   0.06     0.02   0.00  -0.00
    15   1     0.02  -0.00   0.01    -0.17  -0.06   0.02    -0.06  -0.02   0.02
    16   1     0.04   0.00  -0.01     0.08   0.16  -0.08     0.10   0.01  -0.01
    17   1     0.14  -0.15  -0.38     0.01  -0.07   0.03    -0.33  -0.06  -0.26
    18   1    -0.03   0.04   0.09     0.02  -0.00  -0.04    -0.37   0.14   0.31
    19   1    -0.37   0.01  -0.05    -0.01   0.00  -0.01     0.17  -0.01   0.03
    20   1    -0.02  -0.03  -0.11     0.00   0.02   0.04    -0.26  -0.11  -0.40
    21   1     0.06   0.12   0.40     0.03  -0.07   0.01    -0.37   0.08   0.14
    22   1    -0.01  -0.01   0.00    -0.08   0.03  -0.06    -0.02   0.01  -0.01
    23   1     0.01   0.01   0.01    -0.30   0.04  -0.08    -0.05   0.01  -0.01
    24   1    -0.00   0.02  -0.01     0.26  -0.00  -0.02     0.04  -0.03   0.01
    25   1     0.03  -0.00   0.02     0.54   0.27  -0.26     0.04   0.04  -0.07
    26   1    -0.01   0.00   0.01    -0.08  -0.28   0.18    -0.00  -0.02   0.02
    27   1     0.00  -0.00   0.00     0.03  -0.29   0.11     0.02  -0.07   0.02
                     34                     35                     36
                      A                      A                      A
 Frequencies --   1075.6179              1090.2733              1103.4411
 Red. masses --      1.1908                 2.8429                 1.7845
 Frc consts  --      0.8117                 1.9911                 1.2802
 IR Inten    --     10.5025                 2.7031                 3.1213
  Atom  AN      X      Y      Z        X      Y      Z        X      Y      Z
     1   8    -0.01   0.00   0.00    -0.00  -0.01   0.00     0.02   0.02  -0.00
     2   6     0.07  -0.05   0.00     0.02  -0.01  -0.02     0.00   0.00   0.04
     3   6    -0.04   0.01   0.01    -0.07  -0.06   0.11    -0.01  -0.05  -0.03
     4   6     0.01   0.04  -0.03     0.02   0.22  -0.08    -0.03   0.05   0.04
     5   6     0.00  -0.01   0.00    -0.01  -0.04   0.00    -0.03   0.02   0.06
     6   6    -0.00  -0.00  -0.00    -0.00   0.01  -0.00     0.10  -0.02  -0.03
     7   6     0.00   0.00   0.01     0.00   0.00   0.01    -0.04  -0.02  -0.06
     8   6     0.00  -0.00  -0.00     0.00  -0.00  -0.00    -0.02   0.03   0.08
     9   6    -0.00  -0.00  -0.00    -0.00   0.00  -0.00     0.07  -0.02  -0.05
    10   6     0.00   0.01   0.00     0.00   0.02   0.01    -0.09  -0.01  -0.07
    11   6     0.01  -0.01   0.00     0.14  -0.15   0.03     0.01  -0.01  -0.06
    12   6    -0.03  -0.02   0.02    -0.17  -0.02   0.00    -0.00   0.01   0.05
    13   6    -0.02   0.04  -0.01     0.06   0.08  -0.05    -0.03  -0.00  -0.06
    14   1    -0.42  -0.20   0.13     0.04  -0.09   0.10    -0.01   0.11  -0.06
    15   1     0.18   0.10  -0.13    -0.12  -0.06   0.01     0.12  -0.03   0.09
    16   1    -0.02  -0.26   0.07    -0.03   0.56  -0.18     0.17  -0.01   0.03
    17   1    -0.02   0.03  -0.02    -0.01  -0.06   0.03     0.37   0.02   0.17
    18   1    -0.01  -0.00   0.01     0.01   0.01   0.00    -0.23   0.02   0.00
    19   1     0.01  -0.00  -0.01     0.00  -0.01  -0.03    -0.07   0.17   0.49
    20   1    -0.02  -0.00  -0.02    -0.02  -0.00  -0.02     0.29   0.01   0.10
    21   1    -0.00  -0.02   0.01     0.00  -0.05   0.03    -0.35   0.03   0.02
    22   1     0.31  -0.23   0.02     0.24  -0.10  -0.01     0.04  -0.23   0.01
    23   1    -0.25   0.18  -0.02     0.23  -0.27  -0.03     0.05   0.09   0.08
    24   1     0.26   0.10  -0.05    -0.42  -0.19   0.08     0.05  -0.10   0.07
    25   1    -0.03  -0.02   0.01    -0.08   0.02  -0.06    -0.04   0.01  -0.08
    26   1    -0.04  -0.18   0.12     0.08  -0.00  -0.08    -0.07   0.12   0.09
    27   1     0.05   0.46  -0.16    -0.02  -0.04  -0.01     0.14  -0.09  -0.03
                     37                     38                     39
                      A                      A                      A
 Frequencies --   1133.2163              1193.2099              1211.4233
 Red. masses --      1.9453                 1.1005                 1.6952
 Frc consts  --      1.4719                 0.9232                 1.4658
 IR Inten    --      2.7484                 0.0635                18.4010
  Atom  AN      X      Y      Z        X      Y      Z        X      Y      Z
     1   8    -0.03  -0.04   0.01     0.00   0.00   0.00    -0.02   0.00  -0.01
     2   6    -0.00   0.01  -0.11     0.00  -0.00  -0.00     0.09  -0.08   0.05
     3   6     0.01   0.06   0.08     0.00   0.00   0.00    -0.05   0.05  -0.03
     4   6     0.03  -0.06  -0.09    -0.01   0.00  -0.00     0.00  -0.10  -0.01
     5   6    -0.00   0.01   0.01     0.01  -0.00  -0.00     0.02   0.02  -0.03
     6   6     0.07  -0.01  -0.00    -0.00  -0.00  -0.01     0.01  -0.00   0.01
     7   6    -0.03  -0.01  -0.02     0.04  -0.01  -0.02    -0.01  -0.00  -0.00
     8   6    -0.00   0.01   0.04    -0.01   0.02   0.06    -0.00   0.00   0.00
     9   6     0.03  -0.01  -0.03    -0.04  -0.00  -0.03     0.01   0.00   0.01
    10   6    -0.06  -0.00  -0.02     0.01  -0.00  -0.01    -0.02   0.00   0.02
    11   6    -0.01   0.02   0.10     0.00  -0.00   0.00     0.07   0.05   0.04
    12   6    -0.00  -0.02  -0.09     0.00  -0.00  -0.00    -0.05  -0.04   0.03
    13   6     0.04   0.02   0.11    -0.00  -0.00   0.00    -0.01   0.07  -0.09
    14   1     0.18  -0.14   0.08     0.00  -0.00   0.00    -0.02  -0.02  -0.02
    15   1    -0.27  -0.00  -0.13     0.00   0.00  -0.00    -0.04   0.06  -0.08
    16   1    -0.08   0.00  -0.09    -0.01   0.00  -0.00    -0.24  -0.04   0.01
    17   1     0.28   0.03   0.15    -0.14  -0.02  -0.10     0.03   0.02   0.01
    18   1    -0.16   0.02   0.02     0.43  -0.10  -0.16     0.03  -0.00  -0.02
    19   1    -0.04   0.11   0.30    -0.08   0.22   0.63    -0.01   0.02   0.06
    20   1     0.12  -0.00   0.03    -0.41  -0.06  -0.30     0.01   0.01   0.01
    21   1    -0.30   0.06   0.07     0.15  -0.03  -0.06    -0.15   0.06   0.06
    22   1     0.09   0.24  -0.00     0.00   0.00  -0.00    -0.21   0.26   0.02
    23   1    -0.14  -0.09  -0.12     0.01  -0.01   0.00    -0.17   0.20   0.00
    24   1    -0.02   0.22  -0.15     0.00   0.00  -0.00    -0.42  -0.16   0.12
    25   1     0.03  -0.04   0.17    -0.01  -0.00   0.00     0.55   0.21  -0.13
    26   1     0.12  -0.23  -0.14    -0.00   0.00  -0.00    -0.06  -0.10   0.13
    27   1    -0.23   0.22   0.04    -0.00   0.00  -0.00     0.10  -0.17  -0.00
                     40                     41                     42
                      A                      A                      A
 Frequencies --   1216.9774              1224.2694              1248.5256
 Red. masses --      1.1393                 2.1743                 1.7394
 Frc consts  --      0.9942                 1.9201                 1.5975
 IR Inten    --      0.2777                 0.2704                43.3702
  Atom  AN      X      Y      Z        X      Y      Z        X      Y      Z
     1   8    -0.00   0.00  -0.00     0.01   0.02   0.00    -0.04   0.00   0.00
     2   6     0.01  -0.01   0.00     0.02  -0.01   0.02     0.17  -0.11  -0.03
     3   6    -0.01   0.00  -0.00     0.00  -0.01  -0.00    -0.03   0.07   0.01
     4   6    -0.00  -0.00   0.01    -0.09   0.01  -0.06    -0.01  -0.01   0.01
     5   6    -0.01   0.00  -0.00     0.26  -0.03   0.01    -0.00   0.01   0.02
     6   6     0.04   0.01   0.03     0.06   0.00   0.02    -0.01  -0.00  -0.01
     7   6    -0.05   0.01   0.02    -0.07  -0.01  -0.06     0.01  -0.00  -0.00
     8   6    -0.01   0.00  -0.00     0.02  -0.00  -0.00     0.00   0.00   0.00
     9   6    -0.04  -0.01  -0.03    -0.06   0.02   0.04    -0.00  -0.00  -0.00
    10   6     0.05  -0.01  -0.02     0.02   0.01   0.03     0.01  -0.01  -0.01
    11   6     0.00   0.01   0.00    -0.03  -0.01  -0.01    -0.04   0.02  -0.05
    12   6    -0.00  -0.01   0.00     0.03   0.01  -0.00     0.02  -0.00   0.06
    13   6    -0.00   0.01  -0.01    -0.03  -0.03   0.01    -0.07  -0.01   0.01
    14   1     0.03   0.02  -0.02    -0.25  -0.08   0.07     0.20   0.02  -0.03
    15   1     0.00   0.01  -0.01     0.15   0.04  -0.03    -0.58  -0.11   0.00
    16   1     0.01  -0.01   0.01    -0.49   0.06  -0.02     0.17   0.13  -0.06
    17   1     0.41   0.06   0.30    -0.07  -0.02  -0.08    -0.05  -0.02  -0.04
    18   1    -0.45   0.10   0.17    -0.31   0.04   0.02    -0.02   0.00   0.00
    19   1    -0.01  -0.00  -0.01     0.01   0.01   0.04     0.00  -0.01  -0.03
    20   1    -0.38  -0.06  -0.28    -0.23  -0.01  -0.08     0.02   0.00   0.02
    21   1     0.46  -0.10  -0.17    -0.38   0.09   0.19     0.05  -0.01  -0.03
    22   1     0.00  -0.00   0.00    -0.08   0.03  -0.01    -0.18   0.01  -0.02
    23   1    -0.02   0.02   0.00     0.19  -0.17  -0.00     0.35  -0.19   0.06
    24   1    -0.03  -0.01   0.01     0.03   0.01  -0.00     0.14  -0.02   0.05
    25   1     0.05   0.02  -0.01    -0.17  -0.07   0.04    -0.08  -0.03  -0.01
    26   1    -0.00  -0.01   0.01    -0.03   0.28  -0.05    -0.08   0.29   0.00
    27   1     0.01  -0.01   0.00     0.01  -0.05   0.01     0.07   0.38  -0.13
                     43                     44                     45
                      A                      A                      A
 Frequencies --   1254.5408              1285.1351              1305.9286
 Red. masses --      1.5171                 1.5939                 1.2649
 Frc consts  --      1.4068                 1.5510                 1.2710
 IR Inten    --      0.8086                10.0149                 0.9914
  Atom  AN      X      Y      Z        X      Y      Z        X      Y      Z
     1   8    -0.01  -0.03   0.01     0.01   0.03   0.01     0.01   0.01   0.01
     2   6    -0.03   0.03  -0.07     0.07  -0.05   0.00    -0.02   0.02  -0.01
     3   6    -0.03  -0.02   0.02    -0.10  -0.01   0.03    -0.06  -0.01   0.06
     4   6    -0.09  -0.00   0.07    -0.06  -0.01  -0.01     0.02  -0.05  -0.07
     5   6     0.10   0.01   0.04     0.03   0.04   0.09    -0.02   0.02   0.02
     6   6    -0.00  -0.00  -0.01    -0.02  -0.01  -0.03     0.00  -0.00  -0.01
     7   6    -0.01  -0.01  -0.03     0.02  -0.01  -0.02     0.01  -0.00  -0.00
     8   6     0.01   0.00   0.01     0.00   0.01   0.02    -0.00   0.00   0.00
     9   6    -0.03   0.01   0.01    -0.03  -0.00  -0.02    -0.01  -0.00  -0.01
    10   6     0.03  -0.01  -0.01     0.03  -0.01  -0.03    -0.00  -0.00  -0.01
    11   6     0.03   0.01  -0.05     0.00   0.02   0.06    -0.01  -0.00   0.00
    12   6    -0.01  -0.03   0.04    -0.02  -0.03  -0.08     0.04   0.02   0.05
    13   6     0.02   0.04  -0.00    -0.03   0.02   0.03    -0.01  -0.00  -0.02
    14   1     0.59   0.25  -0.18     0.22   0.05  -0.06    -0.05  -0.12   0.08
    15   1     0.03   0.00  -0.01     0.28   0.14  -0.14     0.51   0.22  -0.21
    16   1     0.05   0.10   0.01     0.42  -0.18  -0.04     0.27   0.14  -0.17
    17   1    -0.16  -0.04  -0.13    -0.17  -0.03  -0.15    -0.02  -0.01  -0.02
    18   1    -0.09   0.01   0.00    -0.10   0.02   0.02    -0.04   0.01   0.02
    19   1     0.01  -0.02  -0.05     0.01  -0.02  -0.04    -0.00   0.01   0.02
    20   1    -0.05   0.01  -0.00     0.06   0.01   0.05     0.05   0.01   0.03
    21   1    -0.06   0.02   0.02     0.09  -0.03  -0.06     0.07  -0.01  -0.04
    22   1     0.03  -0.15   0.01     0.28  -0.03   0.03    -0.39   0.29  -0.03
    23   1    -0.09   0.19   0.04    -0.11   0.00  -0.05     0.23  -0.19   0.01
    24   1     0.10  -0.00   0.02    -0.05   0.15  -0.12    -0.03  -0.11   0.10
    25   1     0.11   0.02  -0.01     0.05  -0.03   0.09    -0.13  -0.04   0.01
[...]
 .00063230,0.00538228,0.16432941,0.00009096,0.00003015,0.00000839,-0.00
 010328,-0.00009550,-0.00003225,-0.00002610,0.00010497,0.00001046,-0.00
 014719,-0.00016060,0.00003712,-0.00209312,0.00074005,0.00264286,-0.000
 22855,-0.00080489,0.00017103,-0.00536837,-0.00125240,-0.00123954,0.001
 16208,0.01704101,-0.01521350,-0.01658117,0.13953753,-0.22857826,-0.000
 51622,-0.00176663,0.00340116,0.00007334,0.00005184,-0.00000263,-0.0000
 3931,0.00000722,0.00000193,0.00000181,0.00000803,0.00001207,-0.0000073
 4,-0.00001729,-0.00000403,0.00000047,-0.00000201,0.00000092,0.00002192
 ,0.00000021,-0.00000410,0.00048087,-0.00015550,-0.00023676,-0.00002572
 ,0.00097502,-0.00085666,0.00145923,-0.00122588,0.00016497,0.02013127,-
 0.15231330,0.23965764,-0.00003726,-0.00000226,-0.00003997,-0.00003127,
 0.00003491,0.00012509,0.00005298,-0.00044461,0.00022617,-0.00220669,0.
 00107048,0.00229338,0.00191435,-0.00147722,-0.00093903,0.00407884,-0.0
 0163884,-0.00147211,0.00004698,-0.00006018,0.00050423,0.00313234,-0.00
 540734,-0.00078303,-0.00692679,-0.00198133,-0.01424046,-0.13620237,-0.
 04295424,-0.13227369,0.00043525,0.00040719,-0.00018339,-0.00018482,0.0
 0012451,-0.00001444,0.00000359,-0.00000692,0.00000299,-0.00003490,-0.0
 0000874,0.00006388,-0.00004588,-0.00001134,0.00000556,0.00050628,0.000
 19018,0.00012184,0.00028893,-0.00025139,-0.00012618,-0.00073926,0.0004
 9450,0.00031979,-0.00025817,-0.00021701,-0.00084889,-0.00180534,0.0016
 9349,0.00168651,0.13802914,0.00015202,0.00006063,0.00003142,-0.0000808
 4,-0.00019476,-0.00009457,0.00000046,0.00040394,-0.00022061,0.00302853
 ,0.00000328,0.00074615,0.01076508,0.00690678,0.01536543,-0.00217796,-0
 .00093574,0.00411176,-0.00014025,-0.00087746,0.00054672,-0.00480601,-0
 .00257112,0.00250957,-0.01535843,-0.00189015,-0.02302544,-0.04314553,-
 0.06663262,-0.04191248,-0.00020861,-0.00021114,0.00009405,0.00004087,-
 0.00006802,0.00002531,0.,0.00001377,0.00002082,0.00005819,-0.00001004,
 -0.00008004,0.00002834,0.00002001,-0.00001353,-0.00047892,-0.00029549,
 -0.00021867,0.00047107,0.00040028,0.00100675,0.00048671,-0.00016241,-0
 .00036852,-0.00093853,-0.00014735,-0.00112117,0.00198532,-0.00013606,-
 0.00070974,0.05035152,0.06630533,0.00011723,0.00001629,0.00006105,0.00
 000538,-0.00006321,-0.00013039,0.00028189,0.00050334,0.00006344,0.0000
 9913,-0.00294358,-0.00066366,-0.01536639,-0.00686625,-0.01642204,-0.00
 080569,0.00517195,-0.00158716,0.00058758,0.00065564,0.00011832,-0.0015
 0472,0.00141678,0.00266752,0.00136447,0.00121209,0.00328063,-0.1319023
 1,-0.04150627,-0.22608385,0.00002174,0.00005005,0.00038230,0.00002388,
 0.00001009,0.00000884,-0.00000899,-0.00001990,0.00000439,-0.00010485,-
 0.00008799,0.00020229,0.00005463,-0.00000206,-0.00009863,0.00085467,0.
 00102555,0.00075910,-0.00099040,-0.00035133,-0.00088184,0.00032593,-0.
 00035851,-0.00022156,-0.00000968,0.00018872,0.00011438,0.00134520,-0.0
 0123821,0.00005337,0.14551308,0.04338264,0.23826887,0.00021421,-0.0000
 0022,-0.00005522,-0.00045305,0.00000695,0.00002320,0.00083005,-0.00072
 637,-0.00124249,-0.01085851,0.00107363,-0.01722322,-0.00009681,-0.0008
 1748,0.00074040,-0.00000396,-0.00019833,-0.00061171,0.00020322,0.00006
 932,0.00020086,0.00003512,-0.00004519,0.00015200,-0.00004983,-0.000168
 77,-0.00002243,0.00019102,0.00023608,-0.00022064,-0.11417081,-0.000146
 13,-0.10745384,-0.01017097,-0.00077624,-0.01645784,0.00059694,0.000726
 33,-0.00112581,-0.00012222,0.00024137,0.00075259,0.00029784,0.00001138
 ,0.00027347,-0.00170270,0.00323206,-0.00013837,0.00020476,-0.00020449,
 0.00034135,0.00003474,0.00001763,-0.00001380,-0.00001007,-0.00000429,0
 .00003784,-0.00001091,0.00002034,0.00000269,-0.00002002,-0.00003131,0.
 00012599,0.12324031,0.00004106,0.00021917,0.00000668,-0.00004390,-0.00
 057774,-0.00000877,-0.00127979,0.00132228,0.00045853,0.01528577,-0.001
 63042,0.02549125,0.00033085,0.00194701,0.00017104,0.00014000,-0.000410
 01,0.00054913,-0.00044287,-0.00027603,-0.00009623,-0.00012328,0.000121
 15,-0.00035188,0.00023366,0.00033846,0.00004662,-0.00032509,-0.0004622
 1,0.00043170,-0.00049560,-0.04748528,-0.00101207,-0.01559431,-0.001571
 05,-0.02613944,0.00103103,0.00108477,-0.00055251,0.00001887,0.00009174
 ,-0.00068554,-0.00035663,-0.00004090,-0.00009840,0.00361856,-0.0047045
 9,0.00006381,-0.00001637,-0.00092169,-0.00085182,0.00000912,-0.0000412
 1,0.00000260,0.00001706,0.00000091,-0.00006511,0.00000962,-0.00000595,
 -0.00000843,-0.00003961,0.00007305,-0.00020928,0.00082371,0.05667266,-
 0.00010985,0.00005460,-0.00010010,0.00016940,-0.00008084,0.00013555,0.
 00045652,-0.00003954,0.00082069,-0.00097704,0.00079399,-0.00297779,-0.
 00073793,-0.00063158,0.00022880,0.00025522,-0.00032934,-0.00068212,0.0
 0034807,0.00012184,0.00013647,0.00003384,0.00000545,0.00020440,-0.0001
 0198,-0.00021223,-0.00001707,0.00008529,0.00035691,-0.00012305,-0.1073
 3430,-0.00045591,-0.23713217,-0.00050377,-0.00056435,-0.00217159,0.000
 36177,0.00029046,0.00082216,-0.00038781,0.00002660,0.00052828,-0.00004
 135,0.00005124,0.00020739,-0.00004367,0.00046984,0.00143548,-0.0001413
 7,-0.00053839,0.00058199,0.00003618,0.00002533,-0.00000404,-0.00001479
 ,-0.00001507,0.00004296,0.00001661,0.00000927,0.00000152,0.00005142,-0
 .00002823,0.00010500,0.12131938,0.00194184,0.25684929,-0.00045631,-0.0
 0002051,-0.00003280,0.00111156,0.00003588,-0.00031832,-0.00139041,0.00
 327226,-0.00136331,-0.01278745,0.00103679,0.01406864,0.00018109,-0.001
 12630,-0.00041647,0.00036688,0.00022685,-0.00003861,-0.00014774,-0.000
 11936,0.00017923,-0.00004664,0.00004447,-0.00011981,0.00000960,0.00014
 904,-0.00002127,0.00027393,0.00006577,-0.00009787,-0.16528159,-0.00070
 810,0.12838644,-0.01248673,-0.00016009,0.01353542,-0.00108609,-0.00337
 607,-0.00151842,0.00014300,0.00001590,0.00012672,-0.00065202,-0.000078
 32,0.00092247,0.00027542,-0.00064470,-0.00021697,0.00005314,-0.0000004
 2,-0.00002173,0.00000337,0.00001061,-0.00000342,0.00001511,-0.00001778
 ,-0.00001380,0.00000371,0.00002453,0.00000550,-0.00005287,0.00002572,-
 0.00003746,0.01227166,-0.00004850,-0.01252853,0.17917075,-0.00001700,0
 .00094554,-0.00001077,-0.00003605,-0.00226937,0.00001654,0.00334047,-0
 .00475121,0.00151399,0.01827656,-0.00157102,-0.02176183,0.00083472,0.0
 0150852,-0.00078248,-0.00037706,-0.00002324,-0.00016393,-0.00002558,0.
 00005199,-0.00007577,0.00005653,-0.00000425,0.00006089,-0.00005612,-0.
 00012937,0.00004584,-0.00011139,0.00011195,0.00030803,-0.00124099,-0.0
 4745565,0.00120110,-0.01903692,-0.00003899,0.02224578,-0.00317958,-0.0
 0465165,-0.00173120,-0.00036374,0.00001539,0.00019592,0.00144467,0.000
 26208,-0.00127772,-0.00070438,0.00105424,0.00038051,0.00008262,0.00000
 834,0.00006262,0.00000346,-0.00001396,0.00000454,0.00000515,0.00000291
 ,0.00000644,0.00000323,-0.00000109,-0.00001153,0.00005982,-0.00002845,
 -0.00000377,-0.00005565,-0.00030080,-0.00009667,0.00072375,0.05517226,
 0.00006050,0.00003398,-0.00006286,-0.00026340,-0.00007062,0.00000300,-
 0.00025929,0.00005831,0.00099171,-0.00262541,0.00009972,0.00175274,0.0
 0011928,0.00035710,0.00042395,-0.00035119,0.00005931,-0.00038949,-0.00
 004671,-0.00011812,0.00013783,-0.00007527,-0.00004344,-0.00007627,0.00
 006305,0.00004177,0.00005229,-0.00016389,-0.00037214,0.00018724,0.1289
 5358,0.00059415,-0.19491225,-0.00322977,-0.00017511,0.00219910,-0.0005
 0870,0.00005193,0.00101821,-0.00019065,0.00013784,0.00040309,0.0000917
 1,0.00012151,0.00020310,0.00012309,-0.00045600,0.00076540,0.00013639,-
 0.00000157,0.00011000,0.00000943,-0.00001362,-0.00001901,-0.00000128,-
 0.00001418,0.00000605,-0.00000507,-0.00001125,0.00000511,-0.00000462,-
 0.00000399,-0.00003763,0.01910153,0.00009113,-0.02135750,-0.14110760,-
 0.00103823,0.20722408,-0.00016917,-0.00023580,-0.00035068,0.00176019,-
 0.00082340,0.00050974,0.00001207,0.00006391,0.00019972,0.00020127,0.00
 122762,0.00022607,0.00001932,0.00006982,0.00029648,0.00001773,0.000024
 61,-0.00015889,0.00009753,0.00001880,0.00004583,-0.00000562,-0.0000228
 3,0.00003718,-0.00003368,-0.00002879,0.00001340,-0.00004090,-0.0000105
 6,-0.00005952,-0.01041505,-0.00161046,-0.01811709,-0.10003260,-0.00215
 212,-0.10170051,0.00988671,0.00110365,0.02342954,-0.00009734,0.0000090
 8,0.00001229,0.00006481,0.00004091,-0.00004519,0.00066893,-0.00041249,
 0.00033205,-0.00001413,0.00002299,0.00014994,0.00000212,0.00000357,-0.
 00000629,-0.00000579,-0.00001057,0.00000947,-0.00000209,-0.00001318,0.
 00000777,0.00002267,-0.00001520,0.00001275,-0.00139152,-0.00395382,0.0
 0020631,0.00022655,0.00057383,0.00014290,0.11001846,-0.00013885,0.0001
 5623,0.00016496,-0.00032523,-0.00027935,-0.00075506,0.00023918,-0.0001
 0385,0.00017079,-0.00091025,0.00180267,-0.00139676,-0.00009074,0.00006
 049,0.00033052,0.00000967,-0.00002979,-0.00020007,0.00013722,0.0000257
 7,0.00004331,0.00001648,-0.00001272,0.00006365,-0.00003785,-0.00006562
 ,0.00000200,0.00004368,0.00006438,-0.00006511,-0.01362641,-0.00257879,
 -0.02607205,-0.00170531,-0.05232527,-0.00867027,0.00011350,-0.00010995
 ,0.00056056,-0.00005443,0.00008261,0.00016304,0.00005193,-0.00000794,-
 0.00003105,0.00046122,-0.00037221,0.00065323,-0.00001136,0.00002900,0.
 00018502,0.00000672,0.00001724,0.00000310,-0.00000338,-0.00000005,0.00
 001541,-0.00000229,0.00000614,0.00000159,0.00000301,-0.00003103,0.0000
 3914,-0.00321607,-0.00452855,-0.00048894,0.00063831,0.00112082,0.00045
 165,0.00673016,0.05420578,0.00130905,-0.00041028,0.00039756,-0.0022021
 7,0.00173389,-0.00054174,0.00009042,-0.00036982,-0.00027315,0.00020884
 ,0.00046718,-0.00009910,0.00014690,-0.00012215,0.00036713,0.00005907,0
 .00013894,-0.00004816,0.00003994,0.00001762,0.00004437,-0.00000088,-0.
 00000865,0.00001315,-0.00000873,-0.00000814,0.00001648,-0.00005784,-0.
 00002796,-0.00006576,-0.00105889,-0.00031956,-0.00095825,-0.10140260,-
 0.00869625,-0.25117187,-0.00804187,-0.00141033,-0.02177861,-0.00000069
 ,0.00006659,0.00012936,-0.00001992,-0.00011819,-0.00001802,0.00035194,
 -0.00066667,0.00033109,0.00000137,0.00001350,0.00002346,0.00001142,0.0
 0000952,-0.00000218,0.00000087,-0.00000207,0.00000267,-0.00000219,-0.0
 0000687,0.00000322,0.00001074,-0.00001819,0.00002122,-0.00006774,0.000
 05683,0.00147164,-0.00025864,-0.00040568,0.00076626,0.10852215,0.00941
 271,0.27521726,-0.00178708,0.00179135,-0.00078210,-0.00081111,-0.00485
 462,0.00394679,0.00000783,0.00010692,-0.00061970,-0.00246957,-0.002791
 63,-0.00040432,0.00100908,-0.00073249,0.00006395,-0.00001166,-0.000002
 11,0.00004489,-0.00004027,0.00002615,0.00003338,-0.00001920,-0.0000454
 6,-0.00001039,-0.00007395,0.00005808,0.00007426,-0.00015802,-0.0001806
 7,-0.00004494,0.01272234,-0.01753806,0.00184134,-0.13601605,0.12337914
 ,-0.01507127,-0.01444695,0.01988779,0.00063051,-0.00001365,-0.00003747
 ,-0.00001327,0.00008845,0.00008289,-0.00012519,-0.00001020,-0.00001058
 ,0.00019052,0.00001543,-0.00000085,-0.00005509,-0.00000604,-0.00000462
 ,-0.00000638,0.00000646,-0.00000590,-0.00000713,-0.00000986,-0.0000194
 5,0.00000674,0.00003857,-0.00001991,-0.00000641,0.00081158,0.00076788,
 0.00007166,0.00076095,0.00081882,0.00011598,-0.00883180,0.01190174,-0.
 00158389,0.14754677,-0.00009930,0.00012352,-0.00015801,-0.00041089,0.0
 0050109,0.00037077,-0.00039368,0.00066648,0.00009675,-0.00546566,-0.00
 324281,-0.00058997,0.00156072,-0.00071569,0.00016482,-0.00007767,-0.00
 020683,0.00015004,-0.00005749,0.00006908,0.00002157,-0.00003622,-0.000
 08495,0.00000537,-0.00009011,0.00004313,0.00011461,-0.00029688,-0.0003
 4367,-0.00021384,0.01640095,-0.02241610,0.00267362,0.12247041,-0.21961
 772,0.01789590,-0.00115236,0.00242208,-0.00002401,0.00002797,-0.000019
 17,-0.00004330,0.00010664,0.00004263,-0.00004123,-0.00013104,0.0003356
 5,0.00008367,0.00005914,0.00002372,-0.00005809,-0.00003432,-0.00003971
 ,-0.00002769,-0.00000270,-0.00003114,-0.00000988,-0.00003038,-0.000060
 12,0.00002321,0.00006608,-0.00000063,-0.00001387,0.00017120,0.00107664
 ,-0.00055797,-0.00005121,0.00081398,0.00052152,-0.00100641,0.00170404,
 0.00063632,-0.13181298,0.23843909,0.00236021,-0.00189673,0.00099292,0.
 00179531,0.00389301,-0.00406224,-0.00031859,0.00009953,0.00038837,-0.0
 0027545,-0.00016346,0.00017242,0.00000061,-0.00009433,0.00060273,0.000
 04296,0.00008523,0.00001294,0.00002884,-0.00000074,0.00000650,0.000007
 89,0.00000240,0.00000755,0.00000624,-0.00002274,0.00001999,-0.00007502
 ,-0.00006237,-0.00005096,0.00093516,-0.00271100,-0.00076605,-0.0152842
 2,0.01884579,-0.05159443,0.01628826,-0.02251892,-0.00078279,0.00003319
 ,0.00002539,0.00002080,-0.00004347,-0.00009084,0.00006831,0.00032630,-
 0.00033833,0.00034985,0.00000071,0.00000098,-0.00000959,0.00000611,0.0
 0000529,0.00000065,-0.00000025,0.00000493,0.00000075,-0.00000350,-0.00
 000356,-0.00000237,-0.00000217,-0.00001119,0.00000492,0.00051951,-0.00
 007100,0.00025171,-0.00018676,0.00031339,-0.00000760,-0.01735424,0.024
 85893,-0.00223391,0.01268479,-0.02019313,0.05451142,0.00185320,-0.0013
 7476,-0.00009538,0.01165458,0.01600407,0.00256800,-0.00216540,0.002760
 51,-0.00041805,-0.00031112,0.00022345,0.00009321,0.00017747,-0.0000192
 4,-0.00003933,0.00001587,-0.00003876,-0.00002423,0.00001384,0.00000886
 ,0.00001370,-0.00000471,-0.00001438,0.00000378,-0.00001691,0.00000903,
 0.00000683,-0.00000928,-0.00003721,-0.00003483,-0.00225316,0.00173147,
 0.00430384,-0.01252513,-0.01691814,-0.00401454,-0.15339984,-0.13211653
 ,-0.01938065,-0.00007018,-0.00007939,0.00004058,0.00058837,0.00090171,
 -0.00007830,0.00006381,-0.00006618,-0.00001887,-0.00000287,0.00002108,
 0.00002750,-0.00000789,-0.00000362,-0.00000561,-0.00000486,-0.00000844
 ,0.00000151,-0.00000403,-0.00000941,0.00000725,-0.00000069,0.00000750,
 0.00000026,0.00032215,0.00041018,-0.00002716,-0.00063426,-0.00143125,0
 .00009617,0.00118279,0.00024609,-0.00003951,0.00011667,0.00030672,-0.0
 0058092,0.16393544,0.00003527,0.00599290,0.00073447,-0.02211431,-0.026
 43605,-0.00408497,0.00492858,-0.00324523,0.00067238,0.00044930,0.00023
 959,-0.00044517,-0.00003620,0.00017043,0.00009058,-0.00003363,0.000001
 98,0.00003322,0.00000971,0.00000165,0.00001555,-0.00001288,-0.00001221
 ,-0.00000458,0.00002018,0.00000076,-0.00000739,-0.00005956,-0.00001977
 ,-0.00002285,0.00054768,0.00086158,-0.00025272,0.00165579,0.00228571,0
 .00104194,-0.12765981,-0.21007186,-0.02406861,0.00007995,0.00042096,-0
 .00017010,-0.00090287,-0.00145364,0.00009605,-0.00004651,-0.00001954,0
 .00011736,0.00002934,-0.00000499,0.00001120,-0.00000874,-0.00000844,-0
 .00000811,-0.00000548,-0.00001001,0.00000076,-0.00000305,-0.00001386,0
 .00000768,0.00000542,0.00000791,-0.00000422,-0.00002237,-0.00005009,-0
 .00004575,0.00010569,0.00016365,-0.00016474,-0.00006723,0.00015338,0.0
 0038599,-0.00023352,0.00034106,0.00042328,0.14037260,0.22714235,0.0006
 4781,-0.00022083,-0.00118025,-0.00076118,0.00223267,-0.00067071,0.0000
 5264,-0.00035509,0.00125232,0.00018353,-0.00057312,-0.00007695,-0.0001
 6889,0.00003212,0.00008556,-0.00002949,0.00004409,-0.00002507,-0.00000
 354,-0.00001260,0.00000614,0.00000282,0.00000782,-0.00000382,0.0000137
 6,-0.00001228,-0.00000238,0.00000232,0.00001560,0.00002975,0.00295191,
 -0.00131467,-0.00383691,0.01465675,0.02051335,0.00325615,-0.01912906,-
 0.02440658,-0.05399143,0.00034526,0.00042406,0.00022298,-0.00008201,-0
 .00009177,0.00038513,-0.00004524,0.00003383,-0.00001891,0.00001518,-0.
 00000126,-0.00000865,0.00000506,0.00000372,0.00000152,0.00000112,0.000
 00184,0.00000119,0.00000255,0.00000374,-0.00000269,-0.00000032,-0.0000
 0584,0.00000246,0.00027676,0.00009045,0.00023263,0.00091802,0.00123576
 ,0.00019643,-0.00089832,0.00034780,0.00087592,-0.00056172,-0.00039119,
 0.00069641,0.01884350,0.02582972,0.05514131,-0.00123611,0.00395929,0.0
 0322953,-0.01172198,-0.00051661,-0.01766614,0.00031683,-0.00022245,0.0
 0110617,-0.00010859,-0.00028977,0.00005331,-0.00004570,-0.00003990,0.0
 0002771,0.00001568,0.00002232,-0.00000070,-0.00000964,-0.00001384,-0.0
 0000325,0.00000078,0.00000817,-0.00000627,0.00000674,-0.00000053,0.000
 00152,0.00000720,0.00000255,0.00000740,0.00154940,0.00048779,0.0001016
 7,0.00983386,-0.00269573,0.02447087,-0.09603033,0.00726351,-0.10743942
 ,0.00058891,0.00037323,0.00027291,-0.00007566,-0.00007259,0.00034476,-
 0.00011694,0.00007311,-0.00000961,-0.00000040,-0.00000864,-0.00001376,
 0.00000514,0.00000183,0.00000183,0.00000134,0.00000371,-0.00000051,0.0
 0000052,0.00000304,-0.00000206,-0.00000358,0.00000020,0.00000307,-0.00
 019224,-0.00001762,-0.00046212,0.00015538,0.00041210,-0.00018076,-0.00
 314146,-0.00047677,0.00399286,0.00158127,-0.00002051,-0.00091147,-0.00
 851385,0.00296665,-0.01723924,0.10713341,0.00265899,-0.00280121,-0.003
 57220,0.01268230,0.00172139,0.02850515,-0.00138637,-0.00038658,-0.0032
 7660,0.00038319,0.00020174,-0.00019375,0.00003990,-0.00000521,-0.00001
 890,-0.00000913,-0.00002638,0.00004738,-0.00001648,0.00001538,-0.00002
 270,0.00000683,0.00000450,0.00000337,0.00000045,0.00000080,-0.00000199
 ,0.00000441,0.00000399,0.00001168,0.00053205,0.00010452,0.00102397,-0.
 00088817,0.00036791,-0.00131338,0.00865990,-0.05372325,0.02336190,-0.0
 0035787,-0.00158786,0.00003758,0.00006803,0.00040154,-0.00041656,0.000
 01103,0.00010771,-0.00006395,-0.00000985,-0.00002307,-0.00002062,0.000
 00203,0.00000083,0.00000388,0.00000350,0.00000580,-0.00000295,0.000001
 72,0.00000467,-0.00000480,-0.00000010,-0.00000246,-0.00000384,-0.00021
 708,0.00005865,-0.00006257,-0.00002424,0.00000738,-0.00013692,0.000473
 92,0.00101657,-0.00034831,-0.00053044,0.00017633,-0.00037978,-0.010885
 99,0.00356179,-0.02343135,-0.01120253,0.05079449,0.00066345,0.00059266
 ,-0.00084502,-0.00066328,-0.00013771,0.00094257,-0.00063489,-0.0001411
 9,-0.00062384,0.00041178,0.00004052,-0.00013381,-0.00002255,0.00003432
 ,0.00003874,-0.00000163,0.00006097,-0.00007011,0.00001113,-0.00000663,
 0.00002698,0.00000099,0.00000215,-0.00000098,0.00000202,-0.00000595,0.
 00000521,-0.00000202,0.00001075,-0.00000027,-0.00144369,-0.00050304,0.
 00078847,-0.00965337,0.00182108,-0.02526805,-0.10314490,0.01788628,-0.
 24042774,0.00028324,-0.00002592,0.00050654,0.00002956,0.00016144,0.000
 22689,0.00001701,-0.00017434,0.00013538,0.00001533,0.00000134,0.000025
 33,0.00000430,0.00000689,0.00000171,0.00000053,-0.00000195,0.00000320,
 0.00000141,-0.00000153,0.00000103,0.00000363,-0.00000840,0.00000866,0.
 00076554,0.00074887,0.00050949,0.00015934,-0.00023179,0.00041702,0.004
 53713,0.00021189,-0.00249002,-0.00041302,-0.00043598,0.00140168,-0.001
 24875,-0.00018098,-0.00256811,0.11032168,-0.01972375,0.26738905\\0.000
 02022,-0.00000613,0.00002834,0.00010351,-0.00000211,-0.00004785,-0.000
 12052,0.00001485,0.00010514,0.00000601,-0.00005019,-0.00003801,0.00009
 785,0.00001472,-0.00001183,-0.00007717,-0.00004385,-0.00002158,0.00000
 485,0.00004250,-0.00001215,0.00001296,-0.00001274,0.00001507,-0.000005
 75,-0.00001523,-0.00000671,-0.00001354,0.00000439,0.00001039,0.0000503
 9,0.00005643,0.00001560,0.00005378,-0.00003001,-0.00005603,-0.00013216
 ,-0.00000412,0.00012108,0.00001373,0.00000463,-0.00001526,0.00001014,-
 0.00001019,-0.00002252,0.00000093,-0.00000539,0.00000817,-0.00001443,-
 0.00001357,0.00001414,-0.00000051,0.00000266,0.00000982,-0.00000022,0.
 00001027,0.00000040,0.00000516,0.00000126,-0.00001038,-0.00000168,0.00
 000713,-0.00001244,-0.00001725,-0.00000150,-0.00001172,-0.00000841,-0.
 00000550,-0.00000716,-0.00001207,0.00001405,-0.00000511,0.00000867,0.0
 0000322,0.00000291,0.00001525,0.00002565,-0.00002633,0.00000026,-0.000
 00121,-0.00002598\\\@


 MATERIAL COPIED FROM ONE SCHOLARLY BOOK WITHOUT CREDIT COMPRISES PLAGIARISM.
 MATERIAL COPIED FROM TWO SCHOLARLY BOOKS COMPRISES AN ESSAY.
 MATERIAL COPIED FROM THREE SCHOLARLY BOOKS COMPRISES A DISSERTATION.
 MATERIAL COPIED FROM FOUR SCHOLARLY BOOKS COMPRISES A FIFTH SCHOLARLY BOOK.

                               -- C&EN, 25 FEB 1980
 Job cpu time:       0 days  0 hours  2 minutes 33.4 seconds.
 Elapsed time:       0 days  0 hours  2 minutes 37.4 seconds.
 File lengths (MBytes):  RWF=    161 Int=      0 D2E=      0 Chk=     16 Scr=      1
 Normal termination of Gaussian 16 at Sat Feb 24 04:17:37 2024.
