 Entering Gaussian System, Link 0=g16
 Input=/Volumes/SSD-PMU3/b3lyp_6-31gd_freq/DKARAPVRXISLDG-NEPJUHHUSA-N_calculating/gaussianinput0.gjf
 Output=/Volumes/SSD-PMU3/b3lyp_6-31gd_freq/DKARAPVRXISLDG-NEPJUHHUSA-N_calculating/gaussianinput0.log
 Initial command:
 /Applications/g16/l1.exe "/Users/macmini_m1_2022/PycharmProjects/sphere_model/sphere_model_lib/Gau-89513.inp" -scrdir="/Users/macmini_m1_2022/PycharmProjects/sphere_model/sphere_model_lib/"
 Entering Link 1 = /Applications/g16/l1.exe PID=     89514.
  
 Copyright (c) 1988,1990,1992,1993,1995,1998,2003,2009,2016,
            Gaussian, Inc.  All Rights Reserved.
  
 This is part of the Gaussian(R) 16 program.  It is based on
 the Gaussian(R) 09 system (copyright 2009, Gaussian, Inc.),
 the Gaussian(R) 03 system (copyright 2003, Gaussian, Inc.),
 the Gaussian(R) 98 system (copyright 1998, Gaussian, Inc.),
 the Gaussian(R) 94 system (copyright 1995, Gaussian, Inc.),
 the Gaussian 92(TM) system (copyright 1992, Gaussian, Inc.),
 the Gaussian 90(TM) system (copyright 1990, Gaussian, Inc.),
 the Gaussian 88(TM) system (copyright 1988, Gaussian, Inc.),
 the Gaussian 86(TM) system (copyright 1986, Carnegie Mellon
 University), and the Gaussian 82(TM) system (copyright 1983,
 Carnegie Mellon University). Gaussian is a federally registered
 trademark of Gaussian, Inc.
  
 This software contains proprietary and confidential information,
 including trade secrets, belonging to Gaussian, Inc.
  
 This software is provided under written license and may be
 used, copied, transmitted, or stored only in accord with that
 written license.
  
 The following legend is applicable only to US Government
 contracts under FAR:
  
                    RESTRICTED RIGHTS LEGEND
  
 Use, reproduction and disclosure by the US Government is
 subject to restrictions as set forth in subparagraphs (a)
 and (c) of the Commercial Computer Software - Restricted
 Rights clause in FAR 52.227-19.
  
 Gaussian, Inc.
 340 Quinnipiac St., Bldg. 40, Wallingford CT 06492
  
  
 ---------------------------------------------------------------
 Warning -- This program may not be used in any manner that
 competes with the business of Gaussian, Inc. or will provide
 assistance to any competitor of Gaussian, Inc.  The licensee
 of this program is prohibited from giving any competitor of
 Gaussian, Inc. access to this program.  By using this program,
 the user acknowledges that Gaussian, Inc. is engaged in the
 business of creating and licensing software in the field of
 computational chemistry and represents and warrants to the
 licensee that it is not a competitor of Gaussian, Inc. and that
 it will not use this program in any manner prohibited above.
 ---------------------------------------------------------------
  

 Cite this work as:
 Gaussian 16, Revision A.03,
 M. J. Frisch, G. W. Trucks, H. B. Schlegel, G. E. Scuseria, 
 M. A. Robb, J. R. Cheeseman, G. Scalmani, V. Barone, 
 G. A. Petersson, H. Nakatsuji, X. Li, M. Caricato, A. V. Marenich, 
 J. Bloino, B. G. Janesko, R. Gomperts, B. Mennucci, H. P. Hratchian, 
 J. V. Ortiz, A. F. Izmaylov, J. L. Sonnenberg, D. Williams-Young, 
 F. Ding, F. Lipparini, F. Egidi, J. Goings, B. Peng, A. Petrone, 
 T. Henderson, D. Ranasinghe, V. G. Zakrzewski, J. Gao, N. Rega, 
 G. Zheng, W. Liang, M. Hada, M. Ehara, K. Toyota, R. Fukuda, 
 J. Hasegawa, M. Ishida, T. Nakajima, Y. Honda, O. Kitao, H. Nakai, 
 T. Vreven, K. Throssell, J. A. Montgomery, Jr., J. E. Peralta, 
 F. Ogliaro, M. J. Bearpark, J. J. Heyd, E. N. Brothers, K. N. Kudin, 
 V. N. Staroverov, T. A. Keith, R. Kobayashi, J. Normand, 
 K. Raghavachari, A. P. Rendell, J. C. Burant, S. S. Iyengar, 
 J. Tomasi, M. Cossi, J. M. Millam, M. Klene, C. Adamo, R. Cammi, 
 J. W. Ochterski, R. L. Martin, K. Morokuma, O. Farkas, 
 J. B. Foresman, and D. J. Fox, Gaussian, Inc., Wallingford CT, 2016.
 
 ******************************************
 Gaussian 16:  EM64M-G16RevA.03 25-Dec-2016
                24-Feb-2024 
 ******************************************
 %nprocshared=10
 Will use up to   10 processors via shared memory.
 %mem=12GB
 %chk= 0.chk
 ---------------------
 # freq b3lyp/6-31g(d)
 ---------------------
 1/10=4,30=1,38=1/1,3;
 2/12=2,17=6,18=5,40=1/2;
 3/5=1,6=6,7=1,11=2,25=1,30=1,71=2,74=-5,140=1/1,2,3;
 4//1;
 5/5=2,38=5,98=1/2;
 8/6=4,10=90,11=11/1;
 11/6=1,8=1,9=11,15=111,16=1/1,2,10;
 10/6=1/2;
 6/7=2,8=2,9=2,10=2,28=1/1;
 7/8=1,10=1,25=1/1,2,3,16;
 1/10=4,30=1/3;
 99//99;
 ---------
 good luck
 ---------
 Symbolic Z-matrix:
 Charge =  0 Multiplicity = 1
 O                     1.21356   0.        0. 
 C                     0.        0.        0. 
 C                    -0.87349  -1.27175   0.00275 
 C                    -0.34067  -2.28884  -1.02459 
 C                    -0.71367  -1.92109   1.4021 
 C                    -2.30992  -0.71455  -0.291 
 C                    -3.43685  -1.59844   0.26317 
 C                    -2.54612  -0.481    -1.8117 
 C                    -3.59738   0.63875  -1.9074 
 C                    -3.36721   1.52176  -0.65365 
 C                    -2.33472   0.78105   0.24805 
 C                    -2.7014    0.97542   1.72916 
 C                    -0.87765   1.25033   0.00275 
 H                    -0.93488  -3.20969  -1.00334 
 H                    -0.34915  -1.90266  -2.04681 
 H                     0.69473  -2.54333  -0.77971 
 H                     0.34725  -2.1204    1.58343 
 H                    -1.0781   -1.29093   2.21736 
 H                    -1.25177  -2.87387   1.44834 
 H                    -4.42313  -1.18455   0.02374 
 H                    -3.39081  -2.60167  -0.17829 
 H                    -3.38648  -1.71304   1.34941 
 H                    -2.85134  -1.39724  -2.3294 
 H                    -1.61867  -0.14647  -2.29245 
 H                    -4.60895   0.2177   -1.8959 
 H                    -3.50756   1.20086  -2.84291 
 H                    -3.0027    2.52246  -0.91335 
 H                    -4.30715   1.67218  -0.11051 
 H                    -2.76122   2.0477    1.95322 
 H                    -1.96123   0.5482    2.41303 
 H                    -3.67613   0.53797   1.96849 
 H                    -0.75985   1.73264  -0.97705 
 H                    -0.5118    1.97143   0.74239 
 

 GradGradGradGradGradGradGradGradGradGradGradGradGradGradGradGradGradGrad
 Berny optimization.
 Initialization pass.
 Trust Radius=3.00D-01 FncErr=1.00D-07 GrdErr=1.00D-07 EigMax=2.50D+02 EigMin=1.00D-04
 Number of steps in this run=      2 maximum allowed number of steps=      2.
 GradGradGradGradGradGradGradGradGradGradGradGradGradGradGradGradGradGrad

                          Input orientation:                          
 ---------------------------------------------------------------------
 Center     Atomic      Atomic             Coordinates (Angstroms)
 Number     Number       Type             X           Y           Z
 ---------------------------------------------------------------------
      1          8           0        1.213557    0.000000    0.000000
      2          6           0        0.000000    0.000000    0.000000
      3          6           0       -0.873494   -1.271750    0.002753
      4          6           0       -0.340674   -2.288838   -1.024588
      5          6           0       -0.713667   -1.921088    1.402101
      6          6           0       -2.309920   -0.714547   -0.290995
      7          6           0       -3.436848   -1.598440    0.263165
      8          6           0       -2.546117   -0.481002   -1.811695
      9          6           0       -3.597383    0.638748   -1.907395
     10          6           0       -3.367207    1.521764   -0.653645
     11          6           0       -2.334724    0.781051    0.248052
     12          6           0       -2.701403    0.975417    1.729162
     13          6           0       -0.877647    1.250325    0.002753
     14          1           0       -0.934879   -3.209695   -1.003343
     15          1           0       -0.349149   -1.902664   -2.046809
     16          1           0        0.694733   -2.543334   -0.779713
     17          1           0        0.347254   -2.120403    1.583431
     18          1           0       -1.078103   -1.290934    2.217358
     19          1           0       -1.251768   -2.873866    1.448337
     20          1           0       -4.423133   -1.184547    0.023738
     21          1           0       -3.390810   -2.601671   -0.178292
     22          1           0       -3.386483   -1.713042    1.349409
     23          1           0       -2.851341   -1.397244   -2.329396
     24          1           0       -1.618668   -0.146467   -2.292448
     25          1           0       -4.608948    0.217700   -1.895903
     26          1           0       -3.507560    1.200858   -2.842907
     27          1           0       -3.002697    2.522459   -0.913354
     28          1           0       -4.307149    1.672177   -0.110512
     29          1           0       -2.761215    2.047695    1.953217
     30          1           0       -1.961233    0.548197    2.413025
     31          1           0       -3.676128    0.537968    1.968485
     32          1           0       -0.759847    1.732638   -0.977051
     33          1           0       -0.511801    1.971426    0.742393
 ---------------------------------------------------------------------
                    Distance matrix (angstroms):
                    1          2          3          4          5
     1  O    0.000000
     2  C    1.213557   0.000000
     3  C    2.444000   1.542837   0.000000
     4  C    2.950287   2.530735   1.540712   0.000000
     5  C    3.061153   2.483100   1.550922   2.482576   0.000000
     6  C    3.606958   2.435362   1.568465   2.625734   2.621133
     7  C    4.924483   3.799499   2.597176   3.423631   2.969342
     8  C    4.201042   3.161695   2.591365   2.958342   3.969913
     9  C    5.214528   4.121568   3.836436   4.467243   5.081470
    10  C    4.870977   3.752479   3.801734   4.880388   4.808388
    11  C    3.641685   2.474370   2.531671   3.875573   3.355773
    12  C    4.389573   3.352464   3.372165   4.879707   3.528145
    13  C    2.436484   1.527607   2.522078   3.724170   3.470292
    14  H    3.990566   3.490392   2.184406   1.096133   2.737810
    15  H    3.201813   2.816285   2.207645   1.092766   3.468169
    16  H    2.710291   2.749392   2.165298   1.093983   2.670411
    17  H    2.784572   2.669072   2.170019   2.702476   1.094605
    18  H    3.440188   2.783073   2.224120   3.471286   1.092955
    19  H    4.053963   3.453072   2.190794   2.699576   1.095206
    20  H    5.759860   4.579063   3.550772   4.357169   4.025235
    21  H    5.291566   4.277625   2.852779   3.180788   3.182441
    22  H    5.090755   4.027864   2.885019   3.904402   2.681418
    23  H    4.888944   3.938086   3.060481   2.966633   4.332220
    24  H    3.646679   2.810135   2.662610   2.798301   4.197380
    25  H    6.127267   4.988411   4.447131   5.025941   5.533937
    26  H    5.640313   4.671954   4.598899   5.051082   5.964267
    27  H    4.997381   4.026562   4.446210   5.499756   5.508729
    28  H    5.769453   4.621679   4.524326   5.679621   5.302138
    29  H    4.879234   3.953785   4.287950   5.790670   4.499713
    30  H    4.025233   3.157474   3.210108   4.742590   2.945464
    31  H    5.298430   4.204552   3.872201   5.298544   3.891519
    32  H    2.801961   2.129326   3.162164   4.043542   4.360299
    33  H    2.722963   2.167858   3.346054   4.615339   3.953180
                    6          7          8          9         10
     6  C    0.000000
     7  C    1.535684   0.000000
     8  C    1.556554   2.519348   0.000000
     9  C    2.470165   3.121236   1.538882   0.000000
    10  C    2.500092   3.252855   2.454861   1.550673   0.000000
    11  C    1.589969   2.622381   2.424876   2.502101   1.558119
    12  C    2.662756   3.052010   3.831832   3.760409   2.533685
    13  C    2.449166   3.838331   3.012226   3.379298   2.588908
    14  H    2.936655   3.234198   3.270365   4.766209   5.331530
    15  H    2.887755   3.868128   2.627369   4.126649   4.772451
    16  H    3.551232   4.364674   3.977601   5.460730   5.748067
    17  H    3.542665   4.041655   4.752485   5.946338   5.662783
    18  H    2.853319   3.078491   4.363980   5.204232   4.625357
    19  H    2.967763   2.793907   4.246051   5.394562   5.311777
    20  H    2.187607   1.096080   2.717900   2.781284   2.982943
    21  H    2.177674   1.097031   2.806911   3.678693   4.150811
    22  H    2.201569   1.093433   3.495242   4.022706   3.804808
    23  H    2.216820   2.665459   1.095753   2.209056   3.405124
    24  H    2.192341   3.456177   1.096904   2.163363   2.919942
    25  H    2.954716   3.055120   2.179575   1.095754   2.187626
    26  H    3.408133   4.181956   2.194635   1.095088   2.217103
    27  H    3.368305   4.307493   3.168006   2.211365   1.096224
    28  H    3.117363   3.404995   3.260588   2.191012   1.095951
    29  H    3.587497   4.075176   4.540390   4.193880   2.727556
    30  H    3.004635   3.377483   4.387436   4.620738   3.511276
    31  H    2.922425   2.744014   4.074922   3.877990   2.817597
    32  H    2.976930   4.449781   2.964387   3.180212   2.635789
    33  H    3.393460   4.639990   4.083652   4.279979   3.210056
                   11         12         13         14         15
    11  C    0.000000
    12  C    1.538154   0.000000
    13  C    1.550311   2.526291   0.000000
    14  H    4.410398   5.301165   4.572448   0.000000
    15  H    4.051077   5.298529   3.797546   1.772070   0.000000
    16  H    4.613615   5.496344   4.180488   1.774735   1.762294
    17  H    4.170693   4.347373   3.919277   3.085745   3.702841
    18  H    3.122561   2.830156   3.376782   3.751676   4.369063
    19  H    3.996485   4.122776   4.386186   2.494781   3.738181
    20  H    2.876690   3.246270   4.301106   4.162215   4.626035
    21  H    3.569299   4.112082   4.602895   2.661203   3.637536
    22  H    2.922274   2.800243   4.109657   3.712920   4.560225
    23  H    3.413957   4.703604   4.042772   2.952325   2.568320
    24  H    2.797707   4.313269   2.787129   3.393041   2.180882
    25  H    3.175847   4.165808   4.312055   5.103184   4.760736
    26  H    3.332538   4.648067   3.875135   5.427307   4.499020
    27  H    2.197169   3.076850   2.640722   6.094387   5.282779
    28  H    2.193886   2.539349   3.457206   6.000169   5.674020
    29  H    2.166534   1.097068   2.826294   6.302135   6.117484
    30  H    2.209259   1.094549   2.734329   5.181383   5.338132
    31  H    2.195073   1.094863   3.493287   5.512820   5.757435
    32  H    2.210573   3.415642   1.098416   4.945501   3.811624
    33  H    2.232580   2.600020   1.095855   5.483667   4.776471
                   16         17         18         19         20
    16  H    0.000000
    17  H    2.425709   0.000000
    18  H    3.700525   1.766784   0.000000
    19  H    2.976966   1.772802   1.768397   0.000000
    20  H    5.355781   5.105395   4.001564   3.865338   0.000000
    21  H    4.129985   4.160338   3.578517   2.701021   1.764865
    22  H    4.677485   3.763177   2.502025   2.431935   1.763903
    23  H    4.036048   5.105309   4.881459   4.360082   2.837783
    24  H    3.658574   4.773229   4.684054   4.644006   3.782506
    25  H    6.082616   6.491258   5.626878   5.657948   2.384501
    26  H    5.994582   6.744096   6.141463   6.332989   3.840063
    27  H    6.273046   6.245981   5.295978   6.145214   4.078930
    28  H    6.575499   6.238315   4.962433   5.694899   2.862228
    29  H    6.363178   5.212712   3.748210   5.172533   4.114881
    30  H    5.177383   3.624743   2.049538   3.625532   3.843442
    31  H    6.012607   4.837645   3.186935   4.217664   2.703168
    32  H    4.520916   4.756855   4.409935   5.229185   4.788654
    33  H    4.914834   4.264784   3.624805   4.952046   5.076923
                   21         22         23         24         25
    21  H    0.000000
    22  H    1.767357   0.000000
    23  H    2.523672   3.730913   0.000000
    24  H    3.692989   4.340789   1.756500   0.000000
    25  H    3.518935   3.969161   2.425931   3.038361   0.000000
    26  H    4.644678   5.106955   2.728452   2.384576   1.753987
    27  H    5.191113   4.817350   4.170390   3.307658   2.976132
    28  H    4.371504   3.799829   4.057606   3.911041   2.322543
    29  H    5.153283   3.859882   5.496954   4.913800   4.645290
    30  H    4.322069   2.876772   5.202652   4.768793   5.068183
    31  H    3.814104   2.352487   4.785091   4.780914   3.988260
    32  H    5.132857   4.917758   3.999918   2.449261   4.237323
    33  H    5.481749   4.712491   5.124185   3.862756   5.179071
                   26         27         28         29         30
    26  H    0.000000
    27  H    2.392633   0.000000
    28  H    2.885735   1.751893   0.000000
    29  H    4.927166   2.915638   2.605744   0.000000
    30  H    5.517419   4.005890   3.624209   1.760650   0.000000
    31  H    4.859767   3.563244   2.450887   1.765382   1.771605
    32  H    3.363649   2.378708   3.652109   3.562472   3.786667
    33  H    4.735264   3.041332   3.901495   2.555734   2.630104
                   31         32         33
    31  H    0.000000
    32  H    4.313712   0.000000
    33  H    3.683893   1.753578   0.000000
 Stoichiometry    C12H20O
 Framework group  C1[X(C12H20O)]
 Deg. of freedom    93
 Full point group                 C1      NOp   1
 Largest Abelian subgroup         C1      NOp   1
 Largest concise Abelian subgroup C1      NOp   1
                         Standard orientation:                         
 ---------------------------------------------------------------------
 Center     Atomic      Atomic             Coordinates (Angstroms)
 Number     Number       Type             X           Y           Z
 ---------------------------------------------------------------------
      1          8           0        2.369835    1.383848   -1.086762
      2          6           0        1.345036    0.928732   -0.622676
      3          6           0        1.244089   -0.424459    0.111510
      4          6           0        2.006081   -1.513734   -0.667363
      5          6           0        1.971825   -0.251548    1.470135
      6          6           0       -0.303888   -0.647023    0.231156
      7          6           0       -0.707277   -1.530973    1.420373
      8          6           0       -0.911364   -1.239568   -1.073729
      9          6           0       -2.377564   -0.773271   -1.105126
     10          6           0       -2.384817    0.597000   -0.379253
     11          6           0       -0.969744    0.796766    0.241550
     12          6           0       -1.093003    1.490699    1.608731
     13          6           0       -0.021014    1.610408   -0.675707
     14          1           0        1.968999   -2.470438   -0.133649
     15          1           0        1.610010   -1.670626   -1.673669
     16          1           0        3.054635   -1.219401   -0.770819
     17          1           0        3.002153    0.067969    1.284414
     18          1           0        1.504967    0.491864    2.121237
     19          1           0        2.002874   -1.201605    2.014106
     20          1           0       -1.793040   -1.675699    1.459928
     21          1           0       -0.251096   -2.524800    1.332715
     22          1           0       -0.399419   -1.109936    2.381386
     23          1           0       -0.809923   -2.329610   -1.120555
     24          1           0       -0.387570   -0.840571   -1.951021
     25          1           0       -3.018972   -1.487372   -0.576606
     26          1           0       -2.762029   -0.711754   -2.128659
     27          1           0       -2.627302    1.423429   -1.057429
     28          1           0       -3.149797    0.613293    0.405380
     29          1           0       -1.636985    2.436104    1.491042
     30          1           0       -0.123305    1.734764    2.053876
     31          1           0       -1.651471    0.880927    2.326378
     32          1           0       -0.350418    1.597815   -1.723492
     33          1           0        0.068849    2.666693   -0.398068
 ---------------------------------------------------------------------
 Rotational constants (GHZ):           1.1245880           0.7478248           0.6899720
 Standard basis: 6-31G(d) (6D, 7F)
 There are   235 symmetry adapted cartesian basis functions of A   symmetry.
 There are   235 symmetry adapted basis functions of A   symmetry.
   235 basis functions,   444 primitive gaussians,   235 cartesian basis functions
    50 alpha electrons       50 beta electrons
       nuclear repulsion energy       905.1629855838 Hartrees.
 NAtoms=   33 NActive=   33 NUniq=   33 SFac= 1.00D+00 NAtFMM=   60 NAOKFM=F Big=F
 Integral buffers will be    131072 words long.
 Raffenetti 2 integral format.
 Two-electron integral symmetry is turned on.
 One-electron integrals computed using PRISM.
 NBasis=   235 RedAO= T EigKep=  1.79D-03  NBF=   235
 NBsUse=   235 1.00D-06 EigRej= -1.00D+00 NBFU=   235
 ExpMin= 1.61D-01 ExpMax= 5.48D+03 ExpMxC= 8.25D+02 IAcc=3 IRadAn=         5 AccDes= 0.00D+00
 Harris functional with IExCor=  402 and IRadAn=       5 diagonalized for initial guess.
 HarFok:  IExCor=  402 AccDes= 0.00D+00 IRadAn=         5 IDoV= 1 UseB2=F ITyADJ=14
 ICtDFT=  3500011 ScaDFX=  1.000000  1.000000  1.000000  1.000000
 FoFCou: FMM=F IPFlag=           0 FMFlag=      100000 FMFlg1=           0
         NFxFlg=           0 DoJE=T BraDBF=F KetDBF=T FulRan=T
         wScrn=  0.000000 ICntrl=       500 IOpCl=  0 I1Cent=   200000004 NGrid=           0
         NMat0=    1 NMatS0=      1 NMatT0=    0 NMatD0=    1 NMtDS0=    0 NMtDT0=    0
 Petite list used in FoFCou.
 Requested convergence on RMS density matrix=1.00D-08 within 128 cycles.
 Requested convergence on MAX density matrix=1.00D-06.
 Requested convergence on             energy=1.00D-06.
 No special actions if energy rises.
 Integral accuracy reduced to 1.0D-05 until final iterations.
 Initial convergence to 1.0D-05 achieved.  Increase integral accuracy.
 SCF Done:  E(RB3LYP) =  -544.550354414     A.U. after   14 cycles
            NFock= 14  Conv=0.32D-08     -V/T= 2.0098
 DoSCS=F DFT=T ScalE2(SS,OS)=  1.000000  1.000000
 Range of M.O.s used for correlation:     1   235
 NBasis=   235 NAE=    50 NBE=    50 NFC=     0 NFV=     0
 NROrb=    235 NOA=    50 NOB=    50 NVA=   185 NVB=   185
 Symmetrizing basis deriv contribution to polar:
 IMax=3 JMax=2 DiffMx= 0.00D+00
 G2DrvN: will do    34 centers at a time, making    1 passes.
 Calling FoFCou, ICntrl=  3107 FMM=F I1Cent=   0 AccDes= 0.00D+00.
 End of G2Drv F.D. properties file   721 does not exist.
 End of G2Drv F.D. properties file   722 does not exist.
 End of G2Drv F.D. properties file   788 does not exist.
          IDoAtm=111111111111111111111111111111111
          Differentiating once with respect to electric field.
                with respect to dipole field.
          Differentiating once with respect to nuclear coordinates.
 Keep R1 ints in memory in canonical form, NReq=395129310.
          There are   102 degrees of freedom in the 1st order CPHF.  IDoFFX=6 NUNeed=     3.
     99 vectors produced by pass  0 Test12= 9.25D-15 1.00D-09 XBig12= 8.38D+01 1.74D+00.
 AX will form    99 AO Fock derivatives at one time.
     99 vectors produced by pass  1 Test12= 9.25D-15 1.00D-09 XBig12= 1.06D+01 8.83D-01.
     99 vectors produced by pass  2 Test12= 9.25D-15 1.00D-09 XBig12= 9.53D-02 3.59D-02.
     99 vectors produced by pass  3 Test12= 9.25D-15 1.00D-09 XBig12= 2.93D-04 1.93D-03.
     99 vectors produced by pass  4 Test12= 9.25D-15 1.00D-09 XBig12= 3.22D-07 7.03D-05.
     44 vectors produced by pass  5 Test12= 9.25D-15 1.00D-09 XBig12= 2.40D-10 1.26D-06.
      4 vectors produced by pass  6 Test12= 9.25D-15 1.00D-09 XBig12= 1.75D-13 3.47D-08.
      1 vectors produced by pass  7 Test12= 9.25D-15 1.00D-09 XBig12= 1.29D-16 1.10D-09.
 InvSVY:  IOpt=1 It=  1 EMax= 1.60D-14
 Solved reduced A of dimension   544 with   102 vectors.
 Isotropic polarizability for W=    0.000000      118.31 Bohr**3.
 End of Minotr F.D. properties file   721 does not exist.
 End of Minotr F.D. properties file   722 does not exist.
 End of Minotr F.D. properties file   788 does not exist.

 **********************************************************************

            Population analysis using the SCF density.

 **********************************************************************

 Orbital symmetries:
       Occupied  (A) (A) (A) (A) (A) (A) (A) (A) (A) (A) (A) (A)
                 (A) (A) (A) (A) (A) (A) (A) (A) (A) (A) (A) (A)
                 (A) (A) (A) (A) (A) (A) (A) (A) (A) (A) (A) (A)
                 (A) (A) (A) (A) (A) (A) (A) (A) (A) (A) (A) (A)
                 (A) (A)
       Virtual   (A) (A) (A) (A) (A) (A) (A) (A) (A) (A) (A) (A)
                 (A) (A) (A) (A) (A) (A) (A) (A) (A) (A) (A) (A)
                 (A) (A) (A) (A) (A) (A) (A) (A) (A) (A) (A) (A)
                 (A) (A) (A) (A) (A) (A) (A) (A) (A) (A) (A) (A)
                 (A) (A) (A) (A) (A) (A) (A) (A) (A) (A) (A) (A)
                 (A) (A) (A) (A) (A) (A) (A) (A) (A) (A) (A) (A)
                 (A) (A) (A) (A) (A) (A) (A) (A) (A) (A) (A) (A)
                 (A) (A) (A) (A) (A) (A) (A) (A) (A) (A) (A) (A)
                 (A) (A) (A) (A) (A) (A) (A) (A) (A) (A) (A) (A)
                 (A) (A) (A) (A) (A) (A) (A) (A) (A) (A) (A) (A)
                 (A) (A) (A) (A) (A) (A) (A) (A) (A) (A) (A) (A)
                 (A) (A) (A) (A) (A) (A) (A) (A) (A) (A) (A) (A)
                 (A) (A) (A) (A) (A) (A) (A) (A) (A) (A) (A) (A)
                 (A) (A) (A) (A) (A) (A) (A) (A) (A) (A) (A) (A)
                 (A) (A) (A) (A) (A) (A) (A) (A) (A) (A) (A) (A)
                 (A) (A) (A) (A) (A)
 The electronic state is 1-A.
 Alpha  occ. eigenvalues --  -19.13245 -10.26356 -10.19890 -10.19785 -10.19683
 Alpha  occ. eigenvalues --  -10.18514 -10.18166 -10.18062 -10.18047 -10.17874
 Alpha  occ. eigenvalues --  -10.17820 -10.17685 -10.17339  -1.03185  -0.86724
 Alpha  occ. eigenvalues --   -0.79600  -0.77035  -0.73075  -0.71765  -0.68564
 Alpha  occ. eigenvalues --   -0.66847  -0.63943  -0.61334  -0.56083  -0.52558
 Alpha  occ. eigenvalues --   -0.50616  -0.48169  -0.47340  -0.44945  -0.44137
 Alpha  occ. eigenvalues --   -0.43680  -0.42848  -0.41576  -0.41060  -0.40429
 Alpha  occ. eigenvalues --   -0.39420  -0.38774  -0.38223  -0.37875  -0.36935
 Alpha  occ. eigenvalues --   -0.35734  -0.35461  -0.33461  -0.33289  -0.32242
 Alpha  occ. eigenvalues --   -0.31861  -0.31200  -0.30456  -0.29122  -0.23048
 Alpha virt. eigenvalues --   -0.01332   0.06348   0.09448   0.09970   0.10971
 Alpha virt. eigenvalues --    0.12113   0.13267   0.13922   0.14226   0.14837
 Alpha virt. eigenvalues --    0.15299   0.15790   0.15929   0.17024   0.18151
 Alpha virt. eigenvalues --    0.18647   0.18951   0.19490   0.20469   0.20894
 Alpha virt. eigenvalues --    0.21170   0.22342   0.23144   0.24226   0.24485
 Alpha virt. eigenvalues --    0.25638   0.26431   0.27776   0.28305   0.29058
 Alpha virt. eigenvalues --    0.30282   0.32227   0.33130   0.36071   0.38664
 Alpha virt. eigenvalues --    0.48441   0.50454   0.50542   0.51876   0.53565
 Alpha virt. eigenvalues --    0.54600   0.55687   0.57675   0.58262   0.60090
 Alpha virt. eigenvalues --    0.61523   0.62379   0.63690   0.64695   0.66158
 Alpha virt. eigenvalues --    0.67582   0.68123   0.68913   0.70232   0.72066
 Alpha virt. eigenvalues --    0.72229   0.75102   0.75419   0.77177   0.78473
 Alpha virt. eigenvalues --    0.79960   0.81520   0.82630   0.83178   0.84134
 Alpha virt. eigenvalues --    0.85068   0.86144   0.87394   0.87784   0.88209
 Alpha virt. eigenvalues --    0.89521   0.89800   0.90323   0.92191   0.92597
 Alpha virt. eigenvalues --    0.92918   0.93642   0.93775   0.94679   0.95239
 Alpha virt. eigenvalues --    0.95434   0.96739   0.97460   0.98615   1.00519
 Alpha virt. eigenvalues --    1.00620   1.02018   1.04174   1.05281   1.06283
 Alpha virt. eigenvalues --    1.08027   1.09503   1.13596   1.15359   1.18266
 Alpha virt. eigenvalues --    1.25052   1.27340   1.28647   1.36180   1.39133
 Alpha virt. eigenvalues --    1.41680   1.47245   1.52922   1.53881   1.56595
 Alpha virt. eigenvalues --    1.60158   1.61978   1.63965   1.65947   1.71659
 Alpha virt. eigenvalues --    1.73209   1.73874   1.76917   1.77949   1.78725
 Alpha virt. eigenvalues --    1.79563   1.81840   1.83916   1.86212   1.87492
 Alpha virt. eigenvalues --    1.87671   1.90243   1.91153   1.92214   1.95085
 Alpha virt. eigenvalues --    1.96310   1.97161   1.98609   1.99983   2.02263
 Alpha virt. eigenvalues --    2.03797   2.04606   2.07163   2.08589   2.10201
 Alpha virt. eigenvalues --    2.11670   2.13287   2.14464   2.17182   2.18957
 Alpha virt. eigenvalues --    2.21545   2.22738   2.24566   2.25583   2.27661
 Alpha virt. eigenvalues --    2.27999   2.30212   2.31641   2.34342   2.35384
 Alpha virt. eigenvalues --    2.38561   2.41271   2.42519   2.46635   2.47809
 Alpha virt. eigenvalues --    2.50427   2.50680   2.54012   2.59840   2.60219
 Alpha virt. eigenvalues --    2.62863   2.68001   2.70275   2.72261   2.76470
 Alpha virt. eigenvalues --    2.78233   2.80759   2.84485   2.85966   2.89823
 Alpha virt. eigenvalues --    3.02570   3.08493   4.09811   4.13914   4.23268
 Alpha virt. eigenvalues --    4.24292   4.27780   4.33014   4.34848   4.38504
 Alpha virt. eigenvalues --    4.54831   4.56768   4.70441   4.81291   4.87456
          Condensed to atoms (all electrons):
               1          2          3          4          5          6
     1  O    8.053048   0.543777  -0.076263  -0.001864  -0.004620   0.003685
     2  C    0.543777   4.566042   0.320626  -0.037087  -0.038929  -0.035438
     3  C   -0.076263   0.320626   5.135093   0.359026   0.362705   0.332622
     4  C   -0.001864  -0.037087   0.359026   5.140797  -0.055091  -0.043749
     5  C   -0.004620  -0.038929   0.362705  -0.055091   5.165553  -0.043274
     6  C    0.003685  -0.035438   0.332622  -0.043749  -0.043274   4.950744
     7  C   -0.000075   0.001966  -0.036625  -0.000323  -0.011295   0.360425
     8  C   -0.000013  -0.004248  -0.037929  -0.013034   0.004742   0.361341
     9  C    0.000001   0.000436   0.003853   0.000541  -0.000135  -0.050992
    10  C   -0.000066   0.002368   0.004905  -0.000186  -0.000051  -0.063214
    11  C    0.003393  -0.040676  -0.030169   0.003428  -0.001024   0.401595
    12  C   -0.000003  -0.000584   0.000705  -0.000087  -0.003000  -0.042411
    13  C   -0.070332   0.322317  -0.169129   0.007805   0.003386  -0.054917
    14  H    0.000123   0.004699  -0.030896   0.366455  -0.006332  -0.003522
    15  H    0.000368  -0.003039  -0.029629   0.368657   0.005393  -0.007115
    16  H    0.008836  -0.006952  -0.030090   0.364837  -0.003992   0.005095
    17  H    0.006640  -0.004773  -0.031483  -0.005072   0.363733   0.005036
    18  H    0.000018  -0.003413  -0.032158   0.005652   0.364794  -0.003121
    19  H    0.000031   0.004487  -0.028780  -0.006406   0.368585  -0.006531
    20  H    0.000000  -0.000058   0.004494  -0.000102   0.000261  -0.028879
    21  H    0.000000   0.000115  -0.004784   0.001199  -0.001097  -0.027671
    22  H   -0.000000   0.000137  -0.007701  -0.000011   0.003788  -0.023485
    23  H    0.000005  -0.000016  -0.002691   0.001743  -0.000148  -0.025532
    24  H   -0.000324   0.000865  -0.002338  -0.002815   0.000120  -0.038016
    25  H   -0.000000  -0.000001   0.000014  -0.000020   0.000003  -0.000642
    26  H   -0.000000  -0.000030  -0.000133   0.000004   0.000002   0.004177
    27  H   -0.000000   0.000287  -0.000124   0.000004   0.000002   0.004299
    28  H    0.000000  -0.000090  -0.000084   0.000002  -0.000001   0.000583
    29  H    0.000002  -0.000011  -0.000181   0.000003   0.000120   0.004650
    30  H   -0.000084   0.000492   0.001572  -0.000023  -0.001845  -0.003230
    31  H    0.000001  -0.000046   0.000044  -0.000003  -0.000020  -0.007807
    32  H   -0.000367  -0.022888   0.004122  -0.000429   0.000108  -0.000244
    33  H    0.000893  -0.018418   0.005765  -0.000053  -0.000455   0.003534
               7          8          9         10         11         12
     1  O   -0.000075  -0.000013   0.000001  -0.000066   0.003393  -0.000003
     2  C    0.001966  -0.004248   0.000436   0.002368  -0.040676  -0.000584
     3  C   -0.036625  -0.037929   0.003853   0.004905  -0.030169   0.000705
     4  C   -0.000323  -0.013034   0.000541  -0.000186   0.003428  -0.000087
     5  C   -0.011295   0.004742  -0.000135  -0.000051  -0.001024  -0.003000
     6  C    0.360425   0.361341  -0.050992  -0.063214   0.401595  -0.042411
     7  C    5.174868  -0.063418  -0.001530  -0.000734  -0.047295  -0.008844
     8  C   -0.063418   5.138466   0.365087  -0.075194  -0.062938   0.006177
     9  C   -0.001530   0.365087   5.041080   0.353935  -0.055933   0.004785
    10  C   -0.000734  -0.075194   0.353935   5.125210   0.369249  -0.052093
    11  C   -0.047295  -0.062938  -0.055933   0.369249   4.886088   0.378117
    12  C   -0.008844   0.006177   0.004785  -0.052093   0.378117   5.164136
    13  C    0.006448  -0.002178  -0.000814  -0.032848   0.300379  -0.052299
    14  H    0.000947  -0.000473  -0.000024   0.000001   0.000022  -0.000002
    15  H    0.000042   0.004044  -0.000006   0.000004   0.000192  -0.000002
    16  H   -0.000124   0.000237  -0.000006   0.000005  -0.000162   0.000001
    17  H    0.000260  -0.000111   0.000002   0.000004  -0.000197   0.000050
    18  H   -0.001113  -0.000009  -0.000003  -0.000023   0.000608  -0.000611
    19  H    0.002467   0.000020  -0.000002  -0.000002  -0.000051   0.000186
    20  H    0.368699  -0.006055   0.002427   0.002588  -0.004637  -0.000646
    21  H    0.365518  -0.005081  -0.000220  -0.000150   0.004774   0.000248
    22  H    0.367030   0.005500  -0.000167  -0.000120  -0.006577   0.002287
    23  H   -0.007356   0.364497  -0.031813   0.005257   0.005557  -0.000162
    24  H    0.005971   0.369318  -0.037049   0.000593  -0.006521  -0.000064
    25  H    0.000656  -0.035105   0.376443  -0.032629   0.000408  -0.000171
    26  H    0.000097  -0.028870   0.370115  -0.029327   0.003381  -0.000093
    27  H   -0.000067   0.002776  -0.030345   0.363310  -0.030577   0.002313
    28  H    0.000673   0.003531  -0.031117   0.367335  -0.036420  -0.007188
    29  H    0.000138  -0.000175   0.000087  -0.007001  -0.027049   0.364391
    30  H   -0.000517  -0.000040  -0.000217   0.005719  -0.030422   0.362026
    31  H    0.003416   0.000142   0.000075  -0.004727  -0.027488   0.368013
    32  H   -0.000078   0.001159   0.001341  -0.008862  -0.030673   0.004985
    33  H   -0.000101  -0.000014  -0.000188   0.001566  -0.027042  -0.007696
              13         14         15         16         17         18
     1  O   -0.070332   0.000123   0.000368   0.008836   0.006640   0.000018
     2  C    0.322317   0.004699  -0.003039  -0.006952  -0.004773  -0.003413
     3  C   -0.169129  -0.030896  -0.029629  -0.030090  -0.031483  -0.032158
     4  C    0.007805   0.366455   0.368657   0.364837  -0.005072   0.005652
     5  C    0.003386  -0.006332   0.005393  -0.003992   0.363733   0.364794
     6  C   -0.054917  -0.003522  -0.007115   0.005095   0.005036  -0.003121
     7  C    0.006448   0.000947   0.000042  -0.000124   0.000260  -0.001113
     8  C   -0.002178  -0.000473   0.004044   0.000237  -0.000111  -0.000009
     9  C   -0.000814  -0.000024  -0.000006  -0.000006   0.000002  -0.000003
    10  C   -0.032848   0.000001   0.000004   0.000005   0.000004  -0.000023
    11  C    0.300379   0.000022   0.000192  -0.000162  -0.000197   0.000608
    12  C   -0.052299  -0.000002  -0.000002   0.000001   0.000050  -0.000611
    13  C    5.444588  -0.000236   0.000203   0.000456   0.000718   0.001492
    14  H   -0.000236   0.584325  -0.030774  -0.030238  -0.000287  -0.000017
    15  H    0.000203  -0.030774   0.567479  -0.027563  -0.000043  -0.000188
    16  H    0.000456  -0.030238  -0.027563   0.549826   0.005348   0.000020
    17  H    0.000718  -0.000287  -0.000043   0.005348   0.550851  -0.027639
    18  H    0.001492  -0.000017  -0.000188   0.000020  -0.027639   0.567081
    19  H   -0.000325   0.004441   0.000019  -0.000508  -0.029161  -0.030594
    20  H    0.000070  -0.000059  -0.000002   0.000003  -0.000001  -0.000040
    21  H   -0.000225   0.002333  -0.000028  -0.000075  -0.000049   0.000116
    22  H    0.000002  -0.000029  -0.000006  -0.000001   0.000005   0.000870
    23  H   -0.000231   0.000291  -0.000096   0.000022   0.000002  -0.000000
    24  H    0.004171   0.000175   0.004109  -0.000112  -0.000008   0.000004
    25  H   -0.000017   0.000002   0.000005   0.000000  -0.000000   0.000000
    26  H    0.000155  -0.000000   0.000003  -0.000000  -0.000000   0.000000
    27  H   -0.011135   0.000000   0.000000  -0.000000  -0.000000   0.000000
    28  H    0.004604  -0.000000  -0.000000  -0.000000  -0.000000   0.000001
    29  H   -0.005494   0.000000   0.000000  -0.000000  -0.000003   0.000026
    30  H   -0.003657   0.000000   0.000000   0.000002   0.000072   0.008083
    31  H    0.005154  -0.000000  -0.000000  -0.000000  -0.000002  -0.000020
    32  H    0.347322   0.000004  -0.000021  -0.000014  -0.000006  -0.000015
    33  H    0.344903   0.000003  -0.000006  -0.000006  -0.000022  -0.000079
              19         20         21         22         23         24
     1  O    0.000031   0.000000   0.000000  -0.000000   0.000005  -0.000324
     2  C    0.004487  -0.000058   0.000115   0.000137  -0.000016   0.000865
     3  C   -0.028780   0.004494  -0.004784  -0.007701  -0.002691  -0.002338
     4  C   -0.006406  -0.000102   0.001199  -0.000011   0.001743  -0.002815
     5  C    0.368585   0.000261  -0.001097   0.003788  -0.000148   0.000120
     6  C   -0.006531  -0.028879  -0.027671  -0.023485  -0.025532  -0.038016
     7  C    0.002467   0.368699   0.365518   0.367030  -0.007356   0.005971
     8  C    0.000020  -0.006055  -0.005081   0.005500   0.364497   0.369318
     9  C   -0.000002   0.002427  -0.000220  -0.000167  -0.031813  -0.037049
    10  C   -0.000002   0.002588  -0.000150  -0.000120   0.005257   0.000593
    11  C   -0.000051  -0.004637   0.004774  -0.006577   0.005557  -0.006521
    12  C    0.000186  -0.000646   0.000248   0.002287  -0.000162  -0.000064
    13  C   -0.000325   0.000070  -0.000225   0.000002  -0.000231   0.004171
    14  H    0.004441  -0.000059   0.002333  -0.000029   0.000291   0.000175
    15  H    0.000019  -0.000002  -0.000028  -0.000006  -0.000096   0.004109
    16  H   -0.000508   0.000003  -0.000075  -0.000001   0.000022  -0.000112
    17  H   -0.029161  -0.000001  -0.000049   0.000005   0.000002  -0.000008
    18  H   -0.030594  -0.000040   0.000116   0.000870  -0.000000   0.000004
    19  H    0.570176  -0.000024   0.001160   0.000478  -0.000008   0.000003
    20  H   -0.000024   0.577417  -0.031537  -0.032018  -0.000046   0.000051
    21  H    0.001160  -0.031537   0.578388  -0.031115   0.004197   0.000008
    22  H    0.000478  -0.032018  -0.031115   0.568125   0.000073  -0.000185
    23  H   -0.000008  -0.000046   0.004197   0.000073   0.589427  -0.037079
    24  H    0.000003   0.000051   0.000008  -0.000185  -0.037079   0.604243
    25  H    0.000000   0.002548   0.000128  -0.000071  -0.006596   0.005161
    26  H    0.000000  -0.000066  -0.000010   0.000003   0.002169  -0.007927
    27  H    0.000000  -0.000035   0.000005  -0.000003  -0.000105   0.000351
    28  H    0.000000  -0.000058  -0.000006  -0.000009  -0.000160  -0.000108
    29  H   -0.000002  -0.000054  -0.000000  -0.000031   0.000003   0.000002
    30  H   -0.000048   0.000082  -0.000028   0.000104   0.000001  -0.000004
    31  H   -0.000041   0.001061  -0.000068   0.001672  -0.000006  -0.000007
    32  H    0.000003  -0.000006   0.000004  -0.000003   0.000020   0.001239
    33  H    0.000012  -0.000001   0.000003  -0.000007   0.000002   0.000094
              25         26         27         28         29         30
     1  O   -0.000000  -0.000000  -0.000000   0.000000   0.000002  -0.000084
     2  C   -0.000001  -0.000030   0.000287  -0.000090  -0.000011   0.000492
     3  C    0.000014  -0.000133  -0.000124  -0.000084  -0.000181   0.001572
     4  C   -0.000020   0.000004   0.000004   0.000002   0.000003  -0.000023
     5  C    0.000003   0.000002   0.000002  -0.000001   0.000120  -0.001845
     6  C   -0.000642   0.004177   0.004299   0.000583   0.004650  -0.003230
     7  C    0.000656   0.000097  -0.000067   0.000673   0.000138  -0.000517
     8  C   -0.035105  -0.028870   0.002776   0.003531  -0.000175  -0.000040
     9  C    0.376443   0.370115  -0.030345  -0.031117   0.000087  -0.000217
    10  C   -0.032629  -0.029327   0.363310   0.367335  -0.007001   0.005719
    11  C    0.000408   0.003381  -0.030577  -0.036420  -0.027049  -0.030422
    12  C   -0.000171  -0.000093   0.002313  -0.007188   0.364391   0.362026
    13  C   -0.000017   0.000155  -0.011135   0.004604  -0.005494  -0.003657
    14  H    0.000002  -0.000000   0.000000  -0.000000   0.000000   0.000000
    15  H    0.000005   0.000003   0.000000  -0.000000   0.000000   0.000000
    16  H    0.000000  -0.000000  -0.000000  -0.000000  -0.000000   0.000002
    17  H   -0.000000  -0.000000  -0.000000  -0.000000  -0.000003   0.000072
    18  H    0.000000   0.000000   0.000000   0.000001   0.000026   0.008083
    19  H    0.000000   0.000000   0.000000   0.000000  -0.000002  -0.000048
    20  H    0.002548  -0.000066  -0.000035  -0.000058  -0.000054   0.000082
    21  H    0.000128  -0.000010   0.000005  -0.000006  -0.000000  -0.000028
    22  H   -0.000071   0.000003  -0.000003  -0.000009  -0.000031   0.000104
    23  H   -0.006596   0.002169  -0.000105  -0.000160   0.000003   0.000001
    24  H    0.005161  -0.007927   0.000351  -0.000108   0.000002  -0.000004
    25  H    0.593837  -0.037719   0.004324  -0.010711   0.000005   0.000002
    26  H   -0.037719   0.591269  -0.008107   0.003489  -0.000002   0.000003
    27  H    0.004324  -0.008107   0.595932  -0.037317   0.001601  -0.000244
    28  H   -0.010711   0.003489  -0.037317   0.601397   0.000455   0.000224
    29  H    0.000005  -0.000002   0.001601   0.000455   0.581240  -0.031261
    30  H    0.000002   0.000003  -0.000244   0.000224  -0.031261   0.575947
    31  H   -0.000037  -0.000003  -0.000152   0.004479  -0.031099  -0.031117
    32  H   -0.000030  -0.000244   0.003845   0.000087  -0.000033  -0.000026
    33  H    0.000004   0.000007   0.001008  -0.000185   0.003399   0.001507
              31         32         33
     1  O    0.000001  -0.000367   0.000893
     2  C   -0.000046  -0.022888  -0.018418
     3  C    0.000044   0.004122   0.005765
     4  C   -0.000003  -0.000429  -0.000053
     5  C   -0.000020   0.000108  -0.000455
     6  C   -0.007807  -0.000244   0.003534
     7  C    0.003416  -0.000078  -0.000101
     8  C    0.000142   0.001159  -0.000014
     9  C    0.000075   0.001341  -0.000188
    10  C   -0.004727  -0.008862   0.001566
    11  C   -0.027488  -0.030673  -0.027042
    12  C    0.368013   0.004985  -0.007696
    13  C    0.005154   0.347322   0.344903
    14  H   -0.000000   0.000004   0.000003
    15  H   -0.000000  -0.000021  -0.000006
    16  H   -0.000000  -0.000014  -0.000006
    17  H   -0.000002  -0.000006  -0.000022
    18  H   -0.000020  -0.000015  -0.000079
    19  H   -0.000041   0.000003   0.000012
    20  H    0.001061  -0.000006  -0.000001
    21  H   -0.000068   0.000004   0.000003
    22  H    0.001672  -0.000003  -0.000007
    23  H   -0.000006   0.000020   0.000002
    24  H   -0.000007   0.001239   0.000094
    25  H   -0.000037  -0.000030   0.000004
    26  H   -0.000003  -0.000244   0.000007
    27  H   -0.000152   0.003845   0.001008
    28  H    0.004479   0.000087  -0.000185
    29  H   -0.031099  -0.000033   0.003399
    30  H   -0.031117  -0.000026   0.001507
    31  H    0.570989  -0.000177   0.000130
    32  H   -0.000177   0.552659  -0.023735
    33  H    0.000130  -0.023735   0.545774
 Mulliken charges:
               1
     1  O   -0.466811
     2  C    0.448081
     3  C    0.015641
     4  C   -0.453796
     5  C   -0.471987
     6  C    0.072005
     7  C   -0.480125
     8  C   -0.292154
     9  C   -0.279652
    10  C   -0.294824
    11  C    0.108661
    12  C   -0.482465
    13  C   -0.390338
    14  H    0.139066
    15  H    0.148002
    16  H    0.165154
    17  H    0.166133
    18  H    0.150278
    19  H    0.150414
    20  H    0.144627
    21  H    0.143948
    22  H    0.151465
    23  H    0.138780
    24  H    0.136078
    25  H    0.140212
    26  H    0.137657
    27  H    0.138155
    28  H    0.136596
    29  H    0.146273
    30  H    0.146926
    31  H    0.147645
    32  H    0.170949
    33  H    0.169406
 Sum of Mulliken charges =  -0.00000
 Mulliken charges with hydrogens summed into heavy atoms:
               1
     1  O   -0.466811
     2  C    0.448081
     3  C    0.015641
     4  C   -0.001573
     5  C   -0.005162
     6  C    0.072005
     7  C   -0.040087
     8  C   -0.017296
     9  C   -0.001783
    10  C   -0.020073
    11  C    0.108661
    12  C   -0.041621
    13  C   -0.049983
 APT charges:
               1
     1  O   -0.666149
     2  C    0.722919
     3  C   -0.066822
     4  C    0.047563
     5  C    0.044779
     6  C    0.067262
     7  C    0.034091
     8  C    0.059102
     9  C    0.096816
    10  C    0.073046
    11  C    0.079893
    12  C    0.057431
    13  C   -0.087864
    14  H   -0.019815
    15  H   -0.011890
    16  H    0.000448
    17  H   -0.004994
    18  H   -0.010741
    19  H   -0.016456
    20  H   -0.016431
    21  H   -0.020574
    22  H   -0.013442
    23  H   -0.039271
    24  H   -0.040192
    25  H   -0.043495
    26  H   -0.047532
    27  H   -0.044882
    28  H   -0.045006
    29  H   -0.030300
    30  H   -0.022174
    31  H   -0.018399
    32  H   -0.005457
    33  H   -0.011466
 Sum of APT charges =  -0.00000
 APT charges with hydrogens summed into heavy atoms:
               1
     1  O   -0.666149
     2  C    0.722919
     3  C   -0.066822
     4  C    0.016307
     5  C    0.012588
     6  C    0.067262
     7  C   -0.016355
     8  C   -0.020362
     9  C    0.005789
    10  C   -0.016842
    11  C    0.079893
    12  C   -0.013441
    13  C   -0.104786
 Electronic spatial extent (au):  <R**2>=           2159.6359
 Charge=             -0.0000 electrons
 Dipole moment (field-independent basis, Debye):
    X=             -2.4107    Y=             -1.1146    Z=              1.0624  Tot=              2.8605
 Quadrupole moment (field-independent basis, Debye-Ang):
   XX=            -87.8147   YY=            -81.8521   ZZ=            -81.4941
   XY=             -4.8836   XZ=              4.2132   YZ=              1.7160
 Traceless Quadrupole moment (field-independent basis, Debye-Ang):
   XX=             -4.0944   YY=              1.8682   ZZ=              2.2262
   XY=             -4.8836   XZ=              4.2132   YZ=              1.7160
 Octapole moment (field-independent basis, Debye-Ang**2):
  XXX=             -9.2486  YYY=              3.9121  ZZZ=             -6.3303  XYY=             -4.3258
  XXY=            -11.8128  XXZ=             10.6837  XZZ=             -2.1346  YZZ=              0.1592
  YYZ=              2.1711  XYZ=              7.0656
 Hexadecapole moment (field-independent basis, Debye-Ang**3):
 XXXX=          -1444.9421 YYYY=           -806.5512 ZZZZ=           -672.2911 XXXY=            -17.1882
 XXXZ=             13.3086 YYYX=             -1.4099 YYYZ=             -3.0436 ZZZX=             -1.3106
 ZZZY=             -5.5249 XXYY=           -389.8392 XXZZ=           -357.3632 YYZZ=           -256.2693
 XXYZ=             12.4105 YYXZ=             10.1574 ZZXY=             -4.6943
 N-N= 9.051629855838D+02 E-N=-3.072364500238D+03  KE= 5.392895752041D+02
  Exact polarizability: 128.165  -1.720 116.437   0.344  -1.085 110.336
 Approx polarizability: 177.996   2.859 168.947  -4.613  -5.480 164.383
 Calling FoFJK, ICntrl=    100127 FMM=F ISym2X=0 I1Cent= 0 IOpClX= 0 NMat=1 NMatS=1 NMatT=0.
 Full mass-weighted force constant matrix:
 Low frequencies ---   -8.6406   -6.0221   -3.4606   -0.0006    0.0004    0.0009
 Low frequencies ---   49.7008   79.0963  176.6057
 Diagonal vibrational polarizability:
        4.9015440      12.7020142      31.0168438
 Harmonic frequencies (cm**-1), IR intensities (KM/Mole), Raman scattering
 activities (A**4/AMU), depolarization ratios for plane and unpolarized
 incident light, reduced masses (AMU), force constants (mDyne/A),
 and normal coordinates:
                      1                      2                      3
                      A                      A                      A
 Frequencies --     49.6916                79.0931               176.6041
 Red. masses --      4.1102                 2.0024                 2.2484
 Frc consts  --      0.0060                 0.0074                 0.0413
 IR Inten    --      3.4401                 0.0394                 0.1292
  Atom  AN      X      Y      Z        X      Y      Z        X      Y      Z
     1   8     0.07   0.15   0.28    -0.03   0.00  -0.01     0.03  -0.00   0.02
     2   6     0.01   0.04   0.06    -0.03  -0.02  -0.02     0.02  -0.00  -0.01
     3   6    -0.01  -0.01  -0.03    -0.00   0.00   0.02    -0.00   0.01   0.00
     4   6    -0.03   0.04  -0.13     0.02  -0.01   0.06     0.05  -0.00   0.08
     5   6     0.03  -0.13  -0.03    -0.02   0.03   0.03    -0.10   0.07   0.05
     6   6    -0.01  -0.01  -0.01    -0.00  -0.01   0.01     0.00  -0.01  -0.06
     7   6    -0.00   0.05   0.04    -0.03  -0.04  -0.03    -0.00  -0.10  -0.13
     8   6    -0.06  -0.07   0.04     0.02   0.02  -0.02    -0.04   0.06  -0.08
     9   6    -0.05  -0.06   0.07     0.04   0.09  -0.12    -0.07  -0.04   0.15
    10   6    -0.03  -0.03   0.02    -0.03  -0.05   0.14    -0.01   0.02   0.03
    11   6    -0.00  -0.00  -0.07     0.01  -0.02   0.02     0.02   0.00  -0.02
    12   6     0.10   0.09  -0.11     0.11   0.05  -0.00     0.08   0.01  -0.01
    13   6    -0.03  -0.08  -0.16    -0.05  -0.06  -0.08     0.01  -0.01  -0.04
    14   1    -0.06  -0.01  -0.22     0.03   0.01   0.09     0.17   0.05   0.19
    15   1    -0.03   0.14  -0.15     0.04  -0.04   0.06     0.01  -0.15   0.12
    16   1    -0.02   0.02  -0.09     0.02   0.01   0.06     0.02   0.08  -0.00
    17   1     0.01  -0.08  -0.03    -0.03   0.06   0.04    -0.09   0.08   0.10
    18   1     0.02  -0.20   0.06    -0.05   0.02   0.02    -0.15   0.09  -0.01
    19   1     0.06  -0.18  -0.12    -0.00   0.04   0.03    -0.12   0.09   0.08
    20   1    -0.00   0.07   0.06    -0.03  -0.03  -0.06     0.00  -0.12  -0.14
    21   1    -0.02   0.04   0.08    -0.04  -0.04  -0.04     0.01  -0.09  -0.22
    22   1     0.02   0.09   0.02    -0.05  -0.07  -0.01    -0.01  -0.18  -0.09
    23   1    -0.07  -0.07   0.10    -0.03   0.02  -0.01     0.04   0.07  -0.18
    24   1    -0.09  -0.12  -0.00     0.10  -0.02   0.00    -0.15   0.19  -0.09
    25   1    -0.05  -0.03   0.11    -0.07   0.01  -0.36     0.09  -0.04   0.36
    26   1    -0.08  -0.09   0.08     0.19   0.30  -0.16    -0.29  -0.17   0.23
    27   1    -0.07  -0.06  -0.00    -0.22   0.07   0.36     0.04  -0.03  -0.06
    28   1     0.01  -0.01   0.06     0.08  -0.31   0.25    -0.00   0.15   0.03
    29   1     0.11   0.09  -0.13     0.01  -0.00   0.00    -0.05  -0.06   0.02
    30   1     0.14   0.10  -0.19     0.14   0.16  -0.13     0.10   0.15  -0.12
    31   1     0.14   0.15  -0.03     0.24   0.05   0.10     0.23  -0.04   0.06
    32   1     0.02  -0.32  -0.17    -0.07  -0.19  -0.07     0.01  -0.04  -0.04
    33   1    -0.15  -0.01  -0.36    -0.09  -0.03  -0.18     0.00  -0.00  -0.07
                      4                      5                      6
                      A                      A                      A
 Frequencies --    186.3680               207.4506               230.4011
 Red. masses --      1.3230                 1.9917                 1.4960
 Frc consts  --      0.0271                 0.0505                 0.0468
 IR Inten    --      0.6711                 1.3695                 0.0556
  Atom  AN      X      Y      Z        X      Y      Z        X      Y      Z
     1   8     0.02   0.03   0.07    -0.03  -0.06  -0.08     0.00  -0.02  -0.02
     2   6    -0.00  -0.01  -0.01    -0.01   0.00   0.02     0.00  -0.00   0.00
     3   6    -0.00  -0.02  -0.03     0.01  -0.00   0.03    -0.01   0.00  -0.00
     4   6     0.01  -0.04   0.01     0.12   0.15  -0.07     0.03   0.04  -0.01
     5   6     0.03   0.06  -0.06    -0.05  -0.12   0.07    -0.06  -0.01   0.03
     6   6    -0.01  -0.02  -0.00    -0.00  -0.01   0.01    -0.01  -0.02   0.00
     7   6     0.01  -0.00   0.02    -0.08   0.04   0.02     0.12  -0.07   0.01
     8   6    -0.03  -0.02   0.01    -0.00  -0.02   0.02    -0.06  -0.04   0.03
     9   6    -0.02   0.04  -0.03     0.00  -0.01   0.01    -0.03   0.06  -0.02
    10   6     0.00   0.02  -0.01     0.00  -0.00  -0.00     0.01   0.06  -0.02
    11   6    -0.00  -0.01   0.00     0.00   0.00  -0.00    -0.00  -0.00   0.01
    12   6    -0.02  -0.03   0.01     0.02   0.02  -0.01    -0.01   0.02  -0.01
    13   6     0.00  -0.01   0.00     0.00   0.00   0.01     0.00  -0.02  -0.01
    14   1     0.41   0.09   0.27     0.56   0.17   0.00     0.02   0.01  -0.05
    15   1    -0.25  -0.40   0.17    -0.07  -0.04   0.04     0.06   0.08  -0.03
    16   1    -0.09   0.20  -0.37    -0.00   0.49  -0.34     0.03   0.06   0.04
    17   1     0.08  -0.14  -0.13    -0.03  -0.11   0.16    -0.06   0.02   0.09
    18   1     0.17   0.26  -0.18    -0.08  -0.19   0.13    -0.11  -0.05   0.03
    19   1    -0.13   0.15   0.10    -0.07  -0.18  -0.03    -0.06  -0.03   0.00
    20   1     0.01  -0.02   0.02    -0.09   0.15   0.02     0.18  -0.53  -0.18
    21   1     0.03   0.01   0.03    -0.18  -0.01   0.03     0.56   0.11   0.17
    22   1     0.01   0.03   0.01    -0.05   0.02   0.02    -0.23   0.13   0.04
    23   1    -0.09  -0.03   0.04    -0.01  -0.02   0.04    -0.14  -0.05   0.11
    24   1    -0.00  -0.08   0.00     0.00  -0.03   0.01    -0.02  -0.14   0.01
    25   1    -0.07   0.05  -0.07    -0.01  -0.00   0.01    -0.10   0.10  -0.04
    26   1     0.03   0.07  -0.05     0.01  -0.01   0.01     0.02   0.08  -0.03
    27   1     0.02   0.04   0.00     0.01  -0.01  -0.01     0.06   0.07  -0.02
    28   1    -0.00   0.02  -0.02     0.00   0.01  -0.00    -0.01   0.09  -0.04
    29   1     0.03  -0.01   0.02     0.04   0.03  -0.03     0.05   0.05  -0.05
    30   1    -0.03  -0.09   0.06     0.03   0.02  -0.03    -0.02  -0.02   0.03
    31   1    -0.07  -0.03  -0.03     0.02   0.05   0.01    -0.08   0.07  -0.03
    32   1    -0.01  -0.01   0.01     0.02  -0.00   0.00     0.01  -0.07  -0.01
    33   1     0.01  -0.01   0.00    -0.01   0.00   0.01    -0.02  -0.01  -0.05
                      7                      8                      9
                      A                      A                      A
 Frequencies --    243.6119               264.4934               273.7206
 Red. masses --      1.5004                 1.5171                 1.3244
 Frc consts  --      0.0525                 0.0625                 0.0585
 IR Inten    --      0.0916                 0.7029                 0.1821
  Atom  AN      X      Y      Z        X      Y      Z        X      Y      Z
     1   8     0.01   0.00   0.02     0.03  -0.05   0.04    -0.03  -0.00   0.00
     2   6    -0.00  -0.01  -0.01     0.01  -0.02   0.01    -0.02  -0.01   0.01
     3   6    -0.00  -0.01  -0.02    -0.01  -0.03  -0.02    -0.00  -0.00   0.03
     4   6     0.06   0.02   0.02    -0.03  -0.02  -0.06    -0.03  -0.03   0.04
     5   6    -0.02   0.07  -0.01    -0.01  -0.00  -0.03     0.09  -0.02  -0.01
     6   6    -0.01  -0.03  -0.01     0.00   0.00   0.02    -0.01   0.01   0.02
     7   6     0.01   0.00   0.03     0.06  -0.03   0.01     0.01  -0.05  -0.01
     8   6    -0.07  -0.07   0.03     0.01   0.02   0.01     0.03   0.06  -0.02
     9   6    -0.04   0.06  -0.02     0.01  -0.01  -0.01     0.02   0.01   0.00
    10   6     0.02   0.06  -0.04    -0.00  -0.02   0.01    -0.01   0.02  -0.02
    11   6     0.01  -0.02  -0.01    -0.01   0.02   0.02    -0.02   0.01   0.01
    12   6     0.02  -0.08   0.02    -0.10   0.10  -0.03    -0.01   0.04  -0.01
    13   6     0.01  -0.01  -0.01     0.02   0.03   0.04    -0.03  -0.03  -0.02
    14   1     0.03   0.00  -0.01     0.10   0.00  -0.00     0.11   0.03   0.15
    15   1     0.14   0.05  -0.02    -0.14  -0.10   0.00    -0.14  -0.17   0.11
    16   1     0.07   0.03   0.11    -0.07   0.05  -0.19    -0.06   0.04  -0.12
    17   1    -0.14   0.44  -0.01    -0.06   0.18  -0.02    -0.04   0.34  -0.07
    18   1    -0.25  -0.17   0.09    -0.13  -0.12   0.01    -0.08  -0.30   0.20
    19   1     0.32   0.02  -0.13     0.15  -0.03  -0.09     0.46  -0.12  -0.20
    20   1    -0.01   0.23   0.21     0.06  -0.05   0.06     0.02  -0.08  -0.00
    21   1    -0.21  -0.09  -0.09     0.07  -0.02  -0.04     0.04  -0.03  -0.06
    22   1     0.27  -0.10  -0.01     0.10  -0.06   0.01     0.02  -0.07  -0.00
    23   1    -0.18  -0.09   0.12     0.04   0.03  -0.02     0.07   0.07  -0.10
    24   1    -0.03  -0.20  -0.00     0.02   0.06   0.03     0.02   0.15   0.01
    25   1    -0.12   0.11  -0.05     0.01  -0.02  -0.04     0.06  -0.01   0.04
    26   1     0.01   0.08  -0.04     0.04   0.01  -0.02    -0.02  -0.03   0.01
    27   1     0.10   0.07  -0.05    -0.04  -0.01   0.04     0.02   0.01  -0.05
    28   1    -0.01   0.12  -0.07     0.01  -0.07   0.03    -0.04   0.04  -0.05
    29   1    -0.08  -0.13   0.10    -0.49  -0.13  -0.07     0.24   0.18  -0.08
    30   1     0.02  -0.00  -0.02    -0.13   0.55  -0.19    -0.00  -0.20   0.10
    31   1     0.12  -0.17   0.02     0.23  -0.03   0.12    -0.25   0.18  -0.08
    32   1    -0.00  -0.03  -0.00     0.02   0.11   0.04    -0.03  -0.08  -0.02
    33   1    -0.00  -0.01  -0.02     0.07   0.00   0.11    -0.03  -0.02  -0.07
                     10                     11                     12
                      A                      A                      A
 Frequencies --    295.5549               303.1022               322.4161
 Red. masses --      2.0784                 1.9242                 2.0012
 Frc consts  --      0.1070                 0.1042                 0.1226
 IR Inten    --      1.8098                 0.0756                 1.4928
  Atom  AN      X      Y      Z        X      Y      Z        X      Y      Z
     1   8    -0.09   0.11  -0.06     0.01   0.07  -0.01     0.02  -0.10   0.04
     2   6    -0.03   0.04   0.01     0.02   0.03  -0.03    -0.03  -0.01   0.03
     3   6     0.01   0.02   0.04    -0.00  -0.00  -0.05    -0.04   0.03   0.04
     4   6    -0.07  -0.05   0.06    -0.01  -0.09   0.06    -0.08   0.07  -0.04
     5   6     0.03  -0.10   0.05    -0.09  -0.06  -0.00     0.06   0.10  -0.02
     6   6     0.00   0.01   0.03     0.01   0.02  -0.06    -0.03   0.01   0.02
     7   6     0.04  -0.03   0.01     0.02   0.13   0.01    -0.10   0.02   0.00
     8   6     0.03  -0.01   0.03    -0.00  -0.03  -0.03     0.03  -0.01   0.00
     9   6     0.04   0.02  -0.03    -0.01  -0.04  -0.00     0.02  -0.04  -0.02
    10   6     0.03   0.06  -0.11    -0.01  -0.06   0.04    -0.00  -0.01  -0.05
    11   6    -0.01   0.00  -0.00     0.02   0.01  -0.03    -0.01  -0.00  -0.02
    12   6     0.07  -0.02   0.01     0.05  -0.06   0.00     0.12  -0.08   0.03
    13   6    -0.04  -0.02  -0.01     0.02   0.08   0.04    -0.00   0.03   0.00
    14   1    -0.05   0.01   0.16     0.05   0.01   0.24    -0.01   0.05  -0.08
    15   1    -0.16  -0.15   0.11    -0.07  -0.29   0.12    -0.15   0.11  -0.01
    16   1    -0.07  -0.09  -0.05    -0.03  -0.08  -0.05    -0.10   0.11  -0.11
    17   1     0.07  -0.23   0.06    -0.15   0.18   0.11     0.00   0.23  -0.14
    18   1     0.13  -0.08   0.09    -0.28  -0.29   0.12     0.05   0.04   0.03
    19   1    -0.08  -0.13  -0.00     0.07  -0.16  -0.18     0.24   0.10  -0.02
    20   1     0.04  -0.03   0.05     0.03  -0.02  -0.08    -0.07  -0.24  -0.24
    21   1     0.03  -0.03  -0.06     0.17   0.18   0.22     0.16   0.12   0.19
    22   1     0.08  -0.09   0.02    -0.15   0.31  -0.02    -0.41   0.16   0.04
    23   1     0.00  -0.01   0.05     0.01  -0.03   0.01     0.06  -0.01  -0.01
    24   1     0.05  -0.04   0.03    -0.02  -0.04  -0.04     0.03   0.02   0.01
    25   1     0.02   0.06   0.02    -0.00  -0.06  -0.03     0.03  -0.04  -0.00
    26   1     0.05  -0.05  -0.04    -0.01  -0.00   0.00     0.03  -0.07  -0.02
    27   1     0.19   0.03  -0.21    -0.13  -0.05   0.09     0.02  -0.04  -0.09
    28   1    -0.07   0.18  -0.22     0.06  -0.14   0.11    -0.03   0.01  -0.08
    29   1    -0.22  -0.17   0.15     0.06  -0.04   0.05     0.01  -0.12   0.19
    30   1     0.12   0.24  -0.23     0.06  -0.08  -0.01     0.19  -0.00  -0.15
    31   1     0.42  -0.18   0.15     0.05  -0.07  -0.01     0.33  -0.16   0.11
    32   1    -0.02  -0.10  -0.02     0.02   0.25   0.04     0.01   0.08  -0.00
    33   1    -0.09   0.01  -0.08     0.08   0.04   0.19     0.00   0.01   0.06
                     13                     14                     15
                      A                      A                      A
 Frequencies --    335.0328               349.9401               366.4224
 Red. masses --      2.6063                 1.9391                 2.6290
 Frc consts  --      0.1724                 0.1399                 0.2080
 IR Inten    --      0.8156                 0.3789                 0.3615
  Atom  AN      X      Y      Z        X      Y      Z        X      Y      Z
     1   8     0.07  -0.12   0.01    -0.00  -0.02   0.01     0.03  -0.03  -0.02
     2   6     0.02   0.01   0.02    -0.02   0.02   0.02     0.03   0.05   0.05
     3   6    -0.03   0.06   0.05    -0.05   0.02   0.00     0.02   0.05   0.06
     4   6    -0.09   0.06   0.01    -0.10   0.02  -0.03     0.04   0.04   0.12
     5   6    -0.03  -0.03   0.07    -0.10   0.04   0.02     0.19  -0.06   0.01
     6   6    -0.01   0.06  -0.02    -0.01  -0.01   0.01    -0.03   0.03  -0.04
     7   6     0.18   0.07   0.04     0.07  -0.08  -0.01     0.01  -0.03  -0.08
     8   6     0.01   0.08  -0.04     0.01  -0.07   0.03    -0.11  -0.07   0.01
     9   6    -0.02   0.01  -0.02     0.03  -0.05  -0.04    -0.12  -0.02  -0.02
    10   6    -0.06  -0.01   0.01     0.01  -0.04  -0.03    -0.09  -0.03   0.02
    11   6    -0.03   0.02  -0.05    -0.00  -0.00  -0.01    -0.04   0.02  -0.07
    12   6    -0.02  -0.13   0.02     0.12   0.07  -0.04    -0.01   0.01  -0.08
    13   6    -0.02  -0.01  -0.11     0.02   0.07   0.07     0.03   0.09   0.04
    14   1    -0.02   0.08   0.04    -0.07   0.03  -0.01    -0.02   0.06   0.15
    15   1    -0.19   0.04   0.06    -0.18   0.01   0.01     0.11   0.02   0.09
    16   1    -0.11   0.08  -0.10    -0.11   0.02  -0.12     0.06   0.01   0.19
    17   1    -0.01  -0.11   0.08    -0.08   0.01   0.06     0.20  -0.17  -0.15
    18   1     0.04  -0.00   0.09    -0.10   0.07  -0.02     0.39  -0.03   0.13
    19   1    -0.11  -0.04   0.04    -0.14   0.06   0.05     0.18  -0.09  -0.04
    20   1     0.19   0.11   0.31     0.06   0.06   0.18     0.01  -0.07  -0.06
    21   1     0.12   0.06  -0.09    -0.08  -0.13  -0.23     0.02  -0.02  -0.18
    22   1     0.44   0.04  -0.04     0.31  -0.25  -0.01     0.04  -0.11  -0.05
    23   1     0.06   0.09  -0.11    -0.00  -0.07   0.10    -0.16  -0.08   0.13
    24   1    -0.02   0.16  -0.02     0.03  -0.12   0.02    -0.12  -0.19  -0.06
    25   1     0.03  -0.04  -0.03    -0.02  -0.04  -0.08    -0.18  -0.01  -0.09
    26   1    -0.03   0.01  -0.02     0.09  -0.03  -0.06    -0.05   0.04  -0.04
    27   1    -0.15   0.00   0.06    -0.01  -0.05  -0.04    -0.22  -0.02   0.08
    28   1    -0.01  -0.09   0.07     0.00  -0.05  -0.04     0.01  -0.11   0.12
    29   1    -0.04  -0.12   0.18     0.38   0.22  -0.10    -0.06  -0.01  -0.05
    30   1    -0.03  -0.20   0.06     0.18  -0.15  -0.05     0.02   0.04  -0.16
    31   1    -0.01  -0.26  -0.09    -0.03   0.26   0.00     0.07  -0.01  -0.04
    32   1     0.01  -0.17  -0.11     0.03   0.26   0.06     0.10   0.27   0.01
    33   1    -0.09   0.03  -0.24     0.06   0.02   0.25     0.05   0.04   0.21
                     16                     17                     18
                      A                      A                      A
 Frequencies --    368.6208               436.6933               492.8182
 Red. masses --      2.3086                 2.9642                 2.7768
 Frc consts  --      0.1848                 0.3331                 0.3973
 IR Inten    --      0.3697                 1.1069                 0.4162
  Atom  AN      X      Y      Z        X      Y      Z        X      Y      Z
     1   8    -0.08  -0.04   0.07    -0.04   0.09  -0.07     0.03   0.08  -0.00
     2   6    -0.08  -0.07   0.02     0.07  -0.00   0.09     0.02  -0.02  -0.12
     3   6    -0.03  -0.06  -0.02     0.08  -0.02   0.09    -0.01  -0.01   0.01
     4   6     0.13  -0.01   0.04    -0.08  -0.01  -0.07     0.02   0.01  -0.01
     5   6     0.01  -0.02  -0.05     0.05   0.08   0.15    -0.02  -0.01   0.00
     6   6    -0.03  -0.04  -0.02     0.02  -0.09  -0.03    -0.03  -0.03   0.13
     7   6     0.08   0.06   0.09     0.01   0.04   0.05    -0.06  -0.13   0.15
     8   6    -0.00   0.08  -0.09    -0.08   0.02  -0.11     0.00   0.10   0.10
     9   6    -0.03   0.00  -0.05    -0.09   0.03  -0.03    -0.02   0.03   0.02
    10   6    -0.05   0.01  -0.06     0.02  -0.01   0.02    -0.03   0.02   0.00
    11   6    -0.05  -0.03   0.00     0.04  -0.12  -0.03     0.01   0.00  -0.10
    12   6     0.08   0.04  -0.02     0.01  -0.02  -0.11     0.01  -0.10  -0.12
    13   6    -0.04  -0.00   0.06     0.06  -0.09   0.08     0.05   0.04  -0.09
    14   1     0.09  -0.04  -0.02    -0.07  -0.06  -0.16     0.04  -0.02  -0.05
    15   1     0.32   0.03  -0.05    -0.31   0.13   0.00     0.05   0.04  -0.03
    16   1     0.13   0.06   0.25    -0.07  -0.09  -0.27     0.01   0.04   0.03
    17   1     0.02  -0.11  -0.12     0.03   0.16   0.15    -0.01  -0.03   0.05
    18   1     0.11   0.06  -0.08    -0.03   0.11   0.06    -0.04  -0.02  -0.00
    19   1    -0.03   0.02   0.02     0.12   0.14   0.24    -0.06  -0.02  -0.01
    20   1     0.09   0.03   0.25     0.00   0.07   0.10    -0.05  -0.18   0.11
    21   1     0.12   0.07   0.19    -0.01   0.01   0.23    -0.03  -0.11   0.05
    22   1     0.18   0.22  -0.01     0.02   0.20  -0.02    -0.08  -0.24   0.21
    23   1     0.07   0.09  -0.28    -0.08   0.02  -0.29     0.11   0.12  -0.15
    24   1     0.00   0.27  -0.01    -0.12   0.16  -0.08     0.02   0.35   0.22
    25   1     0.05  -0.03   0.01    -0.08   0.02  -0.02    -0.04   0.02  -0.04
    26   1    -0.09  -0.03  -0.03    -0.14   0.08  -0.01     0.08   0.02  -0.02
    27   1     0.03   0.01  -0.09     0.05   0.04   0.07    -0.14   0.03   0.06
    28   1    -0.10   0.05  -0.10     0.05   0.01   0.06     0.06  -0.04   0.10
    29   1     0.11   0.06  -0.03     0.00  -0.05  -0.26    -0.01  -0.09  -0.00
    30   1     0.15   0.04  -0.18    -0.02   0.06  -0.10     0.00  -0.14  -0.09
    31   1     0.16   0.12   0.11    -0.02   0.07  -0.04     0.02  -0.20  -0.20
    32   1    -0.05   0.18   0.06     0.16  -0.04   0.05     0.00   0.40  -0.07
    33   1     0.04  -0.05   0.22    -0.00  -0.10   0.13     0.22  -0.05   0.22
                     19                     20                     21
                      A                      A                      A
 Frequencies --    513.5679               533.0406               597.6821
 Red. masses --      3.7110                 3.1433                 2.8745
 Frc consts  --      0.5767                 0.5262                 0.6050
 IR Inten    --      0.9744                 3.7519                 0.3427
  Atom  AN      X      Y      Z        X      Y      Z        X      Y      Z
     1   8     0.16   0.05  -0.09     0.10  -0.02  -0.03    -0.06  -0.03  -0.06
     2   6     0.17   0.07   0.01     0.02   0.13  -0.02     0.03   0.10   0.26
     3   6     0.05   0.01  -0.05    -0.09   0.11  -0.05    -0.04  -0.04  -0.04
     4   6     0.05  -0.04  -0.03    -0.08   0.13   0.12     0.04  -0.06  -0.02
     5   6    -0.02   0.02  -0.02    -0.03  -0.04  -0.13    -0.06   0.01  -0.12
     6   6    -0.05   0.03   0.06    -0.02  -0.11   0.00    -0.03   0.01   0.01
     7   6    -0.03  -0.04   0.06    -0.04  -0.06   0.11    -0.01  -0.02   0.03
     8   6    -0.06   0.06   0.03    -0.02  -0.03  -0.10     0.04   0.03   0.05
     9   6    -0.11  -0.10  -0.11     0.00   0.01  -0.01     0.04   0.02   0.04
    10   6    -0.16  -0.07  -0.09     0.12  -0.02   0.03    -0.02   0.03   0.02
    11   6    -0.10   0.01   0.09     0.07  -0.12   0.06    -0.01   0.03  -0.08
    12   6     0.03   0.07   0.15    -0.01   0.01  -0.02     0.02  -0.06  -0.12
    13   6     0.04  -0.05   0.05    -0.02   0.01   0.02     0.05   0.04   0.09
    14   1     0.03  -0.02   0.01    -0.13   0.20   0.25     0.04  -0.02   0.05
    15   1     0.05  -0.07  -0.03     0.01  -0.01   0.11     0.12  -0.14  -0.04
    16   1     0.06  -0.06  -0.02    -0.07   0.10   0.18     0.04  -0.03   0.06
    17   1    -0.02   0.06   0.07    -0.01  -0.14  -0.20    -0.08   0.07  -0.17
    18   1    -0.11  -0.01  -0.05     0.12  -0.08   0.03    -0.08   0.04  -0.18
    19   1    -0.03   0.01  -0.03    -0.06  -0.12  -0.27     0.02   0.07  -0.03
    20   1    -0.03  -0.05   0.04    -0.05  -0.00   0.13    -0.00  -0.07   0.03
    21   1    -0.02  -0.03   0.03    -0.09  -0.09   0.25     0.02  -0.00  -0.04
    22   1    -0.05  -0.07   0.09    -0.03   0.06   0.05    -0.00  -0.07   0.04
    23   1     0.09   0.08  -0.09    -0.02  -0.02  -0.25     0.04   0.03   0.04
    24   1    -0.07   0.21   0.09    -0.00   0.10  -0.03     0.07   0.05   0.08
    25   1    -0.15  -0.14  -0.21     0.03   0.03   0.05     0.07   0.02   0.06
    26   1     0.02  -0.08  -0.16    -0.10   0.05   0.03     0.04  -0.03   0.04
    27   1    -0.06  -0.11  -0.17     0.24   0.02   0.04    -0.17   0.03   0.08
    28   1    -0.25  -0.01  -0.18     0.08   0.05  -0.01     0.08  -0.07   0.12
    29   1     0.11   0.12   0.22    -0.05  -0.04  -0.25     0.02  -0.05  -0.05
    30   1     0.13  -0.01  -0.02    -0.07   0.14   0.02     0.02  -0.10  -0.12
    31   1     0.11   0.13   0.26    -0.07   0.12   0.03     0.02  -0.10  -0.16
    32   1     0.09  -0.33   0.04    -0.06  -0.11   0.03     0.40  -0.43  -0.03
    33   1    -0.13   0.03  -0.20    -0.25   0.04  -0.03    -0.30   0.16  -0.27
                     22                     23                     24
                      A                      A                      A
 Frequencies --    618.0145               640.8919               661.2415
 Red. masses --      3.0999                 3.4130                 2.6581
 Frc consts  --      0.6976                 0.8259                 0.6848
 IR Inten    --      2.1762                 0.6055                 2.6600
  Atom  AN      X      Y      Z        X      Y      Z        X      Y      Z
     1   8    -0.09   0.10  -0.03     0.02  -0.03  -0.01    -0.06  -0.06   0.03
     2   6     0.02  -0.10   0.02    -0.03   0.10   0.01    -0.08   0.05   0.04
     3   6    -0.12  -0.07   0.05     0.03  -0.04   0.02     0.03  -0.00  -0.01
     4   6    -0.05   0.07   0.06     0.05  -0.10  -0.06     0.04  -0.05  -0.02
     5   6    -0.01  -0.01  -0.04     0.05   0.01   0.10     0.01   0.00   0.02
     6   6    -0.11   0.02  -0.01    -0.01  -0.12  -0.03     0.06   0.03   0.04
     7   6    -0.00  -0.01   0.02    -0.04  -0.11   0.14     0.01   0.01  -0.01
     8   6    -0.04  -0.04  -0.07     0.01  -0.10  -0.16    -0.10   0.05   0.06
     9   6    -0.01  -0.08  -0.05     0.04   0.01  -0.02    -0.14  -0.09  -0.05
    10   6     0.09  -0.05  -0.01    -0.00   0.04  -0.01     0.16  -0.10  -0.02
    11   6     0.07   0.12  -0.01    -0.02   0.13  -0.03     0.13   0.02   0.01
    12   6    -0.01   0.05   0.11    -0.01   0.06   0.09     0.01   0.01   0.02
    13   6     0.20  -0.04  -0.04    -0.07   0.21  -0.10    -0.03   0.11  -0.05
    14   1     0.09   0.00  -0.06     0.02  -0.10  -0.07    -0.02  -0.02   0.02
    15   1     0.05   0.14   0.01    -0.02  -0.08  -0.04     0.01  -0.07  -0.01
    16   1    -0.09   0.27   0.15     0.07  -0.16  -0.12     0.05  -0.11  -0.03
    17   1    -0.05  -0.01  -0.26     0.04   0.04   0.11     0.02   0.01   0.07
    18   1     0.10   0.04  -0.02     0.01   0.04   0.03    -0.02   0.00   0.00
    19   1     0.11   0.03   0.02     0.06   0.05   0.17    -0.01   0.01   0.03
    20   1     0.02  -0.14   0.18    -0.04  -0.11   0.24     0.01   0.01  -0.11
    21   1     0.11   0.04  -0.06    -0.04  -0.12   0.25     0.00   0.01  -0.07
    22   1     0.10   0.00  -0.02     0.02   0.01   0.06    -0.05  -0.08   0.05
    23   1     0.05  -0.03  -0.06    -0.15  -0.12  -0.17     0.18   0.09  -0.17
    24   1    -0.04   0.01  -0.05     0.07  -0.14  -0.14    -0.24   0.34   0.10
    25   1     0.01  -0.06   0.00     0.18   0.03   0.18    -0.39  -0.06  -0.31
    26   1    -0.08  -0.05  -0.02    -0.21  -0.09   0.07     0.14   0.17  -0.14
    27   1    -0.11  -0.06   0.05    -0.19   0.03   0.05     0.26  -0.14  -0.10
    28   1     0.18  -0.16   0.09     0.05  -0.12   0.05     0.15   0.09  -0.04
    29   1    -0.06   0.03   0.23    -0.02   0.08   0.24    -0.02  -0.02  -0.01
    30   1    -0.05   0.03   0.21    -0.01  -0.01   0.13    -0.05   0.04   0.15
    31   1    -0.01  -0.10  -0.03    -0.01  -0.05   0.00    -0.05  -0.05  -0.08
    32   1     0.24  -0.12  -0.05    -0.04   0.06  -0.11    -0.04  -0.05  -0.05
    33   1     0.40  -0.01  -0.19    -0.13   0.24  -0.19    -0.11   0.15  -0.16
                     25                     26                     27
                      A                      A                      A
 Frequencies --    757.3327               792.6396               846.3010
 Red. masses --      2.4749                 1.7742                 1.6286
 Frc consts  --      0.8363                 0.6567                 0.6873
 IR Inten    --      1.4499                 2.3705                 1.4854
  Atom  AN      X      Y      Z        X      Y      Z        X      Y      Z
     1   8    -0.09  -0.04   0.04    -0.02  -0.02   0.02    -0.02  -0.01   0.01
     2   6    -0.05  -0.07   0.05    -0.03  -0.02  -0.01    -0.01  -0.02   0.02
     3   6     0.12   0.12  -0.07     0.05   0.07  -0.04     0.02   0.06  -0.03
     4   6    -0.01   0.08   0.02     0.03  -0.01  -0.03     0.02  -0.02  -0.03
     5   6    -0.01   0.02  -0.07     0.02   0.02   0.01     0.01   0.02   0.01
     6   6     0.14  -0.07  -0.00    -0.04   0.12   0.06    -0.07   0.09   0.00
     7   6     0.02  -0.05   0.04    -0.03   0.00   0.05    -0.04  -0.02   0.06
     8   6     0.01  -0.02  -0.02    -0.05   0.05  -0.04     0.03   0.00  -0.10
     9   6    -0.03   0.00   0.00    -0.03   0.00  -0.09     0.01   0.00   0.03
    10   6    -0.09   0.03  -0.02     0.09  -0.03  -0.05    -0.01  -0.06   0.10
    11   6    -0.01   0.06  -0.03     0.03  -0.01   0.02    -0.02   0.01   0.02
    12   6    -0.01   0.03   0.04     0.01  -0.01  -0.02     0.00  -0.02  -0.04
    13   6     0.10  -0.04  -0.01    -0.01  -0.05   0.05     0.04  -0.00  -0.01
    14   1    -0.26   0.21   0.23    -0.06   0.04   0.06    -0.04   0.03   0.05
    15   1    -0.15  -0.04   0.10     0.01  -0.08  -0.01     0.03  -0.09  -0.02
    16   1     0.06  -0.22  -0.09     0.05  -0.11  -0.04     0.04  -0.09  -0.03
    17   1     0.06  -0.04   0.19     0.06  -0.02   0.18     0.04  -0.01   0.12
    18   1    -0.11  -0.09  -0.03    -0.04  -0.05   0.04    -0.01  -0.03   0.04
    19   1    -0.22  -0.09  -0.25    -0.11  -0.05  -0.10    -0.08  -0.03  -0.08
    20   1    -0.02   0.17  -0.18    -0.01  -0.11   0.05    -0.02  -0.17   0.19
    21   1    -0.18  -0.15   0.23     0.05   0.06  -0.16     0.08   0.05  -0.09
    22   1    -0.15  -0.02   0.09    -0.03  -0.16   0.12     0.05  -0.08   0.06
    23   1    -0.04  -0.03  -0.14    -0.12   0.03   0.21    -0.05  -0.01   0.16
    24   1    -0.05   0.03  -0.03     0.07  -0.17  -0.07     0.08  -0.22  -0.16
    25   1    -0.06  -0.00  -0.04     0.22   0.08   0.32     0.03  -0.20  -0.21
    26   1     0.03  -0.02  -0.02    -0.38  -0.30   0.02    -0.01   0.37   0.06
    27   1    -0.17   0.01  -0.02    -0.11   0.13   0.22     0.34  -0.23  -0.24
    28   1    -0.04  -0.02   0.02     0.20  -0.32   0.07    -0.22   0.37  -0.11
    29   1    -0.01   0.04   0.16     0.02  -0.01  -0.03    -0.01  -0.02  -0.03
    30   1     0.00  -0.02   0.06     0.02  -0.02  -0.04    -0.01  -0.02  -0.02
    31   1     0.02  -0.05  -0.01     0.01  -0.01  -0.01    -0.00  -0.04  -0.06
    32   1     0.20  -0.01  -0.05    -0.07  -0.07   0.07     0.09   0.02  -0.03
    33   1     0.29  -0.05  -0.05    -0.02  -0.04   0.03     0.12  -0.01  -0.01
                     28                     29                     30
                      A                      A                      A
 Frequencies --    868.2584               892.2099               897.7157
 Red. masses --      2.0676                 2.2641                 2.2767
 Frc consts  --      0.9184                 1.0619                 1.0810
 IR Inten    --      2.0323                 0.9884                 0.8383
  Atom  AN      X      Y      Z        X      Y      Z        X      Y      Z
     1   8    -0.01   0.01  -0.01     0.01  -0.01  -0.03     0.03   0.02  -0.01
     2   6     0.01   0.02   0.04     0.05   0.06   0.15     0.05  -0.05  -0.02
     3   6    -0.00  -0.08   0.07     0.05   0.03   0.05     0.03  -0.05   0.04
     4   6    -0.03   0.01   0.04     0.04  -0.01  -0.01    -0.02   0.02   0.05
     5   6    -0.04  -0.04  -0.06    -0.04  -0.02  -0.08    -0.02  -0.02  -0.06
     6   6     0.13   0.03   0.05    -0.05   0.01   0.01     0.09   0.04   0.04
     7   6     0.04  -0.01   0.03    -0.02   0.02  -0.02     0.03  -0.00   0.04
     8   6     0.00   0.09  -0.03    -0.01  -0.01   0.01    -0.04  -0.02  -0.08
     9   6    -0.06   0.03  -0.06     0.02   0.02   0.01     0.00   0.03   0.04
    10   6    -0.09  -0.07  -0.00     0.07  -0.02   0.00     0.11  -0.06  -0.00
    11   6     0.07  -0.05   0.03    -0.04  -0.04  -0.06    -0.10   0.12  -0.03
    12   6     0.03  -0.01   0.01    -0.01   0.06   0.09    -0.05   0.03  -0.07
    13   6     0.01   0.07  -0.08    -0.07  -0.11  -0.15    -0.10  -0.04   0.09
    14   1     0.09  -0.07  -0.10    -0.07   0.03   0.05     0.07  -0.07  -0.10
    15   1    -0.03   0.13   0.02    -0.06  -0.03   0.03    -0.07   0.17   0.05
    16   1    -0.07   0.14   0.04     0.07  -0.15  -0.08    -0.06   0.12   0.01
    17   1    -0.09   0.05  -0.18    -0.06   0.04  -0.09    -0.03   0.03  -0.04
    18   1    -0.07   0.05  -0.18    -0.07   0.03  -0.16    -0.08   0.00  -0.13
    19   1     0.09   0.06   0.12     0.02   0.04   0.02     0.00   0.02   0.02
    20   1     0.01   0.14  -0.21     0.00  -0.07   0.07     0.01   0.09  -0.19
    21   1    -0.09  -0.07   0.07     0.06   0.07  -0.10    -0.08  -0.05   0.01
    22   1    -0.13  -0.09   0.12     0.05  -0.01  -0.02    -0.13  -0.15   0.16
    23   1    -0.27   0.05   0.30     0.01  -0.01  -0.05    -0.10  -0.02  -0.10
    24   1     0.15  -0.31  -0.12    -0.02   0.06   0.04    -0.10  -0.04  -0.13
    25   1     0.21  -0.09   0.09    -0.02   0.07   0.04    -0.08   0.03  -0.06
    26   1    -0.28  -0.09   0.01    -0.01   0.04   0.02    -0.03   0.25   0.07
    27   1     0.14  -0.05  -0.05     0.07   0.01   0.03     0.03  -0.16  -0.08
[...]
 .00012769,0.00007273,0.00041996,0.00013277,-0.00032881,-0.00002938,-0.
 00023892,0.00012993,0.00008714,0.00000060,0.00000352,0.00004283,0.0000
 0123,-0.00006763,0.00020000,-0.00005924,-0.00031335,0.00036878,-0.0002
 7411,0.00016376,-0.00062975,-0.00201191,-0.00175245,0.01483520,-0.0030
 4596,-0.00996828,0.02722617,-0.05397264,-0.01375613,0.01299926,-0.0010
 8919,-0.00704527,0.00033816,0.00115971,-0.00111832,-0.00005689,-0.0005
 9972,0.00118881,-0.00000783,-0.00000307,-0.00000740,-0.00003090,-0.000
 00437,0.00005372,0.00004074,-0.00003360,0.00001582,-0.00000091,-0.0000
 1232,0.00002886,0.00000491,0.00000152,0.00003226,0.00000166,-0.0000244
 0,0.00001265,-0.00027070,-0.00033453,-0.00009852,-0.00019059,0.0000804
 6,0.00003476,-0.00006728,-0.00005465,0.00004976,0.00053722,-0.00060463
 ,-0.00009159,0.00009475,0.00004497,0.00001599,0.00034187,0.00115740,0.
 00000717,0.00025573,-0.00089540,-0.00113942,-0.02739480,0.00464147,0.0
 1591236,-0.02898160,0.05641690,-0.00038893,0.00050635,0.00001025,-0.00
 079193,-0.00084353,0.00007811,-0.00011594,0.00013364,0.00010301,0.0000
 4205,0.00003230,-0.00012492,0.00008974,0.00002055,0.00006894,-0.000173
 88,0.00010294,-0.00044146,0.00034896,0.00019839,0.00023729,-0.00155879
 ,-0.00084913,-0.00301869,0.02059348,-0.00420431,-0.01324698,0.11393395
 ,-0.01427066,-0.11184105,-0.01720895,0.00128185,0.00801536,-0.00218459
 ,0.00033665,0.00020292,-0.00205824,0.00215258,-0.00146242,-0.00000700,
 0.00003330,0.00000533,-0.00004899,-0.00001662,0.00006308,-0.00000465,-
 0.00000845,0.00004728,0.00000910,-0.00002998,0.00001869,-0.00000811,-0
 .00000104,0.00000622,0.00000207,0.00001421,-0.00001819,-0.00010693,0.0
 0001773,-0.00003948,-0.00002545,0.00010363,-0.00008625,-0.00006919,-0.
 00000561,0.00003238,0.00064063,-0.00066558,0.00017035,0.00008755,0.000
 09783,0.00000267,-0.00015678,0.00026512,0.00154777,0.00001837,-0.00188
 198,-0.00204749,0.00785783,-0.00075698,-0.00406069,-0.11824818,0.01808
 497,0.12540741,0.00004084,-0.00019050,0.00004548,0.00005595,0.00040971
 ,-0.00025357,0.00006914,-0.00018965,-0.00027213,0.00000734,-0.00004770
 ,0.00007033,-0.00004445,0.00005557,-0.00059579,-0.00020632,-0.00118529
 ,0.00148683,0.00016623,-0.00051518,0.00002558,0.00013952,0.00055700,-0
 .00002479,-0.00021837,0.00011375,0.00001067,0.00030161,-0.00053549,-0.
 00064197,-0.00149680,0.00820464,0.00240636,-0.05003854,0.01367860,0.00
 204002,0.00087736,0.00107152,0.00010191,0.00000140,0.00000197,-0.00001
 184,0.00000277,0.00001636,0.00002625,0.00000669,0.00001100,-0.00002649
 ,-0.00004593,0.00015885,0.00009043,-0.00011629,0.00012351,0.00048605,-
 0.00009687,0.00016439,0.00013015,0.00012837,0.00007283,0.00020713,0.00
 012173,0.00002827,-0.00025453,-0.00018287,0.00023061,-0.00037746,0.000
 04672,-0.00000792,0.00017859,-0.00003637,0.00001011,-0.00003483,0.0000
 3129,-0.00001202,0.00000576,0.00002234,-0.00000513,0.00001331,0.000164
 02,-0.00013437,0.00007049,-0.00025592,-0.00032140,-0.00006558,0.049465
 88,0.00002979,0.00019920,-0.00000151,0.00011813,-0.00053947,0.00028061
 ,-0.00023234,0.00012582,-0.00018230,0.00012612,0.00007778,0.00000547,0
 .00000500,0.00018688,0.00051972,-0.00016223,0.00148212,-0.00015750,0.0
 0027476,-0.00002453,0.00020705,0.00011054,-0.00025675,0.00016731,-0.00
 010694,-0.00017233,-0.00015458,0.00074045,0.00115222,0.00078362,-0.000
 04609,-0.00446787,-0.00122424,0.01316335,-0.29919459,-0.04816803,-0.00
 066873,0.00100997,0.00010099,-0.00001560,0.00003202,0.00002357,-0.0000
 0266,-0.00000664,-0.00004094,0.00002992,-0.00004061,-0.00001273,0.0000
 7502,-0.00012334,-0.00009935,0.00001550,-0.00016810,-0.00034107,0.0000
 1970,-0.00002294,-0.00009906,-0.00002164,0.00003425,0.00001785,0.00000
 636,-0.00003166,-0.00013989,0.00003205,0.00024860,-0.00024621,-0.00006
 279,0.00012983,-0.00009906,0.00001433,0.00003620,-0.00010478,0.0000102
 0,0.00002176,0.00003097,-0.00002012,0.00007691,0.00003126,-0.00026715,
 0.00015146,-0.00050017,-0.00051657,0.00004489,-0.00010317,-0.01470296,
 0.32443208,0.00000236,0.00019058,-0.00003449,-0.00005878,-0.00050646,0
 .00025848,-0.00042520,-0.00002782,-0.00045330,0.00029848,-0.00008881,0
 .00021942,0.00007944,0.00002632,-0.00046912,0.00141275,0.00231066,-0.0
 0522698,0.00045078,0.00080608,-0.00034418,0.00007642,-0.00208134,-0.00
 025811,0.00021902,-0.00009510,0.00027445,0.00044903,-0.00082077,0.0014
 1971,0.00228552,-0.03368846,-0.00947003,0.00212447,-0.04755572,-0.0558
 3134,-0.00167534,-0.00012456,0.00070002,-0.00002841,0.00000932,-0.0000
 0399,-0.00005309,0.00003038,0.00004476,0.00007472,-0.00010279,-0.00006
 925,-0.00003073,0.00006565,0.00017400,0.00003841,0.00004337,0.00037699
 ,-0.00004448,0.00008306,0.00008804,-0.00007635,-0.00001012,0.00003767,
 -0.00009155,-0.00010321,0.00015001,-0.00007474,-0.00009360,0.00034932,
 -0.00013988,0.00012159,-0.00076585,0.00004255,0.00005366,-0.00003702,-
 0.00000830,0.00009289,0.00008077,-0.00004386,0.00010720,0.00006851,0.0
 0007820,0.00033654,-0.00033366,-0.00048079,0.00006903,0.00009160,-0.00
 359631,0.05335450,0.06363908,0.00009942,-0.00023868,0.00006026,0.00011
 678,0.00051630,-0.00000542,0.00002924,-0.00009908,-0.00016190,-0.00000
 204,-0.00005699,0.00009941,-0.00049261,0.00085458,-0.00053266,0.000122
 84,0.00033843,-0.00050156,-0.00015888,0.00009309,-0.00042157,-0.000025
 22,-0.00021233,-0.00009436,0.00048349,-0.00000521,0.00016315,-0.000115
 93,0.00045285,0.00164605,0.00569163,-0.00495272,0.00557887,-0.17416662
 ,0.07054678,-0.11021450,0.00080249,-0.00065099,0.00029264,-0.00000723,
 -0.00002403,-0.00002833,-0.00001417,0.00000760,0.00005389,0.00002997,-
 0.00000747,-0.00002373,-0.00013255,0.00022405,0.00021426,-0.00020633,0
 .00159854,0.00082906,-0.00004286,0.00011484,0.00009048,0.00020721,-0.0
 0000664,0.00019388,0.00009966,-0.00010406,0.00005697,-0.00016069,-0.00
 007751,0.00010804,-0.00000163,-0.00001930,-0.00004975,0.00001636,-0.00
 000161,0.00001674,0.00001683,0.00003017,0.00007328,0.00000652,-0.00003
 396,-0.00000642,0.00017477,-0.00001588,-0.00028774,0.00069038,-0.00014
 363,-0.00002804,-0.00111487,0.00018143,0.00009362,0.18648569,-0.000138
 93,-0.00020344,-0.00007343,0.00017761,0.00060756,0.00005756,-0.0000087
 8,0.00018942,0.00007048,-0.00002910,-0.00008819,0.00010209,0.00073618,
 -0.00151126,-0.00047186,-0.00044719,0.00028501,0.00024701,-0.00019553,
 0.00011407,-0.00013520,0.00001960,0.00010672,-0.00001213,-0.00002913,-
 0.00015793,-0.00012080,0.00058849,0.00161707,-0.00033404,-0.00462153,0
 .00166765,-0.00323455,0.07079000,-0.08994818,0.06458639,0.00020065,0.0
 0034063,0.00026963,0.00000457,-0.00001334,-0.00001187,-0.00000614,0.00
 003648,0.00004243,-0.00000678,0.00001948,0.00000694,0.00000476,0.00004
 853,0.00005980,0.00146101,-0.00219834,-0.00050095,-0.00002744,-0.00003
 348,0.00005245,0.00013253,-0.00003277,0.00004451,0.00007042,-0.0000434
 8,0.00010488,-0.00014855,-0.00010517,0.00004734,-0.00002280,-0.0000115
 2,0.00003507,-0.00003043,-0.00000592,0.00003341,0.00001723,0.00003059,
 0.00004569,0.00000207,0.00001037,0.00001905,-0.00016311,0.00009370,-0.
 00055291,-0.00015716,-0.00009428,-0.00006263,0.02320791,-0.01242405,0.
 02037138,-0.08152994,0.09645834,0.00025604,-0.00022301,0.00012343,0.00
 045517,0.00027062,-0.00061470,-0.00012270,-0.00032501,-0.00065539,0.00
 017983,-0.00013702,0.00014400,0.00017527,0.00015287,-0.00104758,-0.000
 20693,0.00067017,0.00093996,0.00014059,-0.00025383,-0.00019773,-0.0003
 1240,0.00030202,-0.00002057,-0.00061377,0.00118571,-0.00079878,0.00264
 070,-0.00225454,-0.00495735,-0.02231658,0.01407175,-0.01733368,-0.1092
 6310,0.06407183,-0.14834419,-0.00120996,-0.00085659,0.00125163,-0.0000
 1826,0.00002342,-0.00000563,-0.00005654,0.00004173,0.00013575,0.000054
 95,-0.00005257,-0.00003543,-0.00011626,0.00023426,0.00027340,-0.000060
 06,-0.00030869,0.00154432,-0.00015726,0.00032134,0.00027273,0.00014387
 ,0.00008904,0.00006221,-0.00006678,-0.00009916,0.00006474,-0.00021516,
 -0.00018658,0.00008721,0.00004790,-0.00014566,-0.00002934,0.00007046,0
 .00000978,0.00001079,-0.00009344,-0.00017100,-0.00022350,-0.00010384,-
 0.00039467,-0.00043959,-0.00023132,0.00042626,-0.00051498,0.00018786,-
 0.00027869,0.00017893,0.00508209,-0.00202164,0.00416575,0.12068316,-0.
 07080866,0.16071840,-0.00018008,0.00040607,0.00001176,0.00037127,-0.00
 101585,-0.00012670,-0.00006773,0.00018106,-0.00011625,0.00008102,-0.00
 000135,-0.00004277,0.00015447,0.00014457,0.00004906,-0.00034981,-0.001
 09923,-0.00004076,0.00035988,-0.00100272,0.00034918,0.00012369,0.00014
 772,0.00001983,0.00010354,0.00001146,0.00003547,0.00044904,0.00091504,
 -0.00052720,-0.00769057,-0.00199477,0.00134147,-0.25949188,-0.09498507
 ,0.04785722,0.00093228,-0.00005940,0.00220964,-0.00000963,0.00008336,0
 .00003743,-0.00000421,-0.00000195,0.00000157,0.00000793,-0.00001451,-0
 .00000441,0.00002891,-0.00001766,-0.00002946,-0.00017218,-0.00021392,0
 .00007279,-0.00005668,0.00019194,0.00004731,0.00012802,-0.00008388,0.0
 0017698,0.00024262,0.00004703,-0.00064027,-0.00010352,0.00042299,-0.00
 082678,0.00002743,0.00004406,0.00010028,0.00004265,0.00003320,-0.00013
 652,0.00006457,0.00000378,0.00006861,0.00000608,0.00000785,-0.00000931
 ,0.00011443,-0.00007303,-0.00025161,0.00058028,-0.00023211,-0.00003783
 ,0.00259303,0.00101586,-0.00126315,-0.01873146,-0.00958150,0.00469427,
 0.28064577,-0.00023878,0.00002486,-0.00003541,0.00007514,-0.00004564,0
 .00036715,0.00004901,-0.00007319,-0.00001721,-0.00001588,0.00000559,-0
 .00001599,-0.00008581,-0.00006792,-0.00004901,0.00042083,0.00005171,0.
 00033422,0.00012888,-0.00091274,-0.00081639,-0.00018425,0.00013336,0.0
 0000533,0.00017410,0.00003902,0.00001898,-0.00076276,-0.00002700,0.000
 32192,0.00526988,0.00177728,-0.00093512,-0.09573896,-0.09195440,0.0229
 2861,-0.00013721,0.00077707,-0.00121247,0.00000762,-0.00001112,-0.0000
 0078,0.00000243,-0.00000763,0.00000690,-0.00001440,0.00000429,-0.00000
 068,-0.00002663,0.00001675,0.00003086,0.00006029,0.00018271,0.00002627
 ,0.00002895,-0.00006607,-0.00003303,-0.00002639,-0.00012839,-0.0000071
 9,0.00011657,0.00008781,0.00000960,0.00000165,-0.00146964,-0.00065650,
 0.00003802,-0.00003185,0.00004397,0.00000620,-0.00003379,0.00007987,-0
 .00001247,0.00002143,0.00000695,0.00001137,-0.00004198,-0.00003416,0.0
 0014915,0.00008639,-0.00007187,0.00046497,-0.00024273,0.00031756,-0.02
 989027,-0.01227235,0.00674266,0.01316716,0.00581190,-0.00387661,0.1063
 0197,0.09802304,0.00057026,-0.00064864,0.00024738,-0.00022172,0.001534
 39,-0.00051943,0.00003534,-0.00017086,-0.00003161,-0.00006968,-0.00002
 737,0.00003740,0.00000764,0.00005074,-0.00013079,0.00011125,0.00073844
 ,0.00117789,0.00027285,-0.00048029,0.00009643,0.00006930,0.00015704,0.
 00027160,-0.00012417,0.00000515,0.00017777,0.00169593,-0.00067362,0.00
 095113,0.02798473,0.01356490,-0.00594072,0.04669198,0.02252677,-0.0607
 9178,0.00051113,-0.00103701,-0.00601960,0.00000773,-0.00006159,-0.0000
 2595,0.00001044,0.00000575,0.00001355,-0.00000292,0.00001720,0.0000002
 2,-0.00001584,0.00000492,-0.00000614,-0.00001840,-0.00014948,0.0000643
 4,-0.00000167,-0.00001592,0.00009581,-0.00042681,-0.00020463,-0.000313
 96,-0.00025507,0.00012808,0.00013875,-0.00001724,-0.00060091,0.0001460
 2,-0.00005312,-0.00004146,0.00000811,-0.00005999,-0.00000833,0.0001345
 8,-0.00007670,-0.00003321,-0.00009548,-0.00001331,0.00003942,0.0000908
 6,-0.00014729,-0.00011903,0.00028120,-0.00088912,0.00045015,0.00005035
 ,-0.00607739,-0.00184118,0.00064734,-0.01771232,-0.00987769,0.00466157
 ,-0.05343060,-0.02346073,0.06496569,-0.00087109,0.00015255,0.00338524,
 0.00106367,0.00726412,-0.02031391,-0.00060620,0.00083604,0.00241829,0.
 00061161,0.00034858,-0.00018415,-0.00036521,-0.00042510,0.00004914,-0.
 00051960,0.00044935,0.00030388,0.00013636,-0.00039734,-0.00025993,-0.0
 0011361,-0.00045918,-0.00021413,-0.00013753,-0.00013584,-0.00028060,0.
 00121311,-0.00099406,0.00148447,-0.00394057,-0.01146486,0.02730208,-0.
 00505637,-0.00289236,-0.00019372,-0.04539370,-0.00995088,0.01780192,-0
 .00009383,0.00015678,0.00016715,0.00002224,0.00000235,0.00000341,-0.00
 000696,-0.00010274,-0.00004389,0.00006979,0.00000085,-0.00003334,-0.00
 006114,-0.00000492,-0.00007425,0.00008067,-0.00000548,0.00007588,0.000
 04511,0.00003886,0.00002745,-0.00010907,-0.00015584,-0.00003731,0.0000
 1810,0.00013836,-0.00005410,-0.00000332,0.00008843,-0.00014622,0.00007
 097,-0.00030936,-0.00034338,0.00008332,0.00008862,0.00003904,-0.000114
 67,-0.00003611,-0.00010696,-0.00035294,0.00098609,-0.00011909,0.000464
 19,0.00015333,-0.00005647,0.00008122,0.00016397,-0.00008831,0.00016072
 ,-0.00010372,-0.00012492,-0.00065894,0.00038578,0.00181588,0.05303257,
 -0.00044533,0.00118589,-0.00310752,-0.00136475,-0.01361857,0.02698987,
 0.00092588,-0.00209706,-0.00496539,-0.00087515,-0.00075762,0.00055959,
 0.00050971,0.00102952,0.00010726,0.00002135,-0.00041608,0.00045474,-0.
 00013680,-0.00010004,-0.00030858,-0.00095377,-0.00037132,0.00040990,-0
 .00018883,0.00019569,-0.00010845,0.00121421,0.00052862,-0.00016928,-0.
 00038641,-0.00306210,0.00630683,-0.00018344,-0.00009909,-0.00074444,-0
 .01201077,-0.09361782,0.10781139,0.00016543,-0.00025670,-0.00030776,0.
 00001569,-0.00006067,-0.00011467,0.00003263,0.00006172,-0.00002620,-0.
 00004538,-0.00005252,0.00000534,0.00003682,0.00000348,0.00005924,-0.00
 013781,0.00006559,-0.00018677,-0.00004895,-0.00000840,0.00004280,-0.00
 004030,-0.00006662,-0.00000581,0.00005337,0.00006621,-0.00005458,0.000
 28858,0.00019024,-0.00019871,0.00017705,-0.00058095,-0.00089475,0.0001
 0972,-0.00007706,-0.00002912,-0.00008389,-0.00001221,-0.00007824,0.000
 21883,0.00025233,-0.00025582,0.00019036,0.00008051,0.00003951,-0.00011
 049,0.00010116,0.00011026,0.00010077,-0.00011156,0.00004431,0.00006901
 ,0.00018622,0.00010567,0.01160934,0.10046608,0.00022852,0.00000258,0.0
 0098637,-0.00058797,0.00030551,0.00054135,-0.00016861,0.00003474,-0.00
 096084,-0.00008969,-0.00011746,-0.00004598,0.00007526,0.00013039,-0.00
 010789,0.00023183,-0.00012345,-0.00045206,-0.00004427,0.00010507,0.000
 04659,0.00019366,-0.00064170,-0.00110352,0.00028458,-0.00022023,0.0001
 5460,-0.00142697,0.00098876,0.00085318,0.00059901,0.00053456,-0.003727
 66,0.00165735,0.00121478,0.00057610,0.02236633,0.10065190,-0.25107302,
 0.00000380,-0.00003394,-0.00001719,-0.00002025,0.00001984,0.00004419,-
 0.00001004,0.00002071,0.00001842,-0.00001461,0.00001705,0.00000080,-0.
 00000975,-0.00002146,0.00008166,-0.00000935,0.00004994,-0.00002421,0.0
 0000963,-0.00000358,-0.00002267,0.00004625,0.00005458,-0.00001242,0.00
 000312,-0.00006350,0.00003911,-0.00035678,-0.00007588,0.00018350,-0.00
 106642,-0.00088584,0.00020644,-0.00000448,0.00004755,-0.00001895,-0.00
 000189,0.00001866,0.00008365,0.00024601,-0.00078063,0.00056925,-0.0003
 0735,-0.00030929,-0.00000764,-0.00014877,0.00002076,0.00008231,-0.0001
 2929,-0.00018084,0.00036387,0.00041837,-0.00008640,-0.00037926,-0.0232
 8417,-0.11121655,0.27409580,-0.00031455,-0.00111647,-0.00227939,0.0079
 5672,0.01089463,0.01649111,-0.00169450,0.00151561,-0.00250479,0.000175
 45,-0.00007250,0.00001363,0.00069634,0.00066594,0.00029153,-0.00500577
 ,-0.00035213,0.00178245,0.00057377,-0.00124587,-0.00092907,0.00016705,
 0.00010293,0.00043008,0.00037450,0.00016236,-0.00005076,-0.00068477,-0
 .00129339,0.00134200,-0.00780171,-0.01885094,-0.01954251,0.00152259,-0
 .00052673,-0.00166307,-0.07666437,-0.05560963,-0.05796447,0.00003128,0
 .00014692,0.00006226,-0.00005321,-0.00000815,0.00004286,0.00006870,-0.
 00007575,-0.00004188,-0.00000942,-0.00009044,0.00010457,0.00000638,-0.
 00003554,-0.00000062,-0.00007027,0.00019523,-0.00030093,0.00005316,0.0
 0008335,-0.00003713,-0.00043557,-0.00042790,0.00023267,-0.00000844,-0.
 00001345,0.00010916,0.00007161,-0.00002284,-0.00010175,0.00007046,-0.0
 0001028,-0.00018885,0.00001625,0.00001917,0.00005334,-0.00006047,-0.00
 001056,-0.00008174,0.00015583,0.00055739,-0.00009572,-0.00041232,0.000
 35442,-0.00027930,-0.00046983,0.00069336,0.00045351,0.00013911,-0.0001
 6527,0.00047713,0.00045977,0.00027386,-0.00017108,0.00125110,0.0012733
 1,0.00131693,0.07989513,-0.00084105,0.00326456,0.00286752,-0.00972277,
 -0.01929935,-0.01960847,0.00110920,-0.00245764,0.00232655,-0.00009705,
 -0.00023114,0.00013689,-0.00048564,-0.00090109,-0.00058823,-0.00066885
 ,-0.00105815,0.00057618,0.00018186,-0.00019672,-0.00041842,-0.00002632
 ,0.00021946,0.00043686,-0.00013736,-0.00002269,-0.00007648,-0.00010291
 ,-0.00005362,0.00009763,-0.00093482,-0.00473144,-0.00345214,0.00043362
 ,0.00100032,-0.00089093,-0.05623278,-0.15637867,-0.12285467,-0.0000142
 0,-0.00020174,-0.00010016,0.00001344,0.00000124,-0.00004506,0.00004239
 ,-0.00004763,-0.00000568,0.00006792,-0.00002228,0.00002435,-0.00011678
 ,-0.00003021,0.00017631,0.00006155,-0.00013676,0.00041311,-0.00007971,
 -0.00000567,-0.00000282,-0.00014241,-0.00012817,0.00009983,0.00000883,
 -0.00003716,0.00004627,0.00010961,0.00001643,-0.00009387,0.00016494,0.
 00003657,-0.00010510,-0.00000819,-0.00000740,-0.00003580,-0.00003192,0
 .00004505,-0.00002744,-0.00008236,-0.00007142,-0.00006173,-0.00006723,
 -0.00003905,-0.00003944,-0.00026823,0.00020208,0.00037360,-0.00004655,
 -0.00045462,0.00047883,0.00035000,0.00015702,0.00012333,0.00457441,0.0
 1095315,0.01054339,0.06298936,0.17061677,0.00125259,-0.00001034,0.0005
 4621,-0.00085016,0.00344575,0.00117178,0.00022201,0.00078757,-0.000552
 04,-0.00002921,0.00002007,-0.00004211,0.00001339,0.00021047,-0.0000509
 1,0.00127942,0.00118288,-0.00034577,0.00000072,0.00040481,0.00028024,0
 .00047936,-0.00007248,-0.00047419,0.00015180,-0.00001616,0.00001245,-0
 .00017713,0.00020816,-0.00003126,0.00246230,0.00496187,0.00438091,0.00
 145034,0.00097316,0.00050966,-0.05928948,-0.12168347,-0.16915608,0.000
 02412,0.00000474,0.00000697,-0.00000431,0.00002195,0.00003061,0.000010
 02,-0.00000777,0.00000282,-0.00000024,-0.00000877,0.00001215,0.0000267
 7,0.00001210,0.00000891,0.00000030,0.00002666,-0.00003306,-0.00002521,
 -0.00002321,0.00000648,0.00009223,0.00016593,-0.00002873,-0.00004121,-
 0.00002538,0.00002490,-0.00019790,-0.00004863,0.00013432,-0.00047664,-
 0.00011465,0.00027983,-0.00006045,0.00005088,0.00003602,0.00003267,-0.
 00000162,0.00004237,-0.00019665,-0.00006903,-0.00012548,-0.00010462,-0
 .00005111,0.00005731,-0.00009597,-0.00000628,0.00042906,-0.00005616,0.
 00018145,0.00021978,-0.00000760,0.00006873,-0.00000327,-0.00891493,-0.
 02027406,-0.02097387,0.06302984,0.12968578,0.18362399\\-0.00006362,-0.
 00005779,-0.00008952,0.00006033,0.00001673,0.00027322,0.00001169,-0.00
 000439,-0.00004423,0.00009300,-0.00010902,-0.00011300,0.00002037,-0.00
 001721,0.00000010,-0.00002742,0.00005907,-0.00000131,-0.00005662,0.000
 01300,-0.00000628,0.00002523,0.00001658,-0.00004466,-0.00005006,-0.000
 01806,0.00001671,-0.00000373,0.00003511,0.00003375,-0.00003225,-0.0000
 5936,-0.00006401,-0.00004200,0.00000527,0.00013231,0.00007407,0.000021
 35,-0.00005166,0.00015497,0.00022073,-0.00003471,0.00004010,-0.0001185
 5,0.00023903,-0.00023639,0.00003808,-0.00008578,-0.00006372,0.00002228
 ,0.00000495,0.00003415,-0.00000861,-0.00003744,0.00004918,0.00004648,0
 .00001448,-0.00000288,-0.00000244,0.00000637,0.00001218,0.00000262,0.0
 0000286,-0.00000956,0.00000766,-0.00001477,0.00001127,-0.00000826,0.00
 000621,-0.00001724,0.00000193,-0.00000388,-0.00000769,-0.00000701,-0.0
 0000176,0.00000705,-0.00001192,-0.00000309,-0.00002183,0.00000076,0.00
 001586,-0.00001007,0.00000029,-0.00000391,0.00001741,-0.00014852,-0.00
 001699,-0.00008590,0.00004935,-0.00005521,0.00014898,0.00009247,-0.000
 02131,-0.00002813,-0.00003625,-0.00001974,-0.00000086,-0.00004235,-0.0
 0003257\\\@


 "WHERE SHALL I START, PLEASE YOUR MAJESTY?" HE ASKED.
 "BEGIN AT THE BEGINNING," THE KING SAID GRAVELY,
 "AND GO ON TILL YOU COME TO THE END: THEN STOP." 

                                      -- LEWIS CARROLL
 Job cpu time:       0 days  0 hours  4 minutes 17.7 seconds.
 Elapsed time:       0 days  0 hours  4 minutes 26.7 seconds.
 File lengths (MBytes):  RWF=    219 Int=      0 D2E=      0 Chk=     16 Scr=      1
 Normal termination of Gaussian 16 at Sat Feb 24 03:39:04 2024.
