 Entering Gaussian System, Link 0=g16
 Input=/Volumes/SSD-PMU3/b3lyp_6-31gd_freq/CFXXKBANTXJILF-FOGDFJRCSA-N_calculating/gaussianinput0.gjf
 Output=/Volumes/SSD-PMU3/b3lyp_6-31gd_freq/CFXXKBANTXJILF-FOGDFJRCSA-N_calculating/gaussianinput0.log
 Initial command:
 /Applications/g16/l1.exe "/Users/macmini_m1_2022/PycharmProjects/sphere_model/sphere_model_lib/Gau-82047.inp" -scrdir="/Users/macmini_m1_2022/PycharmProjects/sphere_model/sphere_model_lib/"
 Entering Link 1 = /Applications/g16/l1.exe PID=     82048.
  
 Copyright (c) 1988,1990,1992,1993,1995,1998,2003,2009,2016,
            Gaussian, Inc.  All Rights Reserved.
  
 This is part of the Gaussian(R) 16 program.  It is based on
 the Gaussian(R) 09 system (copyright 2009, Gaussian, Inc.),
 the Gaussian(R) 03 system (copyright 2003, Gaussian, Inc.),
 the Gaussian(R) 98 system (copyright 1998, Gaussian, Inc.),
 the Gaussian(R) 94 system (copyright 1995, Gaussian, Inc.),
 the Gaussian 92(TM) system (copyright 1992, Gaussian, Inc.),
 the Gaussian 90(TM) system (copyright 1990, Gaussian, Inc.),
 the Gaussian 88(TM) system (copyright 1988, Gaussian, Inc.),
 the Gaussian 86(TM) system (copyright 1986, Carnegie Mellon
 University), and the Gaussian 82(TM) system (copyright 1983,
 Carnegie Mellon University). Gaussian is a federally registered
 trademark of Gaussian, Inc.
  
 This software contains proprietary and confidential information,
 including trade secrets, belonging to Gaussian, Inc.
  
 This software is provided under written license and may be
 used, copied, transmitted, or stored only in accord with that
 written license.
  
 The following legend is applicable only to US Government
 contracts under FAR:
  
                    RESTRICTED RIGHTS LEGEND
  
 Use, reproduction and disclosure by the US Government is
 subject to restrictions as set forth in subparagraphs (a)
 and (c) of the Commercial Computer Software - Restricted
 Rights clause in FAR 52.227-19.
  
 Gaussian, Inc.
 340 Quinnipiac St., Bldg. 40, Wallingford CT 06492
  
  
 ---------------------------------------------------------------
 Warning -- This program may not be used in any manner that
 competes with the business of Gaussian, Inc. or will provide
 assistance to any competitor of Gaussian, Inc.  The licensee
 of this program is prohibited from giving any competitor of
 Gaussian, Inc. access to this program.  By using this program,
 the user acknowledges that Gaussian, Inc. is engaged in the
 business of creating and licensing software in the field of
 computational chemistry and represents and warrants to the
 licensee that it is not a competitor of Gaussian, Inc. and that
 it will not use this program in any manner prohibited above.
 ---------------------------------------------------------------
  

 Cite this work as:
 Gaussian 16, Revision A.03,
 M. J. Frisch, G. W. Trucks, H. B. Schlegel, G. E. Scuseria, 
 M. A. Robb, J. R. Cheeseman, G. Scalmani, V. Barone, 
 G. A. Petersson, H. Nakatsuji, X. Li, M. Caricato, A. V. Marenich, 
 J. Bloino, B. G. Janesko, R. Gomperts, B. Mennucci, H. P. Hratchian, 
 J. V. Ortiz, A. F. Izmaylov, J. L. Sonnenberg, D. Williams-Young, 
 F. Ding, F. Lipparini, F. Egidi, J. Goings, B. Peng, A. Petrone, 
 T. Henderson, D. Ranasinghe, V. G. Zakrzewski, J. Gao, N. Rega, 
 G. Zheng, W. Liang, M. Hada, M. Ehara, K. Toyota, R. Fukuda, 
 J. Hasegawa, M. Ishida, T. Nakajima, Y. Honda, O. Kitao, H. Nakai, 
 T. Vreven, K. Throssell, J. A. Montgomery, Jr., J. E. Peralta, 
 F. Ogliaro, M. J. Bearpark, J. J. Heyd, E. N. Brothers, K. N. Kudin, 
 V. N. Staroverov, T. A. Keith, R. Kobayashi, J. Normand, 
 K. Raghavachari, A. P. Rendell, J. C. Burant, S. S. Iyengar, 
 J. Tomasi, M. Cossi, J. M. Millam, M. Klene, C. Adamo, R. Cammi, 
 J. W. Ochterski, R. L. Martin, K. Morokuma, O. Farkas, 
 J. B. Foresman, and D. J. Fox, Gaussian, Inc., Wallingford CT, 2016.
 
 ******************************************
 Gaussian 16:  EM64M-G16RevA.03 25-Dec-2016
                24-Feb-2024 
 ******************************************
 %nprocshared=10
 Will use up to   10 processors via shared memory.
 %mem=12GB
 %chk= 0.chk
 ---------------------
 # freq b3lyp/6-31g(d)
 ---------------------
 1/10=4,30=1,38=1/1,3;
 2/12=2,17=6,18=5,40=1/2;
 3/5=1,6=6,7=1,11=2,25=1,30=1,71=2,74=-5,140=1/1,2,3;
 4//1;
 5/5=2,38=5,98=1/2;
 8/6=4,10=90,11=11/1;
 11/6=1,8=1,9=11,15=111,16=1/1,2,10;
 10/6=1/2;
 6/7=2,8=2,9=2,10=2,28=1/1;
 7/8=1,10=1,25=1/1,2,3,16;
 1/10=4,30=1/3;
 99//99;
 ---------
 good luck
 ---------
 Symbolic Z-matrix:
 Charge =  0 Multiplicity = 1
 O                     1.21728   0.        0. 
 C                     0.        0.        0. 
 C                    -0.81187  -1.289     0.00491 
 C                    -1.86775  -1.28668   1.12839 
 C                    -2.72913  -0.02129   1.1045 
 O                    -3.51099   0.01622  -0.12554 
 C                    -4.70145  -0.63485  -0.12361 
 O                    -5.1385   -1.24382   0.82771 
 C                    -5.39076  -0.48804  -1.46044 
 C                    -1.87844   1.25433   1.14703 
 C                    -2.71938   2.5429    1.15119 
 C                    -1.83808   3.79849   1.22625 
 C                    -0.80042   3.8248    0.0942 
 C                     0.05092   2.54764   0.08071 
 C                    -0.82232   1.28852   0.00491 
 H                    -1.32303  -1.37186  -0.96433 
 H                    -0.12562  -2.1353    0.09741 
 H                    -2.51096  -2.16957   1.05821 
 H                    -1.36844  -1.33608   2.10503 
 H                    -3.43392  -0.03756   1.94064 
 H                    -5.55025   0.57069  -1.68935 
 H                    -4.76264  -0.90253  -2.25596 
 H                    -6.34733  -1.01078  -1.43452 
 H                    -1.32945   1.20961   2.10164 
 H                    -3.32603   2.57321   0.23648 
 H                    -3.42192   2.51928   1.99527 
 H                    -2.46592   4.69761   1.19051 
 H                    -1.31764   3.81947   2.19512 
 H                    -0.15304   4.70499   0.19388 
 H                    -1.32022   3.92823  -0.86999 
 H                     0.66539   2.49874   0.98978 
 H                     0.75564   2.55592  -0.75769 
 H                    -1.38698   1.29684  -0.94203 
 

 GradGradGradGradGradGradGradGradGradGradGradGradGradGradGradGradGradGrad
 Berny optimization.
 Initialization pass.
 Trust Radius=3.00D-01 FncErr=1.00D-07 GrdErr=1.00D-07 EigMax=2.50D+02 EigMin=1.00D-04
 Number of steps in this run=      2 maximum allowed number of steps=      2.
 GradGradGradGradGradGradGradGradGradGradGradGradGradGradGradGradGradGrad

                          Input orientation:                          
 ---------------------------------------------------------------------
 Center     Atomic      Atomic             Coordinates (Angstroms)
 Number     Number       Type             X           Y           Z
 ---------------------------------------------------------------------
      1          8           0        1.217280    0.000000    0.000000
      2          6           0        0.000000    0.000000    0.000000
      3          6           0       -0.811865   -1.288996    0.004913
      4          6           0       -1.867749   -1.286680    1.128387
      5          6           0       -2.729130   -0.021289    1.104498
      6          8           0       -3.510994    0.016220   -0.125535
      7          6           0       -4.701448   -0.634846   -0.123610
      8          8           0       -5.138499   -1.243822    0.827707
      9          6           0       -5.390756   -0.488042   -1.460443
     10          6           0       -1.878443    1.254330    1.147032
     11          6           0       -2.719381    2.542902    1.151195
     12          6           0       -1.838081    3.798492    1.226248
     13          6           0       -0.800424    3.824804    0.094202
     14          6           0        0.050923    2.547639    0.080711
     15          6           0       -0.822316    1.288518    0.004913
     16          1           0       -1.323031   -1.371857   -0.964332
     17          1           0       -0.125624   -2.135298    0.097409
     18          1           0       -2.510962   -2.169574    1.058205
     19          1           0       -1.368437   -1.336079    2.105031
     20          1           0       -3.433917   -0.037560    1.940641
     21          1           0       -5.550246    0.570691   -1.689351
     22          1           0       -4.762637   -0.902532   -2.255964
     23          1           0       -6.347328   -1.010777   -1.434515
     24          1           0       -1.329446    1.209606    2.101640
     25          1           0       -3.326025    2.573213    0.236482
     26          1           0       -3.421922    2.519276    1.995273
     27          1           0       -2.465922    4.697612    1.190510
     28          1           0       -1.317635    3.819465    2.195125
     29          1           0       -0.153042    4.704985    0.193884
     30          1           0       -1.320219    3.928234   -0.869992
     31          1           0        0.665386    2.498737    0.989782
     32          1           0        0.755636    2.555915   -0.757688
     33          1           0       -1.386978    1.296844   -0.942034
 ---------------------------------------------------------------------
                    Distance matrix (angstroms):
                    1          2          3          4          5
     1  O    0.000000
     2  C    1.217280   0.000000
     3  C    2.403948   1.523371   0.000000
     4  C    3.527918   2.533237   1.541782   0.000000
     5  C    4.098112   2.944235   2.547955   1.530935   0.000000
     6  O    4.729968   3.513275   3.000984   2.443383   1.457978
     7  C    5.953961   4.745727   3.946300   3.165791   2.403069
     8  O    6.529021   5.351296   4.404406   3.284821   2.715927
     9  C    6.785073   5.606365   4.873914   4.444259   3.725726
    10  C    3.531647   2.533293   2.985051   2.541101   1.533845
    11  C    4.825857   3.897003   4.431255   3.923200   2.564635
    12  C    5.026674   4.394402   5.331727   5.086200   3.924222
    13  C    4.325405   3.908795   5.114592   5.323156   4.419619
    14  C    2.803100   2.549426   3.933181   4.413721   3.921253
    15  C    2.412520   1.528564   2.577535   2.997794   2.561371
    16  H    3.043864   2.135963   1.098905   2.164127   2.842746
    17  H    2.524357   2.141207   1.093485   2.195010   3.501643
    18  H    4.441468   3.483070   2.184439   1.094601   2.159831
    19  H    3.591963   2.844096   2.173128   1.097992   2.140380
    20  H    5.039954   3.944526   3.491173   2.161698   1.093675
    21  H    6.998500   5.829651   5.364813   4.995023   4.014315
    22  H    6.454715   5.346648   4.568317   4.470098   4.025474
    23  H    7.765488   6.585444   5.726317   5.168290   4.529573
    24  H    3.516511   2.765405   3.302600   2.732844   2.113885
    25  H    5.226755   4.211863   4.614248   4.221473   2.800210
    26  H    5.643586   4.694403   5.027610   4.201458   2.779912
    27  H    6.086941   5.437430   6.323055   6.014434   4.727018
    28  H    5.082586   4.598157   5.581147   5.245310   4.234758
    29  H    4.904310   4.711464   6.033040   6.301870   5.459223
    30  H    4.756765   4.234488   5.314449   5.611474   4.634908
    31  H    2.743710   2.768771   4.183200   4.556903   4.229235
    32  H    2.705533   2.770880   4.221606   5.020455   4.717342
    33  H    3.058005   2.119656   2.813189   3.345501   2.779773
                    6          7          8          9         10
     6  O    0.000000
     7  C    1.356861   0.000000
     8  O    2.268292   1.211144   0.000000
     9  C    2.360035   1.511231   2.422905   0.000000
    10  C    2.411963   3.626689   4.119551   4.708623   0.000000
    11  C    2.939526   3.956236   4.505114   4.810771   1.538705
    12  C    4.351039   5.447520   6.039580   6.181762   2.545715
    13  C    4.679828   5.929073   6.711773   6.487581   2.979583
    14  C    4.374685   5.723197   6.470184   6.418908   2.555806
    15  C    2.977373   4.331687   5.071407   5.116061   1.555959
    16  H    2.723512   3.558609   4.217297   4.192093   3.415143
    17  H    4.017395   4.820619   5.143635   5.732536   3.957734
    18  H    2.679366   2.924091   2.795371   4.179037   3.482971
    19  H    3.375602   4.070323   3.981637   5.441583   2.808574
    20  H    2.068312   2.494898   2.366282   3.949623   2.172164
    21  H    2.628975   2.150656   3.130108   1.094875   4.689837
    22  H    2.636180   2.149961   3.125184   1.095075   4.954898
    23  H    3.288304   2.137456   2.575505   1.090392   5.636136
    24  H    3.338208   4.441187   4.706495   5.662569   1.102123
    25  H    2.589109   3.509002   4.266657   4.063736   2.159641
    26  H    3.281928   4.009406   4.297761   4.986205   2.168393
    27  H    4.973890   5.929553   6.524947   6.517148   3.493310
    28  H    4.965980   6.055379   6.488891   6.964776   2.827176
    29  H    5.776018   7.021581   7.787478   7.558967   3.973980
    30  H    4.545059   5.728132   6.649181   6.035014   3.395550
    31  H    4.984874   6.313627   6.907829   7.183405   2.836255
    32  H    5.005377   6.353171   7.189736   6.894757   3.501493
    33  H    2.611152   3.922621   4.864245   4.414160   2.146519
                   11         12         13         14         15
    11  C    0.000000
    12  C    1.535848   0.000000
    13  C    2.538287   1.535888   0.000000
    14  C    2.969940   2.538745   1.534967   0.000000
    15  C    2.546821   2.970422   2.537952   1.534170   0.000000
    16  H    4.663752   5.638832   5.329062   4.282793   2.875369
    17  H    5.451935   6.278268   5.998181   4.686293   3.495204
    18  H    4.717999   6.008229   6.307758   5.456267   3.989906
    19  H    4.216793   5.230358   5.567835   4.603881   3.405474
    20  H    2.791518   4.215726   5.026179   4.720880   3.510838
    21  H    4.469017   5.718355   6.027530   6.197946   5.073374
    22  H    5.258768   6.540524   6.600766   6.366639   5.043649
    23  H    5.698818   7.109292   7.515847   7.476353   6.155036
    24  H    2.147776   2.779811   3.339002   2.789248   2.158627
    25  H    1.098014   2.166777   2.822301   3.380636   2.823584
    26  H    1.098449   2.176315   3.491522   3.965729   3.497749
    27  H    2.169922   1.097214   2.176596   3.491210   3.965981
    28  H    2.164323   1.100012   2.163657   2.821567   3.383499
    29  H    3.489576   2.174135   1.097159   2.169920   3.486529
    30  H    2.821701   2.163154   1.100252   2.165620   2.825149
    31  H    3.388901   2.830658   2.170050   1.098347   2.155888
    32  H    3.964814   3.493904   2.181082   1.095263   2.162819
    33  H    2.776611   3.341135   2.794354   2.162881   1.102552
                   16         17         18         19         20
    16  H    0.000000
    17  H    1.773110   0.000000
    18  H    2.477537   2.571797   0.000000
    19  H    3.069907   2.492766   1.759523   0.000000
    20  H    3.830804   4.329297   2.485161   2.445278   0.000000
    21  H    4.708343   6.319922   4.929033   5.959919   4.245664
    22  H    3.703980   5.344153   4.202279   5.543179   4.486108
    23  H    5.059151   6.505455   4.719552   6.117480   4.563638
    24  H    4.008014   4.080994   3.728752   2.545986   2.451559
    25  H    4.584487   5.694909   4.881965   4.754597   3.119605
    26  H    5.320293   6.011034   4.867572   4.369509   2.557448
    27  H    6.541254   7.304829   6.868608   6.200504   4.890968
    28  H    6.077172   6.424991   6.211699   5.156581   4.406819
    29  H    6.295899   6.841018   7.318907   6.451676   6.025532
    30  H    5.300931   6.255345   6.505311   6.046989   5.300462
    31  H    4.770101   4.785009   5.646857   4.481744   4.913372
    32  H    4.448702   4.849257   6.024813   5.277733   5.617779
    33  H    2.669560   3.801454   4.156964   4.027063   3.778943
                   21         22         23         24         25
    21  H    0.000000
    22  H    1.764019   0.000000
    23  H    1.789224   1.788223   0.000000
    24  H    5.709201   5.936046   6.527912   0.000000
    25  H    3.558945   4.511867   4.976493   3.053615   0.000000
    26  H    4.680086   5.619546   5.725620   2.470831   1.762229
    27  H    5.902383   6.965249   7.385240   3.779937   2.482543
    28  H    6.599900   7.346937   7.861510   2.611559   3.069700
    29  H    7.054699   7.661225   8.584334   4.152244   3.822838
    30  H    5.462378   6.091589   7.069960   4.027607   2.661508
    31  H    7.037698   7.181012   8.208049   2.622488   4.062557
    32  H    6.676321   6.682591   7.976935   3.786274   4.201027
    33  H    4.291687   4.237775   5.492970   3.045467   2.603444
                   26         27         28         29         30
    26  H    0.000000
    27  H    2.511320   0.000000
    28  H    2.481624   1.760385   0.000000
    29  H    4.325263   2.518478   2.478989   0.000000
    30  H    3.822573   2.479969   3.067047   1.759965   0.000000
    31  H    4.209219   3.831505   2.670121   2.484111   3.073247
    32  H    5.003212   4.331371   3.822841   2.519858   2.490993
    33  H    3.776653   4.156572   4.026188   3.798465   2.633222
                   31         32         33
    31  H    0.000000
    32  H    1.750733   0.000000
    33  H    3.064092   2.491995   0.000000
 Stoichiometry    C12H18O3
 Framework group  C1[X(C12H18O3)]
 Deg. of freedom    93
 Full point group                 C1      NOp   1
 Largest Abelian subgroup         C1      NOp   1
 Largest concise Abelian subgroup C1      NOp   1
                         Standard orientation:                         
 ---------------------------------------------------------------------
 Center     Atomic      Atomic             Coordinates (Angstroms)
 Number     Number       Type             X           Y           Z
 ---------------------------------------------------------------------
      1          8           0        2.165386    2.606579    0.344974
      2          6           0        1.202170    1.863217    0.307585
      3          6           0       -0.218938    2.383886    0.134339
      4          6           0       -0.949482    1.659195   -1.013799
      5          6           0       -0.868407    0.136657   -0.875724
      6          8           0       -1.577797   -0.284931    0.326245
      7          6           0       -2.913151   -0.498466    0.215322
      8          8           0       -3.539391   -0.351085   -0.810822
      9          6           0       -3.493083   -0.942326    1.538382
     10          6           0        0.579709   -0.353049   -0.749903
     11          6           0        0.693559   -1.883339   -0.636485
     12          6           0        2.156789   -2.340810   -0.544255
     13          6           0        2.889424   -1.649237    0.615023
     14          6           0        2.789846   -0.120941    0.512460
     15          6           0        1.330791    0.344290    0.420824
     16          1           0       -0.762848    2.204438    1.072184
     17          1           0       -0.178954    3.464115   -0.030631
     18          1           0       -1.998589    1.967729   -1.062084
     19          1           0       -0.494216    1.935220   -1.974075
     20          1           0       -1.358854   -0.339001   -1.729736
     21          1           0       -3.000426   -1.858975    1.878669
     22          1           0       -3.319935   -0.176513    2.301756
     23          1           0       -4.563586   -1.115934    1.425080
     24          1           0        1.075085   -0.048839   -1.686244
     25          1           0        0.147533   -2.214154    0.256853
     26          1           0        0.201174   -2.352374   -1.499128
     27          1           0        2.200173   -3.430983   -0.427992
     28          1           0        2.670599   -2.106850   -1.488336
     29          1           0        3.942910   -1.955134    0.633832
     30          1           0        2.451757   -1.981257    1.568315
     31          1           0        3.330301    0.229707   -0.377102
     32          1           0        3.275194    0.361135    1.367821
     33          1           0        0.801725    0.058693    1.345024
 ---------------------------------------------------------------------
 Rotational constants (GHZ):           0.8403025           0.4539143           0.3451363
 Standard basis: 6-31G(d) (6D, 7F)
 There are   261 symmetry adapted cartesian basis functions of A   symmetry.
 There are   261 symmetry adapted basis functions of A   symmetry.
   261 basis functions,   492 primitive gaussians,   261 cartesian basis functions
    57 alpha electrons       57 beta electrons
       nuclear repulsion energy      1074.0064079322 Hartrees.
 NAtoms=   33 NActive=   33 NUniq=   33 SFac= 1.00D+00 NAtFMM=   60 NAOKFM=F Big=F
 Integral buffers will be    131072 words long.
 Raffenetti 2 integral format.
 Two-electron integral symmetry is turned on.
 One-electron integrals computed using PRISM.
 NBasis=   261 RedAO= T EigKep=  2.29D-03  NBF=   261
 NBsUse=   261 1.00D-06 EigRej= -1.00D+00 NBFU=   261
 ExpMin= 1.61D-01 ExpMax= 5.48D+03 ExpMxC= 8.25D+02 IAcc=3 IRadAn=         5 AccDes= 0.00D+00
 Harris functional with IExCor=  402 and IRadAn=       5 diagonalized for initial guess.
 HarFok:  IExCor=  402 AccDes= 0.00D+00 IRadAn=         5 IDoV= 1 UseB2=F ITyADJ=14
 ICtDFT=  3500011 ScaDFX=  1.000000  1.000000  1.000000  1.000000
 FoFCou: FMM=F IPFlag=           0 FMFlag=      100000 FMFlg1=           0
         NFxFlg=           0 DoJE=T BraDBF=F KetDBF=T FulRan=T
         wScrn=  0.000000 ICntrl=       500 IOpCl=  0 I1Cent=   200000004 NGrid=           0
         NMat0=    1 NMatS0=      1 NMatT0=    0 NMatD0=    1 NMtDS0=    0 NMtDT0=    0
 Petite list used in FoFCou.
 Requested convergence on RMS density matrix=1.00D-08 within 128 cycles.
 Requested convergence on MAX density matrix=1.00D-06.
 Requested convergence on             energy=1.00D-06.
 No special actions if energy rises.
 Integral accuracy reduced to 1.0D-05 until final iterations.
 Initial convergence to 1.0D-05 achieved.  Increase integral accuracy.
 SCF Done:  E(RB3LYP) =  -693.825189368     A.U. after   14 cycles
            NFock= 14  Conv=0.53D-08     -V/T= 2.0094
 DoSCS=F DFT=T ScalE2(SS,OS)=  1.000000  1.000000
 Range of M.O.s used for correlation:     1   261
 NBasis=   261 NAE=    57 NBE=    57 NFC=     0 NFV=     0
 NROrb=    261 NOA=    57 NOB=    57 NVA=   204 NVB=   204
 Symmetrizing basis deriv contribution to polar:
 IMax=3 JMax=2 DiffMx= 0.00D+00
 G2DrvN: will do    34 centers at a time, making    1 passes.
 Calling FoFCou, ICntrl=  3107 FMM=F I1Cent=   0 AccDes= 0.00D+00.
 End of G2Drv F.D. properties file   721 does not exist.
 End of G2Drv F.D. properties file   722 does not exist.
 End of G2Drv F.D. properties file   788 does not exist.
          IDoAtm=111111111111111111111111111111111
          Differentiating once with respect to electric field.
                with respect to dipole field.
          Differentiating once with respect to nuclear coordinates.
 Keep R1 ints in memory in canonical form, NReq=595457171.
          There are   102 degrees of freedom in the 1st order CPHF.  IDoFFX=6 NUNeed=     3.
     99 vectors produced by pass  0 Test12= 1.16D-14 1.00D-09 XBig12= 9.30D+01 2.56D+00.
 AX will form    99 AO Fock derivatives at one time.
     99 vectors produced by pass  1 Test12= 1.16D-14 1.00D-09 XBig12= 1.78D+01 9.01D-01.
     99 vectors produced by pass  2 Test12= 1.16D-14 1.00D-09 XBig12= 1.11D-01 2.94D-02.
     99 vectors produced by pass  3 Test12= 1.16D-14 1.00D-09 XBig12= 2.90D-04 1.54D-03.
     99 vectors produced by pass  4 Test12= 1.16D-14 1.00D-09 XBig12= 4.11D-07 5.80D-05.
     55 vectors produced by pass  5 Test12= 1.16D-14 1.00D-09 XBig12= 3.12D-10 1.09D-06.
      4 vectors produced by pass  6 Test12= 1.16D-14 1.00D-09 XBig12= 1.99D-13 4.00D-08.
      1 vectors produced by pass  7 Test12= 1.16D-14 1.00D-09 XBig12= 1.55D-16 1.60D-09.
 InvSVY:  IOpt=1 It=  1 EMax= 8.88D-15
 Solved reduced A of dimension   555 with   102 vectors.
 Isotropic polarizability for W=    0.000000      126.09 Bohr**3.
 End of Minotr F.D. properties file   721 does not exist.
 End of Minotr F.D. properties file   722 does not exist.
 End of Minotr F.D. properties file   788 does not exist.

 **********************************************************************

            Population analysis using the SCF density.

 **********************************************************************

 Orbital symmetries:
       Occupied  (A) (A) (A) (A) (A) (A) (A) (A) (A) (A) (A) (A)
                 (A) (A) (A) (A) (A) (A) (A) (A) (A) (A) (A) (A)
                 (A) (A) (A) (A) (A) (A) (A) (A) (A) (A) (A) (A)
                 (A) (A) (A) (A) (A) (A) (A) (A) (A) (A) (A) (A)
                 (A) (A) (A) (A) (A) (A) (A) (A) (A)
       Virtual   (A) (A) (A) (A) (A) (A) (A) (A) (A) (A) (A) (A)
                 (A) (A) (A) (A) (A) (A) (A) (A) (A) (A) (A) (A)
                 (A) (A) (A) (A) (A) (A) (A) (A) (A) (A) (A) (A)
                 (A) (A) (A) (A) (A) (A) (A) (A) (A) (A) (A) (A)
                 (A) (A) (A) (A) (A) (A) (A) (A) (A) (A) (A) (A)
                 (A) (A) (A) (A) (A) (A) (A) (A) (A) (A) (A) (A)
                 (A) (A) (A) (A) (A) (A) (A) (A) (A) (A) (A) (A)
                 (A) (A) (A) (A) (A) (A) (A) (A) (A) (A) (A) (A)
                 (A) (A) (A) (A) (A) (A) (A) (A) (A) (A) (A) (A)
                 (A) (A) (A) (A) (A) (A) (A) (A) (A) (A) (A) (A)
                 (A) (A) (A) (A) (A) (A) (A) (A) (A) (A) (A) (A)
                 (A) (A) (A) (A) (A) (A) (A) (A) (A) (A) (A) (A)
                 (A) (A) (A) (A) (A) (A) (A) (A) (A) (A) (A) (A)
                 (A) (A) (A) (A) (A) (A) (A) (A) (A) (A) (A) (A)
                 (A) (A) (A) (A) (A) (A) (A) (A) (A) (A) (A) (A)
                 (A) (A) (A) (A) (A) (A) (A) (A) (A) (A) (A) (A)
                 (A) (A) (A) (A) (A) (A) (A) (A) (A) (A) (A) (A)
 The electronic state is 1-A.
 Alpha  occ. eigenvalues --  -19.19455 -19.14094 -19.13627 -10.32300 -10.26968
 Alpha  occ. eigenvalues --  -10.25159 -10.20428 -10.20225 -10.19925 -10.19568
 Alpha  occ. eigenvalues --  -10.19351 -10.18704 -10.18419 -10.18195 -10.17927
 Alpha  occ. eigenvalues --   -1.10309  -1.03487  -1.01857  -0.85390  -0.80913
 Alpha  occ. eigenvalues --   -0.76832  -0.75001  -0.74766  -0.70836  -0.63800
 Alpha  occ. eigenvalues --   -0.62401  -0.60966  -0.56561  -0.55750  -0.51733
 Alpha  occ. eigenvalues --   -0.50339  -0.48901  -0.47962  -0.46990  -0.45796
 Alpha  occ. eigenvalues --   -0.45219  -0.44779  -0.43963  -0.42697  -0.41555
 Alpha  occ. eigenvalues --   -0.41308  -0.40245  -0.39877  -0.38736  -0.37468
 Alpha  occ. eigenvalues --   -0.36945  -0.36074  -0.35483  -0.34849  -0.34684
 Alpha  occ. eigenvalues --   -0.33275  -0.32326  -0.31739  -0.30212  -0.29621
 Alpha  occ. eigenvalues --   -0.27680  -0.23703
 Alpha virt. eigenvalues --   -0.01384   0.00603   0.07809   0.08735   0.09553
 Alpha virt. eigenvalues --    0.11443   0.11850   0.12096   0.13835   0.14275
 Alpha virt. eigenvalues --    0.15253   0.15455   0.16150   0.16615   0.16929
 Alpha virt. eigenvalues --    0.17438   0.18094   0.18280   0.18454   0.19047
 Alpha virt. eigenvalues --    0.19677   0.19830   0.20344   0.22371   0.22473
 Alpha virt. eigenvalues --    0.24452   0.24987   0.26009   0.26910   0.28203
 Alpha virt. eigenvalues --    0.29044   0.29456   0.30528   0.34625   0.36106
 Alpha virt. eigenvalues --    0.37187   0.48628   0.50634   0.51679   0.52167
 Alpha virt. eigenvalues --    0.53110   0.53642   0.54025   0.55181   0.56534
 Alpha virt. eigenvalues --    0.57569   0.58156   0.58601   0.60698   0.61807
 Alpha virt. eigenvalues --    0.62135   0.63861   0.65613   0.66060   0.66708
 Alpha virt. eigenvalues --    0.67810   0.69210   0.70117   0.70905   0.72671
 Alpha virt. eigenvalues --    0.73185   0.74534   0.76980   0.78172   0.80455
 Alpha virt. eigenvalues --    0.82079   0.82254   0.82635   0.83563   0.84088
 Alpha virt. eigenvalues --    0.85215   0.85904   0.86835   0.87838   0.88058
 Alpha virt. eigenvalues --    0.88821   0.89487   0.89771   0.90658   0.91658
 Alpha virt. eigenvalues --    0.92838   0.93521   0.94132   0.94480   0.95148
 Alpha virt. eigenvalues --    0.95382   0.96563   0.97094   1.00544   1.02491
 Alpha virt. eigenvalues --    1.03840   1.05043   1.07542   1.10725   1.12233
 Alpha virt. eigenvalues --    1.14318   1.15058   1.17529   1.19414   1.21063
 Alpha virt. eigenvalues --    1.23836   1.28039   1.31799   1.32962   1.36824
 Alpha virt. eigenvalues --    1.40995   1.41957   1.43051   1.46323   1.47173
 Alpha virt. eigenvalues --    1.48152   1.51720   1.54791   1.57645   1.59403
 Alpha virt. eigenvalues --    1.62910   1.64785   1.68817   1.70131   1.71130
 Alpha virt. eigenvalues --    1.72923   1.73810   1.76076   1.77176   1.78849
 Alpha virt. eigenvalues --    1.79624   1.80603   1.81285   1.82233   1.83917
 Alpha virt. eigenvalues --    1.86103   1.87658   1.88377   1.89320   1.91623
 Alpha virt. eigenvalues --    1.91922   1.93589   1.94608   1.96115   1.96509
 Alpha virt. eigenvalues --    1.98299   2.00443   2.02134   2.02795   2.03917
 Alpha virt. eigenvalues --    2.05266   2.07140   2.08220   2.10440   2.12265
 Alpha virt. eigenvalues --    2.14759   2.16189   2.18776   2.21029   2.22905
 Alpha virt. eigenvalues --    2.23921   2.27274   2.30696   2.31388   2.33751
 Alpha virt. eigenvalues --    2.35914   2.36681   2.37310   2.39369   2.42461
 Alpha virt. eigenvalues --    2.43126   2.43406   2.47284   2.49298   2.52652
 Alpha virt. eigenvalues --    2.56617   2.59466   2.61223   2.62204   2.63795
 Alpha virt. eigenvalues --    2.64152   2.68699   2.70750   2.74110   2.76068
 Alpha virt. eigenvalues --    2.79187   2.80011   2.86128   2.86600   2.96071
 Alpha virt. eigenvalues --    2.99667   3.04613   3.05194   3.12381   3.98989
 Alpha virt. eigenvalues --    4.04227   4.07466   4.12994   4.17285   4.21693
 Alpha virt. eigenvalues --    4.27800   4.31459   4.42006   4.45718   4.54072
 Alpha virt. eigenvalues --    4.55806   4.60499   4.65458   4.71535
          Condensed to atoms (all electrons):
               1          2          3          4          5          6
     1  O    8.008852   0.584726  -0.074835   0.001340   0.000064  -0.000002
     2  C    0.584726   4.520377   0.343991  -0.028191  -0.008590  -0.002513
     3  C   -0.074835   0.343991   5.294199   0.324299  -0.037426  -0.001163
     4  C    0.001340  -0.028191   0.324299   5.111967   0.364257  -0.038987
     5  C    0.000064  -0.008590  -0.037426   0.364257   4.871317   0.161255
     6  O   -0.000002  -0.002513  -0.001163  -0.038987   0.161255   8.352719
     7  C    0.000000  -0.000033   0.000294  -0.004534  -0.008527   0.237859
     8  O   -0.000000  -0.000006   0.000090  -0.003914  -0.001808  -0.077192
     9  C   -0.000000  -0.000001   0.000014  -0.000505   0.005897  -0.098796
    10  C    0.000437  -0.018766  -0.013330  -0.044373   0.360067  -0.049536
    11  C   -0.000056   0.002292  -0.000063   0.004665  -0.034407  -0.001782
    12  C   -0.000012  -0.000026  -0.000020  -0.000109   0.003430   0.000214
    13  C    0.000641   0.004417  -0.000071  -0.000019   0.000240  -0.000022
    14  C    0.006661  -0.027631   0.006073   0.000039   0.003447   0.000138
    15  C   -0.093988   0.282422  -0.132817  -0.007922  -0.028798  -0.002678
    16  H    0.001280  -0.029450   0.351917  -0.034552  -0.006681   0.007034
    17  H    0.005405  -0.023523   0.344341  -0.025903   0.003813   0.000076
    18  H   -0.000056   0.003198  -0.029570   0.363445  -0.025779  -0.005086
    19  H    0.000456  -0.002636  -0.039574   0.363853  -0.033512   0.003215
    20  H   -0.000001  -0.000173   0.005200  -0.044392   0.364053  -0.037112
    21  H    0.000000   0.000000   0.000000   0.000005  -0.000193   0.002571
    22  H   -0.000000   0.000000  -0.000001   0.000078  -0.000204   0.002596
    23  H    0.000000  -0.000000   0.000000   0.000012  -0.000172   0.003471
    24  H    0.000518  -0.002984   0.000180  -0.001021  -0.044905   0.003064
    25  H   -0.000000  -0.000009  -0.000003   0.000238  -0.008875   0.008354
    26  H    0.000000  -0.000068   0.000008   0.000009  -0.002656  -0.000262
    27  H    0.000000   0.000007  -0.000000   0.000002  -0.000117   0.000001
    28  H   -0.000000  -0.000041   0.000000  -0.000002  -0.000027  -0.000003
    29  H    0.000002  -0.000079   0.000002  -0.000000   0.000005   0.000000
    30  H   -0.000004  -0.000070  -0.000000  -0.000000  -0.000022  -0.000012
    31  H    0.004153  -0.004600   0.000254  -0.000048   0.000015  -0.000002
    32  H    0.004792  -0.003030   0.000191  -0.000011  -0.000119   0.000000
    33  H    0.001181  -0.033346   0.002318  -0.000800  -0.007587   0.007722
               7          8          9         10         11         12
     1  O    0.000000  -0.000000  -0.000000   0.000437  -0.000056  -0.000012
     2  C   -0.000033  -0.000006  -0.000001  -0.018766   0.002292  -0.000026
     3  C    0.000294   0.000090   0.000014  -0.013330  -0.000063  -0.000020
     4  C   -0.004534  -0.003914  -0.000505  -0.044373   0.004665  -0.000109
     5  C   -0.008527  -0.001808   0.005897   0.360067  -0.034407   0.003430
     6  O    0.237859  -0.077192  -0.098796  -0.049536  -0.001782   0.000214
     7  C    4.297129   0.564247   0.365373   0.004195   0.000294  -0.000004
     8  O    0.564247   8.025626  -0.070307   0.000788  -0.000059  -0.000000
     9  C    0.365373  -0.070307   5.251405  -0.000175  -0.000077   0.000000
    10  C    0.004195   0.000788  -0.000175   5.044822   0.372635  -0.033300
    11  C    0.000294  -0.000059  -0.000077   0.372635   5.038450   0.373756
    12  C   -0.000004  -0.000000   0.000000  -0.033300   0.373756   4.999851
    13  C   -0.000000  -0.000000  -0.000000  -0.013082  -0.045431   0.380748
    14  C    0.000004   0.000000  -0.000000  -0.035974  -0.011388  -0.042030
    15  C   -0.000172  -0.000006  -0.000023   0.337719  -0.039142  -0.013610
    16  H    0.000540  -0.000014  -0.000007  -0.000932  -0.000013   0.000000
    17  H   -0.000021   0.000001  -0.000000   0.000036   0.000010   0.000000
    18  H    0.003920   0.005824   0.000060   0.004558  -0.000144   0.000002
    19  H    0.000101  -0.000006   0.000006  -0.001727  -0.000044  -0.000003
    20  H   -0.004808   0.016777   0.000904  -0.041260  -0.005293   0.000004
    21  H   -0.020145   0.001161   0.355978  -0.000009   0.000009  -0.000000
    22  H   -0.021386   0.001031   0.357195  -0.000018   0.000002  -0.000000
    23  H   -0.023771   0.003731   0.358968   0.000002   0.000000  -0.000000
    24  H   -0.000007   0.000007   0.000007   0.365495  -0.043136  -0.003422
    25  H    0.000188  -0.000006   0.000019  -0.039541   0.369495  -0.037872
    26  H    0.000044  -0.000011  -0.000001  -0.036063   0.364569  -0.031161
    27  H   -0.000000   0.000000   0.000000   0.004397  -0.032594   0.369252
    28  H    0.000000  -0.000000  -0.000000  -0.005736  -0.039879   0.371391
    29  H   -0.000000   0.000000   0.000000   0.000211   0.004784  -0.033002
    30  H   -0.000000  -0.000000  -0.000000  -0.001052  -0.004257  -0.041573
    31  H    0.000000  -0.000000   0.000000  -0.006584  -0.000724  -0.004672
    32  H   -0.000000  -0.000000   0.000000   0.004393   0.000056   0.004589
    33  H    0.000032   0.000008   0.000059  -0.043541  -0.006561  -0.000664
              13         14         15         16         17         18
     1  O    0.000641   0.006661  -0.093988   0.001280   0.005405  -0.000056
     2  C    0.004417  -0.027631   0.282422  -0.029450  -0.023523   0.003198
     3  C   -0.000071   0.006073  -0.132817   0.351917   0.344341  -0.029570
     4  C   -0.000019   0.000039  -0.007922  -0.034552  -0.025903   0.363445
     5  C    0.000240   0.003447  -0.028798  -0.006681   0.003813  -0.025779
     6  O   -0.000022   0.000138  -0.002678   0.007034   0.000076  -0.005086
     7  C   -0.000000   0.000004  -0.000172   0.000540  -0.000021   0.003920
     8  O   -0.000000   0.000000  -0.000006  -0.000014   0.000001   0.005824
     9  C   -0.000000  -0.000000  -0.000023  -0.000007  -0.000000   0.000060
    10  C   -0.013082  -0.035974   0.337719  -0.000932   0.000036   0.004558
    11  C   -0.045431  -0.011388  -0.039142  -0.000013   0.000010  -0.000144
    12  C    0.380748  -0.042030  -0.013610   0.000000   0.000000   0.000002
    13  C    5.024362   0.356023  -0.033450  -0.000003   0.000001   0.000000
    14  C    0.356023   5.018328   0.350940  -0.000071  -0.000148   0.000009
    15  C   -0.033450   0.350940   5.325232   0.004235   0.006672  -0.000382
    16  H   -0.000003  -0.000071   0.004235   0.569652  -0.026705  -0.005522
    17  H    0.000001  -0.000148   0.006672  -0.026705   0.556805  -0.002088
    18  H    0.000000   0.000009  -0.000382  -0.005522  -0.002088   0.552247
    19  H   -0.000001  -0.000038   0.000649   0.005526  -0.003725  -0.030672
    20  H    0.000003  -0.000102   0.005196   0.000160  -0.000103  -0.003321
    21  H   -0.000000  -0.000000   0.000002  -0.000001  -0.000000   0.000000
    22  H    0.000000  -0.000000   0.000003   0.000148   0.000000  -0.000052
    23  H   -0.000000   0.000000   0.000000  -0.000001   0.000000   0.000003
    24  H   -0.000690  -0.004279  -0.050501   0.000058  -0.000051   0.000026
    25  H   -0.004468  -0.000561  -0.006796  -0.000009   0.000000   0.000003
    26  H    0.004778  -0.000051   0.005021   0.000000  -0.000000   0.000001
    27  H   -0.032123   0.004589   0.000182  -0.000000   0.000000  -0.000000
    28  H   -0.040913  -0.003990  -0.000995  -0.000000  -0.000000   0.000000
    29  H    0.370740  -0.032759   0.004289  -0.000000  -0.000000   0.000000
    30  H    0.369253  -0.038182  -0.005593  -0.000001   0.000000  -0.000000
    31  H   -0.040148   0.374389  -0.041192  -0.000005  -0.000001   0.000000
    32  H   -0.032187   0.371487  -0.033305  -0.000016  -0.000005   0.000000
    33  H   -0.002757  -0.040285   0.351894   0.001013  -0.000093  -0.000023
              19         20         21         22         23         24
     1  O    0.000456  -0.000001   0.000000  -0.000000   0.000000   0.000518
     2  C   -0.002636  -0.000173   0.000000   0.000000  -0.000000  -0.002984
     3  C   -0.039574   0.005200   0.000000  -0.000001   0.000000   0.000180
     4  C    0.363853  -0.044392   0.000005   0.000078   0.000012  -0.001021
     5  C   -0.033512   0.364053  -0.000193  -0.000204  -0.000172  -0.044905
     6  O    0.003215  -0.037112   0.002571   0.002596   0.003471   0.003064
     7  C    0.000101  -0.004808  -0.020145  -0.021386  -0.023771  -0.000007
     8  O   -0.000006   0.016777   0.001161   0.001031   0.003731   0.000007
     9  C    0.000006   0.000904   0.355978   0.357195   0.358968   0.000007
    10  C   -0.001727  -0.041260  -0.000009  -0.000018   0.000002   0.365495
    11  C   -0.000044  -0.005293   0.000009   0.000002   0.000000  -0.043136
    12  C   -0.000003   0.000004  -0.000000  -0.000000  -0.000000  -0.003422
    13  C   -0.000001   0.000003  -0.000000   0.000000  -0.000000  -0.000690
    14  C   -0.000038  -0.000102  -0.000000  -0.000000   0.000000  -0.004279
    15  C    0.000649   0.005196   0.000002   0.000003   0.000000  -0.050501
    16  H    0.005526   0.000160  -0.000001   0.000148  -0.000001   0.000058
    17  H   -0.003725  -0.000103  -0.000000   0.000000   0.000000  -0.000051
    18  H   -0.030672  -0.003321   0.000000  -0.000052   0.000003   0.000026
    19  H    0.584252  -0.000660   0.000000  -0.000000  -0.000000   0.002635
    20  H   -0.000660   0.577707  -0.000051  -0.000008   0.000011  -0.001975
    21  H    0.000000  -0.000051   0.524590  -0.024695  -0.022044   0.000000
    22  H   -0.000000  -0.000008  -0.024695   0.526382  -0.022181  -0.000000
    23  H   -0.000000   0.000011  -0.022044  -0.022181   0.516546  -0.000000
    24  H    0.002635  -0.001975   0.000000  -0.000000  -0.000000   0.628203
    25  H   -0.000009  -0.000093   0.000315  -0.000003  -0.000001   0.006272
    26  H   -0.000006   0.005151   0.000001   0.000000   0.000000  -0.004365
    27  H   -0.000000  -0.000003  -0.000000  -0.000000  -0.000000  -0.000041
    28  H   -0.000000  -0.000005   0.000000   0.000000   0.000000   0.005091
    29  H   -0.000000  -0.000000  -0.000000  -0.000000   0.000000  -0.000032
    30  H   -0.000000  -0.000000   0.000000   0.000000   0.000000   0.000165
    31  H   -0.000006  -0.000003   0.000000   0.000000  -0.000000   0.005392
    32  H   -0.000000   0.000002   0.000000  -0.000000  -0.000000  -0.000040
    33  H    0.000035   0.000169   0.000012   0.000009  -0.000000   0.006806
              25         26         27         28         29         30
     1  O   -0.000000   0.000000   0.000000  -0.000000   0.000002  -0.000004
     2  C   -0.000009  -0.000068   0.000007  -0.000041  -0.000079  -0.000070
     3  C   -0.000003   0.000008  -0.000000   0.000000   0.000002  -0.000000
     4  C    0.000238   0.000009   0.000002  -0.000002  -0.000000  -0.000000
     5  C   -0.008875  -0.002656  -0.000117  -0.000027   0.000005  -0.000022
     6  O    0.008354  -0.000262   0.000001  -0.000003   0.000000  -0.000012
     7  C    0.000188   0.000044  -0.000000   0.000000  -0.000000  -0.000000
     8  O   -0.000006  -0.000011   0.000000  -0.000000   0.000000  -0.000000
     9  C    0.000019  -0.000001   0.000000  -0.000000   0.000000  -0.000000
    10  C   -0.039541  -0.036063   0.004397  -0.005736   0.000211  -0.001052
    11  C    0.369495   0.364569  -0.032594  -0.039879   0.004784  -0.004257
    12  C   -0.037872  -0.031161   0.369252   0.371391  -0.033002  -0.041573
    13  C   -0.004468   0.004778  -0.032123  -0.040913   0.370740   0.369253
    14  C   -0.000561  -0.000051   0.004589  -0.003990  -0.032759  -0.038182
    15  C   -0.006796   0.005021   0.000182  -0.000995   0.004289  -0.005593
    16  H   -0.000009   0.000000  -0.000000  -0.000000  -0.000000  -0.000001
    17  H    0.000000  -0.000000   0.000000  -0.000000  -0.000000   0.000000
    18  H    0.000003   0.000001  -0.000000   0.000000   0.000000  -0.000000
    19  H   -0.000009  -0.000006  -0.000000  -0.000000  -0.000000  -0.000000
    20  H   -0.000093   0.005151  -0.000003  -0.000005  -0.000000  -0.000000
    21  H    0.000315   0.000001  -0.000000   0.000000  -0.000000   0.000000
    22  H   -0.000003   0.000000  -0.000000   0.000000  -0.000000   0.000000
    23  H   -0.000001   0.000000  -0.000000   0.000000   0.000000   0.000000
    24  H    0.006272  -0.004365  -0.000041   0.005091  -0.000032   0.000165
    25  H    0.595633  -0.035368  -0.003977   0.005694  -0.000049   0.004681
    26  H   -0.035368   0.603773  -0.002406  -0.004161  -0.000159  -0.000047
    27  H   -0.003977  -0.002406   0.602218  -0.036800  -0.002287  -0.004368
    28  H    0.005694  -0.004161  -0.036800   0.612704  -0.004320   0.006060
    29  H   -0.000049  -0.000159  -0.002287  -0.004320   0.599927  -0.036838
    30  H    0.004681  -0.000047  -0.004368   0.006060  -0.036838   0.617575
    31  H    0.000136  -0.000023  -0.000052   0.004719  -0.004066   0.005738
    32  H   -0.000017   0.000013  -0.000151  -0.000050  -0.002131  -0.004053
    33  H    0.005335  -0.000002  -0.000030   0.000158  -0.000050   0.004776
              31         32         33
     1  O    0.004153   0.004792   0.001181
     2  C   -0.004600  -0.003030  -0.033346
     3  C    0.000254   0.000191   0.002318
     4  C   -0.000048  -0.000011  -0.000800
     5  C    0.000015  -0.000119  -0.007587
     6  O   -0.000002   0.000000   0.007722
     7  C    0.000000  -0.000000   0.000032
     8  O   -0.000000  -0.000000   0.000008
     9  C    0.000000   0.000000   0.000059
    10  C   -0.006584   0.004393  -0.043541
    11  C   -0.000724   0.000056  -0.006561
    12  C   -0.004672   0.004589  -0.000664
    13  C   -0.040148  -0.032187  -0.002757
    14  C    0.374389   0.371487  -0.040285
    15  C   -0.041192  -0.033305   0.351894
    16  H   -0.000005  -0.000016   0.001013
    17  H   -0.000001  -0.000005  -0.000093
    18  H    0.000000   0.000000  -0.000023
    19  H   -0.000006  -0.000000   0.000035
    20  H   -0.000003   0.000002   0.000169
    21  H    0.000000   0.000000   0.000012
    22  H    0.000000  -0.000000   0.000009
    23  H   -0.000000  -0.000000  -0.000000
    24  H    0.005392  -0.000040   0.006806
    25  H    0.000136  -0.000017   0.005335
    26  H   -0.000023   0.000013  -0.000002
    27  H   -0.000052  -0.000151  -0.000030
    28  H    0.004719  -0.000050   0.000158
    29  H   -0.004066  -0.002131  -0.000050
    30  H    0.005738  -0.004053   0.004776
    31  H    0.594148  -0.033338   0.005883
    32  H   -0.033338   0.577865  -0.003693
    33  H    0.005883  -0.003693   0.598643
 Mulliken charges:
               1
     1  O   -0.451553
     2  C    0.444335
     3  C   -0.344498
     4  C   -0.298929
     5  C    0.112544
     6  O   -0.475142
     7  C    0.609191
     8  O   -0.465960
     9  C   -0.525993
    10  C   -0.114756
    11  C   -0.265967
    12  C   -0.261759
    13  C   -0.265840
    14  C   -0.254635
    15  C   -0.183085
    16  H    0.162419
    17  H    0.165208
    18  H    0.169399
    19  H    0.151891
    20  H    0.164026
    21  H    0.182492
    22  H    0.181103
    23  H    0.185425
    24  H    0.133529
    25  H    0.141295
    26  H    0.133441
    27  H    0.134302
    28  H    0.131105
    29  H    0.135812
    30  H    0.127824
    31  H    0.140641
    32  H    0.148757
    33  H    0.153379
 Sum of Mulliken charges =  -0.00000
 Mulliken charges with hydrogens summed into heavy atoms:
               1
     1  O   -0.451553
     2  C    0.444335
     3  C   -0.016871
     4  C    0.022361
     5  C    0.276570
     6  O   -0.475142
     7  C    0.609191
     8  O   -0.465960
     9  C    0.023027
    10  C    0.018773
    11  C    0.008769
    12  C    0.003649
    13  C   -0.002205
    14  C    0.034762
    15  C   -0.029706
 APT charges:
               1
     1  O   -0.650236
     2  C    0.735194
     3  C   -0.066454
     4  C    0.068205
     5  C    0.472417
     6  O   -0.953519
     7  C    1.199868
     8  O   -0.701953
     9  C   -0.074385
    10  C    0.088253
    11  C    0.089443
    12  C    0.128037
    13  C    0.122715
    14  C    0.102999
    15  C   -0.089962
    16  H    0.004425
    17  H   -0.024646
    18  H   -0.020079
    19  H   -0.026094
    20  H   -0.027617
    21  H    0.023992
    22  H    0.022958
    23  H    0.014702
    24  H   -0.052551
    25  H   -0.027543
    26  H   -0.056744
    27  H   -0.062194
    28  H   -0.051667
    29  H   -0.061885
    30  H   -0.049640
    31  H   -0.031851
    32  H   -0.035236
    33  H   -0.008951
 Sum of APT charges =   0.00000
 APT charges with hydrogens summed into heavy atoms:
               1
     1  O   -0.650236
     2  C    0.735194
     3  C   -0.086675
     4  C    0.022032
     5  C    0.444799
     6  O   -0.953519
     7  C    1.199868
     8  O   -0.701953
     9  C   -0.012733
    10  C    0.035703
    11  C    0.005157
    12  C    0.014176
    13  C    0.011190
    14  C    0.035911
    15  C   -0.098913
 Electronic spatial extent (au):  <R**2>=           3407.3742
 Charge=              0.0000 electrons
 Dipole moment (field-independent basis, Debye):
    X=             -0.7737    Y=             -1.9619    Z=              1.0348  Tot=              2.3491
 Quadrupole moment (field-independent basis, Debye-Ang):
   XX=           -100.3679   YY=            -93.6992   ZZ=            -86.7729
   XY=             -7.7794   XZ=             -8.7387   YZ=             -2.3367
 Traceless Quadrupole moment (field-independent basis, Debye-Ang):
   XX=             -6.7546   YY=             -0.0858   ZZ=              6.8404
   XY=             -7.7794   XZ=             -8.7387   YZ=             -2.3367
 Octapole moment (field-independent basis, Debye-Ang**2):
  XXX=             -1.3624  YYY=            -14.0394  ZZZ=              2.1731  XYY=            -32.9341
  XXY=            -20.2802  XXZ=             29.1400  XZZ=             -4.2559  YZZ=              3.8249
  YYZ=             -2.2216  XYZ=              1.7761
 Hexadecapole moment (field-independent basis, Debye-Ang**3):
 XXXX=          -2727.4782 YYYY=          -1400.6906 ZZZZ=           -449.5882 XXXY=            -12.8822
 XXXZ=           -115.4280 YYYX=            -36.7166 YYYZ=            -12.6563 ZZZX=             -1.1422
 ZZZY=              3.3540 XXYY=           -705.1346 XXZZ=           -509.8933 YYZZ=           -297.6431
 XXYZ=            -22.2129 YYXZ=             -8.9383 ZZXY=             13.1038
 N-N= 1.074006407932D+03 E-N=-3.762685698042D+03  KE= 6.873551653506D+02
  Exact polarizability: 143.440   1.228 125.773   1.812  -1.422 109.044
 Approx polarizability: 191.973  11.533 169.919   5.954  -3.547 174.438
 Calling FoFJK, ICntrl=    100127 FMM=F ISym2X=0 I1Cent= 0 IOpClX= 0 NMat=1 NMatS=1 NMatT=0.
 Full mass-weighted force constant matrix:
 Low frequencies ---   -1.7735   -0.0008    0.0004    0.0007    4.2423    5.9352
 Low frequencies ---   43.1083   49.5512   64.4987
 Diagonal vibrational polarizability:
       24.7714785      60.0499227      27.2647037
 Harmonic frequencies (cm**-1), IR intensities (KM/Mole), Raman scattering
 activities (A**4/AMU), depolarization ratios for plane and unpolarized
 incident light, reduced masses (AMU), force constants (mDyne/A),
 and normal coordinates:
                      1                      2                      3
                      A                      A                      A
 Frequencies --     43.1068                49.5505                64.4983
 Red. masses --      2.7569                 2.3409                 3.1165
 Frc consts  --      0.0030                 0.0034                 0.0076
 IR Inten    --      3.5014                 0.5795                 1.9537
  Atom  AN      X      Y      Z        X      Y      Z        X      Y      Z
     1   8    -0.05   0.01  -0.00    -0.07  -0.00   0.13    -0.02  -0.01   0.19
     2   6    -0.04  -0.01  -0.01    -0.05  -0.03   0.03    -0.02  -0.00   0.01
     3   6    -0.05  -0.04  -0.03    -0.05  -0.05  -0.02     0.00   0.04  -0.13
     4   6    -0.02  -0.07  -0.03    -0.01  -0.06  -0.04     0.02   0.01  -0.12
     5   6     0.01  -0.06  -0.02     0.01  -0.06  -0.03     0.00   0.01  -0.06
     6   8     0.02  -0.09  -0.02     0.02  -0.05  -0.02     0.04   0.08  -0.02
     7   6    -0.01   0.07   0.02    -0.00   0.04   0.02     0.05  -0.00   0.05
     8   8    -0.04   0.27   0.06    -0.01   0.06   0.02     0.00  -0.12   0.06
     9   6     0.01  -0.06  -0.02    -0.02   0.19   0.06     0.14   0.04   0.10
    10   6     0.02  -0.03  -0.01     0.02  -0.03  -0.02    -0.00   0.01  -0.06
    11   6     0.05  -0.03   0.01     0.06  -0.03  -0.04    -0.01   0.01  -0.10
    12   6     0.06   0.00   0.02     0.07   0.01  -0.04    -0.02   0.00  -0.02
    13   6     0.04   0.03   0.02     0.05   0.01  -0.03    -0.08  -0.03   0.04
    14   6     0.00   0.02   0.01     0.00   0.01  -0.01    -0.06  -0.02   0.06
    15   6    -0.01  -0.01  -0.00    -0.01  -0.03  -0.01    -0.05  -0.01  -0.02
    16   1    -0.05  -0.05  -0.03    -0.08  -0.06  -0.04    -0.05   0.12  -0.15
    17   1    -0.07  -0.05  -0.03    -0.06  -0.05  -0.02     0.06   0.03  -0.18
    18   1    -0.02  -0.09  -0.05    -0.01  -0.08  -0.08     0.02   0.02  -0.15
    19   1    -0.00  -0.07  -0.03     0.02  -0.06  -0.03     0.04  -0.03  -0.12
    20   1     0.03  -0.08  -0.02     0.01  -0.08  -0.02    -0.03  -0.02  -0.03
    21   1    -0.29  -0.34  -0.35     0.23   0.44   0.38    -0.09  -0.17  -0.12
    22   1     0.41  -0.34   0.18    -0.36   0.46  -0.14     0.52  -0.13   0.17
    23   1    -0.07   0.37   0.09     0.05  -0.16  -0.02     0.07   0.36   0.26
    24   1     0.02  -0.03  -0.00     0.02  -0.01  -0.02     0.02   0.04  -0.04
    25   1     0.05  -0.04   0.00     0.06  -0.06  -0.05    -0.06  -0.01  -0.13
    26   1     0.07  -0.05   0.00     0.07  -0.03  -0.05     0.04   0.04  -0.14
    27   1     0.09   0.00   0.03     0.10   0.01  -0.06    -0.03   0.00  -0.05
    28   1     0.07   0.01   0.02     0.06   0.04  -0.04     0.04   0.03   0.01
    29   1     0.05   0.05   0.03     0.06   0.04  -0.04    -0.09  -0.04   0.10
    30   1     0.04   0.02   0.02     0.06  -0.02  -0.04    -0.15  -0.04   0.00
    31   1     0.00   0.03   0.01    -0.00   0.04   0.00     0.00  -0.02   0.10
    32   1    -0.01   0.04   0.01    -0.02   0.01   0.00    -0.11  -0.04   0.09
    33   1    -0.01  -0.02  -0.01    -0.01  -0.06  -0.02    -0.10  -0.01  -0.05
                      4                      5                      6
                      A                      A                      A
 Frequencies --     73.8555                91.9605               134.7892
 Red. masses --      2.5830                 2.6478                 2.9311
 Frc consts  --      0.0083                 0.0132                 0.0314
 IR Inten    --      0.1840                 2.1057                 0.2914
  Atom  AN      X      Y      Z        X      Y      Z        X      Y      Z
     1   8    -0.02   0.03   0.13    -0.00  -0.03  -0.16    -0.07   0.05  -0.02
     2   6     0.01   0.00   0.03    -0.01  -0.02   0.01    -0.04   0.00   0.03
     3   6     0.00  -0.02   0.00    -0.03  -0.03   0.09    -0.08  -0.07   0.17
     4   6     0.02  -0.02  -0.01    -0.02  -0.01   0.07    -0.00   0.04   0.06
     5   6    -0.01  -0.02   0.03     0.01  -0.01   0.02     0.03   0.03  -0.07
     6   8    -0.04   0.04   0.03    -0.00  -0.03   0.01     0.06  -0.04  -0.09
     7   6    -0.03   0.01  -0.02    -0.01   0.01  -0.00     0.06  -0.00  -0.03
     8   8     0.02  -0.09  -0.07     0.03  -0.10  -0.04     0.02  -0.01  -0.01
     9   6    -0.09   0.09  -0.02    -0.07   0.19   0.03     0.11   0.07   0.02
    10   6    -0.02  -0.03   0.04     0.02   0.01   0.01     0.03   0.01  -0.08
    11   6    -0.03  -0.03   0.12     0.06   0.01  -0.08    -0.03   0.01  -0.02
    12   6    -0.02  -0.03   0.01     0.07   0.05  -0.08    -0.07  -0.09   0.13
    13   6     0.10   0.04  -0.11     0.00  -0.02   0.01    -0.06   0.01   0.07
    14   6     0.06   0.03  -0.15    -0.02  -0.01   0.10     0.02  -0.00  -0.11
    15   6     0.04  -0.00  -0.02    -0.02  -0.02   0.05     0.03   0.00  -0.07
    16   1    -0.01  -0.02  -0.01    -0.01  -0.09   0.09    -0.06  -0.28   0.15
    17   1    -0.00  -0.01   0.01    -0.05  -0.03   0.13    -0.18  -0.04   0.34
    18   1     0.03  -0.00  -0.04    -0.03  -0.03   0.08    -0.01   0.01   0.04
    19   1     0.05  -0.04   0.00    -0.03   0.04   0.07     0.03   0.15   0.11
    20   1    -0.00  -0.03   0.03     0.02  -0.00   0.01     0.03   0.07  -0.10
    21   1    -0.39  -0.12  -0.17    -0.38  -0.02  -0.06     0.08   0.05   0.02
    22   1     0.23  -0.06   0.05     0.28   0.08   0.05     0.22   0.09  -0.02
    23   1    -0.16   0.45   0.03    -0.14   0.57   0.10     0.09   0.14   0.10
    24   1    -0.03  -0.09   0.01     0.02   0.08   0.03     0.05  -0.01  -0.08
    25   1     0.05   0.03   0.19     0.05  -0.07  -0.12    -0.13   0.08  -0.05
    26   1    -0.11  -0.08   0.19     0.10   0.05  -0.13     0.02  -0.00  -0.04
    27   1    -0.01  -0.02   0.07     0.11   0.05  -0.17    -0.17  -0.07   0.28
    28   1    -0.11  -0.09  -0.06     0.10   0.15  -0.04     0.00  -0.26   0.13
    29   1     0.11   0.06  -0.22     0.01   0.00   0.04    -0.08  -0.06   0.13
    30   1     0.22   0.07  -0.04    -0.04  -0.09  -0.04    -0.10   0.15   0.10
    31   1    -0.03   0.01  -0.21     0.02   0.06   0.16    -0.01  -0.13  -0.18
    32   1     0.14   0.07  -0.21    -0.07  -0.06   0.16     0.08   0.08  -0.19
    33   1     0.13  -0.02   0.02    -0.05  -0.02   0.03     0.05  -0.05  -0.08
                      7                      8                      9
                      A                      A                      A
 Frequencies --    172.0681               208.2597               227.4775
 Red. masses --      2.9750                 7.1254                 3.0694
 Frc consts  --      0.0519                 0.1821                 0.0936
 IR Inten    --      1.4539                 5.7269                 0.6738
  Atom  AN      X      Y      Z        X      Y      Z        X      Y      Z
     1   8    -0.07  -0.04  -0.09    -0.16   0.07  -0.04    -0.00  -0.05  -0.02
     2   6    -0.07  -0.04   0.06    -0.11   0.00  -0.01    -0.01  -0.04   0.02
     3   6    -0.07  -0.06   0.07    -0.13  -0.03  -0.03    -0.01  -0.05   0.05
     4   6     0.11   0.03  -0.10    -0.03  -0.06  -0.06     0.10   0.01  -0.06
     5   6     0.03   0.03  -0.06     0.03  -0.03   0.10    -0.03   0.01   0.03
     6   8    -0.00   0.14  -0.05     0.15   0.13   0.25    -0.08   0.19   0.07
     7   6     0.02   0.04  -0.02     0.19   0.06   0.08    -0.07   0.05   0.04
     8   8    -0.03  -0.00   0.00     0.40   0.07  -0.04    -0.07  -0.03   0.03
     9   6     0.13  -0.02   0.01    -0.08  -0.04  -0.08    -0.08  -0.06   0.00
    10   6    -0.00  -0.03   0.06     0.01  -0.01   0.02    -0.01  -0.02  -0.02
    11   6    -0.04  -0.02   0.12    -0.06  -0.01  -0.06     0.09  -0.03  -0.14
    12   6    -0.02   0.01  -0.05    -0.08  -0.06  -0.05     0.11   0.00   0.05
    13   6     0.07  -0.01  -0.09    -0.10  -0.06  -0.04     0.01   0.04   0.09
    14   6    -0.03  -0.00   0.07    -0.03  -0.04  -0.03     0.04   0.02  -0.09
    15   6    -0.05  -0.04   0.10    -0.01  -0.01   0.01     0.02  -0.04  -0.03
    16   1    -0.17  -0.21  -0.02    -0.16  -0.06  -0.06    -0.06  -0.18  -0.00
    17   1    -0.10  -0.04   0.20    -0.13  -0.03  -0.02    -0.03  -0.04   0.16
    18   1     0.13   0.07  -0.29    -0.04  -0.11  -0.14     0.13   0.10  -0.21
    19   1     0.31   0.03  -0.01     0.02  -0.11  -0.04     0.27  -0.04   0.01
    20   1     0.04   0.01  -0.05    -0.06  -0.15   0.23    -0.08  -0.01   0.07
    21   1     0.24   0.01  -0.05    -0.16  -0.07  -0.05    -0.03  -0.05  -0.05
    22   1     0.12  -0.02   0.01    -0.27  -0.11   0.03    -0.16  -0.10   0.07
    23   1     0.14  -0.11   0.08    -0.06  -0.03  -0.35    -0.06  -0.13  -0.05
    24   1     0.08  -0.08   0.09    -0.01   0.02   0.02    -0.06   0.06  -0.02
    25   1     0.07   0.02   0.20    -0.09  -0.05  -0.10    -0.03  -0.16  -0.27
    26   1    -0.14  -0.06   0.20    -0.06   0.07  -0.11     0.27   0.02  -0.27
    27   1     0.04   0.01  -0.09    -0.11  -0.06  -0.04     0.10   0.00   0.08
    28   1    -0.13   0.07  -0.10    -0.06  -0.08  -0.05     0.22  -0.03   0.10
    29   1     0.10   0.07  -0.25    -0.11  -0.10  -0.00    -0.00   0.01   0.22
    30   1     0.22  -0.13  -0.07    -0.14  -0.04  -0.05    -0.10   0.15   0.07
    31   1    -0.04   0.13   0.12    -0.04  -0.06  -0.04    -0.04  -0.10  -0.19
    32   1    -0.06  -0.08   0.13     0.02  -0.08  -0.03     0.10   0.14  -0.20
    33   1    -0.06  -0.06   0.08     0.00  -0.02   0.01     0.08  -0.08  -0.01
                     10                     11                     12
                      A                      A                      A
 Frequencies --    268.0966               300.8484               325.1521
 Red. masses --      4.0647                 2.2822                 2.3916
 Frc consts  --      0.1721                 0.1217                 0.1490
 IR Inten    --      6.4478                 1.8067                 2.0829
  Atom  AN      X      Y      Z        X      Y      Z        X      Y      Z
     1   8    -0.06   0.28   0.01    -0.03   0.02  -0.04    -0.04   0.05   0.02
     2   6     0.07   0.11  -0.03    -0.03   0.02   0.08     0.01  -0.01  -0.06
     3   6    -0.01  -0.08   0.00    -0.01   0.05  -0.06    -0.01  -0.03  -0.01
     4   6     0.08  -0.06  -0.07     0.00  -0.01  -0.03    -0.12   0.03   0.03
     5   6     0.03  -0.04   0.02     0.03  -0.00   0.03    -0.02   0.03  -0.02
     6   8    -0.05  -0.01  -0.01    -0.01  -0.04  -0.02    -0.02   0.11   0.02
     7   6    -0.06  -0.01   0.00    -0.02  -0.02  -0.01    -0.02   0.04   0.01
     8   8    -0.10  -0.02   0.03    -0.04  -0.00   0.00    -0.02  -0.01   0.01
     9   6    -0.04  -0.02   0.02     0.01   0.00   0.01    -0.02  -0.01  -0.01
    10   6     0.05   0.02   0.06     0.05   0.07   0.11     0.02   0.01  -0.09
    11   6     0.00   0.02   0.02     0.01   0.06  -0.11     0.04   0.01  -0.03
    12   6    -0.02  -0.02  -0.10    -0.05  -0.10   0.04     0.02  -0.10   0.07
    13   6    -0.09  -0.15   0.01     0.05  -0.02  -0.06     0.14  -0.07  -0.02
    14   6     0.11  -0.11   0.05     0.02  -0.01  -0.03     0.04  -0.05   0.12
    15   6     0.15   0.08  -0.01     0.00   0.01   0.18     0.04  -0.02  -0.08
    16   1     0.00  -0.26  -0.02    -0.08   0.20  -0.08     0.06  -0.06   0.02
    17   1    -0.16  -0.06   0.12     0.08   0.03  -0.19    -0.02  -0.02   0.04
    18   1     0.10  -0.00  -0.19     0.00  -0.02  -0.05    -0.15  -0.05   0.21
    19   1     0.20  -0.11  -0.02     0.01  -0.06  -0.04    -0.28   0.13  -0.02
    20   1     0.09  -0.09   0.01     0.12  -0.04  -0.00    -0.06   0.01   0.01
    21   1    -0.04  -0.01   0.01     0.01   0.01   0.02    -0.01  -0.02  -0.04
    22   1    -0.04  -0.02   0.02     0.04   0.02  -0.01    -0.07  -0.04   0.03
    23   1    -0.04  -0.02   0.03     0.00   0.01   0.04    -0.02  -0.04  -0.04
    24   1     0.01  -0.01   0.02     0.10   0.20   0.18    -0.02   0.02  -0.12
    25   1     0.06   0.00   0.05    -0.17  -0.06  -0.27    -0.02   0.08  -0.04
    26   1    -0.10   0.08   0.04     0.13   0.23  -0.28     0.08  -0.04  -0.02
    27   1    -0.01  -0.03  -0.25    -0.21  -0.09   0.24    -0.11  -0.09   0.21
    28   1    -0.02   0.13  -0.07     0.02  -0.35   0.02     0.04  -0.29   0.03
    29   1    -0.13  -0.26   0.17     0.06   0.01  -0.19     0.18   0.02  -0.23
    30   1    -0.28  -0.13  -0.07     0.19  -0.02   0.01     0.35  -0.17   0.04
    31   1     0.22  -0.16   0.09    -0.13   0.00  -0.12     0.21   0.10   0.28
    32   1     0.12  -0.20   0.10     0.17  -0.04  -0.10    -0.15  -0.14   0.28
    33   1     0.15   0.16   0.02     0.05  -0.03   0.19    -0.05  -0.00  -0.12
                     13                     14                     15
                      A                      A                      A
 Frequencies --    341.4348               380.2839               401.6200
 Red. masses --      2.3991                 4.0918                 2.8437
 Frc consts  --      0.1648                 0.3486                 0.2702
 IR Inten    --      2.6196                 0.3541                 1.2328
  Atom  AN      X      Y      Z        X      Y      Z        X      Y      Z
     1   8     0.04   0.01   0.00     0.03  -0.13   0.01     0.07   0.02   0.03
     2   6     0.02   0.04   0.00     0.03  -0.13   0.00     0.07   0.02  -0.05
     3   6     0.02   0.01   0.04    -0.01  -0.20  -0.07     0.04  -0.11   0.01
     4   6     0.16   0.01  -0.05    -0.10  -0.04  -0.12     0.01  -0.12   0.03
     5   6     0.01  -0.00  -0.03    -0.01   0.01  -0.06    -0.03  -0.09   0.07
     6   8     0.04  -0.10   0.00     0.02  -0.00  -0.01    -0.06   0.02   0.05
     7   6     0.02  -0.06   0.06     0.02  -0.01   0.03    -0.05   0.03  -0.05
     8   8     0.00  -0.02   0.08     0.00  -0.01   0.04     0.03   0.02  -0.10
     9   6    -0.14  -0.02   0.02    -0.06  -0.01   0.00     0.12   0.01   0.00
    10   6     0.01   0.01  -0.08     0.03   0.15  -0.01    -0.04  -0.05   0.05
    11   6    -0.04   0.02  -0.04    -0.07   0.22   0.02    -0.09  -0.05  -0.09
    12   6    -0.06  -0.02   0.03    -0.11   0.17   0.04    -0.09   0.03   0.02
    13   6     0.01   0.06  -0.06     0.02   0.03   0.04    -0.03   0.11  -0.05
    14   6    -0.05   0.06   0.07     0.13   0.02   0.01     0.00   0.11   0.06
    15   6    -0.04   0.03  -0.06     0.10  -0.03   0.05     0.02   0.03  -0.01
    16   1    -0.02  -0.10  -0.00    -0.01  -0.38  -0.10     0.13  -0.27   0.04
    17   1    -0.05   0.02   0.11    -0.07  -0.17   0.12    -0.14  -0.09   0.10
    18   1     0.21   0.14  -0.29    -0.10  -0.03  -0.01     0.02  -0.08   0.06
    19   1     0.39  -0.09   0.03    -0.16  -0.01  -0.14    -0.01  -0.14   0.01
    20   1    -0.03   0.04  -0.03     0.07  -0.14  -0.02    -0.02  -0.12   0.08
    21   1    -0.27  -0.06   0.11    -0.13  -0.03   0.04     0.26   0.06  -0.09
    22   1    -0.21  -0.02   0.04    -0.12  -0.03   0.03     0.22   0.03  -0.04
    23   1    -0.13   0.07  -0.16    -0.06   0.02  -0.11     0.11  -0.07   0.23
    24   1    -0.00  -0.01  -0.09     0.05   0.19   0.01    -0.09  -0.04   0.03
    25   1    -0.10   0.07  -0.06    -0.11   0.30   0.02    -0.23  -0.19  -0.23
    26   1    -0.01   0.01  -0.05    -0.08   0.20   0.03     0.06   0.08  -0.25
    27   1    -0.11  -0.01   0.19    -0.17   0.16  -0.05    -0.03   0.04   0.14
    28   1    -0.06  -0.18  -0.01    -0.11   0.20   0.05    -0.10  -0.06  -0.01
    29   1     0.03   0.12  -0.19    -0.02  -0.11  -0.03    -0.04   0.09  -0.13
    30   1     0.16   0.00  -0.01     0.03   0.07   0.06     0.05   0.11  -0.02
    31   1     0.05   0.20   0.19     0.11  -0.02  -0.01     0.09   0.23   0.17
    32   1    -0.19  -0.02   0.19     0.14   0.05  -0.01    -0.11   0.01   0.18
    33   1    -0.11   0.03  -0.10     0.13  -0.11   0.04     0.03   0.12   0.03
                     16                     17                     18
                      A                      A                      A
 Frequencies --    457.9049               465.9728               490.4247
 Red. masses --      2.8322                 2.8159                 2.1135
 Frc consts  --      0.3499                 0.3602                 0.2995
 IR Inten    --      2.7446                 4.2865                 0.4831
  Atom  AN      X      Y      Z        X      Y      Z        X      Y      Z
     1   8    -0.13  -0.01  -0.03    -0.02   0.02  -0.01    -0.01   0.09   0.01
     2   6    -0.07  -0.08   0.03    -0.00  -0.00   0.01     0.05   0.01  -0.04
     3   6     0.01   0.09  -0.01    -0.00   0.01   0.00     0.05  -0.03  -0.02
     4   6     0.04   0.05   0.04     0.05  -0.00  -0.02    -0.02   0.06  -0.02
     5   6     0.02   0.04   0.05    -0.12  -0.00   0.09    -0.03   0.04  -0.07
     6   8    -0.00  -0.04   0.00    -0.06  -0.09   0.07     0.03  -0.01  -0.05
     7   6    -0.01  -0.02  -0.02    -0.06  -0.05  -0.03     0.05  -0.02   0.02
     8   8    -0.02   0.00  -0.01     0.07   0.05  -0.10     0.03   0.00   0.04
     9   6     0.01   0.00   0.00     0.07   0.00   0.04    -0.02  -0.00  -0.00
    10   6     0.00  -0.07  -0.02    -0.09   0.08  -0.07    -0.08  -0.06   0.06
    11   6    -0.11  -0.07  -0.04     0.03   0.13   0.01    -0.08  -0.09  -0.03
    12   6    -0.07   0.08   0.02     0.02   0.05   0.05    -0.01   0.08   0.05
    13   6     0.02   0.03   0.02     0.10  -0.09   0.07     0.08  -0.03   0.06
    14   6     0.19   0.04   0.05    -0.03  -0.10  -0.01    -0.03  -0.05  -0.01
    15   6     0.12  -0.08  -0.06    -0.03  -0.02  -0.06    -0.03  -0.03   0.05
    16   1    -0.09   0.42  -0.01    -0.05   0.05  -0.02     0.10  -0.17  -0.01
    17   1     0.31   0.05  -0.23     0.04   0.00  -0.03    -0.01  -0.01   0.12
    18   1     0.05   0.07  -0.08     0.13   0.20  -0.28    -0.02   0.07   0.08
    19   1     0.13  -0.02   0.06     0.31  -0.22   0.04    -0.09   0.11  -0.05
    20   1     0.01   0.11   0.02    -0.16   0.02   0.09    -0.04   0.06  -0.07
    21   1     0.01   0.01   0.02     0.17   0.05   0.02    -0.10  -0.02   0.06
    22   1     0.04   0.03  -0.03     0.23   0.07  -0.06    -0.06   0.00   0.00
    23   1     0.00   0.02   0.04     0.05  -0.02   0.29    -0.02   0.05  -0.10
    24   1    -0.04  -0.14  -0.06    -0.20   0.14  -0.11     0.01  -0.10   0.09
    25   1    -0.20  -0.12  -0.11     0.03   0.18   0.03    -0.23  -0.28  -0.19
    26   1     0.02  -0.04  -0.13     0.05   0.03   0.05     0.16  -0.00  -0.21
    27   1     0.06   0.08  -0.06    -0.09   0.03  -0.08     0.15   0.06  -0.20
    28   1    -0.11   0.19   0.03     0.06   0.10   0.08    -0.06   0.35   0.09
    29   1    -0.03  -0.15  -0.00     0.13  -0.00  -0.11     0.11   0.06  -0.20
    30   1    -0.01   0.10   0.03     0.25  -0.17   0.11     0.32  -0.12   0.14
    31   1     0.34   0.09   0.16    -0.04  -0.19  -0.06    -0.17  -0.17  -0.14
    32   1     0.03  -0.02   0.17    -0.02   0.02  -0.08     0.08   0.09  -0.15
    33   1     0.19  -0.18  -0.05    -0.07  -0.03  -0.09    -0.02   0.09   0.10
                     19                     20                     21
                      A                      A                      A
 Frequencies --    547.5985               575.2931               603.5861
 Red. masses --      2.9923                 3.2422                 3.2532
 Frc consts  --      0.5287                 0.6322                 0.6983
 IR Inten    --      2.8495                 8.4824                 6.3331
  Atom  AN      X      Y      Z        X      Y      Z        X      Y      Z
     1   8     0.05  -0.08   0.03    -0.14   0.11  -0.02     0.03   0.01  -0.01
     2   6    -0.02   0.02  -0.09     0.05  -0.14   0.02     0.02   0.02   0.07
     3   6    -0.09   0.03  -0.03     0.22  -0.14  -0.05    -0.01   0.02   0.01
     4   6    -0.08   0.18  -0.12     0.04   0.06   0.01    -0.03   0.04  -0.03
     5   6    -0.06   0.11   0.02    -0.07   0.05  -0.04    -0.08  -0.01  -0.09
     6   8    -0.03  -0.05   0.01    -0.02  -0.00  -0.01    -0.02  -0.12  -0.08
     7   6    -0.01  -0.13  -0.01    -0.01  -0.06   0.01    -0.08   0.28   0.11
     8   8     0.06   0.06  -0.03     0.05   0.03  -0.02     0.12  -0.08  -0.06
     9   6    -0.01  -0.02   0.06    -0.01  -0.02   0.05    -0.04  -0.01   0.11
    10   6    -0.04  -0.00   0.10    -0.05   0.02  -0.01    -0.05  -0.00  -0.00
    11   6     0.02  -0.07   0.01     0.04   0.02   0.01    -0.00  -0.03   0.00
    12   6     0.06  -0.08  -0.03     0.04  -0.03  -0.03     0.02  -0.02  -0.01
    13   6    -0.01  -0.00  -0.03    -0.05   0.08  -0.04     0.01   0.00  -0.01
    14   6     0.09   0.03   0.02    -0.05   0.04   0.00     0.06   0.01   0.01
    15   6     0.05   0.04   0.01    -0.02  -0.08   0.08     0.02   0.00   0.03
    16   1    -0.05  -0.34  -0.08     0.20  -0.06  -0.04    -0.06   0.05  -0.01
    17   1    -0.20   0.09   0.33     0.42  -0.15  -0.01     0.00   0.02  -0.01
    18   1    -0.07   0.21  -0.19     0.07   0.20   0.21    -0.01   0.11  -0.06
    19   1    -0.00   0.10  -0.11    -0.08   0.06  -0.05     0.01   0.04  -0.02
    20   1    -0.01   0.09   0.01    -0.10   0.08  -0.04    -0.05   0.01  -0.12
    21   1    -0.07   0.01   0.22    -0.04  -0.01   0.12     0.24  -0.04  -0.38
    22   1     0.12   0.12  -0.10     0.04   0.04  -0.02    -0.22  -0.35   0.48
    23   1    -0.04   0.08   0.17    -0.03   0.03   0.09     0.01  -0.32   0.06
    24   1    -0.04  -0.02   0.10    -0.02   0.08   0.03    -0.02  -0.01   0.01
    25   1     0.07  -0.18  -0.01     0.18   0.09   0.12     0.02  -0.05   0.01
    26   1     0.02  -0.01  -0.02    -0.09  -0.08   0.13    -0.00  -0.04   0.01
    27   1     0.03  -0.07   0.10    -0.05  -0.01   0.22     0.01  -0.01   0.04
    28   1     0.07  -0.20  -0.05     0.08  -0.27  -0.07     0.02  -0.06  -0.02
    29   1    -0.03  -0.08   0.16    -0.07   0.04   0.18    -0.01  -0.06   0.08
    30   1    -0.17   0.06  -0.08    -0.24   0.15  -0.11    -0.08   0.05  -0.03
    31   1     0.17   0.10   0.10    -0.08   0.16   0.03     0.08   0.05   0.04
    32   1     0.02  -0.08   0.12    -0.08   0.00   0.04     0.03  -0.04   0.05
    33   1     0.14   0.12   0.09    -0.03  -0.11   0.06     0.06  -0.04   0.04
                     22                     23                     24
                      A                      A                      A
 Frequencies --    623.8872               653.3148               708.5091
 Red. masses --      4.5811                 3.6130                 2.9979
 Frc consts  --      1.0506                 0.9086                 0.8867
 IR Inten    --      6.1878                 1.1402                 2.7977
  Atom  AN      X      Y      Z        X      Y      Z        X      Y      Z
     1   8     0.13   0.06  -0.06    -0.05  -0.03   0.02     0.04   0.05  -0.03
     2   6     0.05   0.10   0.29    -0.04  -0.02  -0.10     0.03   0.03   0.16
     3   6    -0.05   0.01   0.05     0.01   0.02   0.00     0.02   0.01  -0.06
     4   6    -0.05  -0.11  -0.03     0.06   0.00   0.03    -0.03   0.09  -0.12
     5   6    -0.11  -0.09  -0.17     0.19   0.01  -0.05     0.07   0.05   0.08
     6   8    -0.06   0.13  -0.06    -0.08   0.04  -0.03     0.03  -0.08   0.15
     7   6     0.02  -0.17  -0.00    -0.12  -0.05   0.01    -0.06   0.02  -0.03
     8   8     0.09   0.09  -0.01     0.09   0.06  -0.11    -0.07  -0.01  -0.03
     9   6    -0.04  -0.05   0.09    -0.11  -0.08   0.24     0.00   0.01  -0.03
    10   6    -0.06  -0.03  -0.10     0.18  -0.01  -0.01     0.10  -0.02  -0.14
    11   6    -0.02  -0.05  -0.01    -0.00   0.01   0.00    -0.04  -0.09  -0.03
    12   6    -0.00   0.00   0.00    -0.04   0.02   0.01    -0.02  -0.01   0.00
    13   6     0.01   0.00   0.00    -0.02  -0.00   0.01    -0.02   0.03   0.01
    14   6     0.08   0.01   0.01    -0.06   0.00  -0.00    -0.02   0.01   0.01
    15   6     0.02   0.01   0.04    -0.01   0.01  -0.03    -0.00  -0.07   0.05
    16   1    -0.24   0.30  -0.01     0.07  -0.04   0.02    -0.15  -0.32  -0.22
    17   1    -0.05  -0.03  -0.27     0.00   0.03   0.05    -0.08   0.07   0.27
    18   1    -0.06  -0.11   0.08    -0.01  -0.21   0.16    -0.07   0.00   0.15
    19   1    -0.12   0.03  -0.02    -0.09   0.17   0.01    -0.29   0.06  -0.25
    20   1    -0.17  -0.12  -0.13     0.26   0.02  -0.09    -0.02  -0.00   0.16
    21   1    -0.19  -0.03   0.37    -0.03  -0.05   0.24     0.12   0.05  -0.11
    22   1     0.07   0.15  -0.13    -0.00  -0.03   0.17     0.09   0.00  -0.04
    23   1    -0.07   0.12   0.15    -0.13  -0.12   0.45    -0.00  -0.06   0.13
    24   1    -0.04  -0.05  -0.10     0.24  -0.05   0.01     0.09  -0.01  -0.14
    25   1    -0.01   0.00   0.02    -0.09   0.08  -0.03     0.00   0.12   0.07
    26   1    -0.01  -0.14   0.03    -0.00   0.08  -0.03    -0.12  -0.21   0.09
    27   1     0.04   0.00  -0.00     0.05   0.01  -0.13     0.14  -0.01  -0.06
    28   1    -0.02   0.02   0.00    -0.07   0.17   0.03    -0.04   0.12   0.02
    29   1    -0.01  -0.09   0.05     0.00   0.08  -0.16    -0.01   0.05  -0.07
    30   1    -0.05   0.05  -0.01     0.13  -0.07   0.05     0.06   0.01   0.04
    31   1     0.10   0.04   0.04    -0.13  -0.09  -0.08    -0.14  -0.02  -0.07
    32   1     0.06  -0.04   0.05     0.04   0.06  -0.09     0.07   0.06  -0.07
    33   1     0.04  -0.21  -0.01    -0.10   0.05  -0.07    -0.10  -0.30  -0.09
                     25                     26                     27
                      A                      A                      A
 Frequencies --    788.9804               823.1528               843.4123
 Red. masses --      1.9827                 2.0296                 2.9860
 Frc consts  --      0.7272                 0.8103                 1.2515
 IR Inten    --      0.0844                 3.9355                 7.8692
  Atom  AN      X      Y      Z        X      Y      Z        X      Y      Z
     1   8     0.00   0.00   0.03    -0.01   0.01  -0.00    -0.05  -0.08  -0.02
     2   6     0.00   0.01  -0.12    -0.05   0.07  -0.02    -0.12   0.03   0.07
     3   6    -0.03   0.02  -0.00     0.02   0.10  -0.04     0.10  -0.03  -0.05
     4   6    -0.01  -0.02   0.06     0.11  -0.03   0.02     0.12  -0.02   0.02
     5   6    -0.03  -0.00  -0.02     0.04  -0.03   0.02    -0.04  -0.01   0.00
     6   8    -0.00   0.01  -0.00    -0.00   0.00  -0.02    -0.01  -0.01  -0.02
     7   6     0.00  -0.00   0.00     0.01   0.00  -0.00     0.01  -0.00   0.01
     8   8     0.00   0.00   0.00     0.00   0.00   0.00     0.01  -0.00   0.01
     9   6     0.00  -0.00  -0.00    -0.00  -0.00   0.01     0.01   0.01  -0.01
    10   6     0.01  -0.03  -0.09    -0.08  -0.06   0.01    -0.04   0.05  -0.00
    11   6    -0.05  -0.03  -0.09    -0.00   0.07  -0.01    -0.05  -0.02  -0.02
    12   6    -0.02   0.00  -0.06    -0.01   0.09  -0.00     0.00  -0.16  -0.07
    13   6     0.03   0.01   0.05     0.08  -0.03  -0.01     0.04  -0.07   0.10
    14   6     0.09   0.05   0.11     0.06  -0.03  -0.02     0.05   0.13   0.03
    15   6    -0.01  -0.02   0.13    -0.09  -0.10   0.01    -0.00   0.19  -0.04
    16   1     0.15   0.00   0.10     0.03  -0.32  -0.12    -0.04  -0.23  -0.17
    17   1    -0.12   0.02  -0.03    -0.29   0.16   0.23    -0.00  -0.01   0.09
    18   1     0.02   0.04  -0.15     0.04  -0.22   0.32     0.11   0.01   0.45
    19   1     0.18  -0.07   0.13    -0.24   0.02  -0.13    -0.25   0.00  -0.14
    20   1    -0.11   0.07  -0.01     0.00   0.06  -0.02    -0.08   0.07  -0.01
    21   1    -0.00   0.00   0.00    -0.02  -0.01   0.02    -0.00   0.00  -0.01
    22   1     0.00   0.01  -0.01    -0.02  -0.01   0.02    -0.00   0.00  -0.01
    23   1     0.00   0.00  -0.00     0.00   0.00  -0.02     0.01   0.01  -0.04
    24   1     0.06   0.09  -0.03    -0.10  -0.01   0.02    -0.13   0.06  -0.04
    25   1     0.20   0.21   0.15     0.04   0.03   0.01    -0.02   0.02   0.01
    26   1    -0.31  -0.25   0.17     0.03  -0.01   0.01    -0.20   0.09   0.01
    27   1    -0.06   0.02   0.12    -0.25   0.09   0.17     0.08  -0.19  -0.37
    28   1     0.07  -0.17  -0.06     0.01  -0.18  -0.05     0.02   0.13   0.01
    29   1     0.00  -0.07  -0.02     0.01  -0.26   0.24     0.07   0.04  -0.00
    30   1     0.03  -0.08   0.02    -0.21   0.09  -0.09     0.17  -0.11   0.15
    31   1    -0.24  -0.16  -0.18     0.06   0.10   0.04     0.08  -0.02  -0.02
    32   1     0.40   0.25  -0.19    -0.08  -0.02   0.05     0.09   0.22  -0.04
    33   1    -0.12   0.06   0.09    -0.01  -0.17   0.03     0.04   0.13  -0.02
                     28                     29                     30
                      A                      A                      A
 Frequencies --    860.3407               868.2321               886.8981
 Red. masses --      1.7260                 2.9825                 2.0258
 Frc consts  --      0.7527                 1.3247                 0.9389
 IR Inten    --      2.4621                 3.8438                 2.9370
  Atom  AN      X      Y      Z        X      Y      Z        X      Y      Z
     1   8     0.02   0.02   0.01     0.04   0.04  -0.01    -0.01  -0.01   0.00
     2   6     0.02   0.01  -0.04     0.06  -0.01   0.06    -0.03   0.03  -0.02
     3   6    -0.02  -0.02  -0.01    -0.08  -0.06  -0.06    -0.00   0.00  -0.09
     4   6    -0.03  -0.02   0.03    -0.02  -0.05   0.03     0.02  -0.03   0.09
     5   6     0.00   0.03  -0.01     0.08   0.13   0.18    -0.05   0.05   0.07
     6   8     0.02   0.00   0.02    -0.01   0.02  -0.14    -0.03   0.02  -0.07
     7   6    -0.01   0.00  -0.01     0.03   0.01  -0.01     0.02   0.00   0.01
     8   8    -0.01   0.00  -0.01     0.02   0.00  -0.00     0.03   0.00   0.01
     9   6    -0.01  -0.00   0.01     0.00  -0.01   0.06     0.02   0.00   0.01
    10   6     0.04   0.05  -0.03    -0.05   0.03   0.06     0.03   0.04  -0.06
    11   6    -0.08   0.01   0.03    -0.10  -0.02  -0.07     0.07  -0.05  -0.01
    12   6     0.02  -0.10  -0.00     0.04  -0.03  -0.07    -0.01  -0.01   0.11
    13   6     0.13  -0.03   0.02     0.03   0.05   0.09    -0.10   0.01  -0.07
    14   6    -0.00   0.04  -0.05    -0.07  -0.01  -0.00     0.03  -0.03  -0.06
    15   6    -0.07  -0.06   0.04     0.05  -0.09  -0.08     0.00  -0.01   0.08
    16   1     0.11   0.03   0.07    -0.16   0.01  -0.09     0.10  -0.21  -0.06
    17   1    -0.07  -0.03  -0.08    -0.10  -0.07  -0.12    -0.25   0.03   0.03
    18   1    -0.00   0.05  -0.16    -0.05  -0.15  -0.09     0.06   0.07   0.02
    19   1     0.15  -0.07   0.10     0.01  -0.22  -0.01     0.06  -0.22   0.05
[...]
 0048606,0.00033265,-0.00141827,-0.00403692,0.00027025,0.00027387,0.000
 59248,0.00019672,-0.00942332,-0.00040156,-0.01681211,0.11681174,0.0000
 9670,0.00005013,0.00003009,-0.00005195,-0.00003335,-0.00006341,0.00000
 125,0.00001324,0.00000167,0.00002785,0.00002347,-0.00000251,-0.0004031
 6,0.00018916,0.00002726,0.00013641,-0.00040937,0.00005937,0.00024351,0
 .00013837,0.00001385,-0.00006227,-0.00006042,0.00008392,0.00000550,0.0
 0002594,-0.00000568,-0.00076386,0.00188063,-0.00119280,-0.01466173,-0.
 00184537,-0.02544339,0.00097178,-0.05151017,-0.00264625,0.00058867,-0.
 00051678,0.00162001,-0.00049110,0.00010208,-0.00086001,0.00004393,-0.0
 0024836,0.00003295,-0.00000664,0.00000666,0.00000958,0.00000673,0.0000
 0800,-0.00000197,-0.00000298,0.00002363,0.00000300,0.00002306,-0.00002
 459,0.00001816,0.00000316,0.00000884,-0.00000259,0.00001863,0.00000144
 ,0.00002568,-0.00000067,-0.00000365,-0.00000276,0.00000135,-0.00001104
 ,0.00000355,0.00044736,-0.00029901,0.00051613,-0.00331830,-0.00437804,
 -0.00038604,0.00072125,0.00113586,0.00042969,0.01269335,0.00088510,0.0
 2455193,0.00385285,0.05359289,0.00012878,-0.00006225,0.00004267,-0.000
 18198,0.00004545,-0.00002539,0.00003374,-0.00004070,-0.00000324,-0.000
 04698,-0.00002911,-0.00006113,0.00000948,-0.00024879,0.00011145,0.0001
 5450,0.00004932,0.00013263,0.00002807,0.00007182,0.00000738,-0.0000113
 4,-0.00002676,0.00002934,0.00001114,0.00000907,-0.00000142,0.00000147,
 0.00044410,-0.00008541,-0.00079547,-0.00011731,-0.00100166,-0.10465881
 ,-0.00311028,-0.24127063,-0.01154171,0.00051013,-0.02433365,-0.0015531
 8,0.00060555,0.00066909,0.00029529,-0.00019097,0.00006105,0.00000058,0
 .00000636,0.00000779,-0.00000246,-0.00002014,-0.00000279,0.00000787,-0
 .00001583,0.00000746,0.00000818,-0.00000892,0.00001972,0.00000512,0.00
 001414,-0.00000775,0.00001349,-0.00000403,0.00000538,0.00000140,0.0000
 0585,-0.00000051,0.00000080,-0.00000695,0.00000596,0.00033098,-0.00065
 216,0.00022024,-0.00002976,0.00002547,0.00134947,-0.00023749,-0.000442
 27,0.00084907,-0.00081340,0.00082247,-0.00094784,0.11342175,0.00243626
 ,0.26510762,-0.00000796,-0.00016451,0.00001110,0.00104205,0.00086475,0
 .00003778,-0.00029894,0.00030421,-0.00001888,-0.00012305,-0.00005962,0
 .00001237,0.00015845,-0.00000392,-0.00005220,-0.00006415,-0.00018404,-
 0.00005473,0.00016507,0.00012722,0.00001392,-0.00004824,-0.00006267,0.
 00001858,-0.00001617,0.00001137,-0.00000870,-0.00041537,0.00047707,0.0
 0018517,-0.00222016,0.00150506,0.00462266,-0.01364790,-0.01803276,-0.0
 0348419,-0.14018622,-0.12284701,-0.01650827,0.01255315,0.01720294,0.00
 204627,-0.00237870,0.00302469,-0.00013105,-0.00001351,-0.00000872,0.00
 000588,0.00008209,0.00013718,-0.00002447,0.00003289,-0.00004382,-0.000
 02068,0.00000456,0.00000707,-0.00001413,0.00008123,0.00008171,-0.00002
 626,0.00001194,-0.00000063,0.00001218,0.00000105,0.00000012,-0.0000026
 8,-0.00000463,-0.00000707,-0.00000152,0.00006010,-0.00008115,-0.000018
 79,0.00037875,0.00046866,0.00000736,-0.00070821,-0.00156469,0.00019391
 ,0.00016911,0.00032445,-0.00067602,0.00113871,0.00029187,0.00003358,0.
 15235429,0.00060495,0.00003739,-0.00001498,-0.00244956,-0.00051947,0.0
 0011096,0.00055978,-0.00049275,0.00001989,0.00006648,0.00005108,-0.000
 12934,0.00008546,0.00014186,0.00013619,-0.00031689,-0.00011112,-0.0000
 8283,0.00034566,0.00015384,0.00003563,-0.00014365,-0.00007870,0.000030
 14,-0.00002369,-0.00000727,-0.00002228,0.00049107,0.00038596,-0.000462
 41,0.00026723,0.00112507,0.00026104,0.00059298,0.00079465,0.00039603,-
 0.12237629,-0.21285757,-0.02059041,-0.01676228,-0.02276297,-0.00315601
 ,0.00558548,-0.00344460,0.00030537,-0.00000844,0.00000161,-0.00000879,
 -0.00011332,-0.00024846,0.00000494,-0.00003634,-0.00001309,0.00002849,
 -0.00000459,0.00001585,0.00002270,-0.00006360,-0.00002859,-0.00000709,
 0.00000228,0.00000082,-0.00000009,0.00000393,0.00000158,0.00000597,-0.
 00001165,-0.00000271,-0.00000594,-0.00005219,-0.00003082,0.00009312,-0
 .00001947,-0.00004242,-0.00007758,0.00001332,0.00002762,-0.00017520,-0
 .00027467,0.00054156,0.00039194,0.00002889,0.00011258,0.00041816,0.132
 13194,0.23206173,0.00011107,-0.00007200,-0.00010012,-0.00022320,0.0000
 7766,0.00042407,0.00001148,-0.00004938,-0.00008670,0.00008144,0.000029
 06,0.00001745,-0.00012540,0.00003159,0.00000368,-0.00000134,0.00005467
 ,0.00005978,-0.00003628,-0.00003379,-0.00005217,0.00000214,0.00001163,
 0.00003396,0.00000255,-0.00000052,0.00000498,0.00013459,-0.00044632,-0
 .00009112,0.00288353,-0.00122420,-0.00405759,0.01614019,0.02193850,0.0
 0222750,-0.01712055,-0.02137074,-0.05300372,-0.00036417,0.00081379,-0.
 00075445,0.00032687,-0.00041408,0.00063344,-0.00000597,-0.00002503,0.0
 0000316,-0.00001742,-0.00001584,0.00000661,-0.00002282,0.00002752,0.00
 000772,-0.00000017,-0.00000285,0.00000511,-0.00004881,-0.00006507,0.00
 002829,0.00001042,-0.00000155,-0.00000757,0.00000224,0.00000928,0.0000
 0393,0.00000050,-0.00000345,0.00000548,-0.00004701,0.00003774,-0.00001
 537,0.00028581,0.00005484,0.00020768,0.00101254,0.00127339,0.00013740,
 -0.00069685,-0.00038590,0.00085212,-0.00083781,0.00026389,0.00097478,0
 .01538730,0.02298693,0.05489781,0.00029956,0.00026572,0.00009215,-0.00
 040485,-0.00009188,0.00023975,0.00001261,0.00003841,-0.00005913,-0.000
 01152,0.00000859,0.00003333,0.00000979,-0.00006822,-0.00009900,0.00013
 082,0.00004959,0.00004904,-0.00013949,-0.00005603,-0.00004334,0.000057
 81,0.00002560,0.00000752,0.00001087,0.00000075,0.00001189,-0.00013303,
 0.00006701,0.00015852,0.00140031,0.00054391,0.00022595,0.01064281,-0.0
 0208997,0.02199369,-0.10598250,0.00811341,-0.10396713,-0.01100244,0.00
 235123,-0.01754633,0.00035693,-0.00137221,0.00024033,0.00000862,0.0000
 0620,0.00000185,0.00000740,0.00001840,-0.00001242,0.00001578,0.0000054
 4,-0.00000860,-0.00000349,-0.00000808,0.00000524,0.00002801,0.00001803
 ,0.00000562,0.00000435,-0.00000294,-0.00000476,-0.00000041,0.00000712,
 -0.00000133,0.00000330,0.00000017,0.00000503,-0.00014274,0.00001706,-0
 .00000887,-0.00012875,0.00004946,-0.00040921,0.00010237,0.00031837,-0.
 00022904,0.00114644,0.00000029,-0.00085454,-0.00264180,-0.00056584,0.0
 0428885,-0.00968975,0.00192199,-0.01736876,0.11631820,-0.00049038,-0.0
 0036513,-0.00013906,0.00082657,0.00000696,-0.00034765,-0.00006119,0.00
 004822,0.00007297,0.00000157,-0.00001763,-0.00000010,0.00000294,0.0000
 0168,0.00010197,0.00001113,0.00007486,-0.00003669,-0.00009706,-0.00007
 056,0.00001790,0.00003398,0.00003774,-0.00004304,0.00000569,-0.0000044
 1,0.00000316,-0.00000485,-0.00024446,-0.00003822,0.00054449,0.00007544
 ,0.00080726,-0.00005056,-0.00049971,-0.00047615,0.00802347,-0.05322413
 ,0.01884348,0.01467903,-0.00372064,0.02589031,0.00061422,0.00199104,0.
 00115030,-0.00001217,-0.00001042,-0.00001251,-0.00000307,0.00002408,0.
 00000689,-0.00001118,0.00000367,0.00000619,0.00000172,0.00000463,-0.00
 000974,-0.00001946,-0.00001343,-0.00000178,-0.00001593,0.00000284,-0.0
 0000293,-0.00000239,-0.00000835,-0.00000163,0.00000270,0.00000667,-0.0
 0000384,0.00000292,0.00004887,-0.00020537,-0.00019314,0.00008577,0.000
 02719,-0.00003922,0.00000004,-0.00013989,-0.00033407,0.00017097,-0.000
 28944,0.00035173,0.00097115,-0.00006197,-0.01227642,0.00294098,-0.0238
 7134,-0.01344700,0.05539237,0.00019109,-0.00004434,-0.00005524,-0.0000
 3310,0.00027579,0.00020881,-0.00004257,0.00002326,-0.00006997,0.000048
 88,0.00003093,0.00001773,-0.00016442,0.00001321,-0.00012247,0.00013431
 ,0.00004084,0.00012386,-0.00009225,-0.00000591,-0.00009203,0.00003148,
 -0.00000428,0.00006727,0.00000972,0.00001426,0.00001417,0.00023301,0.0
 0012559,0.00005477,-0.00148074,-0.00057345,0.00061804,-0.01162335,0.00
 147571,-0.02445103,-0.10372229,0.01907452,-0.23890821,0.00012819,-0.00
 003739,0.00087316,0.00014455,-0.00037211,0.00016481,0.00000337,0.00000
 125,0.00001192,0.00000854,0.00001791,0.00000208,-0.00000808,0.00002614
 ,-0.00000119,0.00000543,-0.00001198,0.00001033,-0.00000170,-0.00000339
 ,0.00001683,0.00002277,-0.00000370,-0.00000162,0.00000280,0.00001339,0
 .00000147,0.00000304,-0.00000932,0.00001049,0.00000377,-0.00022195,0.0
 0006055,0.00086978,0.00077562,0.00056162,0.00023990,-0.00020242,0.0004
 5711,0.00001361,-0.00048037,0.00092742,0.00433443,0.00022763,-0.002940
 38,-0.00177118,-0.00052502,-0.00277317,0.11228867,-0.02030478,0.262899
 36,0.00089845,0.00022526,0.00017964,-0.00076431,0.00123120,0.00032989,
 -0.00003572,-0.00016718,-0.00004708,0.00008158,0.00001777,-0.00010286,
 0.00003816,-0.00022044,-0.00000469,-0.00000010,0.00006425,0.00020138,0
 .00011970,0.00007412,0.00005621,-0.00006411,-0.00006309,0.00006390,0.0
 0001553,0.00000163,-0.00000706,0.00060951,0.00081684,-0.00168580,-0.00
 018901,-0.00001109,0.00028606,0.00035638,-0.00074574,-0.00134271,-0.01
 059383,0.00154478,-0.01517958,-0.12717324,0.00529718,-0.11562608,-0.01
 196494,-0.00153487,-0.01663778,0.00002453,0.00004547,0.00005652,-0.000
 00041,-0.00005592,0.00004988,-0.00001652,0.00002089,0.00003233,0.00000
 573,-0.00002749,0.00005001,-0.00003432,-0.00000128,0.00000790,0.000011
 34,-0.00000304,-0.00000196,0.00000355,0.00001092,0.00000476,-0.0000008
 3,-0.00000456,0.00000903,-0.00018618,-0.00020766,0.00087381,0.00024658
 ,0.00000002,0.00006421,-0.00007211,0.00000499,0.00003875,0.00037481,-0
 .00001060,0.00029710,-0.00015646,0.00015956,0.00085981,0.00086279,-0.0
 0017359,0.00044723,-0.00114475,0.00308048,0.00021289,0.13801391,0.0013
 5240,-0.00007738,0.00042933,-0.00223908,0.00121228,-0.00093953,0.00002
 602,-0.00002060,0.00002054,0.00002124,0.00006686,-0.00002083,0.0001671
 8,-0.00004705,-0.00018874,-0.00022875,-0.00008850,0.00013990,0.0002409
 6,0.00013850,0.00006282,-0.00010681,-0.00010401,0.00007425,-0.00000165
 ,-0.00000789,-0.00001321,0.00086407,0.00099984,-0.00113244,-0.00000080
 ,-0.00019333,0.00001293,-0.00096446,0.00101743,0.00091022,0.01678959,-
 0.00270081,0.02528597,0.00547437,-0.04826642,0.01009881,-0.01597756,-0
 .00078679,-0.02424353,0.00011539,0.00009956,0.00010394,0.00004490,-0.0
 0006858,0.00006198,0.00001591,-0.00000856,-0.00000064,-0.00000970,-0.0
 0002256,0.00003888,-0.00001296,-0.00002140,0.00001664,0.00000614,-0.00
 000323,-0.00000157,0.00000375,0.00000969,0.00000498,-0.00000587,-0.000
 00156,0.00000282,0.00006194,0.00013301,0.00063844,-0.00002824,-0.00014
 711,-0.00000328,-0.00000623,0.00013387,-0.00000749,-0.00045472,-0.0000
 3221,-0.00009297,-0.00002028,0.00016929,-0.00081380,-0.00079335,0.0010
 7613,0.00019959,0.00400592,-0.00458238,-0.00039549,-0.00561381,0.05710
 237,0.00153731,0.00100938,0.00076356,-0.00248704,0.00067927,0.00011675
 ,0.00033773,-0.00019135,-0.00021508,0.00001875,0.00008628,-0.00001446,
 -0.00011807,-0.00002512,0.00018727,0.00008943,-0.00001547,0.00005660,0
 .00009580,0.00006774,0.00000967,-0.00003658,-0.00004654,0.00002957,0.0
 0000288,0.00000536,-0.00000232,0.00056627,0.00019831,0.00054833,-0.000
 00927,0.00003381,0.00010133,0.00043834,-0.00018643,0.00075359,0.000711
 48,0.00057228,0.00013055,-0.11520199,0.00871011,-0.22662787,-0.0005878
 0,-0.00138672,-0.00192726,0.00003145,0.00004143,0.00002357,-0.00003114
 ,-0.00009942,0.00000326,0.00003596,-0.00000656,-0.00001870,-0.00000986
 ,-0.00000994,0.00002984,-0.00002713,-0.00005659,-0.00000340,0.00001111
 ,-0.00000346,-0.00000044,0.00000255,0.00000974,0.00000155,-0.00000285,
 -0.00000381,0.00000492,-0.00033963,0.00003750,0.00056439,0.00007139,0.
 00001011,-0.00012311,-0.00003746,-0.00001431,-0.00000050,-0.00005521,0
 .00005313,0.00022461,-0.00040578,-0.00005667,0.00051662,0.00001581,0.0
 0061914,0.00027381,0.00051458,0.00000162,0.00136445,0.12919160,-0.0106
 0760,0.24402617,0.00104114,0.00069728,-0.00038379,-0.00092124,0.000777
 71,-0.00016015,0.00001751,0.00001276,0.00012275,-0.00014540,0.00010697
 ,-0.00003324,-0.00037017,0.00052136,0.00128359,-0.00015735,-0.00011443
 ,-0.00015879,0.00029690,0.00011977,0.00011089,-0.00014759,-0.00008377,
 -0.00006177,-0.00003283,0.00000138,-0.00002155,-0.00097552,-0.00337243
 ,-0.00188061,0.00060960,-0.00004797,-0.00020804,-0.00073417,0.00359421
 ,-0.00141553,-0.01183694,-0.00001552,0.01364077,-0.15429657,-0.0025736
 7,0.12870193,-0.01325817,-0.00206545,0.01508272,-0.00001793,0.00002938
 ,-0.00002260,0.00004924,-0.00002937,-0.00002916,0.00003304,-0.00005661
 ,-0.00001572,0.00000694,-0.00000379,-0.00000559,-0.00020323,-0.0003236
 2,-0.00005702,-0.00000759,0.00000337,0.00000662,-0.00000264,-0.0000111
 6,-0.00000447,-0.00000811,-0.00000019,-0.00001385,0.00009383,-0.000055
 34,0.00019638,-0.00006545,0.00000986,-0.00002468,-0.00002213,0.0000133
 5,0.00003696,-0.00059911,-0.00005999,0.00092613,0.00007782,0.00002214,
 0.00024350,0.00075167,-0.00000379,-0.00024415,0.00024786,-0.00064236,-
 0.00025253,0.01235488,0.00040754,-0.01430065,0.16790641,0.00150756,-0.
 00013441,-0.00046472,-0.00204514,0.00068754,0.00082233,0.00010308,0.00
 013306,-0.00007940,-0.00010847,0.00027017,0.00007837,-0.00108597,0.000
 71770,0.00162832,-0.00021975,-0.00012125,-0.00015694,0.00026833,0.0000
 9593,0.00005344,-0.00015800,-0.00009241,-0.00004865,-0.00003958,-0.000
 00866,-0.00001151,-0.00211875,-0.00540748,-0.00165069,0.00004125,-0.00
 053638,-0.00010462,0.00262432,-0.00532826,0.00154440,0.01834780,0.0008
 3446,-0.02357148,-0.00192476,-0.04777851,0.00074814,-0.01739676,-0.000
 85933,0.02271911,-0.00000315,0.00003380,0.00002148,0.00005899,0.000002
 39,-0.00004650,0.00006812,-0.00004447,-0.00005791,0.00001354,-0.000007
 34,-0.00001253,-0.00030635,-0.00053504,-0.00003557,-0.00000341,0.00000
 003,-0.00000752,-0.00000305,0.00000062,-0.00000415,-0.00001028,0.00000
 070,-0.00001447,0.00026747,-0.00002238,-0.00018922,-0.00000342,0.00012
 110,0.00000506,0.00000170,0.00020449,0.00001907,0.00152545,0.00005479,
 -0.00127133,-0.00028686,-0.00002588,0.00015665,-0.00086023,0.00087405,
 -0.00022405,-0.00059217,0.00117589,0.00045040,-0.00062773,-0.00020713,
 0.00099976,0.00252215,0.05479299,-0.00133599,-0.00126565,0.00051441,0.
 00217287,-0.00026771,0.00016580,-0.00036697,0.00010500,-0.00016463,0.0
 0006031,-0.00005367,-0.00004837,-0.00003147,-0.00038053,0.00018082,0.0
 0023805,0.00020267,0.00008186,-0.00016171,-0.00009654,0.00002672,0.000
 05303,0.00005064,-0.00002936,0.00002482,0.00000151,0.00000394,-0.00010
 356,-0.00020974,0.00069328,-0.00022595,0.00002374,-0.00001823,-0.00021
 289,-0.00033591,0.00097748,-0.00229946,0.00014667,0.00124215,0.1288077
 6,0.00241867,-0.20797233,-0.00312199,0.00037849,0.00225465,-0.00005404
 ,-0.00008384,-0.00001732,0.00001892,0.00008842,-0.00000172,-0.00002658
 ,0.00002514,0.00003459,0.00000132,-0.00000899,0.00002231,-0.00004865,0
 .00000742,-0.00000194,-0.00000348,0.00000092,-0.00000267,-0.00000089,-
 0.00000119,0.00000049,0.00000653,0.00000145,0.00000606,-0.00019644,-0.
 00009941,0.00045455,0.00004168,0.00001156,-0.00000383,0.00001835,-0.00
 000043,-0.00003964,0.00025107,0.00016890,0.00012021,-0.00022656,0.0001
 1051,0.00048279,0.00005177,-0.00049175,-0.00005703,0.00015994,-0.00046
 415,0.00080000,0.01736409,0.00046182,-0.02193309,-0.14095123,-0.000976
 41,0.22144371,-0.00092131,0.00327790,0.00252768,-0.01313304,0.00062270
 ,-0.01765999,0.00039347,-0.00019414,0.00123121,-0.00015208,-0.00031928
 ,0.00006270,0.00134988,-0.00030203,-0.00036566,-0.00102932,-0.00059659
 ,0.00034193,-0.00070502,-0.00019582,-0.00011181,0.00032219,0.00019351,
 -0.00016618,0.00003569,-0.00000974,0.00002160,0.00970784,-0.00070418,0
 .02194779,0.00152734,-0.00027242,0.00005096,-0.00003898,0.00001509,0.0
 0004201,0.00059944,0.00111066,0.00026965,-0.01104164,-0.00100297,-0.01
 647314,-0.10790757,0.00225969,-0.11419555,0.00058831,0.00036992,0.0002
 6115,-0.00008248,-0.00011749,0.00035653,-0.00004200,-0.00001522,0.0000
 4519,-0.00008816,0.00007428,0.00000647,0.00009288,0.00034311,-0.000199
 25,-0.00001698,0.00000434,-0.00000637,0.00000078,-0.00000597,-0.000000
 49,0.00000922,0.00001218,0.00000698,-0.00288326,-0.00009570,0.00374968
 ,-0.00021783,0.00010539,-0.00026014,0.00018741,-0.00033048,-0.00020619
 ,0.00003603,0.00002445,-0.00002739,-0.00015951,-0.00002841,-0.00000581
 ,-0.00002494,0.00013256,0.00032081,0.00062169,-0.00048218,0.00026197,-
 0.00162060,-0.00313306,-0.00002196,0.00031530,0.00044408,0.00009734,0.
 12427725,0.00309800,-0.00341057,-0.00358432,0.01403631,0.00341096,0.02
 687902,-0.00152014,-0.00054175,-0.00309304,0.00036148,0.00024489,-0.00
 007837,0.00045008,0.00004063,0.00099482,-0.00005437,-0.00010874,0.0001
 1378,-0.00069565,-0.00038481,-0.00008434,0.00025748,0.00025196,-0.0002
 1823,0.00002097,0.00003542,0.00003038,-0.00070685,0.00072727,0.0007206
 7,-0.00055019,0.00006550,-0.00101080,0.00005915,-0.00021439,0.00007749
 ,-0.00050070,0.00167930,-0.00109521,-0.01544577,-0.00112342,-0.0244698
 7,0.00444499,-0.05141654,0.00775430,-0.00021888,-0.00177059,0.00009161
 ,0.00004163,0.00044266,-0.00033472,0.00003602,-0.00003696,-0.00002075,
 0.00000430,0.00010163,-0.00007277,0.00001367,0.00006287,-0.00015410,0.
 00000332,0.00000404,0.00000767,-0.00001628,-0.00002059,-0.00001961,0.0
 0002294,-0.00000685,0.00000239,-0.00014189,0.00066542,-0.00018641,0.00
 014690,0.00018993,-0.00003526,-0.00002018,-0.00001759,0.00009644,0.000
 08424,-0.00002425,-0.00003849,-0.00001133,0.00002759,0.00023144,0.0000
 3030,0.00029616,0.00039604,0.00046170,-0.00030264,0.00060945,-0.003127
 28,-0.00477134,-0.00042499,0.00062024,0.00110924,0.00053237,-0.0011842
 0,0.05479556,0.00072958,0.00037276,-0.00092009,-0.00099824,-0.00011818
 ,0.00019977,-0.00059811,-0.00013576,-0.00049468,0.00039389,0.00014942,
 -0.00014743,-0.00173530,-0.00067707,-0.00115653,-0.00075244,-0.0003958
 0,0.00109566,0.00104188,0.00053855,0.00043199,-0.00050165,-0.00045859,
 0.00036655,0.00002080,0.00000863,-0.00004106,-0.01020286,0.00173934,-0
 .02734869,-0.00174173,0.00057287,0.00108948,0.00016210,-0.00023602,0.0
 0000030,0.00001835,0.00032979,0.00007721,-0.00101219,-0.00026269,-0.00
 103669,-0.10860349,0.00340573,-0.22248954,0.00023872,-0.00003032,0.000
 57230,0.00005434,0.00015755,0.00023430,-0.00003695,0.00008914,0.000022
 07,0.00003775,-0.00013788,0.00014354,0.00002675,-0.00010365,0.00017075
 ,0.00002831,-0.00001186,0.00000623,0.00000144,0.00001842,0.00000489,-0
 .00000962,-0.00001715,0.00000883,0.00410678,0.00014123,-0.00317291,0.0
 0080306,-0.00075736,0.00041330,0.00011183,0.00032237,0.00043521,0.0000
 0428,-0.00006839,-0.00001436,0.00001434,0.00019895,0.00008129,0.000158
 12,-0.00011691,0.00019027,0.00029053,-0.00047895,0.00014906,-0.0000414
 4,-0.00010274,0.00113580,-0.00010710,-0.00031886,0.00078436,0.11809828
 ,-0.00361660,0.24920879\\0.00001027,0.00003204,0.00002439,-0.00001757,
 0.00002368,0.00002302,-0.00005308,0.00003257,0.00000738,-0.00000011,-0
 .00002490,-0.00002185,0.00001884,-0.00000158,0.00008890,-0.00006143,0.
 00002009,-0.00004178,0.00002707,-0.00001695,-0.00008816,-0.00000966,-0
 .00003033,0.00010644,-0.00000607,0.00003312,0.00000477,0.00002221,-0.0
 0003593,-0.00001883,-0.00002547,-0.00000981,-0.00002093,0.00002973,-0.
 00002768,0.00000816,0.00002949,0.00004061,-0.00000234,0.00001667,-0.00
 001315,0.00000600,-0.00003624,0.00001434,-0.00001358,0.00000293,0.0000
 1306,-0.00001601,-0.00000143,-0.00000175,-0.00000176,-0.00000466,0.000
 01246,0.00000537,-0.00000073,-0.00000941,-0.00001097,0.00000809,-0.000
 00083,-0.00001198,0.00000807,-0.00001992,-0.00001454,0.00000426,-0.000
 01215,0.00000719,0.00000827,-0.00000402,-0.00000177,-0.00000005,0.0000
 0419,-0.00000892,0.00000779,-0.00001605,-0.00000631,0.00000196,-0.0000
 0028,0.00000062,-0.00000282,-0.00000204,-0.00000445,0.00000471,-0.0000
 1599,-0.00000172,0.00000056,0.00000066,0.00000072,0.00000776,0.0000064
 1,0.00000811,-0.00000013,0.00000512,-0.00000509,0.00000233,-0.00000447
 ,-0.00000367,0.00000847,0.00000889,0.00000362\\\@


 TIME IS NATURE'S WAY OF MAKING SURE EVERYTHING
 DOESN'T HAPPEN AT ONCE.
                     - WOODY ALLEN
 Job cpu time:       0 days  0 hours  4 minutes 23.1 seconds.
 Elapsed time:       0 days  0 hours  4 minutes 28.8 seconds.
 File lengths (MBytes):  RWF=    272 Int=      0 D2E=      0 Chk=     16 Scr=      1
 Normal termination of Gaussian 16 at Sat Feb 24 00:46:16 2024.
