 Entering Gaussian System, Link 0=g16
 Input=/Volumes/SSD-PMU3/b3lyp_6-31gd_freq/VGVHNLRUAMRIEW-TXNNBAIQSA-N_calculating/gaussianinput0.gjf
 Output=/Volumes/SSD-PMU3/b3lyp_6-31gd_freq/VGVHNLRUAMRIEW-TXNNBAIQSA-N_calculating/gaussianinput0.log
 Initial command:
 /Applications/g16/l1.exe "/Users/macmini_m1_2022/PycharmProjects/sphere_model/sphere_model_lib/Gau-47530.inp" -scrdir="/Users/macmini_m1_2022/PycharmProjects/sphere_model/sphere_model_lib/"
 Entering Link 1 = /Applications/g16/l1.exe PID=     47531.
  
 Copyright (c) 1988,1990,1992,1993,1995,1998,2003,2009,2016,
            Gaussian, Inc.  All Rights Reserved.
  
 This is part of the Gaussian(R) 16 program.  It is based on
 the Gaussian(R) 09 system (copyright 2009, Gaussian, Inc.),
 the Gaussian(R) 03 system (copyright 2003, Gaussian, Inc.),
 the Gaussian(R) 98 system (copyright 1998, Gaussian, Inc.),
 the Gaussian(R) 94 system (copyright 1995, Gaussian, Inc.),
 the Gaussian 92(TM) system (copyright 1992, Gaussian, Inc.),
 the Gaussian 90(TM) system (copyright 1990, Gaussian, Inc.),
 the Gaussian 88(TM) system (copyright 1988, Gaussian, Inc.),
 the Gaussian 86(TM) system (copyright 1986, Carnegie Mellon
 University), and the Gaussian 82(TM) system (copyright 1983,
 Carnegie Mellon University). Gaussian is a federally registered
 trademark of Gaussian, Inc.
  
 This software contains proprietary and confidential information,
 including trade secrets, belonging to Gaussian, Inc.
  
 This software is provided under written license and may be
 used, copied, transmitted, or stored only in accord with that
 written license.
  
 The following legend is applicable only to US Government
 contracts under FAR:
  
                    RESTRICTED RIGHTS LEGEND
  
 Use, reproduction and disclosure by the US Government is
 subject to restrictions as set forth in subparagraphs (a)
 and (c) of the Commercial Computer Software - Restricted
 Rights clause in FAR 52.227-19.
  
 Gaussian, Inc.
 340 Quinnipiac St., Bldg. 40, Wallingford CT 06492
  
  
 ---------------------------------------------------------------
 Warning -- This program may not be used in any manner that
 competes with the business of Gaussian, Inc. or will provide
 assistance to any competitor of Gaussian, Inc.  The licensee
 of this program is prohibited from giving any competitor of
 Gaussian, Inc. access to this program.  By using this program,
 the user acknowledges that Gaussian, Inc. is engaged in the
 business of creating and licensing software in the field of
 computational chemistry and represents and warrants to the
 licensee that it is not a competitor of Gaussian, Inc. and that
 it will not use this program in any manner prohibited above.
 ---------------------------------------------------------------
  

 Cite this work as:
 Gaussian 16, Revision A.03,
 M. J. Frisch, G. W. Trucks, H. B. Schlegel, G. E. Scuseria, 
 M. A. Robb, J. R. Cheeseman, G. Scalmani, V. Barone, 
 G. A. Petersson, H. Nakatsuji, X. Li, M. Caricato, A. V. Marenich, 
 J. Bloino, B. G. Janesko, R. Gomperts, B. Mennucci, H. P. Hratchian, 
 J. V. Ortiz, A. F. Izmaylov, J. L. Sonnenberg, D. Williams-Young, 
 F. Ding, F. Lipparini, F. Egidi, J. Goings, B. Peng, A. Petrone, 
 T. Henderson, D. Ranasinghe, V. G. Zakrzewski, J. Gao, N. Rega, 
 G. Zheng, W. Liang, M. Hada, M. Ehara, K. Toyota, R. Fukuda, 
 J. Hasegawa, M. Ishida, T. Nakajima, Y. Honda, O. Kitao, H. Nakai, 
 T. Vreven, K. Throssell, J. A. Montgomery, Jr., J. E. Peralta, 
 F. Ogliaro, M. J. Bearpark, J. J. Heyd, E. N. Brothers, K. N. Kudin, 
 V. N. Staroverov, T. A. Keith, R. Kobayashi, J. Normand, 
 K. Raghavachari, A. P. Rendell, J. C. Burant, S. S. Iyengar, 
 J. Tomasi, M. Cossi, J. M. Millam, M. Klene, C. Adamo, R. Cammi, 
 J. W. Ochterski, R. L. Martin, K. Morokuma, O. Farkas, 
 J. B. Foresman, and D. J. Fox, Gaussian, Inc., Wallingford CT, 2016.
 
 ******************************************
 Gaussian 16:  EM64M-G16RevA.03 25-Dec-2016
                21-Feb-2024 
 ******************************************
 %nprocshared=8
 Will use up to    8 processors via shared memory.
 %mem=4GB
 %chk= 0.chk
 ---------------------
 # freq b3lyp/6-31g(d)
 ---------------------
 1/10=4,30=1,38=1/1,3;
 2/12=2,17=6,18=5,40=1/2;
 3/5=1,6=6,7=1,11=2,25=1,30=1,71=2,74=-5,140=1/1,2,3;
 4//1;
 5/5=2,38=5,98=1/2;
 8/6=4,10=90,11=11/1;
 11/6=1,8=1,9=11,15=111,16=1/1,2,10;
 10/6=1/2;
 6/7=2,8=2,9=2,10=2,28=1/1;
 7/8=1,10=1,25=1/1,2,3,16;
 1/10=4,30=1/3;
 99//99;
 ---------
 good luck
 ---------
 Symbolic Z-matrix:
 Charge =  0 Multiplicity = 1
 O                     1.21662   0.        0. 
 C                     0.        0.        0. 
 C                    -0.81799  -1.28558  -0.0004 
 C                    -1.93124  -1.2611    1.06992 
 C                    -2.81754   0.        0.99132 
 C                    -3.74299   0.       -0.23647 
 C                    -1.93124   1.2611    1.06992 
 C                    -0.81799   1.28558  -0.0004 
 H                    -1.26805  -1.39395  -0.99839 
 H                    -0.13763  -2.13012   0.14333 
 H                    -1.4622   -1.3023    2.06243 
 H                    -2.54678  -2.16507   0.97976 
 H                    -3.46428   0.        1.88 
 H                    -4.38979  -0.88531  -0.23615 
 H                    -3.19007   0.       -1.18286 
 H                    -4.38979   0.88531  -0.23615 
 H                    -1.4622    1.3023    2.06243 
 H                    -2.54678   2.16507   0.97976 
 H                    -1.26805   1.39395  -0.99839 
 H                    -0.13763   2.13012   0.14333 
 

 GradGradGradGradGradGradGradGradGradGradGradGradGradGradGradGradGradGrad
 Berny optimization.
 Initialization pass.
 Trust Radius=3.00D-01 FncErr=1.00D-07 GrdErr=1.00D-07 EigMax=2.50D+02 EigMin=1.00D-04
 Number of steps in this run=      2 maximum allowed number of steps=      2.
 GradGradGradGradGradGradGradGradGradGradGradGradGradGradGradGradGradGrad

                          Input orientation:                          
 ---------------------------------------------------------------------
 Center     Atomic      Atomic             Coordinates (Angstroms)
 Number     Number       Type             X           Y           Z
 ---------------------------------------------------------------------
      1          8           0        1.216622    0.000000    0.000000
      2          6           0        0.000000    0.000000    0.000000
      3          6           0       -0.817991   -1.285583   -0.000397
      4          6           0       -1.931237   -1.261099    1.069921
      5          6           0       -2.817541    0.000000    0.991316
      6          6           0       -3.742985    0.000000   -0.236468
      7          6           0       -1.931237    1.261099    1.069921
      8          6           0       -0.817991    1.285583   -0.000397
      9          1           0       -1.268053   -1.393954   -0.998386
     10          1           0       -0.137634   -2.130124    0.143332
     11          1           0       -1.462201   -1.302296    2.062430
     12          1           0       -2.546777   -2.165070    0.979755
     13          1           0       -3.464278    0.000000    1.880004
     14          1           0       -4.389786   -0.885305   -0.236146
     15          1           0       -3.190074    0.000000   -1.182861
     16          1           0       -4.389786    0.885305   -0.236146
     17          1           0       -1.462201    1.302296    2.062430
     18          1           0       -2.546777    2.165070    0.979755
     19          1           0       -1.268053    1.393954   -0.998386
     20          1           0       -0.137634    2.130124    0.143332
 ---------------------------------------------------------------------
                    Distance matrix (angstroms):
                    1          2          3          4          5
     1  O    0.000000
     2  C    1.216622   0.000000
     3  C    2.406735   1.523756   0.000000
     4  C    3.555857   2.542593   1.544505   0.000000
     5  C    4.154176   2.986845   2.575737   1.543400   0.000000
     6  C    4.965241   3.750447   3.203755   2.565045   1.537498
     7  C    3.555857   2.542593   2.978336   2.522198   1.543400
     8  C    2.406735   1.523756   2.571166   2.978336   2.575737
     9  H    3.018856   2.132567   1.100128   2.176088   2.881481
    10  H    2.528237   2.139373   1.093980   2.197904   3.526813
    11  H    3.622939   2.843875   2.161143   1.098529   2.163379
    12  H    4.450912   3.483320   2.173223   1.097353   2.181966
    13  H    5.044327   3.941527   3.491628   2.144020   1.099107
    14  H    5.680787   4.484390   3.601877   2.809181   2.182288
    15  H    4.562689   3.402313   2.945797   2.872293   2.205862
    16  H    5.680787   4.484390   4.186413   3.515299   2.182288
    17  H    3.622939   2.843875   3.371554   2.788559   2.163379
    18  H    4.450912   3.483320   3.982010   3.482191   2.181966
    19  H    3.018856   2.132567   2.894556   3.430308   2.881481
    20  H    2.528237   2.139373   3.485771   3.946641   3.526813
                    6          7          8          9         10
     6  C    0.000000
     7  C    2.565045   0.000000
     8  C    3.203755   1.544505   0.000000
     9  H    2.940904   3.430308   2.894556   0.000000
    10  H    4.204787   3.946641   3.485771   1.767290   0.000000
    11  H    3.490399   2.788559   3.371554   3.068337   2.474412
    12  H    2.756382   3.482191   3.982010   2.478467   2.550450
    13  H    2.134744   2.144020   3.491628   3.879644   4.315092
    14  H    1.096411   3.515299   4.186413   3.253452   4.446839
    15  H    1.096070   2.872293   2.945797   2.381450   3.951406
    16  H    1.096411   2.809181   3.601877   3.939702   5.226625
    17  H    3.490399   1.098529   2.161143   4.083632   4.149569
    18  H    2.756382   1.097353   2.173223   4.267883   4.995224
    19  H    2.940904   2.176088   1.100128   2.787908   3.873047
    20  H    4.204787   2.197904   1.093980   3.873047   4.260248
                   11         12         13         14         15
    11  H    0.000000
    12  H    1.758656   0.000000
    13  H    2.395322   2.517893   0.000000
    14  H    3.745409   2.552038   2.473544   0.000000
    15  H    3.900440   3.127022   3.075115   1.766166   0.000000
    16  H    4.317384   3.765619   2.473544   1.770610   1.766166
    17  H    2.604592   3.790926   2.395322   4.317384   3.900440
    18  H    3.790926   4.330140   2.517893   3.765619   3.127022
    19  H    4.083632   4.267883   3.879644   3.939702   2.381450
    20  H    4.149569   4.995224   4.315092   5.226625   3.951406
                   16         17         18         19         20
    16  H    0.000000
    17  H    3.745409   0.000000
    18  H    2.552038   1.758656   0.000000
    19  H    3.253452   3.068337   2.478467   0.000000
    20  H    4.446839   2.474412   2.550450   1.767290   0.000000
 Stoichiometry    C7H12O
 Framework group  CS[SG(C3H2O),X(C4H10)]
 Deg. of freedom    30
 Full point group                 CS      NOp   2
 Largest Abelian subgroup         CS      NOp   2
 Largest concise Abelian subgroup CS      NOp   2
                         Standard orientation:                         
 ---------------------------------------------------------------------
 Center     Atomic      Atomic             Coordinates (Angstroms)
 Number     Number       Type             X           Y           Z
 ---------------------------------------------------------------------
      1          8           0       -1.581448    2.155983   -0.000000
      2          6           0       -0.738242    1.278958   -0.000000
      3          6           0       -0.171030    0.689569    1.285583
      4          6           0       -0.171030   -0.854742    1.261099
      5          6           0        0.499906   -1.439172    0.000000
      6          6           0        2.026376   -1.255354    0.000000
      7          6           0       -0.171030   -0.854742   -1.261099
      8          6           0       -0.171030    0.689569   -1.285583
      9          1           0        0.860315    1.056811    1.393954
     10          1           0       -0.746175    1.080403    2.130124
     11          1           0       -1.211574   -1.204508    1.302296
     12          1           0        0.320581   -1.235974    2.165070
     13          1           0        0.307514   -2.521309    0.000000
     14          1           0        2.474424   -1.721836    0.885305
     15          1           0        2.325395   -0.200860    0.000000
     16          1           0        2.474424   -1.721836   -0.885305
     17          1           0       -1.211574   -1.204508   -1.302296
     18          1           0        0.320581   -1.235974   -2.165070
     19          1           0        0.860315    1.056811   -1.393954
     20          1           0       -0.746175    1.080403   -2.130124
 ---------------------------------------------------------------------
 Rotational constants (GHZ):           3.4719304           1.6152128           1.3369374
 Standard basis: 6-31G(d) (6D, 7F)
 There are    88 symmetry adapted cartesian basis functions of A'  symmetry.
 There are    56 symmetry adapted cartesian basis functions of A"  symmetry.
 There are    88 symmetry adapted basis functions of A'  symmetry.
 There are    56 symmetry adapted basis functions of A"  symmetry.
   144 basis functions,   272 primitive gaussians,   144 cartesian basis functions
    31 alpha electrons       31 beta electrons
       nuclear repulsion energy       389.6511919767 Hartrees.
 NAtoms=   20 NActive=   20 NUniq=   13 SFac= 2.37D+00 NAtFMM=   60 NAOKFM=F Big=F
 Integral buffers will be    131072 words long.
 Raffenetti 2 integral format.
 Two-electron integral symmetry is turned on.
 One-electron integrals computed using PRISM.
 NBasis=   144 RedAO= T EigKep=  3.62D-03  NBF=    88    56
 NBsUse=   144 1.00D-06 EigRej= -1.00D+00 NBFU=    88    56
 ExpMin= 1.61D-01 ExpMax= 5.48D+03 ExpMxC= 8.25D+02 IAcc=3 IRadAn=         5 AccDes= 0.00D+00
 Harris functional with IExCor=  402 and IRadAn=       5 diagonalized for initial guess.
 HarFok:  IExCor=  402 AccDes= 0.00D+00 IRadAn=         5 IDoV= 1 UseB2=F ITyADJ=14
 ICtDFT=  3500011 ScaDFX=  1.000000  1.000000  1.000000  1.000000
 FoFCou: FMM=F IPFlag=           0 FMFlag=      100000 FMFlg1=           0
         NFxFlg=           0 DoJE=T BraDBF=F KetDBF=T FulRan=T
         wScrn=  0.000000 ICntrl=       500 IOpCl=  0 I1Cent=   200000004 NGrid=           0
         NMat0=    1 NMatS0=      1 NMatT0=    0 NMatD0=    1 NMtDS0=    0 NMtDT0=    0
 Petite list used in FoFCou.
 Initial guess orbital symmetries:
       Occupied  (A') (A') (A") (A') (A") (A') (A') (A') (A') (A')
                 (A") (A') (A') (A") (A') (A') (A') (A") (A') (A")
                 (A') (A') (A") (A") (A') (A") (A') (A') (A") (A')
                 (A")
       Virtual   (A') (A') (A') (A') (A") (A") (A') (A") (A') (A')
                 (A') (A") (A') (A") (A') (A") (A') (A") (A') (A")
                 (A') (A') (A") (A') (A") (A') (A') (A') (A") (A")
                 (A') (A') (A') (A") (A') (A") (A") (A') (A') (A')
                 (A") (A') (A") (A') (A") (A') (A') (A") (A') (A')
                 (A") (A") (A') (A') (A') (A") (A') (A") (A') (A')
                 (A") (A') (A") (A') (A") (A') (A') (A") (A") (A')
                 (A") (A") (A') (A") (A') (A') (A') (A') (A") (A')
                 (A") (A') (A") (A') (A') (A') (A") (A") (A') (A")
                 (A") (A') (A") (A") (A') (A') (A') (A") (A') (A')
                 (A') (A") (A') (A') (A") (A') (A') (A') (A") (A')
                 (A") (A') (A')
 The electronic state of the initial guess is 1-A'.
 Keep R1 ints in memory in symmetry-blocked form, NReq=81864831.
 Requested convergence on RMS density matrix=1.00D-08 within 128 cycles.
 Requested convergence on MAX density matrix=1.00D-06.
 Requested convergence on             energy=1.00D-06.
 No special actions if energy rises.
 Integral accuracy reduced to 1.0D-05 until final iterations.
 Initial convergence to 1.0D-05 achieved.  Increase integral accuracy.
 SCF Done:  E(RB3LYP) =  -349.203247332     A.U. after   13 cycles
            NFock= 13  Conv=0.63D-08     -V/T= 2.0097
 DoSCS=F DFT=T ScalE2(SS,OS)=  1.000000  1.000000
 Range of M.O.s used for correlation:     1   144
 NBasis=   144 NAE=    31 NBE=    31 NFC=     0 NFV=     0
 NROrb=    144 NOA=    31 NOB=    31 NVA=   113 NVB=   113
 Symmetrizing basis deriv contribution to polar:
 IMax=3 JMax=2 DiffMx= 0.00D+00
 G2DrvN: will do    21 centers at a time, making    1 passes.
 Calling FoFCou, ICntrl=  3107 FMM=F I1Cent=   0 AccDes= 0.00D+00.
 End of G2Drv F.D. properties file   721 does not exist.
 End of G2Drv F.D. properties file   722 does not exist.
 End of G2Drv F.D. properties file   788 does not exist.
          IDoAtm=11111111111111111111
          Differentiating once with respect to electric field.
                with respect to dipole field.
          Differentiating once with respect to nuclear coordinates.
 Keep R1 ints in memory in symmetry-blocked form, NReq=81872926.
          There are    42 degrees of freedom in the 1st order CPHF.  IDoFFX=4 NUNeed=    42.
     42 vectors produced by pass  0 Test12= 8.34D-15 2.38D-09 XBig12= 4.86D+01 2.32D+00.
 AX will form    42 AO Fock derivatives at one time.
     42 vectors produced by pass  1 Test12= 8.34D-15 2.38D-09 XBig12= 8.44D+00 9.55D-01.
     42 vectors produced by pass  2 Test12= 8.34D-15 2.38D-09 XBig12= 8.55D-02 3.47D-02.
     42 vectors produced by pass  3 Test12= 8.34D-15 2.38D-09 XBig12= 5.24D-04 4.68D-03.
     42 vectors produced by pass  4 Test12= 8.34D-15 2.38D-09 XBig12= 9.41D-07 1.21D-04.
     27 vectors produced by pass  5 Test12= 8.34D-15 2.38D-09 XBig12= 8.74D-10 3.27D-06.
      4 vectors produced by pass  6 Test12= 8.34D-15 2.38D-09 XBig12= 6.79D-13 1.07D-07.
      3 vectors produced by pass  7 Test12= 8.34D-15 2.38D-09 XBig12= 6.92D-16 3.76D-09.
 InvSVY:  IOpt=1 It=  1 EMax= 1.78D-15
 Solved reduced A of dimension   244 with    42 vectors.
 Isotropic polarizability for W=    0.000000       71.88 Bohr**3.
 End of Minotr F.D. properties file   721 does not exist.
 End of Minotr F.D. properties file   722 does not exist.
 End of Minotr F.D. properties file   788 does not exist.

 **********************************************************************

            Population analysis using the SCF density.

 **********************************************************************

 Orbital symmetries:
       Occupied  (A') (A') (A') (A") (A') (A") (A') (A') (A') (A')
                 (A") (A') (A') (A") (A') (A') (A') (A") (A') (A")
                 (A') (A') (A") (A") (A') (A") (A') (A') (A") (A')
                 (A")
       Virtual   (A') (A') (A') (A") (A') (A") (A') (A') (A") (A')
                 (A") (A') (A') (A") (A') (A") (A') (A") (A') (A")
                 (A') (A') (A") (A') (A") (A') (A') (A") (A') (A")
                 (A') (A') (A") (A') (A') (A") (A') (A") (A') (A')
                 (A") (A') (A") (A') (A') (A") (A') (A") (A') (A')
                 (A") (A") (A') (A') (A') (A") (A') (A") (A') (A')
                 (A") (A') (A") (A') (A") (A') (A') (A") (A') (A")
                 (A") (A") (A') (A') (A") (A') (A') (A') (A") (A')
                 (A") (A') (A") (A') (A') (A') (A") (A") (A') (A")
                 (A") (A') (A") (A") (A') (A') (A') (A') (A") (A')
                 (A') (A") (A') (A') (A") (A') (A') (A') (A") (A')
                 (A") (A') (A')
 The electronic state is 1-A'.
 Alpha  occ. eigenvalues --  -19.13112 -10.26743 -10.19754 -10.19254 -10.19252
 Alpha  occ. eigenvalues --  -10.18962 -10.18961 -10.18218  -1.02988  -0.83661
 Alpha  occ. eigenvalues --   -0.75372  -0.74888  -0.67665  -0.62757  -0.57135
 Alpha  occ. eigenvalues --   -0.51693  -0.48499  -0.46222  -0.44668  -0.43365
 Alpha  occ. eigenvalues --   -0.42889  -0.41449  -0.38906  -0.38187  -0.37523
 Alpha  occ. eigenvalues --   -0.35554  -0.35435  -0.32602  -0.31912  -0.31545
 Alpha  occ. eigenvalues --   -0.23364
 Alpha virt. eigenvalues --   -0.01116   0.07534   0.09431   0.13127   0.13802
 Alpha virt. eigenvalues --    0.13954   0.14536   0.15784   0.16562   0.17384
 Alpha virt. eigenvalues --    0.17528   0.19567   0.21581   0.21630   0.21687
 Alpha virt. eigenvalues --    0.22305   0.24690   0.26989   0.28561   0.32098
 Alpha virt. eigenvalues --    0.35412   0.48658   0.51332   0.52828   0.53212
 Alpha virt. eigenvalues --    0.53980   0.55780   0.59787   0.61694   0.64050
 Alpha virt. eigenvalues --    0.65268   0.67659   0.70018   0.70826   0.71781
 Alpha virt. eigenvalues --    0.73237   0.74917   0.76600   0.77415   0.82703
 Alpha virt. eigenvalues --    0.84725   0.85305   0.87019   0.88500   0.89125
 Alpha virt. eigenvalues --    0.89511   0.90815   0.92425   0.94191   0.95126
 Alpha virt. eigenvalues --    0.95873   0.96318   0.99566   1.01032   1.03506
 Alpha virt. eigenvalues --    1.10781   1.12414   1.20269   1.20730   1.29776
 Alpha virt. eigenvalues --    1.36231   1.41575   1.41666   1.51794   1.53864
 Alpha virt. eigenvalues --    1.56412   1.63027   1.67545   1.70900   1.71475
 Alpha virt. eigenvalues --    1.77662   1.78823   1.81968   1.82571   1.82841
 Alpha virt. eigenvalues --    1.85547   1.90616   1.94287   1.97186   1.99517
 Alpha virt. eigenvalues --    1.99723   2.02386   2.06362   2.07944   2.12756
 Alpha virt. eigenvalues --    2.14122   2.15719   2.28165   2.28497   2.30763
 Alpha virt. eigenvalues --    2.33028   2.33994   2.40167   2.43527   2.45897
 Alpha virt. eigenvalues --    2.48902   2.53540   2.62001   2.65138   2.65735
 Alpha virt. eigenvalues --    2.71205   2.73671   2.76065   2.98344   3.01446
 Alpha virt. eigenvalues --    3.99646   4.10596   4.21853   4.25886   4.37831
 Alpha virt. eigenvalues --    4.55278   4.57635   4.60746
          Condensed to atoms (all electrons):
               1          2          3          4          5          6
     1  O    7.996386   0.593487  -0.079466   0.001475   0.000052  -0.000005
     2  C    0.593487   4.465209   0.326058  -0.022376  -0.013606  -0.001906
     3  C   -0.079466   0.326058   5.325004   0.326280  -0.038865  -0.003653
     4  C    0.001475  -0.022376   0.326280   5.064835   0.380341  -0.053857
     5  C    0.000052  -0.013606  -0.038865   0.380341   4.885033   0.377874
     6  C   -0.000005  -0.001906  -0.003653  -0.053857   0.377874   5.114945
     7  C    0.001475  -0.022376  -0.005556  -0.049268   0.380341  -0.053857
     8  C   -0.079466   0.326058  -0.140670  -0.005556  -0.038865  -0.003653
     9  H    0.001249  -0.027662   0.348574  -0.035589  -0.004296   0.003268
    10  H    0.004930  -0.024088   0.344943  -0.025334   0.003753   0.000062
    11  H    0.000418  -0.002649  -0.043321   0.372883  -0.035114   0.005618
    12  H   -0.000068   0.003027  -0.029308   0.364487  -0.031910  -0.005718
    13  H    0.000000   0.000271   0.005046  -0.040349   0.374062  -0.045689
    14  H    0.000000   0.000067  -0.000365  -0.003450  -0.029780   0.371528
    15  H    0.000002  -0.000538   0.003183  -0.005830  -0.034421   0.373466
    16  H    0.000000   0.000067  -0.000043   0.004943  -0.029780   0.371528
    17  H    0.000418  -0.002649   0.000341  -0.004083  -0.035114   0.005618
    18  H   -0.000068   0.003027  -0.000260   0.005453  -0.031910  -0.005718
    19  H    0.001249  -0.027662   0.003585  -0.001121  -0.004296   0.003268
    20  H    0.004930  -0.024088   0.006690  -0.000136   0.003753   0.000062
               7          8          9         10         11         12
     1  O    0.001475  -0.079466   0.001249   0.004930   0.000418  -0.000068
     2  C   -0.022376   0.326058  -0.027662  -0.024088  -0.002649   0.003027
     3  C   -0.005556  -0.140670   0.348574   0.344943  -0.043321  -0.029308
     4  C   -0.049268  -0.005556  -0.035589  -0.025334   0.372883   0.364487
     5  C    0.380341  -0.038865  -0.004296   0.003753  -0.035114  -0.031910
     6  C   -0.053857  -0.003653   0.003268   0.000062   0.005618  -0.005718
     7  C    5.064835   0.326280  -0.001121  -0.000136  -0.004083   0.005453
     8  C    0.326280   5.325004   0.003585   0.006690   0.000341  -0.000260
     9  H   -0.001121   0.003585   0.579749  -0.026722   0.005619  -0.006078
    10  H   -0.000136   0.006690  -0.026722   0.559244  -0.003640  -0.002418
    11  H   -0.004083   0.000341   0.005619  -0.003640   0.598628  -0.036081
    12  H    0.005453  -0.000260  -0.006078  -0.002418  -0.036081   0.597604
    13  H   -0.040349   0.005046  -0.000015  -0.000136  -0.005201  -0.002063
    14  H    0.004943  -0.000043   0.000139  -0.000024  -0.000020   0.004498
    15  H   -0.005830   0.003183   0.002510  -0.000069  -0.000034  -0.000170
    16  H   -0.003450  -0.000365  -0.000106   0.000002  -0.000166  -0.000038
    17  H    0.372883  -0.043321   0.000066  -0.000048   0.003913  -0.000061
    18  H    0.364487  -0.029308  -0.000012   0.000016  -0.000061  -0.000189
    19  H   -0.035589   0.348574   0.000314  -0.000123   0.000066  -0.000012
    20  H   -0.025334   0.344943  -0.000123  -0.000178  -0.000048   0.000016
              13         14         15         16         17         18
     1  O    0.000000   0.000000   0.000002   0.000000   0.000418  -0.000068
     2  C    0.000271   0.000067  -0.000538   0.000067  -0.002649   0.003027
     3  C    0.005046  -0.000365   0.003183  -0.000043   0.000341  -0.000260
     4  C   -0.040349  -0.003450  -0.005830   0.004943  -0.004083   0.005453
     5  C    0.374062  -0.029780  -0.034421  -0.029780  -0.035114  -0.031910
     6  C   -0.045689   0.371528   0.373466   0.371528   0.005618  -0.005718
     7  C   -0.040349   0.004943  -0.005830  -0.003450   0.372883   0.364487
     8  C    0.005046  -0.000043   0.003183  -0.000365  -0.043321  -0.029308
     9  H   -0.000015   0.000139   0.002510  -0.000106   0.000066  -0.000012
    10  H   -0.000136  -0.000024  -0.000069   0.000002  -0.000048   0.000016
    11  H   -0.005201  -0.000020  -0.000034  -0.000166   0.003913  -0.000061
    12  H   -0.002063   0.004498  -0.000170  -0.000038  -0.000061  -0.000189
    13  H    0.629473  -0.003679   0.005560  -0.003679  -0.005201  -0.002063
    14  H   -0.003679   0.571442  -0.031597  -0.029490  -0.000166  -0.000038
    15  H    0.005560  -0.031597   0.576636  -0.031597  -0.000034  -0.000170
    16  H   -0.003679  -0.029490  -0.031597   0.571442  -0.000020   0.004498
    17  H   -0.005201  -0.000166  -0.000034  -0.000020   0.598628  -0.036081
    18  H   -0.002063  -0.000038  -0.000170   0.004498  -0.036081   0.597604
    19  H   -0.000015  -0.000106   0.002510   0.000139   0.005619  -0.006078
    20  H   -0.000136   0.000002  -0.000069  -0.000024  -0.003640  -0.002418
              19         20
     1  O    0.001249   0.004930
     2  C   -0.027662  -0.024088
     3  C    0.003585   0.006690
     4  C   -0.001121  -0.000136
     5  C   -0.004296   0.003753
     6  C    0.003268   0.000062
     7  C   -0.035589  -0.025334
     8  C    0.348574   0.344943
     9  H    0.000314  -0.000123
    10  H   -0.000123  -0.000178
    11  H    0.000066  -0.000048
    12  H   -0.000012   0.000016
    13  H   -0.000015  -0.000136
    14  H   -0.000106   0.000002
    15  H    0.002510  -0.000069
    16  H    0.000139  -0.000024
    17  H    0.005619  -0.003640
    18  H   -0.006078  -0.002418
    19  H    0.579749  -0.026722
    20  H   -0.026722   0.559244
 Mulliken charges:
               1
     1  O   -0.446994
     2  C    0.452330
     3  C   -0.348198
     4  C   -0.273749
     5  C   -0.077253
     6  C   -0.453183
     7  C   -0.273749
     8  C   -0.348198
     9  H    0.156649
    10  H    0.163276
    11  H    0.142933
    12  H    0.139289
    13  H    0.129118
    14  H    0.146139
    15  H    0.143308
    16  H    0.146139
    17  H    0.142933
    18  H    0.139289
    19  H    0.156649
    20  H    0.163276
 Sum of Mulliken charges =  -0.00000
 Mulliken charges with hydrogens summed into heavy atoms:
               1
     1  O   -0.446994
     2  C    0.452330
     3  C   -0.028273
     4  C    0.008472
     5  C    0.051864
     6  C   -0.017598
     7  C    0.008472
     8  C   -0.028273
 APT charges:
               1
     1  O   -0.647167
     2  C    0.726960
     3  C   -0.062509
     4  C    0.137421
     5  C    0.121905
     6  C    0.057524
     7  C    0.137421
     8  C   -0.062509
     9  H   -0.006031
    10  H   -0.023107
    11  H   -0.049056
    12  H   -0.052384
    13  H   -0.076565
    14  H   -0.026452
    15  H   -0.018420
    16  H   -0.026452
    17  H   -0.049056
    18  H   -0.052384
    19  H   -0.006031
    20  H   -0.023107
 Sum of APT charges =  -0.00000
 APT charges with hydrogens summed into heavy atoms:
               1
     1  O   -0.647167
     2  C    0.726960
     3  C   -0.091647
     4  C    0.035981
     5  C    0.045340
     6  C   -0.013800
     7  C    0.035981
     8  C   -0.091647
 Electronic spatial extent (au):  <R**2>=            994.6865
 Charge=             -0.0000 electrons
 Dipole moment (field-independent basis, Debye):
    X=              2.0402    Y=             -2.3925    Z=             -0.0000  Tot=              3.1442
 Quadrupole moment (field-independent basis, Debye-Ang):
   XX=            -52.9397   YY=            -55.3766   ZZ=            -47.8850
   XY=              5.6849   XZ=              0.0000   YZ=              0.0000
 Traceless Quadrupole moment (field-independent basis, Debye-Ang):
   XX=             -0.8726   YY=             -3.3095   ZZ=              4.1821
   XY=              5.6849   XZ=              0.0000   YZ=              0.0000
 Octapole moment (field-independent basis, Debye-Ang**2):
  XXX=             -0.7929  YYY=             -8.9707  ZZZ=              0.0000  XYY=             12.2851
  XXY=             -7.2254  XXZ=             -0.0000  XZZ=             -2.0177  YZZ=              3.1454
  YYZ=             -0.0000  XYZ=             -0.0000
 Hexadecapole moment (field-independent basis, Debye-Ang**3):
 XXXX=           -406.3575 YYYY=           -570.2416 ZZZZ=           -362.4354 XXXY=            153.8046
 XXXZ=              0.0000 YYYX=            165.6452 YYYZ=             -0.0000 ZZZX=             -0.0000
 ZZZY=              0.0000 XXYY=           -175.3475 XXZZ=           -123.6352 YYZZ=           -148.4570
 XXYZ=             -0.0000 YYXZ=              0.0000 ZZXY=             40.9758
 N-N= 3.896511919767D+02 E-N=-1.589798826770D+03  KE= 3.458450582509D+02
 Symmetry A'   KE= 2.580239712930D+02
 Symmetry A"   KE= 8.782108695784D+01
  Exact polarizability:  70.390 -10.014  73.365  -0.000  -0.000  71.886
 Approx polarizability: 103.763 -12.271 104.043   0.000  -0.000  96.784
 Calling FoFJK, ICntrl=    100127 FMM=F ISym2X=1 I1Cent= 0 IOpClX= 0 NMat=1 NMatS=1 NMatT=0.
 Full mass-weighted force constant matrix:
 Low frequencies ---   -0.0007   -0.0001    0.0003    3.8166   10.5933   11.8896
 Low frequencies ---   79.9813  170.5745  204.6280
 Diagonal vibrational polarizability:
        9.2613538       7.1093211       4.9853149
 Harmonic frequencies (cm**-1), IR intensities (KM/Mole), Raman scattering
 activities (A**4/AMU), depolarization ratios for plane and unpolarized
 incident light, reduced masses (AMU), force constants (mDyne/A),
 and normal coordinates:
                      1                      2                      3
                     A'                     A"                     A'
 Frequencies --     79.9630               170.5679               204.6278
 Red. masses --      4.3931                 1.9124                 3.1505
 Frc consts  --      0.0166                 0.0328                 0.0777
 IR Inten    --      2.9163                 1.3546                 0.4522
  Atom  AN      X      Y      Z        X      Y      Z        X      Y      Z
     1   8     0.25   0.23   0.00    -0.00   0.00   0.10     0.02  -0.15   0.00
     2   6    -0.01  -0.03  -0.00    -0.00   0.00   0.01     0.15  -0.03   0.00
     3   6    -0.15  -0.12   0.02     0.13   0.01  -0.05     0.13  -0.02   0.01
     4   6    -0.03  -0.11  -0.01    -0.07   0.02  -0.06    -0.11  -0.02  -0.01
     5   6     0.06  -0.02   0.00     0.00  -0.00  -0.01    -0.08   0.01  -0.00
     6   6     0.03   0.22   0.00     0.00  -0.00   0.12    -0.11   0.25   0.00
     7   6    -0.03  -0.11   0.01     0.07  -0.02  -0.06    -0.11  -0.02   0.01
     8   6    -0.15  -0.12  -0.02    -0.13  -0.01  -0.05     0.13  -0.02  -0.01
     9   1    -0.18  -0.05   0.15     0.18  -0.12  -0.19     0.18  -0.18   0.01
    10   1    -0.25  -0.17  -0.02     0.27   0.09   0.01     0.17   0.07   0.00
    11   1    -0.00  -0.20  -0.06    -0.12   0.14  -0.18    -0.16   0.12  -0.10
    12   1    -0.04  -0.09  -0.00    -0.21  -0.06  -0.02    -0.22  -0.13   0.00
    13   1     0.23  -0.05   0.00    -0.00  -0.00  -0.01     0.05  -0.01   0.00
    14   1     0.11   0.29  -0.00    -0.10   0.25   0.31    -0.03   0.33   0.00
    15   1    -0.13   0.26   0.00     0.00  -0.00  -0.16    -0.28   0.30  -0.00
    16   1     0.11   0.29   0.00     0.10  -0.25   0.31    -0.03   0.33  -0.00
    17   1    -0.00  -0.20   0.06     0.12  -0.14  -0.18    -0.16   0.12   0.10
    18   1    -0.04  -0.09   0.00     0.21   0.06  -0.02    -0.22  -0.13  -0.00
    19   1    -0.18  -0.05  -0.15    -0.18   0.12  -0.19     0.18  -0.18  -0.01
    20   1    -0.25  -0.17   0.02    -0.27  -0.09   0.01     0.17   0.07  -0.00
                      4                      5                      6
                     A"                     A"                     A'
 Frequencies --    227.8087               352.1578               376.1446
 Red. masses --      1.1327                 2.0221                 1.9964
 Frc consts  --      0.0346                 0.1477                 0.1664
 IR Inten    --      0.0759                 0.5489                 0.6371
  Atom  AN      X      Y      Z        X      Y      Z        X      Y      Z
     1   8     0.00  -0.00   0.02     0.00  -0.00   0.02    -0.05   0.03   0.00
     2   6     0.00  -0.00  -0.01     0.00  -0.00  -0.05    -0.01   0.06  -0.00
     3   6     0.05   0.01  -0.03    -0.00  -0.07  -0.07     0.01   0.00  -0.03
     4   6    -0.00   0.01  -0.01     0.12  -0.07   0.01    -0.09  -0.01  -0.11
     5   6    -0.00   0.00  -0.00    -0.00   0.00  -0.06     0.12  -0.00  -0.00
     6   6    -0.00   0.00   0.06    -0.00  -0.00   0.16     0.15  -0.04   0.00
     7   6     0.00  -0.01  -0.01    -0.12   0.07   0.01    -0.09  -0.01   0.11
     8   6    -0.05  -0.01  -0.03     0.00   0.07  -0.07     0.01   0.00   0.03
     9   1     0.06  -0.02  -0.08    -0.02   0.00  -0.07     0.04  -0.09  -0.04
    10   1     0.09   0.04  -0.01    -0.01  -0.08  -0.07     0.05  -0.02   0.01
    11   1    -0.01   0.04  -0.02     0.17  -0.18   0.24    -0.13   0.08  -0.44
    12   1    -0.02   0.00  -0.00     0.35   0.04  -0.07    -0.40  -0.09   0.02
    13   1     0.00   0.00  -0.02    -0.00   0.00  -0.14     0.14  -0.00  -0.00
    14   1     0.00  -0.48  -0.19    -0.23   0.09   0.33     0.11  -0.08  -0.00
    15   1    -0.00   0.00   0.64    -0.00  -0.00   0.14     0.23  -0.07   0.00
    16   1    -0.00   0.48  -0.19     0.23  -0.09   0.33     0.11  -0.08   0.00
    17   1     0.01  -0.04  -0.02    -0.17   0.18   0.24    -0.13   0.08   0.44
    18   1     0.02  -0.00  -0.00    -0.35  -0.04  -0.07    -0.40  -0.09  -0.02
    19   1    -0.06   0.02  -0.08     0.02  -0.00  -0.07     0.04  -0.09   0.04
    20   1    -0.09  -0.04  -0.01     0.01   0.08  -0.07     0.05  -0.02  -0.01
                      7                      8                      9
                     A'                     A"                     A"
 Frequencies --    417.6486               443.0437               492.1859
 Red. masses --      2.0151                 3.1997                 3.5484
 Frc consts  --      0.2071                 0.3700                 0.5065
 IR Inten    --      1.7358                 3.3012                 7.8224
  Atom  AN      X      Y      Z        X      Y      Z        X      Y      Z
     1   8     0.04  -0.12   0.00     0.00  -0.00   0.06    -0.00   0.00   0.31
     2   6     0.15  -0.01   0.00    -0.00  -0.00  -0.12    -0.00  -0.00  -0.09
     3   6    -0.06   0.02   0.11    -0.03  -0.12  -0.14    -0.11   0.07  -0.11
     4   6    -0.02   0.04   0.01    -0.09  -0.11   0.14     0.00   0.12  -0.05
     5   6     0.01   0.09   0.00    -0.00   0.00   0.16    -0.00  -0.00   0.02
     6   6     0.03  -0.04  -0.00    -0.00  -0.00  -0.07    -0.00  -0.00  -0.00
     7   6    -0.02   0.04  -0.01     0.09   0.11   0.14    -0.00  -0.12  -0.05
     8   6    -0.06   0.02  -0.11     0.03   0.12  -0.14     0.11  -0.07  -0.11
     9   1    -0.12   0.09   0.48     0.04  -0.27  -0.28    -0.20   0.23   0.14
    10   1    -0.39  -0.05  -0.08     0.12   0.10  -0.15    -0.39   0.02  -0.28
    11   1    -0.02   0.04  -0.09    -0.07  -0.16   0.12     0.01   0.08  -0.03
    12   1    -0.08  -0.04   0.01    -0.09   0.03   0.20    -0.00   0.19  -0.01
    13   1    -0.03   0.10   0.00    -0.00   0.00  -0.00    -0.00  -0.00   0.15
    14   1    -0.03  -0.10  -0.00     0.24   0.01  -0.19    -0.00   0.00  -0.00
    15   1     0.15  -0.07  -0.00     0.00  -0.00  -0.18    -0.00  -0.00   0.01
    16   1    -0.03  -0.10   0.00    -0.24  -0.01  -0.19     0.00  -0.00  -0.00
    17   1    -0.02   0.04   0.09     0.07   0.16   0.12    -0.01  -0.08  -0.03
    18   1    -0.08  -0.04  -0.01     0.09  -0.03   0.20     0.00  -0.19  -0.01
    19   1    -0.12   0.09  -0.48    -0.04   0.27  -0.28     0.20  -0.23   0.14
    20   1    -0.39  -0.05   0.08    -0.12  -0.10  -0.15     0.39  -0.02  -0.28
                     10                     11                     12
                     A'                     A'                     A'
 Frequencies --    568.1070               691.3967               762.0282
 Red. masses --      2.8754                 3.0730                 2.4585
 Frc consts  --      0.5468                 0.8655                 0.8411
 IR Inten    --      0.9749                 1.7313                 7.8837
  Atom  AN      X      Y      Z        X      Y      Z        X      Y      Z
     1   8     0.11  -0.03  -0.00    -0.13   0.07   0.00    -0.01   0.06   0.00
     2   6    -0.10  -0.21   0.00     0.06   0.22   0.00    -0.16  -0.08   0.00
     3   6    -0.02  -0.04   0.01     0.02  -0.02   0.11     0.06   0.04   0.17
     4   6    -0.07   0.04   0.09    -0.07  -0.11   0.13     0.03  -0.00   0.08
     5   6     0.00   0.24  -0.00    -0.00   0.04  -0.00     0.02  -0.09  -0.00
     6   6     0.08   0.01  -0.00     0.10   0.01   0.00     0.01  -0.03   0.00
     7   6    -0.07   0.04  -0.09    -0.07  -0.11  -0.13     0.03  -0.00  -0.08
     8   6    -0.02  -0.04  -0.01     0.02  -0.02  -0.11     0.06   0.04  -0.17
     9   1     0.05  -0.13  -0.34     0.13  -0.33   0.11     0.01   0.24   0.05
    10   1     0.22   0.21   0.06     0.16   0.09   0.16     0.06  -0.00   0.19
    11   1    -0.05  -0.01   0.04    -0.02  -0.24   0.26    -0.06   0.25  -0.19
    12   1    -0.04  -0.03   0.04     0.13  -0.07   0.04    -0.27  -0.29   0.13
    13   1     0.06   0.23  -0.00     0.16   0.01   0.00    -0.09  -0.07   0.00
    14   1    -0.08  -0.17  -0.01     0.02  -0.08  -0.01     0.12   0.10   0.01
    15   1     0.46  -0.10   0.00     0.29  -0.04   0.00    -0.24   0.05   0.00
    16   1    -0.08  -0.17   0.01     0.02  -0.08   0.01     0.12   0.10  -0.01
    17   1    -0.05  -0.01  -0.04    -0.02  -0.24  -0.26    -0.06   0.25   0.19
    18   1    -0.04  -0.03  -0.04     0.13  -0.07  -0.04    -0.27  -0.29  -0.13
    19   1     0.05  -0.13   0.34     0.13  -0.33  -0.11     0.01   0.24  -0.05
    20   1     0.22   0.21  -0.06     0.16   0.09  -0.16     0.06  -0.00  -0.19
                     13                     14                     15
                     A"                     A'                     A"
 Frequencies --    765.3181               771.9537               886.3580
 Red. masses --      1.5424                 2.7031                 2.3615
 Frc consts  --      0.5323                 0.9490                 1.0931
 IR Inten    --      2.4418                 0.4445                 3.9118
  Atom  AN      X      Y      Z        X      Y      Z        X      Y      Z
     1   8     0.00  -0.00  -0.02    -0.05   0.05  -0.00     0.00  -0.00  -0.03
     2   6    -0.00  -0.00  -0.08    -0.05   0.04  -0.00     0.00   0.00   0.08
     3   6     0.10  -0.03  -0.01     0.06  -0.08   0.06    -0.02  -0.14  -0.03
     4   6     0.06  -0.04   0.03     0.09  -0.03  -0.11     0.07   0.09  -0.10
     5   6     0.00  -0.00   0.05    -0.00   0.20   0.00     0.00   0.00   0.16
     6   6     0.00  -0.00   0.01    -0.17   0.02   0.00    -0.00  -0.00   0.06
     7   6    -0.06   0.04   0.03     0.09  -0.03   0.11    -0.07  -0.09  -0.10
     8   6    -0.10   0.03  -0.01     0.06  -0.08  -0.06     0.02   0.14  -0.03
     9   1    -0.02   0.20   0.34     0.03  -0.02   0.09    -0.03  -0.07  -0.09
    10   1    -0.25  -0.18  -0.18     0.05  -0.28   0.15     0.08  -0.38   0.15
    11   1    -0.02   0.18  -0.22     0.09  -0.03  -0.21     0.08   0.07  -0.12
    12   1    -0.23  -0.20   0.12     0.07  -0.23  -0.19     0.01   0.17  -0.03
    13   1    -0.00  -0.00  -0.03     0.04   0.19  -0.00     0.00   0.00   0.46
    14   1     0.02   0.01   0.00    -0.34  -0.15  -0.01     0.28  -0.00  -0.08
    15   1    -0.00   0.00  -0.00     0.16  -0.07  -0.00    -0.00  -0.00  -0.09
    16   1    -0.02  -0.01   0.00    -0.34  -0.15   0.01    -0.28   0.00  -0.08
    17   1     0.02  -0.18  -0.22     0.09  -0.03   0.21    -0.08  -0.07  -0.12
    18   1     0.23   0.20   0.12     0.07  -0.23   0.19    -0.01  -0.17  -0.03
    19   1     0.02  -0.20   0.34     0.03  -0.02  -0.09     0.03   0.07  -0.09
    20   1     0.25   0.18  -0.18     0.05  -0.28  -0.15    -0.08   0.38   0.15
                     16                     17                     18
                     A"                     A'                     A'
 Frequencies --    941.3259               959.6000               971.9378
 Red. masses --      1.3735                 2.1207                 1.6083
 Frc consts  --      0.7171                 1.1505                 0.8951
 IR Inten    --      0.0083                 1.9102                 0.8587
  Atom  AN      X      Y      Z        X      Y      Z        X      Y      Z
     1   8    -0.00   0.00  -0.01    -0.00   0.01  -0.00    -0.02   0.04   0.00
     2   6     0.00  -0.00  -0.03    -0.04  -0.02  -0.00    -0.04  -0.01   0.00
     3   6     0.08   0.00   0.01     0.02  -0.08   0.06     0.08  -0.03  -0.08
     4   6    -0.09   0.00  -0.04    -0.04   0.10  -0.09    -0.02  -0.02   0.05
     5   6     0.00  -0.00   0.01    -0.13  -0.00   0.00    -0.08  -0.01  -0.00
     6   6    -0.00   0.00   0.05     0.15  -0.02   0.00     0.06   0.07  -0.00
     7   6     0.09  -0.00  -0.04    -0.04   0.10   0.09    -0.02  -0.02  -0.05
     8   6    -0.08  -0.00   0.01     0.02  -0.08  -0.06     0.08  -0.03   0.08
     9   1     0.08  -0.12   0.34     0.03  -0.13   0.10    -0.05   0.28   0.15
    10   1    -0.13  -0.05  -0.10     0.06  -0.28   0.17    -0.21  -0.24  -0.18
    11   1    -0.04  -0.08   0.33    -0.02   0.09   0.21    -0.11   0.25   0.15
    12   1     0.26   0.11  -0.18     0.18   0.13  -0.19    -0.05  -0.07   0.05
    13   1     0.00  -0.00  -0.03    -0.37   0.04  -0.00     0.17  -0.05   0.00
    14   1     0.27   0.00  -0.08     0.28   0.13   0.02    -0.09  -0.13  -0.03
    15   1     0.00  -0.00  -0.12    -0.09   0.05  -0.00     0.42  -0.04   0.00
    16   1    -0.27  -0.00  -0.08     0.28   0.13  -0.02    -0.09  -0.13   0.03
    17   1     0.04   0.08   0.33    -0.02   0.09  -0.21    -0.11   0.25  -0.15
    18   1    -0.26  -0.11  -0.18     0.18   0.13   0.19    -0.05  -0.07  -0.05
    19   1    -0.08   0.12   0.34     0.03  -0.13  -0.10    -0.05   0.28  -0.15
    20   1     0.13   0.05  -0.10     0.06  -0.28  -0.17    -0.21  -0.24   0.18
                     19                     20                     21
                     A"                     A'                     A'
 Frequencies --   1011.3124              1017.2939              1071.0321
 Red. masses --      1.7113                 2.4723                 1.5929
 Frc consts  --      1.0312                 1.5075                 1.0766
 IR Inten    --      1.0916                 0.6849                 0.2850
  Atom  AN      X      Y      Z        X      Y      Z        X      Y      Z
     1   8     0.00  -0.00   0.02     0.04  -0.02  -0.00    -0.02   0.01   0.00
     2   6    -0.00  -0.00   0.01    -0.04  -0.07   0.00     0.02   0.03  -0.00
     3   6    -0.03   0.09   0.00     0.01   0.15   0.06     0.00   0.01  -0.06
     4   6     0.05  -0.10  -0.05    -0.04  -0.09  -0.13     0.03  -0.07   0.02
     5   6    -0.00  -0.00   0.05    -0.08  -0.06  -0.00    -0.09   0.13   0.00
     6   6     0.00   0.00   0.12     0.05   0.05  -0.00     0.06  -0.06   0.00
     7   6    -0.05   0.10  -0.05    -0.04  -0.09   0.13     0.03  -0.07  -0.02
     8   6     0.03  -0.09   0.00     0.01   0.15  -0.06     0.00   0.01   0.06
     9   1    -0.05   0.23  -0.19     0.00   0.19  -0.05    -0.03   0.11  -0.06
    10   1     0.03   0.13   0.03    -0.00   0.21   0.03    -0.08   0.15  -0.18
    11   1     0.03  -0.05  -0.09    -0.01  -0.13   0.16     0.01  -0.04  -0.11
    12   1     0.02  -0.23  -0.09     0.26  -0.19  -0.34     0.01  -0.36  -0.10
    13   1     0.00  -0.00  -0.11     0.18  -0.11  -0.00    -0.43   0.19   0.00
    14   1     0.49   0.01  -0.13    -0.06  -0.11  -0.02     0.23   0.17   0.04
    15   1     0.00  -0.00  -0.20     0.32  -0.02   0.00    -0.29   0.05  -0.00
    16   1    -0.49  -0.01  -0.13    -0.06  -0.11   0.02     0.23   0.17  -0.04
    17   1    -0.03   0.05  -0.09    -0.01  -0.13  -0.16     0.01  -0.04   0.11
    18   1    -0.02   0.23  -0.09     0.26  -0.19   0.34     0.01  -0.36   0.10
    19   1     0.05  -0.23  -0.19     0.00   0.19   0.05    -0.03   0.11   0.06
    20   1    -0.03  -0.13   0.03    -0.00   0.21  -0.03    -0.08   0.15   0.18
                     22                     23                     24
                     A"                     A"                     A'
 Frequencies --   1090.9099              1147.1946              1154.0511
 Red. masses --      1.2378                 1.5810                 2.1538
 Frc consts  --      0.8679                 1.2259                 1.6900
 IR Inten    --      9.1556                24.2112                 0.0673
  Atom  AN      X      Y      Z        X      Y      Z        X      Y      Z
     1   8     0.00  -0.00   0.01    -0.00   0.00  -0.01    -0.01   0.05  -0.00
     2   6    -0.00  -0.00  -0.09    -0.00  -0.00   0.11    -0.11  -0.09   0.00
     3   6    -0.00   0.02   0.04     0.02   0.08  -0.05     0.12   0.03  -0.02
     4   6     0.03  -0.01  -0.03     0.01  -0.07  -0.04    -0.10  -0.02  -0.01
     5   6     0.00  -0.00   0.07     0.00   0.00   0.07     0.13   0.08   0.00
     6   6    -0.00  -0.00  -0.02    -0.00  -0.00  -0.02    -0.05  -0.08  -0.00
     7   6    -0.03   0.01  -0.03    -0.01   0.07  -0.04    -0.10  -0.02   0.01
     8   6     0.00  -0.02   0.04    -0.02  -0.08  -0.05     0.12   0.03   0.02
     9   1     0.10  -0.30   0.14     0.05  -0.07   0.16     0.10  -0.05   0.35
    10   1     0.01   0.25  -0.06    -0.02  -0.12   0.02    -0.17  -0.00  -0.20
    11   1     0.12  -0.30  -0.22     0.08  -0.29  -0.14     0.00  -0.28   0.11
    12   1     0.05  -0.13  -0.09    -0.11   0.45   0.25     0.12   0.21  -0.03
    13   1     0.00   0.00   0.48     0.00   0.00  -0.25     0.12   0.08   0.00
    14   1    -0.10  -0.01   0.03    -0.09   0.01   0.03     0.07   0.11   0.04
    15   1    -0.00  -0.00   0.06    -0.00   0.00   0.04    -0.38   0.01   0.00
    16   1     0.10   0.01   0.03     0.09  -0.01   0.03     0.07   0.11  -0.04
    17   1    -0.12   0.30  -0.22    -0.08   0.29  -0.14     0.00  -0.28  -0.11
    18   1    -0.05   0.13  -0.09     0.11  -0.45   0.25     0.12   0.21   0.03
    19   1    -0.10   0.30   0.14    -0.05   0.07   0.16     0.10  -0.05  -0.35
    20   1    -0.01  -0.25  -0.06     0.02   0.12   0.02    -0.17  -0.00   0.20
                     25                     26                     27
                     A"                     A'                     A"
 Frequencies --   1192.4189              1246.8226              1258.5607
 Red. masses --      1.4979                 1.3134                 1.7896
 Frc consts  --      1.2549                 1.2030                 1.6702
 IR Inten    --     12.5514                 1.4775                18.6226
  Atom  AN      X      Y      Z        X      Y      Z        X      Y      Z
     1   8    -0.00  -0.00  -0.01     0.02  -0.04   0.00     0.00  -0.00  -0.04
     2   6     0.00   0.00   0.07     0.05   0.05  -0.00     0.00   0.00   0.23
     3   6     0.03   0.02  -0.03    -0.01   0.01   0.00     0.02  -0.06  -0.04
     4   6    -0.06  -0.06  -0.03    -0.05  -0.03   0.00     0.01   0.01   0.02
     5   6    -0.00  -0.00   0.11     0.06   0.07   0.00     0.00   0.00  -0.07
     6   6     0.00   0.00  -0.08    -0.01  -0.06  -0.00     0.00  -0.00   0.03
     7   6     0.06   0.06  -0.03    -0.05  -0.03  -0.00    -0.01  -0.01   0.02
     8   6    -0.03  -0.02  -0.03    -0.01   0.01  -0.00    -0.02   0.06  -0.04
     9   1    -0.08   0.37  -0.13    -0.12   0.38  -0.23    -0.02   0.01   0.00
    10   1    -0.04  -0.11  -0.02     0.11  -0.30   0.23    -0.20   0.45  -0.43
    11   1    -0.06  -0.04   0.16    -0.09   0.09   0.17     0.01   0.01  -0.06
    12   1     0.14  -0.17  -0.18     0.04   0.02  -0.02    -0.01   0.00   0.02
    13   1    -0.00  -0.00   0.46     0.28   0.03   0.00    -0.00   0.00   0.23
    14   1    -0.27   0.02   0.07     0.05   0.08   0.04     0.07  -0.02  -0.02
    15   1     0.00  -0.00   0.17    -0.25   0.01  -0.00    -0.00   0.00  -0.07
    16   1     0.27  -0.02   0.07     0.05   0.08  -0.04    -0.07   0.02  -0.02
    17   1     0.06   0.04   0.16    -0.09   0.09  -0.17    -0.01  -0.01  -0.06
    18   1    -0.14   0.17  -0.18     0.04   0.02   0.02     0.01  -0.00   0.02
    19   1     0.08  -0.37  -0.13    -0.12   0.38   0.23     0.02  -0.01   0.00
    20   1     0.04   0.11  -0.02     0.11  -0.30  -0.23     0.20  -0.45  -0.43
                     28                     29                     30
                     A'                     A'                     A"
 Frequencies --   1290.2010              1348.5469              1349.6785
 Red. masses --      1.3324                 1.3596                 1.3860
 Frc consts  --      1.3068                 1.4568                 1.4876
 IR Inten    --      0.6323                 0.3337                 6.4206
  Atom  AN      X      Y      Z        X      Y      Z        X      Y      Z
     1   8    -0.03   0.02  -0.00     0.02  -0.01  -0.00    -0.00   0.00  -0.01
     2   6     0.01   0.02   0.00    -0.03  -0.03   0.00     0.00   0.00   0.07
     3   6    -0.01  -0.08   0.02    -0.04   0.08  -0.04    -0.05   0.06  -0.06
     4   6    -0.01   0.06  -0.01     0.04  -0.02   0.01     0.04  -0.04  -0.01
     5   6     0.07  -0.02  -0.00    -0.05   0.04  -0.00     0.00  -0.00   0.05
     6   6    -0.02  -0.03   0.00    -0.00  -0.05   0.00     0.00   0.00  -0.02
     7   6    -0.01   0.06   0.01     0.04  -0.02  -0.01    -0.04   0.04  -0.01
     8   6    -0.01  -0.08  -0.02    -0.04   0.08   0.04     0.05  -0.06  -0.06
     9   1    -0.02  -0.02  -0.06     0.10  -0.41   0.17     0.08  -0.41   0.16
    10   1    -0.08   0.32  -0.21     0.03  -0.18   0.12    -0.01  -0.04   0.02
    11   1    -0.08   0.28   0.17    -0.06   0.27   0.04    -0.11   0.44   0.17
    12   1     0.14  -0.27  -0.23    -0.01  -0.12  -0.01     0.02  -0.20  -0.07
    13   1     0.36  -0.07   0.00     0.47  -0.05   0.00    -0.00   0.00  -0.01
    14   1    -0.00   0.01   0.01     0.08   0.08   0.03    -0.06   0.01   0.02
    15   1    -0.13  -0.00  -0.00    -0.11  -0.01  -0.00     0.00   0.00   0.06
    16   1    -0.00   0.01  -0.01     0.08   0.08  -0.03     0.06  -0.01   0.02
    17   1    -0.08   0.28  -0.17    -0.06   0.27  -0.04     0.11  -0.44   0.17
    18   1     0.14  -0.27   0.23    -0.01  -0.12   0.01    -0.02   0.20  -0.07
    19   1    -0.02  -0.02   0.06     0.10  -0.41  -0.17    -0.08   0.41   0.16
    20   1    -0.08   0.32   0.21     0.03  -0.18  -0.12     0.01   0.04   0.02
                     31                     32                     33
                     A"                     A"                     A'
 Frequencies --   1362.4978              1391.4909              1395.2291
 Red. masses --      1.7872                 1.4132                 1.5078
 Frc consts  --      1.9547                 1.6122                 1.7294
 IR Inten    --      2.8109                 6.3489                 4.3950
  Atom  AN      X      Y      Z        X      Y      Z        X      Y      Z
     1   8    -0.00   0.00  -0.00    -0.00   0.00   0.01    -0.01   0.02  -0.00
     2   6     0.00   0.00   0.04    -0.00  -0.00  -0.07     0.00  -0.01   0.00
     3   6    -0.00   0.06  -0.08    -0.00  -0.01   0.05     0.00  -0.03   0.05
     4   6    -0.02   0.00   0.09     0.02  -0.09  -0.04     0.04  -0.09  -0.07
     5   6     0.00  -0.00  -0.17     0.00   0.00  -0.08    -0.06   0.06   0.00
     6   6     0.00   0.00   0.05     0.00   0.00   0.01     0.04  -0.02  -0.00
     7   6     0.02  -0.00   0.09    -0.02   0.09  -0.04     0.04  -0.09   0.07
     8   6     0.00  -0.06  -0.08     0.00   0.01   0.05     0.00  -0.03  -0.05
     9   1     0.02  -0.05   0.12    -0.01   0.04  -0.03    -0.00   0.02  -0.05
    10   1     0.06  -0.36   0.16     0.02   0.09   0.02    -0.04   0.27  -0.11
    11   1     0.03  -0.18  -0.12    -0.09   0.25   0.21    -0.07   0.27   0.12
    12   1    -0.02  -0.15   0.02    -0.14   0.33   0.23    -0.13   0.43   0.24
    13   1    -0.00   0.00   0.61    -0.00   0.00   0.58     0.10   0.04  -0.00
    14   1     0.10  -0.06  -0.04     0.02  -0.02  -0.01    -0.08   0.04   0.08
    15   1     0.00   0.00  -0.16    -0.00   0.00  -0.05    -0.15   0.03   0.00
    16   1    -0.10   0.06  -0.04    -0.02   0.02  -0.01    -0.08   0.04  -0.08
    17   1    -0.03   0.18  -0.12     0.09  -0.25   0.21    -0.07   0.27  -0.12
    18   1     0.02   0.15   0.02     0.14  -0.33   0.23    -0.13   0.43  -0.24
    19   1    -0.02   0.05   0.12     0.01  -0.04  -0.03    -0.00   0.02   0.05
    20   1    -0.06   0.36   0.16    -0.02  -0.09   0.02    -0.04   0.27   0.11
                     34                     35                     36
                     A'                     A'                     A"
 Frequencies --   1403.9952              1444.1725              1492.6896
 Red. masses --      1.3507                 1.2645                 1.0893
 Frc consts  --      1.5687                 1.5538                 1.4300
 IR Inten    --      7.9168                 8.9332                 7.4567
  Atom  AN      X      Y      Z        X      Y      Z        X      Y      Z
     1   8    -0.01   0.00   0.00    -0.00   0.00  -0.00     0.00  -0.00   0.00
     2   6     0.01   0.01  -0.00     0.00  -0.00   0.00    -0.00   0.00   0.00
     3   6     0.02  -0.03   0.02    -0.00   0.00   0.01    -0.02  -0.03  -0.04
     4   6     0.01   0.04   0.01    -0.00  -0.03  -0.01    -0.00  -0.01   0.00
     5   6    -0.15   0.01  -0.00     0.05   0.01   0.00     0.00  -0.00   0.00
     6   6    -0.02  -0.05   0.00    -0.14  -0.00  -0.00     0.00   0.00  -0.01
     7   6     0.01   0.04  -0.01    -0.00  -0.03   0.01     0.00   0.01   0.00
     8   6     0.02  -0.03  -0.02    -0.00   0.00  -0.01     0.02   0.03  -0.04
     9   1    -0.02   0.13  -0.07     0.01  -0.02  -0.06    -0.14   0.20   0.40
    10   1    -0.03   0.06  -0.06    -0.06   0.00  -0.03     0.41   0.22   0.15
    11   1     0.11  -0.29  -0.23    -0.06   0.15   0.05    -0.02   0.04  -0.05
    12   1    -0.03   0.07   0.03     0.03   0.08   0.01     0.06   0.03  -0.02
    13   1     0.67  -0.14   0.00    -0.16   0.05  -0.00    -0.00   0.00  -0.00
    14   1     0.21   0.12  -0.02     0.47   0.12  -0.22     0.05   0.09   0.01
    15   1     0.08  -0.06  -0.00     0.51  -0.17   0.00     0.00  -0.00   0.14
    16   1     0.21   0.12   0.02     0.47   0.12   0.22    -0.05  -0.09   0.01
    17   1     0.11  -0.29   0.23    -0.06   0.15  -0.05     0.02  -0.04  -0.05
    18   1    -0.03   0.07  -0.03     0.03   0.08  -0.01    -0.06  -0.03  -0.02
    19   1    -0.02   0.13   0.07     0.01  -0.02   0.06     0.14  -0.20   0.40
    20   1    -0.03   0.06   0.06    -0.06   0.00   0.03    -0.41  -0.22   0.15
                     37                     38                     39
                     A'                     A"                     A'
 Frequencies --   1502.5637              1517.9773              1525.9124
 Red. masses --      1.0791                 1.0897                 1.0711
 Frc consts  --      1.4354                 1.4794                 1.4694
 IR Inten    --      7.9735                 6.8710                 4.0378
  Atom  AN      X      Y      Z        X      Y      Z        X      Y      Z
     1   8     0.00  -0.00   0.00     0.00  -0.00   0.00     0.00  -0.00   0.00
     2   6    -0.01  -0.01  -0.00    -0.00   0.00  -0.01    -0.01  -0.00   0.00
     3   6    -0.02  -0.03  -0.04     0.00   0.00   0.01    -0.01  -0.01  -0.02
     4   6    -0.00  -0.01   0.00    -0.02  -0.04   0.04     0.01   0.02  -0.03
     5   6    -0.01   0.01   0.00     0.00  -0.00   0.00     0.01  -0.01   0.00
     6   6    -0.01   0.01   0.00     0.00  -0.00   0.00    -0.01  -0.04   0.00
     7   6    -0.00  -0.01  -0.00     0.02   0.04   0.04     0.01   0.02   0.03
     8   6    -0.02  -0.03   0.04    -0.00  -0.00   0.01    -0.01  -0.01   0.02
     9   1    -0.13   0.18   0.40     0.02  -0.02  -0.06    -0.05   0.06   0.16
    10   1     0.38   0.21   0.14    -0.05  -0.03  -0.01     0.15   0.08   0.05
    11   1    -0.03   0.07  -0.09    -0.12   0.24  -0.42     0.07  -0.12   0.28
    12   1     0.09   0.06  -0.03     0.42   0.22  -0.11    -0.26  -0.14   0.07
    13   1     0.04  -0.00  -0.00    -0.00  -0.00   0.02    -0.04   0.00   0.00
    14   1     0.11  -0.14  -0.13    -0.01  -0.01   0.00    -0.10   0.34   0.24
    15   1    -0.07   0.02  -0.00     0.00  -0.00  -0.02     0.32  -0.11  -0.00
    16   1     0.11  -0.14   0.13     0.01   0.01   0.00    -0.10   0.34  -0.24
    17   1    -0.03   0.07   0.09     0.12  -0.24  -0.42     0.07  -0.12  -0.28
    18   1     0.09   0.06   0.03    -0.42  -0.22  -0.11    -0.26  -0.14  -0.07
    19   1    -0.13   0.18  -0.40    -0.02   0.02  -0.06    -0.05   0.06  -0.16
    20   1     0.38   0.21  -0.14     0.05   0.03  -0.01     0.15   0.08  -0.05
                     40                     41                     42
                     A"                     A'                     A'
 Frequencies --   1535.7673              1537.2886              1817.6572
 Red. masses --      1.0535                 1.0682                10.9848
 Frc consts  --      1.4640                 1.4874                21.3829
 IR Inten    --      1.1260                 6.4009               193.3500
  Atom  AN      X      Y      Z        X      Y      Z        X      Y      Z
     1   8    -0.00   0.00  -0.00     0.00  -0.00  -0.00     0.34  -0.35  -0.00
     2   6     0.00  -0.00   0.00    -0.00   0.00  -0.00    -0.53   0.54   0.00
     3   6     0.01   0.01   0.01     0.00   0.00  -0.00     0.04  -0.04   0.01
     4   6     0.00   0.00   0.01     0.02   0.02  -0.03     0.01  -0.01   0.00
     5   6     0.00  -0.00  -0.04    -0.01   0.02  -0.00     0.00   0.00   0.00
     6   6     0.00  -0.00  -0.05    -0.01   0.03  -0.00    -0.00   0.00   0.00
     7   6    -0.00  -0.00   0.01     0.02   0.02   0.03     0.01  -0.01  -0.00
     8   6    -0.01  -0.01   0.01     0.00   0.00   0.00     0.04  -0.04  -0.01
     9   1     0.03  -0.05  -0.08     0.01  -0.02  -0.02     0.03  -0.09   0.06
    10   1    -0.08  -0.05  -0.03    -0.02  -0.00  -0.01    -0.14   0.16  -0.17
    11   1     0.01  -0.02  -0.01     0.08  -0.15   0.33    -0.02   0.05  -0.01
    12   1    -0.01   0.01   0.02    -0.32  -0.14   0.10     0.02   0.02   0.02
    13   1    -0.00  -0.00   0.06     0.06   0.02   0.00    -0.02   0.00  -0.00
    14   1     0.27   0.40   0.05     0.17  -0.31  -0.26     0.00   0.00   0.00
    15   1     0.00  -0.00   0.70    -0.25   0.08   0.00     0.01  -0.00  -0.00
    16   1    -0.27  -0.40   0.05     0.17  -0.31   0.26     0.00   0.00  -0.00
    17   1    -0.01   0.02  -0.01     0.08  -0.15  -0.33    -0.02   0.05   0.01
    18   1     0.01  -0.01   0.02    -0.32  -0.14  -0.10     0.02   0.02  -0.02
    19   1    -0.03   0.05  -0.08     0.01  -0.02   0.02     0.03  -0.09  -0.06
    20   1     0.08   0.05  -0.03    -0.02  -0.00   0.01    -0.14   0.16   0.17
                     43                     44                     45
                     A'                     A"                     A'
 Frequencies --   3022.5737              3029.0008              3034.1694
 Red. masses --      1.0781                 1.0690                 1.0680
 Frc consts  --      5.8029                 5.7786                 5.7929
 IR Inten    --      8.5887                 6.1098                 2.9555
  Atom  AN      X      Y      Z        X      Y      Z        X      Y      Z
     1   8    -0.00   0.00   0.00    -0.00  -0.00  -0.00     0.00  -0.00  -0.00
     2   6    -0.00  -0.00   0.00     0.00   0.00   0.00    -0.00  -0.00   0.00
     3   6    -0.01  -0.00  -0.00    -0.04  -0.02  -0.02    -0.04  -0.02  -0.02
     4   6     0.02   0.01  -0.01     0.02   0.01  -0.00     0.01   0.00   0.00
     5   6    -0.01  -0.07   0.00     0.00   0.00   0.00     0.00   0.02   0.00
     6   6     0.00   0.01  -0.00    -0.00  -0.00  -0.00     0.01   0.00   0.00
     7   6     0.02   0.01   0.01    -0.02  -0.01  -0.00     0.01   0.00  -0.00
     8   6    -0.01  -0.00   0.00     0.04   0.02  -0.02    -0.04  -0.02   0.02
     9   1     0.12   0.04   0.01     0.60   0.20   0.06     0.59   0.20   0.06
    10   1    -0.01   0.00   0.01    -0.10   0.05   0.12    -0.10   0.06   0.13
    11   1    -0.28  -0.09   0.00    -0.25  -0.08   0.01    -0.08  -0.03   0.00
    12   1     0.09  -0.06   0.15     0.03  -0.02   0.04    -0.03   0.02  -0.06
    13   1     0.15   0.82  -0.00    -0.00  -0.00  -0.00    -0.04  -0.24  -0.00
    14   1     0.00  -0.00   0.01     0.00  -0.00   0.00    -0.05   0.06  -0.11
    15   1    -0.03  -0.11  -0.00     0.00   0.00   0.00    -0.04  -0.16   0.00
    16   1     0.00  -0.00  -0.01    -0.00   0.00   0.00    -0.05   0.06   0.11
    17   1    -0.28  -0.09  -0.00     0.25   0.08   0.01    -0.08  -0.03  -0.00
    18   1     0.09  -0.06  -0.15    -0.03   0.02   0.04    -0.03   0.02   0.06
    19   1     0.12   0.04  -0.01    -0.60  -0.20   0.06     0.59   0.20  -0.06
    20   1    -0.01   0.00  -0.01     0.10  -0.05   0.12    -0.10   0.06  -0.13
                     46                     47                     48
                     A"                     A'                     A'
 Frequencies --   3036.0075              3043.8891              3048.5059
 Red. masses --      1.0607                 1.0556                 1.0491
 Frc consts  --      5.7603                 5.7623                 5.7445
 IR Inten    --     22.9919                78.1926                17.4938
  Atom  AN      X      Y      Z        X      Y      Z        X      Y      Z
     1   8     0.00  -0.00   0.00     0.00  -0.00  -0.00    -0.00   0.00   0.00
     2   6    -0.00   0.00  -0.00    -0.00   0.00   0.00     0.00  -0.00  -0.00
     3   6    -0.01  -0.01  -0.01    -0.01  -0.01  -0.01    -0.01  -0.00   0.00
     4   6    -0.03  -0.02   0.03    -0.02  -0.02   0.02     0.02   0.01  -0.01
     5   6     0.00   0.00  -0.00    -0.00  -0.03  -0.00     0.01   0.02   0.00
     6   6    -0.00  -0.00  -0.00    -0.03   0.01  -0.00    -0.04  -0.01   0.00
     7   6     0.03   0.02   0.03    -0.02  -0.02  -0.02     0.02   0.01   0.01
     8   6     0.01   0.01  -0.01    -0.01  -0.01   0.01    -0.01  -0.00  -0.00
     9   1     0.21   0.07   0.02     0.16   0.05   0.01     0.07   0.02   0.01
    10   1    -0.06   0.03   0.08    -0.05   0.03   0.07     0.01  -0.00  -0.01
    11   1     0.50   0.16  -0.01     0.34   0.11  -0.01    -0.31  -0.10   0.01
    12   1    -0.19   0.13  -0.32    -0.15   0.11  -0.27     0.09  -0.06   0.15
    13   1    -0.00  -0.00   0.00     0.06   0.35   0.00    -0.05  -0.28   0.00
    14   1     0.00  -0.00   0.01     0.14  -0.16   0.30     0.17  -0.19   0.36
    15   1     0.00   0.00  -0.00     0.06   0.25  -0.00     0.11   0.45   0.00
    16   1    -0.00   0.00   0.01     0.14  -0.16  -0.30     0.17  -0.19  -0.36
    17   1    -0.50  -0.16  -0.01     0.34   0.11   0.01    -0.31  -0.10  -0.01
    18   1     0.19  -0.13  -0.32    -0.15   0.11   0.27     0.09  -0.06  -0.15
    19   1    -0.21  -0.07   0.02     0.16   0.05  -0.01     0.07   0.02  -0.01
    20   1     0.06  -0.03   0.08    -0.05   0.03  -0.07     0.01  -0.00   0.01
                     49                     50                     51
                     A"                     A'                     A"
 Frequencies --   3074.9279              3078.1095              3109.8614
 Red. masses --      1.1026                 1.1020                 1.1024
 Frc consts  --      6.1424                 6.1520                 6.2815
 IR Inten    --     27.8200                47.3332                33.8357
  Atom  AN      X      Y      Z        X      Y      Z        X      Y      Z
     1   8    -0.00   0.00   0.00     0.00   0.00   0.00    -0.00   0.00   0.00
     2   6     0.00  -0.00   0.00     0.00  -0.00  -0.00     0.00  -0.00  -0.00
     3   6    -0.00  -0.00  -0.00    -0.01  -0.01  -0.01     0.00  -0.00  -0.00
     4   6    -0.05   0.01  -0.04    -0.05   0.01  -0.04    -0.00   0.00  -0.00
     5   6     0.00   0.00  -0.00    -0.00  -0.00   0.00     0.00   0.00  -0.00
     6   6     0.00  -0.00   0.01    -0.00  -0.00  -0.00    -0.00   0.00  -0.09
     7   6     0.05  -0.01  -0.04    -0.05   0.01   0.04     0.00  -0.00  -0.00
     8   6     0.00   0.00  -0.00    -0.01  -0.01   0.01    -0.00   0.00  -0.00
     9   1     0.09   0.03   0.01     0.11   0.04   0.01    -0.00  -0.00  -0.00
    10   1    -0.03   0.02   0.05    -0.04   0.03   0.06    -0.01   0.01   0.01
    11   1     0.36   0.12  -0.02     0.38   0.13  -0.02     0.02   0.00  -0.00
    12   1     0.26  -0.20   0.48     0.25  -0.19   0.46     0.02  -0.01   0.04
    13   1    -0.00  -0.00   0.00     0.00   0.01   0.00    -0.00  -0.00   0.00
    14   1    -0.02   0.02  -0.04     0.01  -0.01   0.02     0.28  -0.31   0.56
    15   1     0.00   0.00   0.00     0.01   0.04   0.00    -0.00  -0.00  -0.02
    16   1     0.02  -0.02  -0.04     0.01  -0.01  -0.02    -0.28   0.31   0.56
    17   1    -0.36  -0.12  -0.02     0.38   0.13   0.02    -0.02  -0.00  -0.00
    18   1    -0.26   0.20   0.48     0.25  -0.19  -0.46    -0.02   0.01   0.04
    19   1    -0.09  -0.03   0.01     0.11   0.04  -0.01     0.00   0.00  -0.00
    20   1     0.03  -0.02   0.05    -0.04   0.03  -0.06     0.01  -0.01   0.01
                     52                     53                     54
                     A'                     A"                     A'
 Frequencies --   3111.3868              3116.2985              3118.0621
 Red. masses --      1.1000                 1.0947                 1.0963
 Frc consts  --      6.2742                 6.2636                 6.2800
 IR Inten    --     53.5573                20.0832                13.4646
  Atom  AN      X      Y      Z        X      Y      Z        X      Y      Z
     1   8    -0.00   0.00  -0.00     0.00   0.00   0.00    -0.00   0.00  -0.00
     2   6     0.00  -0.00  -0.00     0.00  -0.00  -0.00     0.00  -0.00   0.00
     3   6     0.01  -0.01  -0.01     0.04  -0.01  -0.04     0.04  -0.01  -0.04
     4   6     0.00  -0.00   0.00     0.00   0.00  -0.00     0.01   0.00  -0.00
     5   6    -0.00  -0.01  -0.00    -0.00  -0.00   0.00     0.00   0.00  -0.00
     6   6     0.01  -0.09  -0.00     0.00  -0.00   0.00    -0.00   0.02   0.00
     7   6     0.00  -0.00  -0.00    -0.00  -0.00  -0.00     0.01   0.00   0.00
     8   6     0.01  -0.01   0.01    -0.04   0.01  -0.04     0.04  -0.01   0.04
     9   1    -0.01  -0.00  -0.00    -0.17  -0.06  -0.02    -0.18  -0.07  -0.03
    10   1    -0.11   0.07   0.15    -0.36   0.24   0.52    -0.34   0.23   0.50
    11   1    -0.01  -0.00   0.00    -0.05  -0.02   0.00    -0.06  -0.02   0.00
    12   1    -0.01   0.01  -0.02     0.00  -0.00  -0.00     0.00  -0.00   0.01
    13   1     0.02   0.11   0.00     0.00   0.00  -0.00    -0.01  -0.04   0.00
    14   1    -0.15   0.14  -0.31    -0.01   0.01  -0.01     0.04  -0.04   0.08
    15   1     0.21   0.76  -0.00     0.00   0.00   0.00    -0.06  -0.22   0.00
    16   1    -0.15   0.14   0.31     0.01  -0.01  -0.01     0.04  -0.04  -0.08
    17   1    -0.01  -0.00  -0.00     0.05   0.02   0.00    -0.06  -0.02  -0.00
    18   1    -0.01   0.01   0.02    -0.00   0.00  -0.00     0.00  -0.00  -0.01
    19   1    -0.01  -0.00   0.00     0.17   0.06  -0.02    -0.18  -0.07   0.03
    20   1    -0.11   0.07  -0.15     0.36  -0.24   0.52    -0.34   0.23  -0.50

 -------------------
 - Thermochemistry -
 -------------------
 Temperature   298.150 Kelvin.  Pressure   1.00000 Atm.
 Atom     1 has atomic number  8 and mass  15.99491
 Atom     2 has atomic number  6 and mass  12.00000
 Atom     3 has atomic number  6 and mass  12.00000
 Atom     4 has atomic number  6 and mass  12.00000
 Atom     5 has atomic number  6 and mass  12.00000
 Atom     6 has atomic number  6 and mass  12.00000
 Atom     7 has atomic number  6 and mass  12.00000
 Atom     8 has atomic number  6 and mass  12.00000
 Atom     9 has atomic number  1 and mass   1.00783
 Atom    10 has atomic number  1 and mass   1.00783
 Atom    11 has atomic number  1 and mass   1.00783
 Atom    12 has atomic number  1 and mass   1.00783
 Atom    13 has atomic number  1 and mass   1.00783
 Atom    14 has atomic number  1 and mass   1.00783
 Atom    15 has atomic number  1 and mass   1.00783
 Atom    16 has atomic number  1 and mass   1.00783
 Atom    17 has atomic number  1 and mass   1.00783
 Atom    18 has atomic number  1 and mass   1.00783
 Atom    19 has atomic number  1 and mass   1.00783
 Atom    20 has atomic number  1 and mass   1.00783
 Molecular mass:   112.08882 amu.
 Principal axes and moments of inertia in atomic units:
                           1         2         3
     Eigenvalues --   519.809161117.339561349.90706
           X           -0.59881   0.00000   0.80089
           Y            0.80089   0.00000   0.59881
           Z           -0.00000   1.00000  -0.00000
 This molecule is an asymmetric top.
 Rotational symmetry number  1.
 Warning -- assumption of classical behavior for rotation
           may cause significant error
 Rotational temperatures (Kelvin)      0.16663     0.07752     0.06416
 Rotational constants (GHZ):           3.47193     1.61521     1.33694
 Zero-point vibrational energy     472586.1 (Joules/Mol)
                                  112.95080 (Kcal/Mol)
 Warning -- explicit consideration of  10 degrees of freedom as
           vibrations may cause significant error
 Vibrational temperatures:    115.05   245.41   294.41   327.77   506.68
          (Kelvin)            541.19   600.90   637.44   708.15   817.38
                              994.77  1096.39  1101.12  1110.67  1275.27
                             1354.36  1380.65  1398.40  1455.05  1463.66
                             1540.98  1569.58  1650.56  1660.42  1715.62
                             1793.90  1810.79  1856.31  1940.26  1941.89
                             1960.33  2002.05  2007.42  2020.04  2077.84
                             2147.65  2161.85  2184.03  2195.45  2209.63
                             2211.82  2615.20  4348.81  4358.06  4365.49
                             4368.14  4379.48  4386.12  4424.14  4428.71
                             4474.40  4476.59  4483.66  4486.20
 
 Zero-point correction=                           0.179999 (Hartree/Particle)
 Thermal correction to Energy=                    0.187822
 Thermal correction to Enthalpy=                  0.188766
 Thermal correction to Gibbs Free Energy=         0.147956
 Sum of electronic and zero-point Energies=           -349.023249
 Sum of electronic and thermal Energies=              -349.015425
 Sum of electronic and thermal Enthalpies=            -349.014481
 Sum of electronic and thermal Free Energies=         -349.055291
 
                     E (Thermal)             CV                S
                      KCal/Mol        Cal/Mol-Kelvin    Cal/Mol-Kelvin
 Total                  117.860             30.204             85.893
 Electronic               0.000              0.000              0.000
 Translational            0.889              2.981             40.058
 Rotational               0.889              2.981             28.152
 Vibrational            116.083             24.242             17.683
 Vibration     1          0.600              1.963              3.892
 Vibration     2          0.626              1.879              2.429
 Vibration     3          0.640              1.833              2.091
 Vibration     4          0.651              1.799              1.896
 Vibration     5          0.729              1.571              1.157
 Vibration     6          0.747              1.521              1.055
 Vibration     7          0.781              1.432              0.900
 Vibration     8          0.803              1.376              0.817
 Vibration     9          0.848              1.267              0.678
 Vibration    10          0.924              1.100              0.508
                       Q            Log10(Q)             Ln(Q)
 Total Bot       0.881233D-68        -68.054909       -156.702219
 Total V=0       0.547776D+15         14.738603         33.936887
 Vib (Bot)       0.596048D-81        -81.224718       -187.026826
 Vib (Bot)    1  0.257550D+01          0.410861          0.946042
 Vib (Bot)    2  0.118128D+01          0.072353          0.166598
 Vib (Bot)    3  0.972687D+00         -0.012027         -0.027693
 Vib (Bot)    4  0.865402D+00         -0.062782         -0.144561
 Vib (Bot)    5  0.523176D+00         -0.281352         -0.647838
 Vib (Bot)    6  0.481972D+00         -0.316978         -0.729870
 Vib (Bot)    7  0.421177D+00         -0.375535         -0.864701
 Vib (Bot)    8  0.389242D+00         -0.409780         -0.943553
 Vib (Bot)    9  0.336233D+00         -0.473360         -1.089951
 Vib (Bot)   10  0.271415D+00         -0.566366         -1.304106
 Vib (V=0)       0.370505D+02          1.568794          3.612281
 Vib (V=0)    1  0.312358D+01          0.494653          1.138980
 Vib (V=0)    2  0.178274D+01          0.251088          0.578151
 Vib (V=0)    3  0.159367D+01          0.202399          0.466041
 Vib (V=0)    4  0.149946D+01          0.175935          0.405105
 Vib (V=0)    5  0.122368D+01          0.087668          0.201863
 Vib (V=0)    6  0.119448D+01          0.077177          0.177708
 Vib (V=0)    7  0.115375D+01          0.062112          0.143018
 Vib (V=0)    8  0.113365D+01          0.054478          0.125441
 Vib (V=0)    9  0.110254D+01          0.042394          0.097615
 Vib (V=0)   10  0.106892D+01          0.028944          0.066646
 Electronic      0.100000D+01          0.000000          0.000000
 Translational   0.466442D+08          7.668797         17.658058
 Rotational      0.316966D+06          5.501012         12.666548
 ***** Axes restored to original set *****
 -------------------------------------------------------------------
 Center     Atomic                   Forces (Hartrees/Bohr)
 Number     Number              X              Y              Z
 -------------------------------------------------------------------
      1        8          -0.000040047    0.000000000    0.000012839
      2        6           0.000020208    0.000000000    0.000017925
      3        6           0.000015921    0.000035243   -0.000039401
      4        6          -0.000024410    0.000030343    0.000034261
      5        6           0.000007742   -0.000000000    0.000002737
      6        6           0.000014474    0.000000000   -0.000000177
      7        6          -0.000024410   -0.000030343    0.000034261
      8        6           0.000015921   -0.000035243   -0.000039401
      9        1          -0.000016177    0.000002627   -0.000003032
     10        1           0.000004977    0.000000556    0.000003872
     11        1           0.000001160    0.000002124   -0.000002214
     12        1           0.000007286   -0.000004348   -0.000004920
     13        1           0.000000985   -0.000000000    0.000009515
     14        1           0.000001046    0.000000668   -0.000004327
     15        1           0.000017035    0.000000000   -0.000011316
     16        1           0.000001046   -0.000000668   -0.000004327
     17        1           0.000001160   -0.000002124   -0.000002214
     18        1           0.000007286    0.000004348   -0.000004920
     19        1          -0.000016177   -0.000002627   -0.000003032
     20        1           0.000004977   -0.000000556    0.000003872
 -------------------------------------------------------------------
 Cartesian Forces:  Max     0.000040047 RMS     0.000016151

 GradGradGradGradGradGradGradGradGradGradGradGradGradGradGradGradGradGrad
 Berny optimization.
 Search for a local minimum.
 Step number   1 out of a maximum of    2
 All quantities printed in internal units (Hartrees-Bohrs-Radians)
 Second derivative matrix not updated -- analytic derivatives used.
 ITU=  0
     Eigenvalues ---    0.00142   0.00171   0.00295   0.00472   0.00906
     Eigenvalues ---    0.01029   0.01658   0.02120   0.03222   0.04379
     Eigenvalues ---    0.04414   0.04787   0.04792   0.05035   0.05167
     Eigenvalues ---    0.05306   0.05570   0.05576   0.06604   0.06861
     Eigenvalues ---    0.07280   0.07431   0.10104   0.10303   0.10881
     Eigenvalues ---    0.11534   0.11659   0.14121   0.14892   0.16733
     Eigenvalues ---    0.17092   0.19518   0.20698   0.26038   0.28866
     Eigenvalues ---    0.34155   0.36667   0.43079   0.50093   0.53727
     Eigenvalues ---    0.62225   0.67615   0.67738   0.71573   0.74052
     Eigenvalues ---    0.76130   0.77826   0.79437   0.85320   0.85339
     Eigenvalues ---    0.86904   0.88470   0.90534   1.67187
 Angle between quadratic step and forces=  74.19 degrees.
 ClnCor:  largest displacement from symmetrization is 7.71D-11 for atom    19.
 Linear search not attempted -- first point.
 ClnCor:  largest displacement from symmetrization is 4.44D-15 for atom    13.
 B after Tr=     0.000038    0.000000    0.000567
         Rot=    1.000000   -0.000000    0.000055    0.000000 Ang=   0.01 deg.
 Variable       Old X    -DE/DX   Delta X   Delta X   Delta X     New X
                                 (Linear)    (Quad)   (Total)
    X1        2.29908  -0.00004   0.00000  -0.00046  -0.00042   2.29867
    Y1       -0.00000   0.00000   0.00000   0.00000   0.00000  -0.00000
    Z1       -0.00000   0.00001   0.00000   0.00335   0.00417   0.00417
    X2       -0.00000   0.00002   0.00000  -0.00042  -0.00038  -0.00038
    Y2       -0.00000   0.00000   0.00000   0.00000   0.00000  -0.00000
    Z2       -0.00000   0.00002   0.00000   0.00008   0.00065   0.00065
    X3       -1.54578   0.00002   0.00000  -0.00063  -0.00059  -1.54637
    Y3       -2.42940   0.00004   0.00000   0.00031   0.00031  -2.42909
    Z3       -0.00075  -0.00004   0.00000  -0.00122  -0.00082  -0.00157
    X4       -3.64951  -0.00002   0.00000   0.00038   0.00020  -3.64931
[...]
 14151313,-0.00352698,-0.00375454,-0.00110131,-0.00493091,-0.06448440,0
 .53122292,-0.00513045,0.00345894,-0.00205263,0.00507453,-0.00936586,0.
 00223295,-0.00037281,-0.00035352,-0.00000400,0.00113697,0.00088688,0.0
 0139875,-0.00386167,-0.00438583,-0.08227395,-0.01775633,-0.02430277,-0
 .00150585,0.05737755,-0.00411353,0.53672490,-0.04657216,0.04045553,-0.
 00194568,-0.08931668,0.02029745,-0.00024005,0.01439440,-0.01332738,0.0
 0246696,0.00113795,0.00254523,-0.00037281,-0.01829429,-0.00429467,0.01
 540377,0.00033643,0.00014667,0.00010299,-0.12108996,0.00030223,0.04476
 954,0.50926169,0.01708548,0.00967877,-0.00064663,0.02440690,-0.1715185
 5,0.00047061,0.01332738,-0.02290664,-0.00029014,0.00050415,0.00105652,
 0.00035352,-0.02027735,0.00007243,0.02102534,0.00032522,0.00029281,0.0
 0030743,-0.00521935,-0.08562019,0.00217000,0.07759718,0.53568245,-0.00
 055652,-0.00141409,0.02517094,-0.00129545,0.00032472,-0.08956524,0.002
 46696,0.00029014,0.01869331,-0.00229657,-0.00241155,-0.00000400,0.0022
 5268,0.00512817,0.00189385,-0.00067529,-0.00005220,0.00183879,0.048637
 26,-0.00809653,-0.12410862,0.05381469,0.00797635,0.49166614,-0.0010485
 1,-0.00361237,0.00334849,-0.01111966,-0.00018481,-0.01775422,-0.088195
 54,-0.00888210,-0.10185560,0.01037421,0.00252062,0.02520470,0.00111920
 ,0.00020966,-0.00061358,-0.00047927,0.00028268,-0.00018121,-0.00024288
 ,0.00030897,0.00016607,0.00041411,0.00000604,0.00128257,0.09978400,-0.
 00250696,-0.00266982,0.00360791,-0.01204267,0.00122084,-0.02916263,-0.
 01030455,-0.05424347,-0.02792049,0.00077177,0.00044616,0.00111859,-0.0
 0044451,-0.00012764,-0.00067636,0.00050795,0.00022313,-0.00049437,-0.0
 0037296,0.00023873,0.00008278,0.00140702,-0.00041773,0.00350285,0.0121
 5281,0.05172858,0.00071383,-0.00065483,-0.00074101,-0.00090551,-0.0000
 6919,0.00079708,-0.09731511,-0.02204223,-0.24924246,-0.00853733,-0.002
 17568,-0.02389841,-0.00104258,0.00048155,0.00013440,-0.00000255,0.0002
 2829,-0.00045558,0.00039069,-0.00005016,-0.00010987,-0.00062063,0.0000
 2635,-0.00056349,0.10505086,0.02424836,0.27635375,0.00180783,0.0012709
 2,-0.00014182,0.01159456,-0.01563928,0.00319893,-0.15311248,0.13109559
 ,-0.02435461,-0.01331487,0.01747697,-0.00416962,-0.00202124,-0.0021082
 3,0.00389838,0.00035586,0.00000247,0.00029327,-0.00026192,-0.00025024,
 0.00005513,-0.00209501,-0.00276520,-0.00048141,-0.00806888,0.01017477,
 -0.00178770,0.16385247,-0.00007098,0.00602053,-0.00090300,0.02223805,-
 0.02669075,0.00503211,0.12665527,-0.20751053,0.03021443,-0.00144011,0.
 00211084,-0.00099591,-0.00070608,0.00089635,0.00019105,-0.00005402,0.0
 0019582,-0.00001150,-0.00045210,0.00026003,0.00044048,-0.00504932,-0.0
 0317788,-0.00076428,-0.00317271,0.00388996,-0.00007470,-0.13918836,0.2
 2451720,0.00079375,0.00025599,-0.00117062,-0.00071658,-0.00272121,-0.0
 0059435,-0.02396504,0.03058758,-0.05527261,0.01494319,-0.02012153,0.00
 352662,0.00281743,0.00151167,-0.00379130,-0.00004182,0.00008240,-0.000
 57603,0.00017773,0.00059254,-0.00010492,0.00001413,0.00023794,0.001305
 25,-0.01771460,0.02375887,-0.00377964,0.02421343,-0.03238446,0.0574273
 0,-0.00022354,0.00025617,-0.00036211,0.00181530,0.00076002,0.00056799,
 0.00931410,-0.00081252,0.02446719,-0.09615378,0.00110207,-0.09971273,-
 0.01050746,0.00049074,-0.01783136,-0.00163720,0.00431746,0.00098143,0.
 00029155,-0.00096566,0.00010806,0.00000166,-0.00002216,0.00015562,-0.0
 0343397,-0.00048222,0.00449244,0.00127120,0.00005480,-0.00083527,0.107
 12419,0.00018618,0.00012106,-0.00016285,0.00024667,-0.00022686,0.00077
 569,0.00017720,0.00002405,-0.00027363,0.00049252,-0.05220520,0.0067688
 4,0.01320976,-0.00189358,0.02578093,0.00206907,-0.00474888,-0.00107924
 ,0.00046425,0.00127688,0.00103631,-0.00020373,-0.00016460,-0.00018752,
 0.00042447,0.00101953,-0.00014118,-0.00022323,0.00016474,-0.00042342,-
 0.00559866,0.05369168,0.00128600,0.00040526,0.00037066,-0.00205693,-0.
 00164534,-0.00056275,-0.00723733,0.00116394,-0.02176460,-0.09974200,0.
 00703195,-0.25506229,-0.00066329,-0.00056777,-0.00140895,-0.00010922,0
 .00059035,0.00152571,0.00017167,-0.00042894,-0.00027268,0.00012288,0.0
 0035517,-0.00030724,0.00400126,0.00036911,-0.00229316,-0.00005490,-0.0
 0040180,0.00087755,0.10551095,-0.00680174,0.27923230,-0.00193509,-0.00
 185277,-0.00079648,-0.00083778,0.00493286,0.00392297,-0.01451211,-0.02
 059218,0.00035967,-0.13093595,-0.12007201,-0.01514980,0.01159113,0.016
 54250,0.00126220,0.00119833,0.00040944,0.00038651,-0.00233488,0.002865
 37,-0.00042990,0.00001803,-0.00004207,-0.00062396,0.00159753,0.0005024
 2,-0.00036199,0.00013712,0.00024009,-0.00057295,-0.00825175,-0.0115895
 0,-0.00161778,0.14260919,-0.00008594,0.00010274,0.00016614,0.00066541,
 0.00060595,-0.00037456,0.00089445,0.00209313,0.00006626,-0.11908890,-0
 .22194508,-0.01929323,-0.01608282,-0.02280437,-0.00241856,-0.00173943,
 0.00096195,-0.00052081,0.00556273,-0.00345322,0.00041414,0.00034596,0.
 00075381,-0.00024417,-0.00003799,0.00021066,0.00040259,-0.00033999,0.0
 0036814,0.00039296,0.00080106,0.00141973,-0.00063553,0.12875292,0.2415
 1733,0.00233627,0.00191875,0.00092619,0.00182563,-0.00385929,-0.003834
 42,0.01571663,0.02228634,-0.00034787,-0.01549826,-0.02032979,-0.052047
 58,0.00065090,0.00226490,-0.00078074,0.00058099,0.00065419,0.00021985,
 -0.00008523,0.00042042,0.00017203,-0.00026741,-0.00009688,0.00033930,-
 0.00098878,0.00039394,0.00134628,-0.00057825,-0.00040998,0.00067019,-0
 .01697395,-0.02535235,-0.00239091,0.01337040,0.02195044,0.05470434,-0.
 00051629,0.,-0.00000782,0.00126104,0.,-0.00040503,-0.00125336,0.003669
 12,-0.00143207,-0.01309912,0.00117815,0.01539026,-0.13426479,0.,0.1194
 9917,0.01092123,0.,-0.01930037,-0.01309912,-0.00117815,0.01539026,-0.0
 0125336,-0.00366912,-0.00143207,0.00014312,0.00005199,0.00004306,-0.00
 080294,-0.00004783,0.00090320,0.00009895,-0.00055411,-0.00018313,0.000
 66477,0.00010393,-0.00021904,0.15104610,0.,0.00097283,0.,0.,-0.0023422
 8,0.,0.00270858,-0.00434532,0.00162102,0.01902657,-0.00151680,-0.02289
 337,0.,-0.04835589,0.,0.,0.00022583,0.,-0.01902657,-0.00151680,0.02289
 337,-0.00270858,-0.00434532,-0.00162102,-0.00035499,0.00003081,0.00005
 286,0.00129065,0.00013250,-0.00119374,-0.00052719,0.00125371,0.0001814
 9,-0.00082840,0.00068973,-0.00022336,0.,0.05598008,-0.00001222,0.,-0.0
 0009721,-0.00017312,0.,0.00010524,-0.00066619,-0.00006006,0.00133584,-
 0.00138938,0.00029909,0.00094104,0.12058060,0.,-0.21298486,0.01406826,
 0.,-0.02593599,-0.00138938,-0.00029909,0.00094104,-0.00066619,0.000060
 06,0.00133584,-0.00022614,0.00013825,0.00018622,0.00001678,0.00012490,
 0.00000427,-0.00001265,-0.00024084,0.00115196,0.00005393,-0.00043994,-
 0.00008563,-0.12601291,0.,0.23349524,-0.00008274,0.00036121,0.00002566
 ,0.00031498,-0.00087912,-0.00002301,-0.00005455,0.00045261,0.00006257,
 0.00031134,-0.00163518,0.00074844,-0.01259954,-0.01591397,0.00111385,-
 0.13893083,-0.12395576,0.00269377,-0.00125997,0.00159692,-0.00395827,0
 .00030867,0.00015560,-0.00010237,-0.00016328,-0.00012720,0.00003091,-0
 .00003957,0.00004704,-0.00002736,0.00041917,0.00022000,0.00007217,-0.0
 0000819,0.00109921,-0.00021588,0.00096389,0.00041149,0.00011441,0.1484
 8239,-0.00019267,0.00012814,-0.00000069,0.00018093,-0.00028234,0.00000
 453,-0.00007381,0.00004402,0.00000456,0.00067977,0.00075821,0.00023787
 ,0.00123881,-0.00011542,-0.00006665,-0.12431202,-0.22172790,0.00271008
 ,0.00052294,0.00083277,-0.00053877,0.00008987,0.00023902,-0.00006344,-
 0.00004270,-0.00006694,-0.00001505,-0.00002188,0.00001094,-0.00001059,
 0.00002834,0.00022524,-0.00008400,-0.00020639,0.00041725,-0.00000332,0
 .00003088,0.00011225,-0.00056155,0.13716754,0.23866502,0.00007674,0.00
 005605,-0.00003807,-0.00006751,-0.00015946,-0.00001918,0.00007203,0.00
 005164,-0.00010171,0.00060827,-0.00094103,0.00101815,-0.01676926,-0.02
 330746,0.00027332,0.00298973,0.00322821,-0.04853123,-0.00284086,0.0014
 1895,-0.00488349,0.00012306,0.00006251,-0.00051272,0.00003632,0.000096
 43,0.00002247,0.00001141,0.00000258,0.00006384,0.00040236,-0.00009604,
 -0.00001909,0.00007840,0.00067726,0.00015627,0.00079368,-0.00028557,0.
 00099720,-0.00001836,-0.00323802,0.05155314,-0.00003166,0.,-0.00000375
 ,-0.00024358,0.,-0.00011474,-0.00069089,0.00015132,0.00017465,0.000951
 23,0.00007586,0.00051033,0.01377720,0.,-0.01748844,-0.11942478,0.,0.11
 479855,0.00095123,-0.00007586,0.00051033,-0.00069089,-0.00015132,0.000
 17465,-0.00099855,0.00066466,-0.00024615,0.00010698,0.00000157,-0.0000
 0903,0.00013047,-0.00017502,0.00023180,-0.00008325,0.00015226,0.000039
 03,-0.00187793,0.,-0.00423215,-0.01042223,0.00133844,0.01607758,0.1298
 1325,0.,-0.00039677,0.,0.,0.00096728,0.,0.00025490,-0.00003211,0.00027
 629,-0.00046382,0.00004245,0.00048646,0.,-0.00083423,0.,0.,-0.04993493
 ,0.,0.00046382,0.00004245,-0.00048646,-0.00025490,-0.00003211,-0.00027
 629,0.00083595,-0.00036604,-0.00014973,-0.00013799,-0.00010278,-0.0001
 0228,0.00002104,-0.00000838,-0.00017118,-0.00002023,-0.00003868,0.0000
 9936,0.,0.00080567,0.,-0.01414057,0.00101823,0.02453561,0.,0.04836757,
 0.00032302,0.,-0.00018935,-0.00053444,0.,0.00022634,0.00002358,-0.0000
 3563,-0.00045284,0.00099196,-0.00075486,0.00030987,0.01486084,0.,-0.02
 250029,0.11489964,0.,-0.24022251,0.00099196,0.00075486,0.00030986,0.00
 002358,0.00003563,-0.00045284,-0.00012784,0.00038953,0.00096227,0.0000
 2837,0.00002299,0.00048921,-0.00017887,0.00003343,0.00020376,-0.000105
 28,0.00012104,-0.00000992,-0.00436494,0.,-0.00364420,0.00003396,0.0004
 8293,0.00037143,-0.12651590,0.,0.26258245,-0.00008274,-0.00036121,0.00
 002566,0.00031498,0.00087912,-0.00002301,0.00030867,-0.00015560,-0.000
 10237,-0.00125997,-0.00159692,-0.00395827,-0.01259954,0.01591397,0.001
 11385,-0.13893083,0.12395576,0.00269377,0.00031134,0.00163518,0.000748
 44,-0.00005455,-0.00045261,0.00006257,0.00007232,-0.00019525,-0.000107
 97,-0.00005419,-0.00002568,-0.00002415,-0.00071857,0.00115295,-0.00008
 020,0.00016808,0.00014708,0.00006716,0.00096389,-0.00041149,0.00011441
 ,0.01329279,-0.01621929,-0.00040533,-0.01042223,0.01414057,0.00003396,
 0.14848239,0.00019267,0.00012814,0.00000069,-0.00018093,-0.00028234,-0
 .00000453,-0.00008987,0.00023902,0.00006344,-0.00052294,0.00083277,0.0
 0053877,-0.00123881,-0.00011542,0.00006665,0.12431202,-0.22172790,-0.0
 0271008,-0.00067977,0.00075821,-0.00023787,0.00007381,0.00004402,-0.00
 000456,-0.00012076,-0.00002122,0.00001859,0.00004059,-0.00001216,-0.00
 003369,0.00036208,0.00012953,-0.00002759,-0.00007318,0.00045339,-0.000
 17739,-0.00003088,0.00011225,0.00056155,0.01621929,-0.02080805,-0.0009
 2203,-0.00133844,0.00101823,-0.00048293,-0.13716754,0.23866502,0.00007
 675,-0.00005605,-0.00003807,-0.00006751,0.00015946,-0.00001918,0.00012
 306,-0.00006251,-0.00051272,-0.00284086,-0.00141895,-0.00488349,-0.016
 76926,0.02330746,0.00027332,0.00298973,-0.00322821,-0.04853123,0.00060
 827,0.00094103,0.00101815,0.00007203,-0.00005164,-0.00010171,-0.000083
 41,0.00013053,0.00047058,-0.00001942,0.00002612,0.00031958,-0.00128443
 ,0.00131855,-0.00012560,0.00021899,-0.00029556,-0.00003805,0.00079368,
 0.00028557,0.00099720,-0.00040533,0.00092203,-0.00097685,0.01607758,-0
 .02453561,0.00037143,-0.00001836,0.00323802,0.05155314,-0.00022354,-0.
 00025617,-0.00036211,0.00181530,-0.00076002,0.00056799,0.00000166,0.00
 002216,0.00015562,0.00029155,0.00096566,0.00010806,-0.01050746,-0.0004
 9074,-0.01783136,-0.00163720,-0.00431746,0.00098143,-0.09615378,-0.001
 10207,-0.09971273,0.00931410,0.00081252,0.02446719,-0.00008574,-0.0000
 0843,0.00001906,0.00006071,0.00004288,-0.00003041,0.00053973,-0.000323
 29,0.00026051,-0.00005503,0.00007420,0.00025617,0.00009895,0.00052719,
 -0.00001265,-0.00071857,-0.00036208,-0.00128443,0.00013047,-0.00002104
 ,-0.00017887,0.00041917,-0.00002834,0.00040236,0.10712419,-0.00018618,
 0.00012106,0.00016285,-0.00024668,-0.00022686,-0.00077569,0.00020373,-
 0.00016460,0.00018752,-0.00046425,0.00127688,-0.00103631,-0.01320976,-
 0.00189358,-0.02578093,-0.00206907,-0.00474888,0.00107924,-0.00049252,
 -0.05220520,-0.00676884,-0.00017720,0.00002405,0.00027363,-0.00006148,
 0.00008604,0.00013957,0.00004501,-0.00001250,-0.00003324,0.00032329,-0
 .00048844,0.00050257,-0.00000799,0.00033625,0.00034603,0.00055411,0.00
 125371,0.00024084,-0.00115295,0.00012953,-0.00131855,0.00017502,-0.000
 00838,-0.00003343,-0.00022000,0.00022524,0.00009604,0.00559866,0.05369
 168,0.00128600,-0.00040526,0.00037066,-0.00205693,0.00164534,-0.000562
 75,0.00012288,-0.00035517,-0.00030724,0.00017167,0.00042894,-0.0002726
 8,-0.00066329,0.00056777,-0.00140895,-0.00010922,-0.00059035,0.0015257
 1,-0.09974200,-0.00703195,-0.25506229,-0.00723733,-0.00116394,-0.02176
 460,-0.00002247,0.00005728,0.00013500,-0.00001398,-0.00011660,-0.00001
 486,0.00026051,-0.00050257,0.00041342,0.00012400,-0.00010473,0.0003117
 7,-0.00018313,-0.00018149,0.00115196,-0.00008020,0.00002759,-0.0001256
 0,0.00023180,0.00017118,0.00020376,0.00007217,0.00008400,-0.00001909,0
 .10551095,0.00680174,0.27923230,-0.00193509,0.00185277,-0.00079648,-0.
 00083778,-0.00493286,0.00392297,0.00001803,0.00004207,-0.00062396,-0.0
 0233488,-0.00286537,-0.00042990,0.01159113,-0.01654250,0.00126220,0.00
 119833,-0.00040944,0.00038651,-0.13093595,0.12007201,-0.01514980,-0.01
 451211,0.02059218,0.00035967,-0.00002014,-0.00004508,-0.00001566,0.000
 08892,0.00011109,-0.00011273,-0.00005503,0.00000799,0.00012400,0.00090
 108,-0.00110514,0.00000948,0.00066477,0.00082840,0.00005393,0.00016808
 ,0.00007318,0.00021899,-0.00008325,0.00002023,-0.00010528,-0.00000819,
 0.00020639,0.00007840,-0.00825175,0.01158950,-0.00161778,0.14260919,0.
 00008594,0.00010274,-0.00016614,-0.00066541,0.00060595,0.00037456,-0.0
 0034596,0.00075381,0.00024417,-0.00556273,-0.00345322,-0.00041414,0.01
 608282,-0.02280437,0.00241856,0.00173943,0.00096195,0.00052081,0.11908
 890,-0.22194508,0.01929323,-0.00089445,0.00209313,-0.00006626,0.000015
 82,-0.00001766,-0.00009899,0.00010317,0.00004827,-0.00006867,-0.000074
 20,0.00033625,0.00010473,0.00110514,-0.00171930,0.00003142,-0.00010393
 ,0.00068973,0.00043994,-0.00014708,0.00045339,0.00029556,-0.00015226,-
 0.00003868,-0.00012104,-0.00109921,0.00041725,-0.00067726,-0.00080106,
 0.00141973,0.00063553,-0.12875292,0.24151733,0.00233627,-0.00191875,0.
 00092619,0.00182563,0.00385929,-0.00383442,-0.00026741,0.00009688,0.00
 033930,-0.00008523,-0.00042042,0.00017203,0.00065090,-0.00226490,-0.00
 078074,0.00058099,-0.00065419,0.00021985,-0.01549826,0.02032979,-0.052
 04758,0.01571663,-0.02228634,-0.00034787,0.00002926,0.00000661,0.00002
 252,-0.00005513,-0.00009317,0.00007681,0.00025617,-0.00034603,0.000311
 77,0.00000948,-0.00003142,0.00058956,-0.00021904,0.00022336,-0.0000856
 3,0.00006716,0.00017739,-0.00003805,0.00003903,-0.00009936,-0.00000992
 ,-0.00021588,0.00000332,0.00015627,-0.01697395,0.02535235,-0.00239091,
 0.01337040,-0.02195044,0.05470434,-0.00104851,0.00361237,0.00334849,-0
 .01111966,0.00018481,-0.01775422,0.00041411,-0.00000604,0.00128257,-0.
 00024288,-0.00030897,0.00016607,0.00111920,-0.00020966,-0.00061358,-0.
 00047927,-0.00028268,-0.00018121,0.01037421,-0.00252062,0.02520470,-0.
 08819554,0.00888210,-0.10185560,0.00044477,0.00038269,0.00017601,-0.00
 009283,-0.00009559,0.00027230,-0.00008574,0.00006148,-0.00002247,-0.00
 002014,-0.00001582,0.00002926,0.00014312,0.00035499,-0.00022614,0.0000
 7232,0.00012076,-0.00008341,-0.00099855,-0.00083595,-0.00012784,-0.000
 16328,0.00004270,0.00003632,-0.00343397,-0.00042447,0.00400126,0.00159
 753,0.00003799,-0.00098878,0.09978400,0.00250696,-0.00266982,-0.003607
 91,0.01204267,0.00122084,0.02916263,-0.00140702,-0.00041773,-0.0035028
 5,0.00037296,0.00023873,-0.00008278,0.00044451,-0.00012764,0.00067636,
 -0.00050795,0.00022313,0.00049437,-0.00077177,0.00044616,-0.00111859,0
 .01030455,-0.05424347,0.02792049,-0.00038269,-0.00156477,0.00005110,0.
 00008624,0.00040085,-0.00040390,0.00000843,0.00008604,-0.00005728,0.00
 004508,-0.00001766,-0.00000661,-0.00005199,0.00003081,-0.00013825,0.00
 019525,-0.00002122,-0.00013053,-0.00066466,-0.00036604,-0.00038953,0.0
 0012720,-0.00006694,-0.00009643,0.00048222,0.00101953,-0.00036911,-0.0
 0050242,0.00021066,-0.00039394,-0.01215281,0.05172858,0.00071383,0.000
 65483,-0.00074101,-0.00090551,0.00006919,0.00079708,-0.00062063,-0.000
 02635,-0.00056349,0.00039069,0.00005016,-0.00010987,-0.00104258,-0.000
 48155,0.00013440,-0.00000255,-0.00022829,-0.00045558,-0.00853733,0.002
 17568,-0.02389841,-0.09731511,0.02204223,-0.24924246,0.00017601,-0.000
 05110,0.00045633,0.00002634,0.00017751,0.00019672,0.00001906,-0.000139
 57,0.00013500,-0.00001566,0.00009899,0.00002252,0.00004306,-0.00005286
 ,0.00018622,-0.00010797,-0.00001859,0.00047058,-0.00024615,0.00014973,
 0.00096227,0.00003091,0.00001505,0.00002247,0.00449244,0.00014118,-0.0
 0229316,-0.00036199,-0.00040259,0.00134628,0.10505086,-0.02424836,0.27
 635375,0.00180783,-0.00127092,-0.00014182,0.01159456,0.01563928,0.0031
 9893,-0.00209501,0.00276520,-0.00048141,-0.00026192,0.00025024,0.00005
 513,-0.00202124,0.00210823,0.00389838,0.00035586,-0.00000247,0.0002932
 7,-0.01331487,-0.01747697,-0.00416962,-0.15311248,-0.13109559,-0.02435
 461,-0.00009283,-0.00008624,0.00002634,0.00058827,0.00091199,-0.000085
 22,0.00006071,-0.00004501,-0.00001398,0.00008892,-0.00010317,-0.000055
 13,-0.00080294,-0.00129065,0.00001678,-0.00005419,-0.00004059,-0.00001
 942,0.00010698,0.00013799,0.00002837,-0.00003957,0.00002188,0.00001141
 ,0.00127120,0.00022323,-0.00005490,0.00013712,0.00033999,-0.00057825,-
 0.00806888,-0.01017477,-0.00178770,0.16385247,0.00007098,0.00602053,0.
 00090300,-0.02223805,-0.02669075,-0.00503211,0.00504932,-0.00317788,0.
 00076428,0.00045210,0.00026003,-0.00044048,0.00070608,0.00089635,-0.00
 019105,0.00005402,0.00019582,0.00001150,0.00144011,0.00211084,0.000995
 91,-0.12665527,-0.20751053,-0.03021443,0.00009559,0.00040085,-0.000177
 51,-0.00091199,-0.00150957,0.00007679,-0.00004288,-0.00001250,0.000116
 60,-0.00011109,0.00004827,0.00009317,0.00004783,0.00013250,-0.00012490
 ,0.00002568,-0.00001216,-0.00002612,-0.00000157,-0.00010278,-0.0000229
 9,-0.00004704,0.00001094,-0.00000258,-0.00005480,0.00016474,0.00040180
 ,-0.00024009,0.00036814,0.00040998,0.00317271,0.00388996,0.00007470,0.
 13918836,0.22451720,0.00079375,-0.00025599,-0.00117062,-0.00071658,0.0
 0272121,-0.00059435,0.00001413,-0.00023794,0.00130525,0.00017773,-0.00
 059254,-0.00010492,0.00281743,-0.00151167,-0.00379130,-0.00004182,-0.0
 0008240,-0.00057603,0.01494319,0.02012153,0.00352662,-0.02396504,-0.03
 058758,-0.05527261,0.00027230,0.00040390,0.00019672,-0.00008522,-0.000
 07679,0.00034700,-0.00003041,0.00003324,-0.00001486,-0.00011273,0.0000
 6867,0.00007681,0.00090320,0.00119374,0.00000427,-0.00002415,0.0000336
 9,0.00031958,-0.00000903,0.00010228,0.00048921,-0.00002736,0.00001059,
 0.00006384,-0.00083527,0.00042342,0.00087755,-0.00057295,-0.00039296,0
 .00067019,-0.01771460,-0.02375887,-0.00377964,0.02421343,0.03238446,0.
 05742730\\0.00004005,0.,-0.00001284,-0.00002021,0.,-0.00001792,-0.0000
 1592,-0.00003524,0.00003940,0.00002441,-0.00003034,-0.00003426,-0.0000
 0774,0.,-0.00000274,-0.00001447,0.,0.00000018,0.00002441,0.00003034,-0
 .00003426,-0.00001592,0.00003524,0.00003940,0.00001618,-0.00000263,0.0
 0000303,-0.00000498,-0.00000056,-0.00000387,-0.00000116,-0.00000212,0.
 00000221,-0.00000729,0.00000435,0.00000492,-0.00000098,0.,-0.00000952,
 -0.00000105,-0.00000067,0.00000433,-0.00001703,0.,0.00001132,-0.000001
 05,0.00000067,0.00000433,-0.00000116,0.00000212,0.00000221,-0.00000729
 ,-0.00000435,0.00000492,0.00001618,0.00000263,0.00000303,-0.00000498,0
 .00000056,-0.00000387\\\@


 ... THE UNIVERSE IS NOT ONLY QUEERER THAN WE SUPPOSE,
 BUT QUEERER THAN WE CAN SUPPOSE ... 

                                   -- J. B. S. HALDANE
 Job cpu time:       0 days  0 hours  0 minutes 41.5 seconds.
 Elapsed time:       0 days  0 hours  0 minutes 42.3 seconds.
 File lengths (MBytes):  RWF=     42 Int=      0 D2E=      0 Chk=      5 Scr=      1
 Normal termination of Gaussian 16 at Wed Feb 21 18:17:49 2024.
