 Entering Gaussian System, Link 0=g16
 Input=/Volumes/SSD-PMU3/b3lyp_6-31gd_freq/VGVHNLRUAMRIEW-TXNNBAIQSA-N_calculating/gaussianinput1.gjf
 Output=/Volumes/SSD-PMU3/b3lyp_6-31gd_freq/VGVHNLRUAMRIEW-TXNNBAIQSA-N_calculating/gaussianinput1.log
 Initial command:
 /Applications/g16/l1.exe "/Users/macmini_m1_2022/PycharmProjects/sphere_model/sphere_model_lib/Gau-47670.inp" -scrdir="/Users/macmini_m1_2022/PycharmProjects/sphere_model/sphere_model_lib/"
 Entering Link 1 = /Applications/g16/l1.exe PID=     47671.
  
 Copyright (c) 1988,1990,1992,1993,1995,1998,2003,2009,2016,
            Gaussian, Inc.  All Rights Reserved.
  
 This is part of the Gaussian(R) 16 program.  It is based on
 the Gaussian(R) 09 system (copyright 2009, Gaussian, Inc.),
 the Gaussian(R) 03 system (copyright 2003, Gaussian, Inc.),
 the Gaussian(R) 98 system (copyright 1998, Gaussian, Inc.),
 the Gaussian(R) 94 system (copyright 1995, Gaussian, Inc.),
 the Gaussian 92(TM) system (copyright 1992, Gaussian, Inc.),
 the Gaussian 90(TM) system (copyright 1990, Gaussian, Inc.),
 the Gaussian 88(TM) system (copyright 1988, Gaussian, Inc.),
 the Gaussian 86(TM) system (copyright 1986, Carnegie Mellon
 University), and the Gaussian 82(TM) system (copyright 1983,
 Carnegie Mellon University). Gaussian is a federally registered
 trademark of Gaussian, Inc.
  
 This software contains proprietary and confidential information,
 including trade secrets, belonging to Gaussian, Inc.
  
 This software is provided under written license and may be
 used, copied, transmitted, or stored only in accord with that
 written license.
  
 The following legend is applicable only to US Government
 contracts under FAR:
  
                    RESTRICTED RIGHTS LEGEND
  
 Use, reproduction and disclosure by the US Government is
 subject to restrictions as set forth in subparagraphs (a)
 and (c) of the Commercial Computer Software - Restricted
 Rights clause in FAR 52.227-19.
  
 Gaussian, Inc.
 340 Quinnipiac St., Bldg. 40, Wallingford CT 06492
  
  
 ---------------------------------------------------------------
 Warning -- This program may not be used in any manner that
 competes with the business of Gaussian, Inc. or will provide
 assistance to any competitor of Gaussian, Inc.  The licensee
 of this program is prohibited from giving any competitor of
 Gaussian, Inc. access to this program.  By using this program,
 the user acknowledges that Gaussian, Inc. is engaged in the
 business of creating and licensing software in the field of
 computational chemistry and represents and warrants to the
 licensee that it is not a competitor of Gaussian, Inc. and that
 it will not use this program in any manner prohibited above.
 ---------------------------------------------------------------
  

 Cite this work as:
 Gaussian 16, Revision A.03,
 M. J. Frisch, G. W. Trucks, H. B. Schlegel, G. E. Scuseria, 
 M. A. Robb, J. R. Cheeseman, G. Scalmani, V. Barone, 
 G. A. Petersson, H. Nakatsuji, X. Li, M. Caricato, A. V. Marenich, 
 J. Bloino, B. G. Janesko, R. Gomperts, B. Mennucci, H. P. Hratchian, 
 J. V. Ortiz, A. F. Izmaylov, J. L. Sonnenberg, D. Williams-Young, 
 F. Ding, F. Lipparini, F. Egidi, J. Goings, B. Peng, A. Petrone, 
 T. Henderson, D. Ranasinghe, V. G. Zakrzewski, J. Gao, N. Rega, 
 G. Zheng, W. Liang, M. Hada, M. Ehara, K. Toyota, R. Fukuda, 
 J. Hasegawa, M. Ishida, T. Nakajima, Y. Honda, O. Kitao, H. Nakai, 
 T. Vreven, K. Throssell, J. A. Montgomery, Jr., J. E. Peralta, 
 F. Ogliaro, M. J. Bearpark, J. J. Heyd, E. N. Brothers, K. N. Kudin, 
 V. N. Staroverov, T. A. Keith, R. Kobayashi, J. Normand, 
 K. Raghavachari, A. P. Rendell, J. C. Burant, S. S. Iyengar, 
 J. Tomasi, M. Cossi, J. M. Millam, M. Klene, C. Adamo, R. Cammi, 
 J. W. Ochterski, R. L. Martin, K. Morokuma, O. Farkas, 
 J. B. Foresman, and D. J. Fox, Gaussian, Inc., Wallingford CT, 2016.
 
 ******************************************
 Gaussian 16:  EM64M-G16RevA.03 25-Dec-2016
                21-Feb-2024 
 ******************************************
 %nprocshared=8
 Will use up to    8 processors via shared memory.
 %mem=4GB
 %chk= 1.chk
 ---------------------
 # freq b3lyp/6-31g(d)
 ---------------------
 1/10=4,30=1,38=1/1,3;
 2/12=2,17=6,18=5,40=1/2;
 3/5=1,6=6,7=1,11=2,25=1,30=1,71=2,74=-5,140=1/1,2,3;
 4//1;
 5/5=2,38=5,98=1/2;
 8/6=4,10=90,11=11/1;
 11/6=1,8=1,9=11,15=111,16=1/1,2,10;
 10/6=1/2;
 6/7=2,8=2,9=2,10=2,28=1/1;
 7/8=1,10=1,25=1/1,2,3,16;
 1/10=4,30=1/3;
 99//99;
 ---------
 good luck
 ---------
 Symbolic Z-matrix:
 Charge =  0 Multiplicity = 1
 O                     1.21647   0.        0. 
 C                     0.        0.        0. 
 C                    -0.81929  -1.28467   0.00278 
 C                    -1.93541  -1.26021  -1.06137 
 C                    -2.81367   0.       -0.96189 
 C                    -3.9212    0.       -2.02211 
 C                    -1.93541   1.26021  -1.06137 
 C                    -0.81929   1.28467   0.00278 
 H                    -0.14035  -2.13166  -0.1327 
 H                    -1.27757  -1.38265   0.99932 
 H                    -1.48151  -1.29974  -2.06246 
 H                    -2.5532   -2.162    -0.96555 
 H                    -3.29099   0.        0.03175 
 H                    -4.56037   0.88593  -1.9298 
 H                    -3.49604   0.       -3.03395 
 H                    -4.56037  -0.88593  -1.9298 
 H                    -1.48151   1.29974  -2.06246 
 H                    -2.5532    2.162    -0.96555 
 H                    -0.14035   2.13166  -0.1327 
 H                    -1.27757   1.38265   0.99932 
 

 GradGradGradGradGradGradGradGradGradGradGradGradGradGradGradGradGradGrad
 Berny optimization.
 Initialization pass.
 Trust Radius=3.00D-01 FncErr=1.00D-07 GrdErr=1.00D-07 EigMax=2.50D+02 EigMin=1.00D-04
 Number of steps in this run=      2 maximum allowed number of steps=      2.
 GradGradGradGradGradGradGradGradGradGradGradGradGradGradGradGradGradGrad

                          Input orientation:                          
 ---------------------------------------------------------------------
 Center     Atomic      Atomic             Coordinates (Angstroms)
 Number     Number       Type             X           Y           Z
 ---------------------------------------------------------------------
      1          8           0        1.216470    0.000000    0.000000
      2          6           0        0.000000    0.000000    0.000000
      3          6           0       -0.819294   -1.284671    0.002783
      4          6           0       -1.935411   -1.260212   -1.061372
      5          6           0       -2.813668    0.000000   -0.961887
      6          6           0       -3.921202    0.000000   -2.022106
      7          6           0       -1.935411    1.260212   -1.061372
      8          6           0       -0.819294    1.284671    0.002783
      9          1           0       -0.140353   -2.131662   -0.132695
     10          1           0       -1.277569   -1.382654    0.999321
     11          1           0       -1.481513   -1.299737   -2.062456
     12          1           0       -2.553195   -2.162004   -0.965554
     13          1           0       -3.290994    0.000000    0.031745
     14          1           0       -4.560365    0.885925   -1.929800
     15          1           0       -3.496035    0.000000   -3.033954
     16          1           0       -4.560365   -0.885926   -1.929801
     17          1           0       -1.481513    1.299737   -2.062456
     18          1           0       -2.553196    2.162004   -0.965554
     19          1           0       -0.140353    2.131662   -0.132696
     20          1           0       -1.277569    1.382654    0.999321
 ---------------------------------------------------------------------
                    Distance matrix (angstroms):
                    1          2          3          4          5
     1  O    0.000000
     2  C    1.216470   0.000000
     3  C    2.407223   1.523690   0.000000
     4  C    3.556543   2.541744   1.542317   0.000000
     5  C    4.143337   2.973542   2.560956   1.539275   0.000000
     6  C    5.521285   4.411886   3.920764   2.540573   1.533198
     7  C    3.556543   2.541744   2.975663   2.520424   1.539275
     8  C    2.407223   1.523690   2.569342   2.975663   2.560956
     9  H    2.530328   2.140395   1.093942   2.200931   3.518260
    10  H    3.021689   2.131328   1.101229   2.166611   2.849152
    11  H    3.636228   2.852704   2.168864   1.099889   2.162222
    12  H    4.451621   3.482149   2.171129   1.097300   2.177641
    13  H    4.507576   3.291147   2.785771   2.149568   1.102336
    14  H    6.154739   5.030499   4.737296   3.500065   2.184644
    15  H    5.604693   4.628946   4.247010   2.813319   2.181533
    16  H    6.154740   5.030500   4.229597   2.790097   2.184645
    17  H    3.636228   2.852704   3.373857   2.785953   2.162222
    18  H    4.451622   3.482150   3.977897   3.478851   2.177641
    19  H    2.530328   2.140395   3.485778   3.948352   3.518260
    20  H    3.021689   2.131328   2.884047   3.415253   2.849152
                    6          7          8          9         10
     6  C    0.000000
     7  C    2.540573   0.000000
     8  C    3.920764   1.542317   0.000000
     9  H    4.733780   3.948352   3.485778   0.000000
    10  H    4.246122   3.415253   2.884047   1.770800   0.000000
    11  H    2.764602   2.785953   3.373857   2.492947   3.069682
    12  H    2.768033   3.478850   3.977896   2.552720   2.468875
    13  H    2.148364   2.149568   2.785771   3.807566   2.627131
    14  H    1.096318   2.790097   4.229597   5.645522   4.950045
    15  H    1.097544   2.813319   4.247010   4.921574   4.806312
    16  H    1.096319   3.500066   4.737297   4.931324   4.427555
    17  H    2.764602   1.099889   2.168864   4.158989   4.075695
    18  H    2.768032   1.097300   2.171130   4.995101   4.248830
    19  H    4.733780   2.200931   1.093942   4.263324   3.863307
    20  H    4.246122   2.166611   1.101229   3.863307   2.765308
                   11         12         13         14         15
    11  H    0.000000
    12  H    1.759318   0.000000
    13  H    3.057649   2.492632   0.000000
    14  H    3.778101   3.774702   2.498765   0.000000
    15  H    2.586779   3.137114   3.072548   1.771106   0.000000
    16  H    3.109368   2.566492   2.498766   1.771851   1.771106
    17  H    2.599474   3.786205   3.057649   3.109368   2.586779
    18  H    3.786205   4.324008   2.492632   2.566491   3.137114
    19  H    4.158988   4.995100   3.807566   4.931323   4.921573
    20  H    4.075695   4.248830   2.627131   4.427555   4.806312
                   16         17         18         19         20
    16  H    0.000000
    17  H    3.778101   0.000000
    18  H    3.774702   1.759319   0.000000
    19  H    5.645523   2.492947   2.552721   0.000000
    20  H    4.950047   3.069682   2.468875   1.770801   0.000000
 Stoichiometry    C7H12O
 Framework group  CS[SG(C3H2O),X(C4H10)]
 Deg. of freedom    30
 Full point group                 CS      NOp   2
 Largest Abelian subgroup         CS      NOp   2
 Largest concise Abelian subgroup CS      NOp   2
                         Standard orientation:                         
 ---------------------------------------------------------------------
 Center     Atomic      Atomic             Coordinates (Angstroms)
 Number     Number       Type             X           Y           Z
 ---------------------------------------------------------------------
      1          8           0        1.359369   -2.402559   -0.000000
      2          6           0        0.519933   -1.522134   -0.000000
      3          6           0       -0.047442   -0.931088   -1.284671
      4          6           0       -0.047442    0.611035   -1.260212
      5          6           0       -0.725493    1.178026    0.000000
      6          6           0       -0.722419    2.711221    0.000000
      7          6           0       -0.047442    0.611035    1.260212
      8          6           0       -0.047442   -0.931088    1.284671
      9          1           0        0.519120   -1.328986   -2.131662
     10          1           0       -1.084926   -1.287079   -1.382654
     11          1           0        0.990313    0.973331   -1.299737
     12          1           0       -0.543097    0.992039   -2.162004
     13          1           0       -1.774021    0.837829    0.000000
     14          1           0       -1.230286    3.110121    0.885925
     15          1           0        0.303300    3.101739    0.000000
     16          1           0       -1.230286    3.110121   -0.885925
     17          1           0        0.990313    0.973331    1.299737
     18          1           0       -0.543097    0.992039    2.162004
     19          1           0        0.519120   -1.328986    2.131662
     20          1           0       -1.084926   -1.287079    1.382654
 ---------------------------------------------------------------------
 Rotational constants (GHZ):           4.0336005           1.4361354           1.1567361
 Standard basis: 6-31G(d) (6D, 7F)
 There are    88 symmetry adapted cartesian basis functions of A'  symmetry.
 There are    56 symmetry adapted cartesian basis functions of A"  symmetry.
 There are    88 symmetry adapted basis functions of A'  symmetry.
 There are    56 symmetry adapted basis functions of A"  symmetry.
   144 basis functions,   272 primitive gaussians,   144 cartesian basis functions
    31 alpha electrons       31 beta electrons
       nuclear repulsion energy       385.1153011044 Hartrees.
 NAtoms=   20 NActive=   20 NUniq=   13 SFac= 2.37D+00 NAtFMM=   60 NAOKFM=F Big=F
 Integral buffers will be    131072 words long.
 Raffenetti 2 integral format.
 Two-electron integral symmetry is turned on.
 One-electron integrals computed using PRISM.
 NBasis=   144 RedAO= T EigKep=  3.47D-03  NBF=    88    56
 NBsUse=   144 1.00D-06 EigRej= -1.00D+00 NBFU=    88    56
 ExpMin= 1.61D-01 ExpMax= 5.48D+03 ExpMxC= 8.25D+02 IAcc=3 IRadAn=         5 AccDes= 0.00D+00
 Harris functional with IExCor=  402 and IRadAn=       5 diagonalized for initial guess.
 HarFok:  IExCor=  402 AccDes= 0.00D+00 IRadAn=         5 IDoV= 1 UseB2=F ITyADJ=14
 ICtDFT=  3500011 ScaDFX=  1.000000  1.000000  1.000000  1.000000
 FoFCou: FMM=F IPFlag=           0 FMFlag=      100000 FMFlg1=           0
         NFxFlg=           0 DoJE=T BraDBF=F KetDBF=T FulRan=T
         wScrn=  0.000000 ICntrl=       500 IOpCl=  0 I1Cent=   200000004 NGrid=           0
         NMat0=    1 NMatS0=      1 NMatT0=    0 NMatD0=    1 NMtDS0=    0 NMtDT0=    0
 Petite list used in FoFCou.
 Initial guess orbital symmetries:
       Occupied  (A') (A') (A") (A') (A") (A') (A') (A') (A') (A')
                 (A") (A') (A') (A") (A') (A') (A') (A') (A") (A")
                 (A') (A') (A") (A") (A') (A") (A') (A') (A") (A')
                 (A")
       Virtual   (A') (A') (A') (A') (A") (A') (A") (A') (A') (A")
                 (A") (A') (A') (A") (A') (A") (A') (A") (A') (A")
                 (A') (A') (A") (A') (A') (A") (A') (A") (A') (A")
                 (A') (A') (A') (A") (A") (A') (A') (A') (A") (A")
                 (A') (A') (A') (A") (A') (A") (A') (A') (A") (A")
                 (A') (A") (A') (A') (A') (A") (A') (A') (A") (A")
                 (A') (A") (A') (A') (A") (A') (A") (A') (A') (A")
                 (A") (A') (A") (A") (A') (A') (A') (A') (A") (A')
                 (A") (A') (A') (A") (A') (A") (A') (A') (A") (A")
                 (A') (A") (A') (A") (A") (A') (A') (A') (A") (A')
                 (A") (A') (A') (A') (A") (A') (A') (A') (A") (A')
                 (A") (A') (A')
 The electronic state of the initial guess is 1-A'.
 Keep R1 ints in memory in symmetry-blocked form, NReq=81864831.
 Requested convergence on RMS density matrix=1.00D-08 within 128 cycles.
 Requested convergence on MAX density matrix=1.00D-06.
 Requested convergence on             energy=1.00D-06.
 No special actions if energy rises.
 Integral accuracy reduced to 1.0D-05 until final iterations.
 Initial convergence to 1.0D-05 achieved.  Increase integral accuracy.
 SCF Done:  E(RB3LYP) =  -349.206235340     A.U. after   13 cycles
            NFock= 13  Conv=0.52D-08     -V/T= 2.0097
 DoSCS=F DFT=T ScalE2(SS,OS)=  1.000000  1.000000
 Range of M.O.s used for correlation:     1   144
 NBasis=   144 NAE=    31 NBE=    31 NFC=     0 NFV=     0
 NROrb=    144 NOA=    31 NOB=    31 NVA=   113 NVB=   113
 Symmetrizing basis deriv contribution to polar:
 IMax=3 JMax=2 DiffMx= 0.00D+00
 G2DrvN: will do    21 centers at a time, making    1 passes.
 Calling FoFCou, ICntrl=  3107 FMM=F I1Cent=   0 AccDes= 0.00D+00.
 End of G2Drv F.D. properties file   721 does not exist.
 End of G2Drv F.D. properties file   722 does not exist.
 End of G2Drv F.D. properties file   788 does not exist.
          IDoAtm=11111111111111111111
          Differentiating once with respect to electric field.
                with respect to dipole field.
          Differentiating once with respect to nuclear coordinates.
 Keep R1 ints in memory in symmetry-blocked form, NReq=81872926.
          There are    42 degrees of freedom in the 1st order CPHF.  IDoFFX=4 NUNeed=    42.
     42 vectors produced by pass  0 Test12= 8.34D-15 2.38D-09 XBig12= 4.90D+01 2.25D+00.
 AX will form    42 AO Fock derivatives at one time.
     42 vectors produced by pass  1 Test12= 8.34D-15 2.38D-09 XBig12= 6.99D+00 7.12D-01.
     42 vectors produced by pass  2 Test12= 8.34D-15 2.38D-09 XBig12= 7.58D-02 4.09D-02.
     42 vectors produced by pass  3 Test12= 8.34D-15 2.38D-09 XBig12= 6.01D-04 6.07D-03.
     42 vectors produced by pass  4 Test12= 8.34D-15 2.38D-09 XBig12= 1.40D-06 1.45D-04.
     27 vectors produced by pass  5 Test12= 8.34D-15 2.38D-09 XBig12= 1.33D-09 3.97D-06.
      3 vectors produced by pass  6 Test12= 8.34D-15 2.38D-09 XBig12= 1.08D-12 1.21D-07.
      2 vectors produced by pass  7 Test12= 8.34D-15 2.38D-09 XBig12= 1.04D-15 5.50D-09.
 InvSVY:  IOpt=1 It=  1 EMax= 3.55D-15
 Solved reduced A of dimension   242 with    42 vectors.
 Isotropic polarizability for W=    0.000000       72.56 Bohr**3.
 End of Minotr F.D. properties file   721 does not exist.
 End of Minotr F.D. properties file   722 does not exist.
 End of Minotr F.D. properties file   788 does not exist.

 **********************************************************************

            Population analysis using the SCF density.

 **********************************************************************

 Orbital symmetries:
       Occupied  (A') (A') (A') (A") (A') (A") (A') (A') (A') (A')
                 (A") (A') (A') (A") (A') (A') (A') (A") (A') (A')
                 (A") (A') (A") (A') (A") (A") (A') (A') (A') (A")
                 (A")
       Virtual   (A') (A') (A') (A') (A") (A') (A") (A') (A") (A')
                 (A') (A") (A") (A') (A') (A") (A') (A") (A') (A")
                 (A') (A') (A") (A') (A') (A") (A') (A") (A') (A")
                 (A') (A') (A') (A") (A") (A') (A') (A') (A") (A")
                 (A') (A') (A') (A") (A') (A") (A') (A') (A") (A')
                 (A") (A") (A') (A') (A') (A") (A') (A') (A") (A")
                 (A') (A") (A') (A') (A") (A') (A") (A') (A') (A")
                 (A') (A") (A") (A') (A") (A') (A') (A') (A") (A')
                 (A") (A') (A') (A") (A') (A") (A') (A') (A") (A")
                 (A') (A") (A') (A") (A") (A') (A') (A') (A') (A")
                 (A') (A") (A') (A') (A") (A') (A') (A') (A") (A')
                 (A") (A') (A')
 The electronic state is 1-A'.
 Alpha  occ. eigenvalues --  -19.13186 -10.26796 -10.19726 -10.19246 -10.19245
 Alpha  occ. eigenvalues --  -10.19021 -10.19020 -10.18074  -1.03056  -0.83736
 Alpha  occ. eigenvalues --   -0.75439  -0.75419  -0.66515  -0.62865  -0.57685
 Alpha  occ. eigenvalues --   -0.53174  -0.46032  -0.45808  -0.45020  -0.44305
 Alpha  occ. eigenvalues --   -0.43683  -0.40225  -0.39302  -0.38022  -0.37893
 Alpha  occ. eigenvalues --   -0.35730  -0.34900  -0.32692  -0.32121  -0.31845
 Alpha  occ. eigenvalues --   -0.23415
 Alpha virt. eigenvalues --   -0.01234   0.08874   0.09981   0.11732   0.12216
 Alpha virt. eigenvalues --    0.14894   0.15509   0.15756   0.16604   0.17450
 Alpha virt. eigenvalues --    0.18214   0.18330   0.18932   0.19293   0.23535
 Alpha virt. eigenvalues --    0.24798   0.25749   0.26262   0.27024   0.32094
 Alpha virt. eigenvalues --    0.35423   0.50136   0.50151   0.52216   0.52820
 Alpha virt. eigenvalues --    0.53762   0.57249   0.59801   0.62313   0.63484
 Alpha virt. eigenvalues --    0.64575   0.67567   0.69729   0.70496   0.72472
 Alpha virt. eigenvalues --    0.72938   0.74255   0.77779   0.81196   0.82686
 Alpha virt. eigenvalues --    0.84064   0.86689   0.87664   0.88137   0.88793
 Alpha virt. eigenvalues --    0.88866   0.91582   0.93037   0.93329   0.93669
 Alpha virt. eigenvalues --    0.94095   0.96367   0.96842   0.98720   1.06662
 Alpha virt. eigenvalues --    1.10838   1.11643   1.19203   1.21283   1.35706
 Alpha virt. eigenvalues --    1.37644   1.41789   1.43760   1.48602   1.52514
 Alpha virt. eigenvalues --    1.53007   1.69252   1.69780   1.72055   1.75458
 Alpha virt. eigenvalues --    1.75806   1.76328   1.78651   1.84364   1.85731
 Alpha virt. eigenvalues --    1.88350   1.91048   1.94046   1.95206   1.99532
 Alpha virt. eigenvalues --    2.00133   2.01405   2.03017   2.05698   2.10489
 Alpha virt. eigenvalues --    2.14631   2.21720   2.24019   2.25044   2.26281
 Alpha virt. eigenvalues --    2.33484   2.35128   2.42350   2.42868   2.45734
 Alpha virt. eigenvalues --    2.49990   2.51810   2.62444   2.64751   2.64907
 Alpha virt. eigenvalues --    2.74768   2.75431   2.79922   2.98171   3.01826
 Alpha virt. eigenvalues --    3.99691   4.11552   4.23242   4.25804   4.32121
 Alpha virt. eigenvalues --    4.54786   4.56700   4.61047
          Condensed to atoms (all electrons):
               1          2          3          4          5          6
     1  O    7.996220   0.592211  -0.078875   0.001443   0.000094   0.000000
     2  C    0.592211   4.465204   0.327713  -0.021622  -0.015609   0.000442
     3  C   -0.078875   0.327713   5.319869   0.324423  -0.036029   0.003969
     4  C    0.001443  -0.021622   0.324423   5.060925   0.385625  -0.045303
     5  C    0.000094  -0.015609  -0.036029   0.385625   4.873558   0.372926
     6  C    0.000000   0.000442   0.003969  -0.045303   0.372926   5.105355
     7  C    0.001443  -0.021622  -0.001734  -0.049496   0.385625  -0.045303
     8  C   -0.078875   0.327713  -0.143609  -0.001734  -0.036029   0.003969
     9  H    0.004727  -0.023970   0.343658  -0.024786   0.003683  -0.000125
    10  H    0.001241  -0.028549   0.347365  -0.035411  -0.003792   0.000004
    11  H    0.000387  -0.002964  -0.041642   0.370656  -0.039206  -0.004642
    12  H   -0.000068   0.002959  -0.027455   0.364598  -0.031487  -0.003848
    13  H   -0.000008  -0.002036  -0.001663  -0.052221   0.377092  -0.044069
    14  H   -0.000000  -0.000005  -0.000156   0.004720  -0.028352   0.369312
    15  H   -0.000000  -0.000043   0.000083  -0.006290  -0.032721   0.373030
    16  H   -0.000000  -0.000005   0.000023  -0.003853  -0.028352   0.369312
    17  H    0.000387  -0.002964   0.000694  -0.007712  -0.039206  -0.004642
    18  H   -0.000068   0.002959  -0.000297   0.005570  -0.031487  -0.003848
    19  H    0.004727  -0.023970   0.006788  -0.000174   0.003683  -0.000125
    20  H    0.001241  -0.028549   0.003678  -0.001647  -0.003792   0.000004
               7          8          9         10         11         12
     1  O    0.001443  -0.078875   0.004727   0.001241   0.000387  -0.000068
     2  C   -0.021622   0.327713  -0.023970  -0.028549  -0.002964   0.002959
     3  C   -0.001734  -0.143609   0.343658   0.347365  -0.041642  -0.027455
     4  C   -0.049496  -0.001734  -0.024786  -0.035411   0.370656   0.364598
     5  C    0.385625  -0.036029   0.003683  -0.003792  -0.039206  -0.031487
     6  C   -0.045303   0.003969  -0.000125   0.000004  -0.004642  -0.003848
     7  C    5.060925   0.324423  -0.000174  -0.001647  -0.007712   0.005570
     8  C    0.324423   5.319869   0.006788   0.003678   0.000694  -0.000297
     9  H   -0.000174   0.006788   0.560165  -0.026753  -0.003329  -0.002383
    10  H   -0.001647   0.003678  -0.026753   0.585433   0.005739  -0.006454
    11  H   -0.007712   0.000694  -0.003329   0.005739   0.602111  -0.037351
    12  H    0.005570  -0.000297  -0.002383  -0.006454  -0.037351   0.597262
    13  H   -0.052221  -0.001663  -0.000034   0.005054   0.006504  -0.004554
    14  H   -0.003853   0.000023   0.000002   0.000001  -0.000051  -0.000071
    15  H   -0.006290   0.000083   0.000002   0.000007   0.005073  -0.000279
    16  H    0.004720  -0.000156  -0.000002  -0.000007  -0.000280   0.004275
    17  H    0.370656  -0.041642  -0.000042   0.000100   0.005241  -0.000022
    18  H    0.364598  -0.027455   0.000017  -0.000012  -0.000022  -0.000192
    19  H   -0.024786   0.343658  -0.000178  -0.000140  -0.000042   0.000017
    20  H   -0.035411   0.347365  -0.000140   0.001133   0.000100  -0.000012
              13         14         15         16         17         18
     1  O   -0.000008  -0.000000  -0.000000  -0.000000   0.000387  -0.000068
     2  C   -0.002036  -0.000005  -0.000043  -0.000005  -0.002964   0.002959
     3  C   -0.001663  -0.000156   0.000083   0.000023   0.000694  -0.000297
     4  C   -0.052221   0.004720  -0.006290  -0.003853  -0.007712   0.005570
     5  C    0.377092  -0.028352  -0.032721  -0.028352  -0.039206  -0.031487
     6  C   -0.044069   0.369312   0.373030   0.369312  -0.004642  -0.003848
     7  C   -0.052221  -0.003853  -0.006290   0.004720   0.370656   0.364598
     8  C   -0.001663   0.000023   0.000083  -0.000156  -0.041642  -0.027455
     9  H   -0.000034   0.000002   0.000002  -0.000002  -0.000042   0.000017
    10  H    0.005054   0.000001   0.000007  -0.000007   0.000100  -0.000012
    11  H    0.006504  -0.000051   0.005073  -0.000280   0.005241  -0.000022
    12  H   -0.004554  -0.000071  -0.000279   0.004275  -0.000022  -0.000192
    13  H    0.643313  -0.003367   0.005684  -0.003367   0.006504  -0.004554
    14  H   -0.003367   0.574702  -0.031071  -0.029965  -0.000280   0.004275
    15  H    0.005684  -0.031071   0.575492  -0.031071   0.005073  -0.000279
    16  H   -0.003367  -0.029965  -0.031071   0.574702  -0.000051  -0.000071
    17  H    0.006504  -0.000280   0.005073  -0.000051   0.602111  -0.037351
    18  H   -0.004554   0.004275  -0.000279  -0.000071  -0.037351   0.597262
    19  H   -0.000034  -0.000002   0.000002   0.000002  -0.003329  -0.002383
    20  H    0.005054  -0.000007   0.000007   0.000001   0.005739  -0.006454
              19         20
     1  O    0.004727   0.001241
     2  C   -0.023970  -0.028549
     3  C    0.006788   0.003678
     4  C   -0.000174  -0.001647
     5  C    0.003683  -0.003792
     6  C   -0.000125   0.000004
     7  C   -0.024786  -0.035411
     8  C    0.343658   0.347365
     9  H   -0.000178  -0.000140
    10  H   -0.000140   0.001133
    11  H   -0.000042   0.000100
    12  H    0.000017  -0.000012
    13  H   -0.000034   0.005054
    14  H   -0.000002  -0.000007
    15  H    0.000002   0.000007
    16  H    0.000002   0.000001
    17  H   -0.003329   0.005739
    18  H   -0.002383  -0.006454
    19  H    0.560165  -0.026753
    20  H   -0.026753   0.585433
 Mulliken charges:
               1
     1  O   -0.446228
     2  C    0.452703
     3  C   -0.346805
     4  C   -0.267711
     5  C   -0.076225
     6  C   -0.446417
     7  C   -0.267711
     8  C   -0.346805
     9  H    0.162874
    10  H    0.153009
    11  H    0.140734
    12  H    0.139792
    13  H    0.120585
    14  H    0.144143
    15  H    0.143508
    16  H    0.144143
    17  H    0.140734
    18  H    0.139792
    19  H    0.162874
    20  H    0.153009
 Sum of Mulliken charges =  -0.00000
 Mulliken charges with hydrogens summed into heavy atoms:
               1
     1  O   -0.446228
     2  C    0.452703
     3  C   -0.030921
     4  C    0.012815
     5  C    0.044360
     6  C   -0.014623
     7  C    0.012815
     8  C   -0.030921
 APT charges:
               1
     1  O   -0.642990
     2  C    0.723535
     3  C   -0.051269
     4  C    0.129601
     5  C    0.107507
     6  C    0.084981
     7  C    0.129601
     8  C   -0.051269
     9  H   -0.028744
    10  H   -0.013121
    11  H   -0.040550
    12  H   -0.051996
    13  H   -0.073853
    14  H   -0.032137
    15  H   -0.022750
    16  H   -0.032137
    17  H   -0.040550
    18  H   -0.051996
    19  H   -0.028744
    20  H   -0.013121
 Sum of APT charges =  -0.00000
 APT charges with hydrogens summed into heavy atoms:
               1
     1  O   -0.642990
     2  C    0.723535
     3  C   -0.093134
     4  C    0.037055
     5  C    0.033654
     6  C   -0.002042
     7  C    0.037055
     8  C   -0.093134
 Electronic spatial extent (au):  <R**2>=           1074.5873
 Charge=              0.0000 electrons
 Dipole moment (field-independent basis, Debye):
    X=             -2.0449    Y=              2.3420    Z=              0.0000  Tot=              3.1091
 Quadrupole moment (field-independent basis, Debye-Ang):
   XX=            -51.7720   YY=            -56.9952   ZZ=            -47.8866
   XY=              5.6632   XZ=              0.0000   YZ=             -0.0000
 Traceless Quadrupole moment (field-independent basis, Debye-Ang):
   XX=              0.4459   YY=             -4.7773   ZZ=              4.3313
   XY=              5.6632   XZ=              0.0000   YZ=             -0.0000
 Octapole moment (field-independent basis, Debye-Ang**2):
  XXX=              0.3184  YYY=             10.3624  ZZZ=             -0.0000  XYY=            -13.4126
  XXY=              5.2363  XXZ=              0.0000  XZZ=              1.2072  YZZ=             -4.0031
  YYZ=             -0.0000  XYZ=              0.0000
 Hexadecapole moment (field-independent basis, Debye-Ang**3):
 XXXX=           -206.3156 YYYY=           -897.9261 ZZZZ=           -361.7132 XXXY=            134.3698
 XXXZ=              0.0000 YYYX=            158.4400 YYYZ=             -0.0000 ZZZX=              0.0000
 ZZZY=             -0.0000 XXYY=           -191.0443 XXZZ=            -92.8524 YYZZ=           -196.8233
 XXYZ=             -0.0000 YYXZ=              0.0000 ZZXY=             36.0726
 N-N= 3.851153011044D+02 E-N=-1.580726437773D+03  KE= 3.458514261635D+02
 Symmetry A'   KE= 2.580078162477D+02
 Symmetry A"   KE= 8.784360991577D+01
  Exact polarizability:  65.785  -8.953  79.767  -0.000  -0.000  72.120
 Approx polarizability: 104.434 -11.463 103.828   0.000  -0.000  96.776
 Calling FoFJK, ICntrl=    100127 FMM=F ISym2X=1 I1Cent= 0 IOpClX= 0 NMat=1 NMatS=1 NMatT=0.
 Full mass-weighted force constant matrix:
 Low frequencies ---   -5.9695   -4.2238   -0.0007   -0.0006   -0.0001    4.9888
 Low frequencies ---   76.5913  178.5147  206.0210
 Diagonal vibrational polarizability:
       10.6047371       7.4484154       4.6156637
 Harmonic frequencies (cm**-1), IR intensities (KM/Mole), Raman scattering
 activities (A**4/AMU), depolarization ratios for plane and unpolarized
 incident light, reduced masses (AMU), force constants (mDyne/A),
 and normal coordinates:
                      1                      2                      3
                     A'                     A"                     A'
 Frequencies --     76.5903               178.5145               206.0209
 Red. masses --      4.7442                 1.9093                 2.4713
 Frc consts  --      0.0164                 0.0358                 0.0618
 IR Inten    --      3.1647                 1.0140                 0.2084
  Atom  AN      X      Y      Z        X      Y      Z        X      Y      Z
     1   8     0.24   0.27  -0.00    -0.00  -0.00  -0.09     0.01   0.10  -0.00
     2   6    -0.03   0.01  -0.00     0.00   0.00  -0.01    -0.10  -0.01  -0.00
     3   6    -0.17  -0.09   0.02    -0.11  -0.01   0.04    -0.10  -0.01   0.00
     4   6    -0.08  -0.08  -0.01     0.13  -0.02   0.05     0.16  -0.01   0.02
     5   6     0.01   0.00  -0.00    -0.00   0.00  -0.03     0.11  -0.03  -0.00
     6   6     0.24   0.00  -0.00     0.00   0.00  -0.05    -0.15  -0.03  -0.00
     7   6    -0.08  -0.08   0.01    -0.13   0.02   0.05     0.16  -0.01  -0.02
     8   6    -0.17  -0.09  -0.02     0.11   0.01   0.04    -0.10  -0.01  -0.00
     9   1    -0.26  -0.12  -0.02    -0.27  -0.11  -0.02    -0.18  -0.11  -0.01
    10   1    -0.19  -0.04   0.14    -0.18   0.15   0.19    -0.16   0.18   0.05
    11   1    -0.06  -0.15  -0.07     0.19  -0.17   0.22     0.22  -0.16   0.13
    12   1    -0.10  -0.07  -0.00     0.31   0.08  -0.01     0.29   0.09  -0.01
    13   1    -0.04   0.15  -0.00    -0.00   0.00  -0.15     0.16  -0.16  -0.00
    14   1     0.30   0.08  -0.00    -0.16   0.02  -0.15    -0.24  -0.14  -0.00
    15   1     0.30  -0.16   0.00     0.00  -0.00   0.13    -0.23   0.18  -0.00
    16   1     0.30   0.08   0.00     0.16  -0.02  -0.15    -0.24  -0.14   0.00
    17   1    -0.06  -0.15   0.07    -0.19   0.17   0.22     0.22  -0.16  -0.13
    18   1    -0.10  -0.07   0.00    -0.31  -0.08  -0.01     0.29   0.09   0.01
    19   1    -0.26  -0.12   0.02     0.27   0.11  -0.02    -0.18  -0.11   0.01
    20   1    -0.19  -0.04  -0.14     0.18  -0.15   0.19    -0.16   0.18  -0.05
                      4                      5                      6
                     A"                     A"                     A'
 Frequencies --    235.5007               300.2033               373.7715
 Red. masses --      1.0703                 2.2911                 3.0523
 Frc consts  --      0.0350                 0.1217                 0.2512
 IR Inten    --      0.0005                 0.1145                 1.6184
  Atom  AN      X      Y      Z        X      Y      Z        X      Y      Z
     1   8    -0.00   0.00   0.01     0.00   0.00   0.07     0.10  -0.16   0.00
     2   6    -0.00  -0.00   0.01    -0.00   0.00   0.03     0.15  -0.10  -0.00
     3   6    -0.00  -0.01   0.00    -0.04  -0.04   0.01    -0.05  -0.04   0.12
     4   6    -0.03  -0.00  -0.03     0.04  -0.02  -0.12    -0.01   0.00   0.05
     5   6     0.00  -0.00  -0.01     0.00  -0.00  -0.14     0.00   0.15   0.00
     6   6    -0.00  -0.00   0.04    -0.00  -0.00   0.22    -0.07   0.19   0.00
     7   6     0.03   0.00  -0.03    -0.04   0.02  -0.12    -0.01   0.00  -0.05
     8   6     0.00   0.01   0.00     0.04   0.04   0.01    -0.05  -0.04  -0.12
     9   1     0.00  -0.01   0.00    -0.12  -0.15   0.00    -0.33  -0.05  -0.06
    10   1     0.01  -0.03   0.00    -0.07   0.02   0.10    -0.10   0.02   0.42
    11   1    -0.05   0.02  -0.09     0.06  -0.07  -0.11     0.00  -0.04  -0.00
    12   1    -0.09  -0.04  -0.01     0.08  -0.07  -0.16     0.00  -0.09   0.00
    13   1     0.00  -0.00   0.00     0.00  -0.00  -0.20    -0.01   0.18   0.00
    14   1    -0.48  -0.04  -0.22     0.14  -0.29   0.43    -0.12   0.14  -0.00
    15   1    -0.00   0.00   0.62    -0.00   0.00   0.20    -0.11   0.30   0.00
    16   1     0.48   0.04  -0.22    -0.14   0.29   0.43    -0.12   0.14   0.00
    17   1     0.05  -0.02  -0.09    -0.06   0.07  -0.11     0.00  -0.04   0.00
    18   1     0.09   0.04  -0.01    -0.08   0.07  -0.16     0.00  -0.09  -0.00
    19   1    -0.00   0.01   0.00     0.12   0.15   0.00    -0.33  -0.05   0.06
    20   1    -0.01   0.03   0.00     0.07  -0.02   0.10    -0.10   0.02  -0.42
                      7                      8                      9
                     A'                     A"                     A'
 Frequencies --    423.2553               427.2764               489.2933
 Red. masses --      1.8115                 3.7114                 2.2235
 Frc consts  --      0.1912                 0.3992                 0.3136
 IR Inten    --      0.0081                 4.1772                 0.7835
  Atom  AN      X      Y      Z        X      Y      Z        X      Y      Z
     1   8    -0.03  -0.00   0.00    -0.00  -0.00  -0.12     0.04   0.04   0.00
     2   6     0.03   0.05  -0.00     0.00   0.00   0.15    -0.13  -0.12  -0.00
     3   6    -0.01  -0.00  -0.01     0.05   0.17   0.19     0.02  -0.08  -0.06
     4   6    -0.02  -0.00  -0.13     0.01   0.14  -0.10    -0.01  -0.04  -0.01
     5   6     0.18  -0.01   0.00     0.00  -0.00  -0.10     0.06   0.11  -0.00
     6   6    -0.02  -0.01   0.00    -0.00  -0.00  -0.07    -0.04   0.18   0.00
     7   6    -0.02  -0.00   0.13    -0.01  -0.14  -0.10    -0.01  -0.04   0.01
     8   6    -0.01  -0.00   0.01    -0.05  -0.17   0.19     0.02  -0.08   0.06
     9   1    -0.09  -0.10  -0.02    -0.05  -0.00   0.21     0.32   0.05   0.07
    10   1    -0.02   0.01   0.12     0.01   0.24   0.28     0.09  -0.17  -0.42
    11   1    -0.05   0.06  -0.48    -0.05   0.28  -0.23     0.00  -0.08  -0.08
    12   1    -0.34  -0.09   0.01    -0.15  -0.05  -0.10    -0.02  -0.06  -0.02
    13   1     0.19  -0.04   0.00     0.00  -0.00  -0.16     0.03   0.18   0.00
    14   1    -0.11  -0.11  -0.00     0.03   0.04  -0.07    -0.11   0.11  -0.00
    15   1    -0.10   0.19   0.00    -0.00   0.00  -0.12    -0.10   0.34   0.00
    16   1    -0.11  -0.11   0.00    -0.03  -0.04  -0.07    -0.11   0.11   0.00
    17   1    -0.05   0.06   0.48     0.05  -0.28  -0.23     0.00  -0.08   0.08
    18   1    -0.34  -0.09  -0.01     0.15   0.05  -0.10    -0.02  -0.06   0.02
    19   1    -0.09  -0.10   0.02     0.05   0.00   0.21     0.32   0.05  -0.07
    20   1    -0.02   0.01  -0.12    -0.01  -0.24   0.28     0.09  -0.17   0.42
                     10                     11                     12
                     A"                     A'                     A'
 Frequencies --    503.7666               687.4431               749.6097
 Red. masses --      3.2400                 3.3695                 3.2825
 Frc consts  --      0.4845                 0.9382                 1.0867
 IR Inten    --      7.5554                 0.7562                 2.9140
  Atom  AN      X      Y      Z        X      Y      Z        X      Y      Z
     1   8    -0.00   0.00   0.28    -0.17   0.09  -0.00    -0.03   0.08   0.00
     2   6     0.00   0.00  -0.08     0.10   0.29  -0.00    -0.14  -0.04   0.00
     3   6    -0.09   0.10  -0.09     0.04  -0.07   0.06     0.05   0.03   0.23
     4   6    -0.01   0.13  -0.03    -0.00  -0.14   0.01    -0.00  -0.02   0.16
     5   6    -0.00  -0.00   0.03    -0.01   0.02   0.00     0.09   0.01  -0.00
     6   6     0.00  -0.00  -0.04    -0.01   0.10   0.00     0.02  -0.07  -0.00
     7   6     0.01  -0.13  -0.03    -0.00  -0.14  -0.01    -0.00  -0.02  -0.16
     8   6     0.09  -0.10  -0.09     0.04  -0.07  -0.06     0.05   0.03  -0.23
     9   1    -0.37   0.07  -0.26     0.10  -0.14   0.13     0.17   0.13   0.27
    10   1    -0.17   0.26   0.16     0.11  -0.31   0.20     0.06   0.06   0.02
    11   1    -0.01   0.14  -0.03     0.06  -0.29   0.16    -0.07   0.13  -0.14
    12   1    -0.05   0.19   0.02     0.21  -0.08  -0.08    -0.27  -0.30   0.19
    13   1    -0.00   0.00  -0.01    -0.04   0.12   0.00     0.09   0.01  -0.00
    14   1    -0.01   0.11  -0.10    -0.06   0.06  -0.00    -0.05  -0.15  -0.00
    15   1     0.00  -0.00  -0.09    -0.05   0.20   0.00    -0.03   0.06  -0.00
    16   1     0.01  -0.11  -0.10    -0.06   0.06   0.00    -0.05  -0.15   0.00
    17   1     0.01  -0.14  -0.03     0.06  -0.29  -0.16    -0.07   0.13   0.14
    18   1     0.05  -0.19   0.02     0.21  -0.08   0.08    -0.27  -0.30  -0.19
    19   1     0.37  -0.07  -0.26     0.10  -0.14  -0.13     0.17   0.13  -0.27
    20   1     0.17  -0.26   0.16     0.11  -0.31  -0.20     0.06   0.06  -0.02
                     13                     14                     15
                     A"                     A'                     A"
 Frequencies --    768.9222               812.5517               905.4357
 Red. masses --      1.5617                 2.0185                 1.9844
 Frc consts  --      0.5440                 0.7852                 0.9585
 IR Inten    --      3.3430                 2.0947                 2.6348
  Atom  AN      X      Y      Z        X      Y      Z        X      Y      Z
     1   8    -0.00   0.00  -0.02     0.02  -0.05   0.00    -0.00  -0.00  -0.02
     2   6    -0.00  -0.00  -0.08     0.10   0.04   0.00     0.00   0.00   0.08
     3   6     0.10  -0.04  -0.01    -0.07   0.04  -0.05    -0.04  -0.09  -0.03
     4   6     0.07  -0.04   0.03    -0.08  -0.00   0.09     0.07   0.08  -0.07
     5   6     0.00  -0.00   0.06     0.14   0.02  -0.00     0.00  -0.00   0.14
     6   6     0.00  -0.00   0.01     0.05  -0.08   0.00    -0.00   0.00   0.08
     7   6    -0.07   0.04   0.03    -0.08  -0.00  -0.09    -0.07  -0.08  -0.07
     8   6    -0.10   0.04  -0.01    -0.07   0.04   0.05     0.04   0.09  -0.03
     9   1    -0.24  -0.19  -0.18     0.06   0.32  -0.09     0.11  -0.29   0.16
    10   1    -0.01   0.18   0.33     0.02  -0.22  -0.13    -0.05  -0.02  -0.19
    11   1    -0.02   0.17  -0.24    -0.00  -0.21   0.12     0.07   0.07  -0.19
    12   1    -0.24  -0.21   0.13     0.01   0.22   0.14    -0.07   0.15   0.04
    13   1     0.00   0.00  -0.04     0.09   0.17  -0.00     0.00  -0.00  -0.03
    14   1     0.01   0.02   0.01    -0.13  -0.27  -0.01    -0.02   0.44  -0.13
    15   1    -0.00   0.00  -0.01    -0.09   0.28   0.00     0.00  -0.00  -0.18
    16   1    -0.01  -0.02   0.01    -0.13  -0.27   0.01     0.02  -0.44  -0.13
    17   1     0.02  -0.17  -0.24    -0.00  -0.21  -0.12    -0.07  -0.07  -0.19
    18   1     0.24   0.21   0.13     0.01   0.22  -0.14     0.07  -0.15   0.04
    19   1     0.24   0.19  -0.18     0.06   0.32   0.09    -0.11   0.29   0.16
    20   1     0.01  -0.18   0.33     0.02  -0.22   0.13     0.05   0.02  -0.19
                     16                     17                     18
                     A"                     A'                     A'
 Frequencies --    926.8759               962.4255               976.3690
 Red. masses --      1.3707                 2.0822                 1.3641
 Frc consts  --      0.6938                 1.1363                 0.7662
 IR Inten    --      1.8505                 0.2775                 3.9205
  Atom  AN      X      Y      Z        X      Y      Z        X      Y      Z
     1   8     0.00   0.00  -0.01     0.03  -0.03   0.00    -0.00   0.02   0.00
     2   6    -0.00  -0.00  -0.01     0.00  -0.02  -0.00    -0.05  -0.03   0.00
     3   6     0.08  -0.03  -0.00    -0.06   0.00   0.12     0.05  -0.03   0.00
     4   6    -0.07   0.02  -0.06    -0.01   0.07  -0.12    -0.03   0.03  -0.04
     5   6    -0.00   0.00   0.04     0.00   0.08  -0.00    -0.03   0.05   0.00
     6   6     0.00  -0.00   0.03    -0.03  -0.09   0.00     0.08  -0.07   0.00
     7   6     0.07  -0.02  -0.06    -0.01   0.07   0.12    -0.03   0.03   0.04
     8   6    -0.08   0.03  -0.00    -0.06   0.00  -0.12     0.05  -0.03  -0.00
     9   1    -0.12  -0.17  -0.07     0.23   0.07   0.28    -0.05  -0.21   0.02
    10   1     0.06  -0.07   0.32     0.07  -0.31  -0.09    -0.00   0.09   0.11
    11   1    -0.03  -0.03   0.33     0.10  -0.21  -0.01    -0.05   0.12   0.17
    12   1     0.28   0.14  -0.20     0.22   0.11  -0.23     0.11   0.04  -0.11
    13   1    -0.00   0.00   0.35     0.04  -0.02  -0.00    -0.16   0.45   0.00
    14   1    -0.02   0.12  -0.04     0.05  -0.02   0.01    -0.18  -0.33  -0.04
    15   1    -0.00   0.00  -0.03     0.03  -0.24  -0.00    -0.10   0.40  -0.00
    16   1     0.02  -0.12  -0.04     0.05  -0.02  -0.01    -0.18  -0.33   0.04
    17   1     0.03   0.03   0.33     0.10  -0.21   0.01    -0.05   0.12  -0.17
    18   1    -0.28  -0.14  -0.20     0.22   0.11   0.23     0.11   0.04   0.11
    19   1     0.12   0.17  -0.07     0.23   0.07  -0.28    -0.05  -0.21  -0.02
    20   1    -0.06   0.07   0.32     0.07  -0.31   0.09    -0.00   0.09  -0.11
                     19                     20                     21
                     A"                     A'                     A"
 Frequencies --   1019.9711              1021.8748              1084.3592
 Red. masses --      1.6443                 2.2252                 1.2062
 Frc consts  --      1.0079                 1.3690                 0.8357
 IR Inten    --      7.0838                 0.9825                 4.3151
  Atom  AN      X      Y      Z        X      Y      Z        X      Y      Z
     1   8     0.00  -0.00   0.02     0.03  -0.02  -0.00     0.00  -0.00  -0.00
     2   6    -0.00  -0.00  -0.05    -0.01  -0.04   0.00     0.00  -0.00   0.06
     3   6    -0.00   0.09   0.03    -0.00   0.16   0.02    -0.01   0.03  -0.03
     4   6     0.02  -0.10  -0.04    -0.00  -0.14  -0.08     0.01  -0.06  -0.03
     5   6    -0.00  -0.00   0.04    -0.05  -0.02  -0.00     0.00  -0.00   0.04
     6   6    -0.00   0.00   0.11     0.02   0.02  -0.00     0.00   0.00  -0.02
     7   6    -0.02   0.10  -0.04    -0.00  -0.14   0.08    -0.01   0.06  -0.03
     8   6     0.00  -0.09   0.03    -0.00   0.16  -0.02     0.01  -0.03  -0.03
     9   1    -0.01   0.27  -0.06    -0.04   0.33  -0.09     0.01  -0.14   0.06
    10   1     0.03   0.00   0.00    -0.02   0.24  -0.09    -0.12   0.43  -0.25
    11   1     0.06  -0.24  -0.11     0.02  -0.19  -0.01    -0.07   0.18   0.12
    12   1     0.09  -0.25  -0.15     0.15  -0.33  -0.25     0.05  -0.17  -0.10
    13   1    -0.00   0.00   0.01    -0.10   0.14   0.00     0.00  -0.00   0.46
    14   1    -0.04   0.44  -0.11    -0.06  -0.05  -0.02     0.01  -0.09   0.03
    15   1     0.00  -0.00  -0.18    -0.04   0.17   0.00     0.00   0.00   0.06
    16   1     0.04  -0.44  -0.11    -0.06  -0.05   0.02    -0.01   0.09   0.03
    17   1    -0.06   0.24  -0.11     0.02  -0.19   0.01     0.07  -0.18   0.12
    18   1    -0.09   0.25  -0.15     0.15  -0.33   0.25    -0.05   0.17  -0.10
    19   1     0.01  -0.27  -0.06    -0.04   0.33   0.09    -0.01   0.14   0.06
    20   1    -0.03  -0.00   0.00    -0.02   0.24   0.09     0.12  -0.43  -0.25
                     22                     23                     24
                     A'                     A"                     A'
 Frequencies --   1104.0928              1148.8124              1156.2984
 Red. masses --      2.6447                 1.7561                 2.0383
 Frc consts  --      1.8995                 1.3655                 1.6056
 IR Inten    --      0.1232                21.8584                 0.3048
  Atom  AN      X      Y      Z        X      Y      Z        X      Y      Z
     1   8    -0.02   0.01  -0.00     0.00  -0.00  -0.01    -0.01   0.05  -0.00
     2   6     0.04   0.05   0.00     0.00   0.00   0.10    -0.11  -0.09   0.00
     3   6    -0.01  -0.05  -0.07     0.02   0.09  -0.05     0.12   0.03  -0.02
     4   6     0.06  -0.02   0.05     0.02  -0.08  -0.06    -0.09  -0.02  -0.01
     5   6    -0.04   0.29   0.00    -0.00  -0.00   0.12     0.11   0.07   0.00
     6   6    -0.07  -0.16  -0.00     0.00   0.00  -0.06    -0.07  -0.02  -0.00
     7   6     0.06  -0.02  -0.05    -0.02   0.08  -0.06    -0.09  -0.02   0.01
     8   6    -0.01  -0.05   0.07    -0.02  -0.09  -0.05     0.12   0.03   0.02
     9   1    -0.06   0.10  -0.17    -0.02  -0.11   0.02    -0.19   0.02  -0.21
    10   1    -0.04   0.04  -0.07     0.05  -0.07   0.15     0.10  -0.06   0.35
    11   1     0.04   0.01  -0.23     0.11  -0.35  -0.18     0.01  -0.28   0.11
    12   1    -0.04  -0.35  -0.04    -0.09   0.39   0.20     0.11   0.19  -0.03
    13   1    -0.06   0.37   0.00    -0.00   0.00   0.07     0.15  -0.05   0.00
    14   1     0.07  -0.08   0.04     0.03  -0.21   0.06     0.12   0.11   0.04
    15   1     0.05  -0.47   0.00    -0.00   0.00   0.12     0.05  -0.34   0.00
    16   1     0.07  -0.08  -0.04    -0.03   0.21   0.06     0.12   0.11  -0.04
    17   1     0.04   0.01   0.23    -0.11   0.35  -0.18     0.01  -0.28  -0.11
    18   1    -0.04  -0.35   0.04     0.09  -0.39   0.20     0.11   0.19   0.03
    19   1    -0.06   0.10   0.17     0.02   0.11   0.02    -0.19   0.02   0.21
    20   1    -0.04   0.04   0.07    -0.05   0.07   0.15     0.10  -0.06  -0.35
                     25                     26                     27
                     A"                     A'                     A"
 Frequencies --   1207.2737              1255.0831              1280.7662
 Red. masses --      2.2306                 1.3161                 1.4862
 Frc consts  --      1.9155                 1.2215                 1.4364
 IR Inten    --     24.2270                 0.7093                 9.0367
  Atom  AN      X      Y      Z        X      Y      Z        X      Y      Z
     1   8    -0.00   0.00  -0.03     0.03  -0.04  -0.00    -0.00   0.00  -0.03
     2   6    -0.00  -0.00   0.21     0.04   0.03   0.00     0.00   0.00   0.16
     3   6     0.04   0.00  -0.08    -0.01   0.03   0.00    -0.00  -0.06  -0.01
     4   6    -0.07  -0.05   0.05    -0.05  -0.05   0.00     0.04   0.03  -0.02
     5   6     0.00  -0.00  -0.15     0.08   0.03  -0.00     0.00  -0.00   0.05
     6   6    -0.00   0.00   0.09    -0.06  -0.01   0.00     0.00   0.00  -0.03
     7   6     0.07   0.05   0.05    -0.05  -0.05  -0.00    -0.04  -0.03  -0.02
     8   6    -0.04  -0.00  -0.08    -0.01   0.03  -0.00     0.00   0.06  -0.01
     9   1    -0.13  -0.01  -0.18     0.12  -0.33   0.26    -0.16   0.48  -0.38
    10   1    -0.06   0.26  -0.02    -0.10   0.37  -0.19     0.00  -0.08  -0.01
    11   1    -0.09   0.03   0.15    -0.06   0.00   0.14     0.04   0.04  -0.09
    12   1    -0.07   0.22   0.17    -0.01   0.14   0.06     0.05  -0.09  -0.08
    13   1    -0.00   0.00  -0.47     0.01   0.22  -0.00     0.00  -0.00   0.25
    14   1    -0.05   0.28  -0.07     0.08   0.08   0.04     0.02  -0.09   0.02
    15   1    -0.00  -0.00  -0.18     0.02  -0.22   0.00     0.00  -0.00   0.07
    16   1     0.05  -0.28  -0.07     0.08   0.08  -0.04    -0.02   0.09   0.02
    17   1     0.09  -0.03   0.15    -0.06   0.00  -0.14    -0.04  -0.04  -0.09
    18   1     0.07  -0.22   0.17    -0.01   0.14  -0.06    -0.05   0.09  -0.08
    19   1     0.13   0.01  -0.18     0.12  -0.33  -0.26     0.16  -0.48  -0.38
    20   1     0.06  -0.26  -0.02    -0.10   0.37   0.19    -0.00   0.08  -0.01
                     28                     29                     30
                     A'                     A"                     A'
 Frequencies --   1287.7154              1333.4536              1346.9910
 Red. masses --      1.3852                 1.3792                 1.2588
 Frc consts  --      1.3533                 1.4449                 1.3457
 IR Inten    --      0.2254                 0.5051                 7.1125
  Atom  AN      X      Y      Z        X      Y      Z        X      Y      Z
     1   8    -0.02   0.01   0.00     0.00  -0.00   0.00    -0.01   0.01  -0.00
     2   6     0.03   0.03  -0.00    -0.00  -0.00   0.02    -0.01  -0.02   0.00
     3   6    -0.00  -0.07   0.02    -0.05   0.05  -0.03    -0.02  -0.00   0.02
     4   6    -0.05   0.04  -0.01     0.07  -0.06  -0.01     0.04  -0.03  -0.03
     5   6     0.11  -0.02  -0.00     0.00  -0.00  -0.07     0.05  -0.07   0.00
     6   6    -0.01   0.01   0.00    -0.00  -0.00   0.03    -0.07  -0.01  -0.00
     7   6    -0.05   0.04   0.01    -0.07   0.06  -0.01     0.04  -0.03   0.03
     8   6    -0.00  -0.07  -0.02     0.05  -0.05  -0.03    -0.02  -0.00  -0.02
     9   1    -0.05   0.20  -0.14     0.03  -0.00   0.05    -0.02   0.19  -0.07
    10   1    -0.06   0.15  -0.14     0.08  -0.39   0.17     0.04  -0.18   0.06
    11   1    -0.12   0.26   0.26    -0.10   0.43   0.13    -0.06   0.30   0.12
    12   1     0.18  -0.28  -0.27    -0.09   0.05   0.12    -0.05   0.10   0.07
    13   1     0.18  -0.23  -0.00    -0.00   0.00   0.33    -0.18   0.67  -0.00
    14   1     0.05   0.02   0.03    -0.02   0.07  -0.02     0.10   0.16   0.03
    15   1     0.01  -0.02  -0.00    -0.00  -0.00  -0.05    -0.02  -0.11   0.00
    16   1     0.05   0.02  -0.03     0.02  -0.07  -0.02     0.10   0.16  -0.03
    17   1    -0.12   0.26  -0.26     0.10  -0.43   0.13    -0.06   0.30  -0.12
    18   1     0.18  -0.28   0.27     0.09  -0.05   0.12    -0.05   0.10  -0.07
    19   1    -0.05   0.20   0.14    -0.03   0.00   0.05    -0.02   0.19   0.07
    20   1    -0.06   0.15   0.14    -0.08   0.39   0.17     0.04  -0.18  -0.06
                     31                     32                     33
                     A'                     A"                     A"
 Frequencies --   1365.1998              1368.7984              1398.5322
 Red. masses --      1.3632                 1.5419                 1.4702
 Frc consts  --      1.4969                 1.7022                 1.6942
 IR Inten    --      0.2181                16.1575                 0.0004
  Atom  AN      X      Y      Z        X      Y      Z        X      Y      Z
     1   8    -0.02   0.01  -0.00    -0.00   0.00   0.01     0.00  -0.00  -0.00
     2   6     0.02   0.02   0.00     0.00   0.00  -0.10     0.00   0.00   0.03
     3   6     0.04  -0.09   0.06     0.02  -0.06   0.09     0.00   0.01  -0.04
     4   6    -0.01   0.02  -0.02     0.02  -0.03  -0.05     0.00   0.06   0.07
     5   6    -0.04  -0.04   0.00    -0.00  -0.00  -0.07     0.00  -0.00  -0.14
     6   6     0.00  -0.00  -0.00    -0.00  -0.00   0.02    -0.00   0.00   0.03
     7   6    -0.01   0.02   0.02    -0.02   0.03  -0.05    -0.00  -0.06   0.07
     8   6     0.04  -0.09  -0.06    -0.02   0.06   0.09    -0.00  -0.01  -0.04
     9   1    -0.04   0.29  -0.17     0.01   0.24  -0.05     0.06  -0.12   0.05
    10   1    -0.08   0.36  -0.16    -0.04   0.22  -0.12    -0.01   0.02   0.08
    11   1     0.10  -0.28  -0.13     0.01   0.00   0.03     0.11  -0.29  -0.29
    12   1    -0.06   0.25   0.10    -0.14   0.44   0.24     0.01  -0.08   0.01
    13   1    -0.12   0.19  -0.00    -0.00   0.00   0.37    -0.00   0.00   0.70
    14   1    -0.02   0.03  -0.03    -0.03   0.04  -0.02    -0.07   0.04  -0.03
    15   1    -0.01   0.01   0.00    -0.00  -0.00  -0.07     0.00  -0.00  -0.15
    16   1    -0.02   0.03   0.03     0.03  -0.04  -0.02     0.07  -0.04  -0.03
    17   1     0.10  -0.28   0.13    -0.01  -0.00   0.03    -0.11   0.29  -0.29
    18   1    -0.06   0.25  -0.10     0.14  -0.44   0.24    -0.01   0.08   0.01
    19   1    -0.04   0.29   0.17    -0.01  -0.24  -0.05    -0.06   0.12   0.05
    20   1    -0.08   0.36   0.16     0.04  -0.22  -0.12     0.01  -0.02   0.08
                     34                     35                     36
                     A'                     A'                     A"
 Frequencies --   1416.2103              1441.1078              1491.0991
 Red. masses --      1.5904                 1.2335                 1.0929
 Frc consts  --      1.8793                 1.5093                 1.4317
 IR Inten    --      1.3129                 2.8786                 6.3951
  Atom  AN      X      Y      Z        X      Y      Z        X      Y      Z
     1   8     0.01  -0.01   0.00     0.00  -0.00  -0.00    -0.00   0.00   0.00
     2   6    -0.00   0.01  -0.00    -0.00   0.00   0.00     0.00  -0.00   0.00
     3   6     0.00   0.01  -0.03     0.00   0.00  -0.01    -0.02  -0.03  -0.04
     4   6    -0.02   0.10   0.05    -0.01   0.01   0.01    -0.00  -0.01  -0.00
     5   6     0.04  -0.14   0.00     0.00   0.01  -0.00     0.00   0.00   0.01
     6   6    -0.03   0.04  -0.00     0.00  -0.14   0.00    -0.00  -0.00  -0.01
     7   6    -0.02   0.10  -0.05    -0.01   0.01  -0.01     0.00   0.01  -0.00
     8   6     0.00   0.01   0.03     0.00   0.00   0.01     0.02   0.03  -0.04
     9   1     0.05  -0.14   0.06     0.01  -0.05   0.02     0.42   0.23   0.15
    10   1    -0.01   0.00   0.06    -0.00   0.01   0.00    -0.14   0.21   0.41
    11   1     0.11  -0.31  -0.15     0.02  -0.07  -0.01    -0.02   0.05  -0.03
    12   1     0.07  -0.36  -0.19     0.00  -0.07  -0.03     0.06   0.02  -0.03
    13   1    -0.16   0.49  -0.00     0.01  -0.01   0.00    -0.00   0.00  -0.06
    14   1     0.05  -0.02   0.07     0.12   0.51  -0.20     0.03   0.02   0.01
    15   1     0.03  -0.12   0.00    -0.23   0.52  -0.00    -0.00   0.00   0.06
    16   1     0.05  -0.02  -0.07     0.12   0.51   0.20    -0.03  -0.02   0.01
    17   1     0.11  -0.31   0.15     0.02  -0.07   0.01     0.02  -0.05  -0.03
    18   1     0.07  -0.36   0.19     0.00  -0.07   0.03    -0.06  -0.02  -0.03
    19   1     0.05  -0.14  -0.06     0.01  -0.05  -0.02    -0.42  -0.23   0.15
    20   1    -0.01   0.00  -0.06    -0.00   0.01  -0.00     0.14  -0.21   0.41
                     37                     38                     39
                     A'                     A"                     A'
 Frequencies --   1501.0371              1515.9870              1527.5445
 Red. masses --      1.0856                 1.0890                 1.0537
 Frc consts  --      1.4411                 1.4746                 1.4487
 IR Inten    --      9.5703                 1.4979                 3.7446
  Atom  AN      X      Y      Z        X      Y      Z        X      Y      Z
     1   8     0.00  -0.00   0.00     0.00  -0.00  -0.00     0.00  -0.00  -0.00
     2   6    -0.01  -0.01  -0.00    -0.00   0.00   0.01    -0.00   0.00   0.00
     3   6    -0.02  -0.03  -0.05    -0.00  -0.00  -0.01     0.00  -0.00  -0.00
     4   6    -0.00  -0.01   0.00     0.02   0.03  -0.04     0.01   0.01  -0.02
     5   6    -0.00   0.01  -0.00     0.00  -0.00   0.01    -0.02   0.01  -0.00
     6   6     0.00  -0.00   0.00     0.00  -0.00   0.02    -0.05   0.00  -0.00
     7   6    -0.00  -0.01  -0.00    -0.02  -0.03  -0.04     0.01   0.01   0.02
     8   6    -0.02  -0.03   0.05     0.00   0.00  -0.01     0.00  -0.00   0.00
     9   1     0.42   0.22   0.15     0.06   0.03   0.01     0.03   0.03   0.00
    10   1    -0.13   0.19   0.43    -0.02   0.02   0.06    -0.01   0.02   0.03
    11   1    -0.02   0.05  -0.05     0.11  -0.21   0.41     0.05  -0.09   0.16
    12   1     0.06   0.03  -0.02    -0.40  -0.22   0.10    -0.18  -0.05   0.06
    13   1     0.01  -0.04   0.00     0.00   0.00   0.01    -0.00  -0.07   0.00
    14   1    -0.01   0.00  -0.01    -0.12  -0.10  -0.02     0.45  -0.18   0.35
    15   1     0.00   0.00   0.00     0.00  -0.00  -0.22    -0.15   0.33   0.00
    16   1    -0.01   0.00   0.01     0.12   0.10  -0.02     0.45  -0.18  -0.35
    17   1    -0.02   0.05   0.05    -0.11   0.21   0.41     0.05  -0.09  -0.16
    18   1     0.06   0.03   0.02     0.40   0.22   0.10    -0.18  -0.05  -0.06
    19   1     0.42   0.22  -0.15    -0.06  -0.03   0.01     0.03   0.03  -0.00
    20   1    -0.13   0.19  -0.43     0.02  -0.02   0.06    -0.01   0.02  -0.03
                     40                     41                     42
                     A"                     A'                     A'
 Frequencies --   1530.8327              1532.5147              1818.7342
 Red. masses --      1.0569                 1.0805                11.0042
 Frc consts  --      1.4593                 1.4952                21.4460
 IR Inten    --      3.4801                 6.0807               190.8420
  Atom  AN      X      Y      Z        X      Y      Z        X      Y      Z
     1   8    -0.00   0.00  -0.00     0.00  -0.00   0.00     0.34  -0.36  -0.00
     2   6     0.00  -0.00   0.00    -0.00   0.00  -0.00    -0.53   0.54   0.00
     3   6     0.00   0.00  -0.00    -0.00  -0.00  -0.01     0.04  -0.04   0.01
     4   6     0.01   0.01  -0.00     0.02   0.02  -0.04     0.01  -0.01   0.00
     5   6     0.00  -0.00  -0.04     0.01   0.01  -0.00    -0.00   0.00   0.00
     6   6     0.00  -0.00  -0.05     0.02   0.00  -0.00    -0.00  -0.00   0.00
     7   6    -0.01  -0.01  -0.00     0.02   0.02   0.04     0.01  -0.01  -0.00
     8   6    -0.00  -0.00  -0.00    -0.00  -0.00   0.01     0.04  -0.04  -0.01
     9   1    -0.01  -0.02  -0.00     0.05   0.03   0.01    -0.14   0.16  -0.16
    10   1     0.00  -0.00  -0.01    -0.01   0.01   0.05     0.03  -0.09   0.07
    11   1     0.04  -0.09   0.11     0.10  -0.17   0.41    -0.02   0.05  -0.01
    12   1    -0.14  -0.06   0.05    -0.39  -0.20   0.11     0.02   0.02   0.02
    13   1    -0.00   0.00   0.08     0.02  -0.00   0.00     0.00  -0.00  -0.00
    14   1     0.36   0.29   0.05    -0.20   0.05  -0.15     0.00   0.00  -0.00
    15   1     0.00  -0.00   0.67     0.08  -0.16   0.00    -0.00   0.00  -0.00
    16   1    -0.36  -0.29   0.05    -0.20   0.05   0.15     0.00   0.00   0.00
    17   1    -0.04   0.09   0.11     0.10  -0.17  -0.41    -0.02   0.05   0.01
    18   1     0.14   0.06   0.05    -0.39  -0.20  -0.11     0.02   0.02  -0.02
    19   1     0.01   0.02  -0.00     0.05   0.03  -0.01    -0.14   0.16   0.16
    20   1    -0.00   0.00  -0.01    -0.01   0.01  -0.05     0.03  -0.09  -0.07
                     43                     44                     45
                     A'                     A"                     A'
 Frequencies --   2994.0492              3016.0544              3022.4876
 Red. masses --      1.0821                 1.0699                 1.0704
 Frc consts  --      5.7151                 5.7340                 5.7613
 IR Inten    --     12.9251                 3.8490                 6.6362
  Atom  AN      X      Y      Z        X      Y      Z        X      Y      Z
     1   8    -0.00   0.00  -0.00    -0.00   0.00  -0.00     0.00  -0.00  -0.00
     2   6     0.00   0.00   0.00     0.00  -0.00   0.00    -0.00  -0.00   0.00
     3   6     0.00   0.00   0.00    -0.04  -0.02  -0.01    -0.04  -0.02  -0.01
     4   6     0.01   0.00   0.00     0.02   0.01  -0.00     0.02   0.01  -0.00
     5   6    -0.08  -0.02  -0.00     0.00   0.00   0.00     0.00   0.00  -0.00
     6   6     0.01  -0.00  -0.00    -0.00  -0.00  -0.00    -0.00  -0.00  -0.00
     7   6     0.01   0.00  -0.00    -0.02  -0.01  -0.00     0.02   0.01   0.00
     8   6     0.00   0.00  -0.00     0.04   0.02  -0.01    -0.04  -0.02   0.01
     9   1     0.01  -0.00  -0.01    -0.09   0.05   0.11    -0.09   0.05   0.11
    10   1    -0.03  -0.01  -0.00     0.61   0.20   0.06     0.60   0.20   0.06
    11   1    -0.15  -0.05   0.00    -0.22  -0.07   0.01    -0.25  -0.08   0.01
    12   1    -0.01   0.01  -0.01     0.02  -0.01   0.02     0.02  -0.01   0.03
    13   1     0.92   0.29   0.00    -0.00  -0.00  -0.00    -0.03  -0.01  -0.00
    14   1    -0.02   0.01   0.03    -0.00   0.00   0.00    -0.02   0.01   0.03
    15   1    -0.06  -0.02   0.00     0.00   0.00  -0.00     0.05   0.02   0.00
    16   1    -0.02   0.01  -0.03     0.00  -0.00   0.00    -0.02   0.01  -0.03
    17   1    -0.15  -0.05  -0.00     0.22   0.07   0.01    -0.25  -0.08  -0.01
    18   1    -0.01   0.01   0.01    -0.02   0.01   0.02     0.02  -0.01  -0.03
    19   1     0.01  -0.00   0.01     0.09  -0.05   0.11    -0.09   0.05  -0.11
    20   1    -0.03  -0.01   0.00    -0.61  -0.20   0.06     0.60   0.20  -0.06
                     46                     47                     48
                     A"                     A'                     A'
 Frequencies --   3026.9405              3032.4598              3041.3654
 Red. masses --      1.0624                 1.0582                 1.0399
 Frc consts  --      5.7353                 5.7335                 5.6672
 IR Inten    --     15.5122                39.7928                59.2284
  Atom  AN      X      Y      Z        X      Y      Z        X      Y      Z
     1   8    -0.00   0.00   0.00     0.00  -0.00   0.00     0.00  -0.00  -0.00
     2   6     0.00  -0.00  -0.00    -0.00   0.00   0.00    -0.00   0.00   0.00
     3   6    -0.01  -0.01  -0.01    -0.01  -0.01  -0.01    -0.00  -0.00  -0.00
     4   6    -0.03  -0.02   0.02    -0.02  -0.02   0.02    -0.01  -0.01   0.01
     5   6    -0.00  -0.00  -0.00    -0.01  -0.01  -0.00    -0.01  -0.00  -0.00
     6   6    -0.00  -0.00  -0.00     0.01   0.02  -0.00    -0.01  -0.05   0.00
     7   6     0.03   0.02   0.02    -0.02  -0.02  -0.02    -0.01  -0.01  -0.01
     8   6     0.01   0.01  -0.01    -0.01  -0.01   0.01    -0.00  -0.00   0.00
     9   1    -0.05   0.03   0.07    -0.06   0.03   0.08    -0.02   0.01   0.03
    10   1     0.19   0.06   0.02     0.21   0.07   0.02     0.04   0.01   0.00
    11   1     0.55   0.19  -0.01     0.46   0.15  -0.01     0.22   0.07  -0.01
    12   1    -0.16   0.11  -0.26    -0.16   0.11  -0.28    -0.06   0.04  -0.11
    13   1     0.00   0.00  -0.00     0.15   0.05  -0.00     0.07   0.02  -0.00
    14   1    -0.00   0.00   0.01     0.09  -0.06  -0.16    -0.24   0.17   0.41
    15   1     0.00   0.00   0.00    -0.26  -0.09  -0.00     0.55   0.20   0.00
    16   1     0.00  -0.00   0.01     0.09  -0.06   0.16    -0.24   0.17  -0.41
    17   1    -0.55  -0.19  -0.01     0.46   0.15   0.01     0.22   0.07   0.01
    18   1     0.16  -0.11  -0.26    -0.16   0.11   0.28    -0.06   0.04   0.11
    19   1     0.05  -0.03   0.07    -0.06   0.03  -0.08    -0.02   0.01  -0.03
    20   1    -0.19  -0.06   0.02     0.21   0.07  -0.02     0.04   0.01  -0.00
                     49                     50                     51
                     A"                     A'                     A'
 Frequencies --   3072.4671              3076.0588              3104.9206
 Red. masses --      1.1004                 1.1009                 1.1014
 Frc consts  --      6.1201                 6.1375                 6.2562
 IR Inten    --     34.8486                32.7473                46.5706
  Atom  AN      X      Y      Z        X      Y      Z        X      Y      Z
     1   8    -0.00   0.00  -0.00     0.00   0.00  -0.00    -0.00   0.00   0.00
     2   6     0.00  -0.00   0.00     0.00  -0.00   0.00     0.00  -0.00  -0.00
     3   6    -0.00  -0.00  -0.00    -0.01  -0.00  -0.00     0.00  -0.00  -0.00
     4   6    -0.05   0.01  -0.04    -0.05   0.01  -0.04    -0.01   0.00  -0.01
     5   6     0.00   0.00  -0.00    -0.01  -0.00   0.00    -0.01  -0.00   0.00
     6   6    -0.00   0.00   0.01     0.01   0.00   0.00    -0.09   0.01   0.00
     7   6     0.05  -0.01  -0.04    -0.05   0.01   0.04    -0.01   0.00   0.01
     8   6     0.00   0.00  -0.00    -0.01  -0.00   0.00     0.00  -0.00   0.00
     9   1    -0.02   0.01   0.03    -0.02   0.02   0.03    -0.01   0.01   0.02
    10   1     0.08   0.03   0.01     0.09   0.03   0.01     0.01   0.00   0.00
    11   1     0.29   0.10  -0.02     0.31   0.11  -0.02     0.06   0.02  -0.00
    12   1     0.29  -0.22   0.51     0.27  -0.21   0.49     0.03  -0.02   0.06
    13   1    -0.00  -0.00  -0.00     0.12   0.04  -0.00     0.10   0.03   0.00
    14   1     0.02  -0.01  -0.03    -0.02   0.02   0.05     0.20  -0.16  -0.38
    15   1     0.00   0.00   0.00    -0.12  -0.04   0.00     0.69   0.26   0.00
    16   1    -0.02   0.01  -0.03    -0.02   0.02  -0.05     0.20  -0.16   0.38
    17   1    -0.29  -0.10  -0.02     0.31   0.11   0.02     0.06   0.02   0.00
    18   1    -0.29   0.22   0.51     0.27  -0.21  -0.49     0.03  -0.02  -0.06
    19   1     0.02  -0.01   0.03    -0.02   0.02  -0.03    -0.01   0.01  -0.02
    20   1    -0.08  -0.03   0.01     0.09   0.03  -0.01     0.01   0.00  -0.00
                     52                     53                     54
                     A"                     A"                     A'
 Frequencies --   3111.0980              3116.5629              3117.8515
 Red. masses --      1.1025                 1.0937                 1.0944
 Frc consts  --      6.2874                 6.2587                 6.2681
 IR Inten    --     34.4922                22.1329                18.5748
  Atom  AN      X      Y      Z        X      Y      Z        X      Y      Z
     1   8     0.00  -0.00   0.00     0.00  -0.00   0.00    -0.00   0.00   0.00
     2   6    -0.00   0.00  -0.00    -0.00   0.00  -0.00     0.00  -0.00  -0.00
     3   6     0.00   0.00   0.00     0.04  -0.02  -0.04     0.04  -0.02  -0.04
     4   6    -0.00   0.00  -0.00     0.00   0.00  -0.00     0.00   0.00  -0.00
     5   6     0.00  -0.00  -0.00    -0.00  -0.00   0.00     0.00   0.00  -0.00
     6   6    -0.00   0.00  -0.09    -0.00   0.00   0.00     0.00   0.00   0.00
     7   6     0.00  -0.00  -0.00    -0.00  -0.00  -0.00     0.00   0.00   0.00
     8   6    -0.00  -0.00   0.00    -0.04   0.02  -0.04     0.04  -0.02   0.04
     9   1    -0.00   0.00   0.00    -0.36   0.25   0.53    -0.36   0.24   0.53
    10   1    -0.00  -0.00  -0.00    -0.15  -0.05  -0.02    -0.16  -0.06  -0.02
    11   1     0.01   0.00  -0.00    -0.04  -0.02   0.00    -0.05  -0.02   0.00
    12   1     0.02  -0.01   0.03     0.00  -0.00   0.00     0.00  -0.01   0.01
    13   1    -0.00  -0.00   0.00     0.00   0.00   0.00    -0.01  -0.00  -0.00
    14   1    -0.34   0.25   0.56     0.00  -0.00  -0.00    -0.00   0.00   0.00
    15   1     0.00   0.00  -0.02     0.00   0.00  -0.00    -0.02  -0.01  -0.00
    16   1     0.34  -0.25   0.56    -0.00   0.00  -0.00    -0.00   0.00  -0.00
    17   1    -0.01  -0.00  -0.00     0.04   0.02   0.00    -0.05  -0.02  -0.00
    18   1    -0.02   0.01   0.03    -0.00   0.00   0.00     0.00  -0.01  -0.01
    19   1     0.00  -0.00   0.00     0.36  -0.25   0.53    -0.36   0.24  -0.53
    20   1     0.00   0.00  -0.00     0.15   0.05  -0.02    -0.16  -0.06   0.02

 -------------------
 - Thermochemistry -
 -------------------
 Temperature   298.150 Kelvin.  Pressure   1.00000 Atm.
 Atom     1 has atomic number  8 and mass  15.99491
 Atom     2 has atomic number  6 and mass  12.00000
 Atom     3 has atomic number  6 and mass  12.00000
 Atom     4 has atomic number  6 and mass  12.00000
 Atom     5 has atomic number  6 and mass  12.00000
 Atom     6 has atomic number  6 and mass  12.00000
 Atom     7 has atomic number  6 and mass  12.00000
 Atom     8 has atomic number  6 and mass  12.00000
 Atom     9 has atomic number  1 and mass   1.00783
 Atom    10 has atomic number  1 and mass   1.00783
 Atom    11 has atomic number  1 and mass   1.00783
 Atom    12 has atomic number  1 and mass   1.00783
 Atom    13 has atomic number  1 and mass   1.00783
 Atom    14 has atomic number  1 and mass   1.00783
 Atom    15 has atomic number  1 and mass   1.00783
 Atom    16 has atomic number  1 and mass   1.00783
 Atom    17 has atomic number  1 and mass   1.00783
 Atom    18 has atomic number  1 and mass   1.00783
 Atom    19 has atomic number  1 and mass   1.00783
 Atom    20 has atomic number  1 and mass   1.00783
 Molecular mass:   112.08882 amu.
 Principal axes and moments of inertia in atomic units:
                           1         2         3
     Eigenvalues --   447.426861256.665051560.20133
           X           -0.34454   0.00000   0.93877
           Y            0.93877   0.00000   0.34454
           Z           -0.00000   1.00000  -0.00000
 This molecule is an asymmetric top.
 Rotational symmetry number  1.
 Warning -- assumption of classical behavior for rotation
           may cause significant error
 Rotational temperatures (Kelvin)      0.19358     0.06892     0.05551
 Rotational constants (GHZ):           4.03360     1.43614     1.15674
 Zero-point vibrational energy     471869.6 (Joules/Mol)
                                  112.77953 (Kcal/Mol)
 Warning -- explicit consideration of  10 degrees of freedom as
           vibrations may cause significant error
 Vibrational temperatures:    110.20   256.84   296.42   338.83   431.93
          (Kelvin)            537.77   608.97   614.76   703.98   724.81
                              989.08  1078.52  1106.31  1169.08  1302.72
                             1333.57  1384.72  1404.78  1467.51  1470.25
                             1560.15  1588.54  1652.88  1663.66  1737.00
                             1805.78  1842.74  1852.74  1918.54  1938.02
                             1964.22  1969.40  2012.18  2037.61  2073.43
                             2145.36  2159.66  2181.17  2197.80  2202.53
                             2204.95  2616.75  4307.77  4339.43  4348.69
                             4355.09  4363.03  4375.85  4420.59  4425.76
                             4467.29  4476.18  4484.04  4485.89
 
 Zero-point correction=                           0.179726 (Hartree/Particle)
 Thermal correction to Energy=                    0.187631
 Thermal correction to Enthalpy=                  0.188575
 Thermal correction to Gibbs Free Energy=         0.147553
 Sum of electronic and zero-point Energies=           -349.026510
 Sum of electronic and thermal Energies=              -349.018605
 Sum of electronic and thermal Enthalpies=            -349.017660
 Sum of electronic and thermal Free Energies=         -349.058682
 
                     E (Thermal)             CV                S
                      KCal/Mol        Cal/Mol-Kelvin    Cal/Mol-Kelvin
 Total                  117.740             30.348             86.337
 Electronic               0.000              0.000              0.000
 Translational            0.889              2.981             40.058
 Rotational               0.889              2.981             28.263
 Vibrational            115.963             24.386             18.016
 Vibration     1          0.599              1.965              3.976
 Vibration     2          0.629              1.869              2.344
 Vibration     3          0.641              1.831              2.079
 Vibration     4          0.655              1.786              1.837
 Vibration     5          0.693              1.673              1.416
 Vibration     6          0.745              1.526              1.064
 Vibration     7          0.785              1.420              0.881
 Vibration     8          0.789              1.411              0.868
 Vibration     9          0.845              1.274              0.685
 Vibration    10          0.859              1.242              0.649
                       Q            Log10(Q)             Ln(Q)
 Total Bot       0.134971D-67        -67.869759       -156.275896
 Total V=0       0.628371D+15         14.798216         34.074152
 Vib (Bot)       0.863051D-81        -81.063964       -186.656674
 Vib (Bot)    1  0.269029D+01          0.429799          0.989648
 Vib (Bot)    2  0.112570D+01          0.051421          0.118401
 Vib (Bot)    3  0.965582D+00         -0.015211         -0.035024
 Vib (Bot)    4  0.834305D+00         -0.078675         -0.181157
 Vib (Bot)    5  0.633420D+00         -0.198308         -0.456622
 Vib (Bot)    6  0.485828D+00         -0.313518         -0.721901
 Vib (Bot)    7  0.413820D+00         -0.383189         -0.882325
 Vib (Bot)    8  0.408654D+00         -0.388645         -0.894887
 Vib (Bot)    9  0.339077D+00         -0.469702         -1.081529
 Vib (Bot)   10  0.325156D+00         -0.487909         -1.123451
 Vib (V=0)       0.401802D+02          1.604012          3.693374
 Vib (V=0)    1  0.323636D+01          0.510056          1.174448
 Vib (V=0)    2  0.173174D+01          0.238483          0.549129
 Vib (V=0)    3  0.158736D+01          0.200675          0.462071
 Vib (V=0)    4  0.147266D+01          0.168102          0.387069
 Vib (V=0)    5  0.130698D+01          0.116270          0.267721
 Vib (V=0)    6  0.119716D+01          0.078151          0.179950
 Vib (V=0)    7  0.114904D+01          0.060333          0.138923
 Vib (V=0)    8  0.114575D+01          0.059091          0.136063
 Vib (V=0)    9  0.110413D+01          0.043020          0.099058
 Vib (V=0)   10  0.109643D+01          0.039980          0.092058
 Electronic      0.100000D+01          0.000000          0.000000
 Translational   0.466442D+08          7.668797         17.658058
 Rotational      0.335279D+06          5.525407         12.722719
 ***** Axes restored to original set *****
 -------------------------------------------------------------------
 Center     Atomic                   Forces (Hartrees/Bohr)
 Number     Number              X              Y              Z
 -------------------------------------------------------------------
      1        8          -0.000081362   -0.000000000   -0.000036513
      2        6           0.000036722    0.000000000    0.000025405
      3        6           0.000013645   -0.000003835    0.000059584
      4        6          -0.000012384    0.000027521   -0.000016844
      5        6          -0.000020519   -0.000000000   -0.000030514
      6        6           0.000029238    0.000000000   -0.000000435
      7        6          -0.000012384   -0.000027521   -0.000016844
      8        6           0.000013645    0.000003835    0.000059584
      9        1           0.000011863   -0.000008901   -0.000007113
     10        1           0.000009198   -0.000005442   -0.000016166
     11        1           0.000006597   -0.000010974   -0.000000043
     12        1          -0.000003848   -0.000013668   -0.000001706
     13        1          -0.000005195   -0.000000000   -0.000000488
     14        1           0.000000769    0.000001522    0.000006814
     15        1          -0.000010566   -0.000000000   -0.000006507
     16        1           0.000000769   -0.000001522    0.000006814
     17        1           0.000006597    0.000010974   -0.000000043
     18        1          -0.000003848    0.000013668   -0.000001706
     19        1           0.000011863    0.000008901   -0.000007113
     20        1           0.000009198    0.000005442   -0.000016166
 -------------------------------------------------------------------
 Cartesian Forces:  Max     0.000081362 RMS     0.000020147

 GradGradGradGradGradGradGradGradGradGradGradGradGradGradGradGradGradGrad
 Berny optimization.
 Search for a local minimum.
 Step number   1 out of a maximum of    2
 All quantities printed in internal units (Hartrees-Bohrs-Radians)
 Second derivative matrix not updated -- analytic derivatives used.
 ITU=  0
     Eigenvalues ---    0.00138   0.00202   0.00261   0.00397   0.00803
     Eigenvalues ---    0.01167   0.01818   0.01958   0.02271   0.04265
     Eigenvalues ---    0.04438   0.04574   0.04661   0.04812   0.05112
     Eigenvalues ---    0.05124   0.06048   0.06131   0.06554   0.06678
     Eigenvalues ---    0.07587   0.07639   0.10025   0.10198   0.10939
     Eigenvalues ---    0.11673   0.12039   0.14194   0.16171   0.16455
     Eigenvalues ---    0.17083   0.19859   0.20746   0.26879   0.28801
     Eigenvalues ---    0.31882   0.36588   0.47355   0.50125   0.55294
     Eigenvalues ---    0.62029   0.63220   0.67142   0.72318   0.74199
     Eigenvalues ---    0.75612   0.77268   0.81284   0.83455   0.84705
     Eigenvalues ---    0.86007   0.87960   0.91386   1.67373
 Angle between quadratic step and forces=  78.22 degrees.
 ClnCor:  largest displacement from symmetrization is 4.69D-10 for atom    16.
 Linear search not attempted -- first point.
 ClnCor:  largest displacement from symmetrization is 4.07D-15 for atom    13.
 B after Tr=     0.000297   -0.000000   -0.001197
         Rot=    1.000000    0.000000   -0.000115    0.000000 Ang=  -0.01 deg.
 Variable       Old X    -DE/DX   Delta X   Delta X   Delta X     New X
                                 (Linear)    (Quad)   (Total)
    X1        2.29880  -0.00008   0.00000  -0.00060  -0.00030   2.29849
    Y1       -0.00000  -0.00000   0.00000  -0.00000  -0.00000  -0.00000
    Z1       -0.00000  -0.00004   0.00000  -0.00821  -0.00993  -0.00993
    X2        0.00000   0.00004   0.00000  -0.00052  -0.00022  -0.00022
    Y2       -0.00000   0.00000   0.00000  -0.00000  -0.00000  -0.00000
    Z2        0.00000   0.00003   0.00000  -0.00059  -0.00179  -0.00179
    X3       -1.54824   0.00001   0.00000  -0.00060  -0.00030  -1.54854
    Y3       -2.42768  -0.00000   0.00000   0.00014   0.00014  -2.42753
    Z3        0.00526   0.00006   0.00000   0.00238   0.00154   0.00680
    X4       -3.65740  -0.00001   0.00000   0.00003  -0.00013  -3.65753
[...]
 ,-0.04290978,-0.14451718,0.00805555,-0.00486932,-0.00053056,-0.0035379
 2,-0.06323462,0.53329162,0.00501088,-0.00357244,-0.00197770,-0.0047985
 3,0.00947411,0.00225595,0.00006428,0.00007504,-0.00009201,-0.00147666,
 -0.00248476,0.00115655,0.00735857,0.00911157,-0.08267244,-0.01530597,-
 0.02084727,0.00121053,-0.04985790,0.00326763,0.53880669,-0.04650684,0.
 04035997,0.00191915,-0.08933902,0.02059283,0.00031405,0.01430965,-0.01
 312914,-0.00236005,0.00100612,0.00218999,0.00006428,-0.01899713,-0.003
 84761,-0.01503107,-0.00108595,-0.00358152,0.00137464,-0.12310026,0.000
 05368,-0.04601799,0.51277109,0.01674113,0.00972834,0.00060955,0.024460
 73,-0.17164100,-0.00059260,0.01312914,-0.02383722,0.00025109,0.0009195
 6,0.00089638,-0.00007504,-0.02081436,0.00020999,-0.02100870,-0.0021837
 7,-0.00469364,0.00095011,-0.00516245,-0.08597217,-0.00191323,0.0785337
 4,0.53737277,0.00048308,0.00148004,0.02506447,0.00131733,-0.00085404,-
 0.08924166,-0.00236005,-0.00025109,0.01902406,0.00229014,0.00236997,-0
 .00009201,-0.00113091,-0.00390157,0.00183232,0.00107891,0.00114202,-0.
 00007975,-0.05185447,0.00702762,-0.12456399,-0.05164259,-0.00842195,0.
 48852993,0.00182643,0.00133153,0.00013577,0.01159700,-0.01578432,-0.00
 304242,-0.15281854,0.13121059,0.02288287,-0.01308669,0.01755104,0.0044
 2145,-0.00221053,-0.00212129,-0.00422221,-0.00031613,0.00153621,0.0003
 8178,-0.00029286,-0.00024039,-0.00008610,-0.00210181,-0.00274375,0.000
 44721,0.16353789,-0.00005707,0.00601337,0.00085327,0.02217013,-0.02658
 406,-0.00480099,0.12680299,-0.20870473,-0.02872082,-0.00152947,0.00224
 506,0.00112873,-0.00063383,0.00092332,-0.00020877,-0.00013165,0.000179
 27,-0.00019529,-0.00045200,0.00030358,-0.00041869,-0.00500649,-0.00324
 767,0.00076226,-0.13938982,0.22573899,-0.00076604,-0.00025294,-0.00115
 218,0.00063950,0.00265925,-0.00063498,0.02249481,-0.02902827,-0.055239
 94,-0.01448280,0.02018763,0.00364664,-0.00263555,-0.00169261,-0.003658
 83,-0.00070596,0.00130188,0.00058128,-0.00013186,-0.00052156,-0.000078
 30,-0.00004120,-0.00024693,0.00120606,-0.02273566,0.03078188,0.0566004
 1,-0.00118542,-0.00374705,-0.00333616,-0.01116191,0.00018394,0.0179422
 1,-0.08962440,-0.00784787,0.10254140,0.00941553,0.00291058,-0.02538728
 ,0.00160566,-0.00047446,-0.00026806,0.00002340,-0.00029092,-0.00019972
 ,-0.00012191,0.00029539,-0.00004504,0.00033643,0.00018044,-0.00115881,
 -0.00805166,-0.00308797,0.01753757,0.10047602,-0.00250210,-0.00266546,
 -0.00358563,-0.01217317,0.00126485,0.02898774,-0.00915970,-0.05384137,
 0.02565688,0.00077845,0.00041546,-0.00118267,-0.00050148,0.00005856,0.
 00101942,0.00010151,0.00004377,-0.00003229,-0.00041353,0.00023402,-0.0
 0016838,0.00138743,-0.00042304,-0.00341642,0.01024216,0.00371506,-0.02
 372115,0.01172312,0.05108960,-0.00069416,0.00065867,-0.00073469,0.0010
 0137,0.00000628,0.00059146,0.09809038,0.01987046,-0.24611863,0.0085465
 4,0.00200435,-0.02465196,0.00151880,-0.00061377,0.00041432,-0.00029451
 ,-0.00004794,0.00025162,-0.00036196,0.00007226,-0.00007928,0.00059322,
 -0.00014306,-0.00066992,0.00154515,-0.00004027,-0.00335734,-0.10485980
 ,-0.02218451,0.27341915,-0.00019653,0.00023823,0.00033577,0.00177328,0
 .00079380,-0.00049855,0.00941318,-0.00083738,-0.02425842,-0.09344269,0
 .00083348,0.09601537,-0.01023010,0.00136540,0.01852830,0.00067126,-0.0
 0062086,0.00147168,0.00031451,-0.00126385,-0.00039505,0.00000130,-0.00
 004665,-0.00022249,0.00121563,0.00007243,0.00089012,-0.00337620,-0.000
 46376,-0.00448980,0.10300657,0.00017057,0.00014635,0.00013918,0.000248
 73,-0.00029359,-0.00073097,0.00004288,-0.00007444,0.00051191,0.0004821
 7,-0.05195997,-0.00617898,0.01323991,-0.00247126,-0.02595630,-0.000990
 42,0.00086849,-0.00086165,0.00065536,0.00174663,-0.00136597,-0.0002233
 7,-0.00012299,0.00016817,-0.00024515,0.00014729,0.00035463,0.00048207,
 0.00101129,0.00016029,-0.00521884,0.05377330,-0.00128999,-0.00040664,0
 .00036899,0.00208583,0.00163424,-0.00054878,0.00720067,-0.00119014,-0.
 02088138,0.09565119,-0.00583563,-0.25455773,0.00199398,-0.00062538,-0.
 00355724,-0.00059722,0.00033318,0.00073787,-0.00016443,0.00055522,-0.0
 0002255,-0.00009933,-0.00038506,-0.00030050,0.00002435,0.00038628,0.00
 082535,-0.00383729,-0.00038574,-0.00224691,-0.10260774,0.00696014,0.27
 999690,-0.00189434,-0.00187127,0.00080573,-0.00086952,0.00495345,-0.00
 396690,-0.01471614,-0.02073892,-0.00036999,-0.13140626,-0.12039703,0.0
 1671832,0.01130102,0.01658749,-0.00282771,0.00128035,0.00050461,0.0002
 8990,-0.00234428,0.00283893,0.00005783,-0.00004483,-0.00016147,0.00063
 050,0.00016451,0.00024483,0.00058958,0.00159890,0.00051909,0.00038587,
 -0.00810797,-0.01134353,0.00169368,0.14325854,-0.00004910,0.00010756,-
 0.00015659,0.00066802,0.00061306,0.00036165,0.00095689,0.00222467,-0.0
 0003166,-0.11922311,-0.22100105,0.02094549,-0.01620375,-0.02294837,0.0
 0370980,-0.00164225,0.00065903,-0.00037156,0.00555055,-0.00349909,-0.0
 0091679,0.00035315,0.00070837,0.00023657,-0.00033885,0.00037079,-0.000
 39134,0.00001417,0.00019602,-0.00043322,0.00084261,0.00136673,0.000537
 42,0.12891986,0.24065363,-0.00231931,-0.00184236,0.00090238,-0.0017658
 9,0.00368661,-0.00375196,-0.01558525,-0.02195049,-0.00033260,0.0166685
 6,0.02164664,-0.05245096,-0.00146391,-0.00371165,-0.00068726,0.0003472
 8,0.00073266,-0.00000555,0.00025019,-0.00018502,0.00021742,0.00023894,
 0.00008200,0.00031725,0.00058416,0.00041966,0.00066456,0.00090607,-0.0
 0040801,0.00135034,0.01721466,0.02537364,-0.00268320,-0.01398940,-0.02
 329881,0.05517660,0.00012968,0.,0.00007793,-0.00035244,0.,-0.00004909,
 0.00063982,-0.00065206,0.00110629,-0.00998418,0.00139468,0.01785451,-0
 .09537297,0.,0.09469815,0.00943330,0.,-0.02432428,-0.00998418,-0.00139
 468,0.01785451,0.00063982,0.00065206,0.00110629,0.00030350,0.00002681,
 -0.00027122,-0.00021841,0.00023381,-0.00078590,-0.00170650,0.00344586,
 0.00000400,0.00078948,-0.00009196,-0.00059154,0.10749862,0.,0.00018353
 ,0.,0.,-0.00045046,0.,-0.00097724,0.00107248,-0.00055695,0.01451048,-0
 .00220540,-0.02635974,0.,-0.04921554,0.,0.,-0.00002244,0.,-0.01451048,
 -0.00220540,0.02635974,0.00097724,0.00107248,0.00055695,-0.00041123,-0
 .00005260,0.00009339,0.00003344,0.00005759,0.00072152,0.00384880,-0.00
 436912,-0.00054778,-0.00081380,0.00106958,-0.00001006,0.,0.05743698,0.
 00003549,0.,-0.00013385,-0.00001759,0.,0.00020320,-0.00037528,0.000297
 84,0.00058289,0.00160044,-0.00057881,-0.00361551,0.09473354,0.,-0.2441
 5589,0.00879178,0.,-0.02287466,0.00160044,0.00057881,-0.00361551,-0.00
 037528,-0.00029784,0.00058289,0.00000551,-0.00006388,0.00031635,0.0004
 3018,-0.00008109,0.00060137,-0.00016621,-0.00068459,0.00111956,-0.0001
 2942,-0.00048468,0.00024642,-0.10235821,0.,0.26909198,-0.00010744,-0.0
 0043472,-0.00001647,0.00035703,0.00105444,0.00017784,-0.00051433,0.001
 35907,0.00039185,-0.00274641,-0.00186725,-0.00436514,-0.01433158,0.019
 29085,0.00383696,-0.13615622,0.12200153,0.01492314,0.00056861,0.001546
 61,0.00080779,0.00032299,-0.00047375,-0.00009316,-0.00042404,-0.000060
 47,-0.00041884,0.00002065,-0.00001560,-0.00007608,0.00028974,-0.000376
 16,-0.00003188,0.00019853,0.00019140,-0.00007826,0.00104676,-0.0003889
 1,0.00004592,0.14655775,0.00015878,0.00013946,-0.00004328,-0.00019439,
 -0.00028438,0.00007880,0.00004026,0.00020260,-0.00035419,-0.00022135,0
 .00085899,0.00076420,-0.00118177,0.00010790,0.00044456,0.12264558,-0.2
 2232408,-0.02040550,-0.00069522,0.00067662,-0.00015126,0.00008382,0.00
 026373,0.00010292,0.00007553,-0.00000183,0.00006947,-0.00002603,0.0000
 0863,0.00003026,-0.00008882,-0.00000255,-0.00010290,-0.00011567,0.0004
 1290,-0.00014947,0.00007097,0.00012263,0.00055378,-0.13525473,0.239246
 52,-0.00011681,-0.00023999,0.00002243,0.00020025,0.00056857,0.00002011
 ,-0.00107181,0.00113001,0.00066830,-0.00290656,-0.00135065,-0.00353544
 ,-0.01411851,0.02074544,0.00232890,0.01533100,-0.02071808,-0.05166659,
 0.00065539,0.00067892,0.00059022,0.00025217,0.00006295,-0.00008704,-0.
 00040099,-0.00003103,-0.00040092,0.00015826,-0.00000133,0.00005985,-0.
 00038795,0.00005453,0.00032219,0.00017584,-0.00027007,-0.00014011,0.00
 085831,0.00028742,0.00083428,-0.01347429,0.02262354,0.05311464,0.00005
 103,0.,-0.00002472,-0.00000121,0.,0.00003098,0.00004869,-0.00011487,-0
 .00007869,0.00162614,-0.00067506,-0.00057332,0.01005613,0.,-0.02333491
 ,-0.09110605,0.,0.09545376,0.00162614,0.00067506,-0.00057332,0.0000486
 9,0.00011487,-0.00007869,-0.00000705,0.00000276,0.00009784,-0.00006513
 ,0.00001102,0.00014686,-0.00012429,0.00002841,0.00046461,-0.00008721,0
 .00010693,0.00008930,-0.00307715,0.,-0.00400729,-0.00786620,-0.0014330
 7,0.01703852,0.09702736,0.,-0.00010624,0.,0.,0.00026643,0.,0.00006041,
 -0.00012105,-0.00006068,-0.00062920,0.00017312,0.00097254,0.,-0.001093
 26,0.,0.,-0.05018777,0.,0.00062920,0.00017312,-0.00097254,-0.00006041,
 -0.00012105,0.00006068,0.00000549,-0.00001612,-0.00000430,0.00001592,-
 0.00004372,-0.00008420,0.00029870,0.00016850,-0.00006415,-0.00003337,-
 0.00000490,0.00010011,0.,0.00067761,0.,0.01048327,0.00099487,-0.026047
 68,0.,0.04814182,-0.00012082,0.,0.00001506,0.00020377,0.,-0.00002963,-
 0.00031773,0.00003973,0.00038214,0.00149688,-0.00082392,0.00041387,0.0
 0927127,0.,-0.02341261,0.09511327,0.,-0.26575985,0.00149688,0.00082392
 ,0.00041387,-0.00031773,-0.00003973,0.00038214,-0.00011277,0.00001150,
 -0.00001343,0.00018927,-0.00004666,0.00027517,-0.00092486,0.00070715,0
 .00056747,-0.00007159,0.00002555,-0.00000433,-0.00439340,0.,-0.0023015
 1,0.00094777,-0.00029510,-0.00175916,-0.10248805,0.,0.29176509,-0.0001
 0744,0.00043472,-0.00001647,0.00035703,-0.00105444,0.00017784,0.000322
 99,0.00047375,-0.00009316,0.00056861,-0.00154661,0.00080779,-0.0143315
 8,-0.01929085,0.00383696,-0.13615621,-0.12200153,0.01492314,-0.0027464
 1,0.00186725,-0.00436514,-0.00051433,-0.00135907,0.00039185,0.00002594
 ,0.00004336,0.00002805,-0.00002848,-0.00002454,0.00001816,-0.00007396,
 0.00003390,-0.00000884,-0.00003819,0.00110031,-0.00027675,0.00104676,0
 .00038891,0.00004592,0.01289883,0.01590254,-0.00233778,-0.00786620,-0.
 01048327,0.00094777,0.14655774,-0.00015878,0.00013946,0.00004328,0.000
 19439,-0.00028438,-0.00007880,-0.00008382,0.00026373,-0.00010292,0.000
 69522,0.00067662,0.00015126,0.00118177,0.00010790,-0.00044456,-0.12264
 558,-0.22232408,0.02040550,0.00022135,0.00085899,-0.00076420,-0.000040
 26,0.00020260,0.00035419,-0.00004300,0.00002306,-0.00003490,-0.0000021
 6,-0.00001512,-0.00001389,0.00001680,-0.00001745,-0.00003883,-0.000205
 19,0.00044058,0.00006553,-0.00007097,0.00012263,-0.00055378,-0.0159025
 4,-0.02085308,0.00318793,0.00143308,0.00099487,0.00029510,0.13525473,0
 .23924652,-0.00011681,0.00023999,0.00002243,0.00020025,-0.00056857,0.0
 0002011,0.00025217,-0.00006295,-0.00008704,0.00065539,-0.00067892,0.00
 059022,-0.01411851,-0.02074544,0.00232890,0.01533100,0.02071808,-0.051
 66659,-0.00290656,0.00135065,-0.00353544,-0.00107181,-0.00113001,0.000
 66830,0.00006920,0.00003736,0.00004073,-0.00002795,-0.00000391,-0.0000
 3554,0.00004940,0.00017747,0.00000164,0.00005430,0.00046957,0.00017892
 ,0.00085831,-0.00028742,0.00083428,-0.00233778,-0.00318793,-0.00055740
 ,0.01703852,0.02604768,-0.00175916,-0.01347429,-0.02262355,0.05311464,
 -0.00019653,-0.00023823,0.00033577,0.00177328,-0.00079379,-0.00049855,
 0.00000130,0.00004665,-0.00022249,0.00031451,0.00126385,-0.00039505,-0
 .01023010,-0.00136540,0.01852830,0.00067126,0.00062086,0.00147168,-0.0
 9344269,-0.00083347,0.09601537,0.00941318,0.00083738,-0.02425842,0.000
 06744,0.00004351,0.00004195,-0.00011326,0.00000524,-0.00000154,0.00063
 411,-0.00035623,-0.00034071,-0.00001551,0.00007757,-0.00025394,-0.0017
 0650,-0.00384880,-0.00016621,-0.00007396,-0.00001680,0.00004940,-0.000
 12429,-0.00029870,-0.00092486,0.00028974,0.00008882,-0.00038795,0.1030
 0657,-0.00017057,0.00014635,-0.00013918,-0.00024873,-0.00029359,0.0007
 3097,0.00022337,-0.00012299,-0.00016817,-0.00065536,0.00174663,0.00136
 597,-0.01323991,-0.00247126,0.02595630,0.00099042,0.00086849,0.0008616
 5,-0.00048216,-0.05195997,0.00617898,-0.00004288,-0.00007444,-0.000511
 91,0.00006239,-0.00000655,0.00003151,-0.00006099,0.00009362,-0.0001641
 0,0.00035623,-0.00034006,-0.00066315,0.00007475,0.00033579,-0.00037559
 ,-0.00344586,-0.00436912,0.00068459,-0.00003390,-0.00001745,-0.0001774
 7,-0.00002841,0.00016850,-0.00070715,0.00037616,-0.00000255,-0.0000545
 3,0.00521884,0.05377330,-0.00128999,0.00040664,0.00036899,0.00208583,-
 0.00163424,-0.00054878,-0.00009933,0.00038506,-0.00030050,-0.00016443,
 -0.00055522,-0.00002255,0.00199398,0.00062538,-0.00355724,-0.00059722,
 -0.00033318,0.00073787,0.09565119,0.00583563,-0.25455773,0.00720067,0.
 00119014,-0.02088138,0.00001264,0.00011547,-0.00001529,0.00001710,-0.0
 0004829,0.00015172,-0.00034071,0.00066315,0.00037257,-0.00017063,0.000
 09390,0.00034935,0.00000400,0.00054778,0.00111956,-0.00000884,0.000038
 83,0.00000164,0.00046461,0.00006415,0.00056747,-0.00003188,0.00010290,
 0.00032219,-0.10260774,-0.00696014,0.27999690,-0.00189434,0.00187127,0
 .00080573,-0.00086952,-0.00495345,-0.00396690,-0.00004483,0.00016147,0
 .00063050,-0.00234428,-0.00283893,0.00005783,0.01130102,-0.01658749,-0
 .00282771,0.00128035,-0.00050461,0.00028990,-0.13140626,0.12039703,0.0
 1671832,-0.01471614,0.02073892,-0.00036999,0.00006414,0.00011470,0.000
 10514,-0.00001301,-0.00005367,0.00000945,-0.00001551,-0.00007475,-0.00
 017063,0.00088179,-0.00109825,0.00000950,0.00078948,0.00081380,-0.0001
 2942,-0.00003819,0.00020519,0.00005430,-0.00008721,0.00003337,-0.00007
 159,0.00019853,0.00011567,0.00017584,-0.00810797,0.01134353,0.00169368
 ,0.14325854,0.00004910,0.00010756,0.00015659,-0.00066802,0.00061306,-0
 .00036165,-0.00035315,0.00070837,-0.00023657,-0.00555055,-0.00349909,0
 .00091679,0.01620375,-0.02294837,-0.00370980,0.00164225,0.00065903,0.0
 0037156,0.11922311,-0.22100105,-0.02094548,-0.00095689,0.00222467,0.00
 003166,0.00012798,0.00004701,0.00006776,0.00000621,-0.00001818,0.00004
 860,-0.00007757,0.00033579,-0.00009390,0.00109825,-0.00173412,-0.00009
 115,0.00009196,0.00106958,0.00048468,-0.00110031,0.00044058,-0.0004695
 7,-0.00010693,-0.00000490,-0.00002555,-0.00019140,0.00041290,0.0002700
 7,-0.00084261,0.00136673,-0.00053742,-0.12891986,0.24065363,-0.0023193
 1,0.00184236,0.00090238,-0.00176589,-0.00368661,-0.00375196,0.00023894
 ,-0.00008200,0.00031725,0.00025019,0.00018502,0.00021742,-0.00146392,0
 .00371165,-0.00068726,0.00034728,-0.00073266,-0.00000555,0.01666856,-0
 .02164664,-0.05245096,-0.01558525,0.02195049,-0.00033260,0.00003131,0.
 00009343,0.00005262,-0.00001571,-0.00000919,0.00001699,-0.00025394,0.0
 0037559,0.00034935,0.00000950,0.00009115,0.00058314,-0.00059154,0.0000
 1006,0.00024642,-0.00027675,-0.00006553,0.00017892,0.00008930,-0.00010
 011,-0.00000433,-0.00007826,0.00014947,-0.00014011,0.01721466,-0.02537
 364,-0.00268320,-0.01398939,0.02329881,0.05517660,0.00182643,-0.001331
 53,0.00013577,0.01159700,0.01578432,-0.00304242,-0.00210181,0.00274375
 ,0.00044721,-0.00029286,0.00024039,-0.00008610,-0.00221053,0.00212129,
 -0.00422221,-0.00031613,-0.00153621,0.00038178,-0.01308669,-0.01755104
 ,0.00442145,-0.15281854,-0.13121059,0.02288287,0.00059556,0.00091105,0
 .00009023,-0.00008872,-0.00008593,-0.00003146,0.00006744,-0.00006239,0
 .00001264,0.00006414,-0.00012798,0.00003131,0.00030350,0.00041123,0.00
 000551,0.00002594,0.00004300,0.00006920,-0.00000705,-0.00000549,-0.000
 11277,-0.00042404,-0.00007553,-0.00040099,0.00121563,0.00024515,0.0000
 2435,0.00016451,0.00033885,0.00058416,0.16353788,0.00005707,0.00601337
 ,-0.00085327,-0.02217013,-0.02658406,0.00480099,0.00500649,-0.00324767
 ,-0.00076226,0.00045200,0.00030358,0.00041869,0.00063383,0.00092332,0.
 00020877,0.00013165,0.00017927,0.00019530,0.00152947,0.00224506,-0.001
 12873,-0.12680299,-0.20870473,0.02872082,-0.00091105,-0.00151390,-0.00
 006840,0.00008380,0.00042066,0.00017850,-0.00004351,-0.00000655,-0.000
 11547,-0.00011470,0.00004701,-0.00009343,-0.00002681,-0.00005260,0.000
 06388,-0.00004336,0.00002306,-0.00003736,-0.00000276,-0.00001612,-0.00
 001150,0.00006047,-0.00000183,0.00003103,-0.00007243,0.00014729,-0.000
 38628,-0.00024483,0.00037079,-0.00041966,0.13938982,0.22573899,-0.0007
 6604,0.00025294,-0.00115218,0.00063950,-0.00265925,-0.00063498,-0.0000
 4120,0.00024693,0.00120606,-0.00013186,0.00052156,-0.00007830,-0.00263
 555,0.00169261,-0.00365883,-0.00070596,-0.00130188,0.00058128,-0.01448
 280,-0.02018763,0.00364664,0.02249481,0.02902828,-0.05523994,0.0000902
 3,0.00006840,0.00038474,-0.00032564,-0.00041499,0.00023248,0.00004195,
 -0.00003151,-0.00001529,0.00010514,-0.00006776,0.00005262,-0.00027122,
 -0.00009339,0.00031635,0.00002805,0.00003490,0.00004073,0.00009784,0.0
 0000430,-0.00001343,-0.00041884,-0.00006947,-0.00040092,0.00089012,-0.
 00035463,0.00082535,0.00058958,0.00039134,0.00066456,-0.02273567,-0.03
 078188,0.05660042,-0.00118542,0.00374705,-0.00333616,-0.01116191,-0.00
 018394,0.01794221,0.00033643,-0.00018044,-0.00115881,-0.00012191,-0.00
 029539,-0.00004504,0.00160566,0.00047446,-0.00026806,0.00002340,0.0002
 9092,-0.00019972,0.00941553,-0.00291058,-0.02538728,-0.08962440,0.0078
 4787,0.10254140,-0.00008872,-0.00008380,-0.00032564,0.00057190,0.00039
 165,-0.00026059,-0.00011326,0.00006099,0.00001710,-0.00001301,-0.00000
 621,-0.00001571,-0.00021841,-0.00003344,0.00043018,-0.00002848,0.00000
 216,-0.00002795,-0.00006513,-0.00001592,0.00018927,0.00002065,0.000026
 03,0.00015826,-0.00337620,-0.00048207,-0.00383729,0.00159890,-0.000014
 17,0.00090607,-0.00805166,0.00308797,0.01753757,0.10047602,0.00250210,
 -0.00266546,0.00358563,0.01217317,0.00126485,-0.02898774,-0.00138743,-
 0.00042304,0.00341642,0.00041353,0.00023402,0.00016838,0.00050148,0.00
 005856,-0.00101942,-0.00010152,0.00004377,0.00003229,-0.00077845,0.000
 41546,0.00118267,0.00915970,-0.05384137,-0.02565688,0.00008593,0.00042
 066,0.00041499,-0.00039165,-0.00160222,-0.00002623,-0.00000524,0.00009
 362,0.00004829,0.00005367,-0.00001818,0.00000919,-0.00023381,0.0000575
 9,0.00008109,0.00002454,-0.00001512,0.00000391,-0.00001102,-0.00004372
 ,0.00004666,0.00001560,0.00000863,0.00000133,0.00046376,0.00101129,0.0
 0038574,-0.00051909,0.00019602,0.00040801,-0.01024216,0.00371506,0.023
 72115,-0.01172312,0.05108960,-0.00069416,-0.00065867,-0.00073469,0.001
 00137,-0.00000628,0.00059146,0.00059322,0.00014306,-0.00066992,-0.0003
 6196,-0.00007226,-0.00007928,0.00151880,0.00061377,0.00041432,-0.00029
 451,0.00004794,0.00025162,0.00854654,-0.00200435,-0.02465196,0.0980903
 8,-0.01987047,-0.24611863,-0.00003146,-0.00017850,0.00023248,-0.000260
 59,0.00002623,0.00052979,-0.00000154,0.00016410,0.00015172,0.00000945,
 -0.00004860,0.00001699,-0.00078590,-0.00072152,0.00060137,0.00001816,0
 .00001389,-0.00003554,0.00014686,0.00008420,0.00027517,-0.00007608,-0.
 00003026,0.00005985,-0.00448980,-0.00016029,-0.00224691,0.00038587,0.0
 0043322,0.00135034,0.00154515,0.00004027,-0.00335734,-0.10485980,0.022
 18452,0.27341915\\0.00008136,0.,0.00003651,-0.00003672,0.,-0.00002540,
 -0.00001364,0.00000384,-0.00005958,0.00001238,-0.00002752,0.00001684,0
 .00002052,0.,0.00003051,-0.00002924,0.,0.00000044,0.00001238,0.0000275
 2,0.00001684,-0.00001364,-0.00000384,-0.00005958,-0.00001186,0.0000089
 0,0.00000711,-0.00000920,0.00000544,0.00001617,-0.00000660,0.00001097,
 0.00000004,0.00000385,0.00001367,0.00000171,0.00000520,0.,0.00000049,-
 0.00000077,-0.00000152,-0.00000681,0.00001057,0.,0.00000651,-0.0000007
 7,0.00000152,-0.00000681,-0.00000660,-0.00001097,0.00000004,0.00000385
 ,-0.00001367,0.00000171,-0.00001186,-0.00000890,0.00000711,-0.00000920
 ,-0.00000544,0.00001617\\\@


 LENDING MONEY TO FRIENDS CAUSES THEM TO LOSE THEIR MEMORIES.

    --  PETER'S THEORY OF RECIPROCAL INHIBITION OF FISCAL RECALL
 Job cpu time:       0 days  0 hours  0 minutes 39.5 seconds.
 Elapsed time:       0 days  0 hours  0 minutes 40.7 seconds.
 File lengths (MBytes):  RWF=     42 Int=      0 D2E=      0 Chk=      4 Scr=      1
 Normal termination of Gaussian 16 at Wed Feb 21 18:18:35 2024.
