 Entering Gaussian System, Link 0=g16
 Input=/Volumes/SSD-PMU3/b3lyp_6-31gd_freq/MJFJFHJQZCMMKL-MRVPVSSYSA-N_calculating/gaussianinput1.gjf
 Output=/Volumes/SSD-PMU3/b3lyp_6-31gd_freq/MJFJFHJQZCMMKL-MRVPVSSYSA-N_calculating/gaussianinput1.log
 Initial command:
 /Applications/g16/l1.exe "/Users/macmini_m1_2022/PycharmProjects/sphere_model/sphere_model_lib/Gau-55131.inp" -scrdir="/Users/macmini_m1_2022/PycharmProjects/sphere_model/sphere_model_lib/"
 Entering Link 1 = /Applications/g16/l1.exe PID=     55132.
  
 Copyright (c) 1988,1990,1992,1993,1995,1998,2003,2009,2016,
            Gaussian, Inc.  All Rights Reserved.
  
 This is part of the Gaussian(R) 16 program.  It is based on
 the Gaussian(R) 09 system (copyright 2009, Gaussian, Inc.),
 the Gaussian(R) 03 system (copyright 2003, Gaussian, Inc.),
 the Gaussian(R) 98 system (copyright 1998, Gaussian, Inc.),
 the Gaussian(R) 94 system (copyright 1995, Gaussian, Inc.),
 the Gaussian 92(TM) system (copyright 1992, Gaussian, Inc.),
 the Gaussian 90(TM) system (copyright 1990, Gaussian, Inc.),
 the Gaussian 88(TM) system (copyright 1988, Gaussian, Inc.),
 the Gaussian 86(TM) system (copyright 1986, Carnegie Mellon
 University), and the Gaussian 82(TM) system (copyright 1983,
 Carnegie Mellon University). Gaussian is a federally registered
 trademark of Gaussian, Inc.
  
 This software contains proprietary and confidential information,
 including trade secrets, belonging to Gaussian, Inc.
  
 This software is provided under written license and may be
 used, copied, transmitted, or stored only in accord with that
 written license.
  
 The following legend is applicable only to US Government
 contracts under FAR:
  
                    RESTRICTED RIGHTS LEGEND
  
 Use, reproduction and disclosure by the US Government is
 subject to restrictions as set forth in subparagraphs (a)
 and (c) of the Commercial Computer Software - Restricted
 Rights clause in FAR 52.227-19.
  
 Gaussian, Inc.
 340 Quinnipiac St., Bldg. 40, Wallingford CT 06492
  
  
 ---------------------------------------------------------------
 Warning -- This program may not be used in any manner that
 competes with the business of Gaussian, Inc. or will provide
 assistance to any competitor of Gaussian, Inc.  The licensee
 of this program is prohibited from giving any competitor of
 Gaussian, Inc. access to this program.  By using this program,
 the user acknowledges that Gaussian, Inc. is engaged in the
 business of creating and licensing software in the field of
 computational chemistry and represents and warrants to the
 licensee that it is not a competitor of Gaussian, Inc. and that
 it will not use this program in any manner prohibited above.
 ---------------------------------------------------------------
  

 Cite this work as:
 Gaussian 16, Revision A.03,
 M. J. Frisch, G. W. Trucks, H. B. Schlegel, G. E. Scuseria, 
 M. A. Robb, J. R. Cheeseman, G. Scalmani, V. Barone, 
 G. A. Petersson, H. Nakatsuji, X. Li, M. Caricato, A. V. Marenich, 
 J. Bloino, B. G. Janesko, R. Gomperts, B. Mennucci, H. P. Hratchian, 
 J. V. Ortiz, A. F. Izmaylov, J. L. Sonnenberg, D. Williams-Young, 
 F. Ding, F. Lipparini, F. Egidi, J. Goings, B. Peng, A. Petrone, 
 T. Henderson, D. Ranasinghe, V. G. Zakrzewski, J. Gao, N. Rega, 
 G. Zheng, W. Liang, M. Hada, M. Ehara, K. Toyota, R. Fukuda, 
 J. Hasegawa, M. Ishida, T. Nakajima, Y. Honda, O. Kitao, H. Nakai, 
 T. Vreven, K. Throssell, J. A. Montgomery, Jr., J. E. Peralta, 
 F. Ogliaro, M. J. Bearpark, J. J. Heyd, E. N. Brothers, K. N. Kudin, 
 V. N. Staroverov, T. A. Keith, R. Kobayashi, J. Normand, 
 K. Raghavachari, A. P. Rendell, J. C. Burant, S. S. Iyengar, 
 J. Tomasi, M. Cossi, J. M. Millam, M. Klene, C. Adamo, R. Cammi, 
 J. W. Ochterski, R. L. Martin, K. Morokuma, O. Farkas, 
 J. B. Foresman, and D. J. Fox, Gaussian, Inc., Wallingford CT, 2016.
 
 ******************************************
 Gaussian 16:  EM64M-G16RevA.03 25-Dec-2016
                21-Feb-2024 
 ******************************************
 %nprocshared=8
 Will use up to    8 processors via shared memory.
 %mem=4GB
 %chk= 1.chk
 ---------------------
 # freq b3lyp/6-31g(d)
 ---------------------
 1/10=4,30=1,38=1/1,3;
 2/12=2,17=6,18=5,40=1/2;
 3/5=1,6=6,7=1,11=2,25=1,30=1,71=2,74=-5,140=1/1,2,3;
 4//1;
 5/5=2,38=5,98=1/2;
 8/6=4,10=90,11=11/1;
 11/6=1,8=1,9=11,15=111,16=1/1,2,10;
 10/6=1/2;
 6/7=2,8=2,9=2,10=2,28=1/1;
 7/8=1,10=1,25=1/1,2,3,16;
 1/10=4,30=1/3;
 99//99;
 ---------
 good luck
 ---------
 Symbolic Z-matrix:
 Charge =  0 Multiplicity = 1
 O                     1.21928   0.        0. 
 C                     0.        0.        0. 
 C                    -0.77458  -1.32581   0.01537 
 C                    -0.17082  -2.26042   1.07702 
 C                    -0.72253  -1.99037  -1.38367 
 C                    -1.43721  -1.26566  -2.54018 
 C                    -0.85321   0.11553  -2.93067 
 C                    -1.64369   1.34378  -2.43625 
 C                    -1.98844   1.38846  -0.93887 
 C                    -0.7841    1.30767   0.01537 
 H                    -1.82472  -1.13136   0.26855 
 H                    -0.69552  -3.22223   1.0864 
 H                    -0.24358  -1.82504   2.08024 
 H                     0.88764  -2.43751   0.86613 
 H                     0.33522  -2.13006  -1.64535 
 H                    -1.15454  -2.99538  -1.28567 
 H                    -2.50869  -1.17094  -2.31224 
 H                    -1.38267  -1.93139  -3.41065 
 H                     0.18775   0.18042  -2.5907 
 H                    -0.80323   0.18718  -4.02449 
 H                    -2.58708   1.40476  -2.99703 
 H                    -1.07591   2.24732  -2.69907 
 H                    -2.70148   0.58957  -0.70036 
 H                    -2.521     2.32602  -0.73443 
 H                    -1.14988   1.43463   1.04687 
 H                    -0.07103   2.11817  -0.17193 
 

 GradGradGradGradGradGradGradGradGradGradGradGradGradGradGradGradGradGrad
 Berny optimization.
 Initialization pass.
 Trust Radius=3.00D-01 FncErr=1.00D-07 GrdErr=1.00D-07 EigMax=2.50D+02 EigMin=1.00D-04
 Number of steps in this run=      2 maximum allowed number of steps=      2.
 GradGradGradGradGradGradGradGradGradGradGradGradGradGradGradGradGradGrad

                          Input orientation:                          
 ---------------------------------------------------------------------
 Center     Atomic      Atomic             Coordinates (Angstroms)
 Number     Number       Type             X           Y           Z
 ---------------------------------------------------------------------
      1          8           0        1.219279    0.000000    0.000000
      2          6           0        0.000000    0.000000    0.000000
      3          6           0       -0.774576   -1.325808    0.015371
      4          6           0       -0.170820   -2.260419    1.077021
      5          6           0       -0.722528   -1.990372   -1.383672
      6          6           0       -1.437206   -1.265657   -2.540182
      7          6           0       -0.853206    0.115534   -2.930669
      8          6           0       -1.643686    1.343775   -2.436253
      9          6           0       -1.988443    1.388462   -0.938869
     10          6           0       -0.784098    1.307667    0.015371
     11          1           0       -1.824718   -1.131364    0.268549
     12          1           0       -0.695518   -3.222234    1.086402
     13          1           0       -0.243582   -1.825042    2.080236
     14          1           0        0.887637   -2.437505    0.866129
     15          1           0        0.335218   -2.130063   -1.645347
     16          1           0       -1.154544   -2.995382   -1.285669
     17          1           0       -2.508689   -1.170938   -2.312236
     18          1           0       -1.382672   -1.931393   -3.410650
     19          1           0        0.187753    0.180421   -2.590697
     20          1           0       -0.803229    0.187178   -4.024490
     21          1           0       -2.587079    1.404758   -2.997029
     22          1           0       -1.075912    2.247324   -2.699068
     23          1           0       -2.701481    0.589569   -0.700360
     24          1           0       -2.521001    2.326022   -0.734434
     25          1           0       -1.149877    1.434627    1.046866
     26          1           0       -0.071033    2.118170   -0.171934
 ---------------------------------------------------------------------
                    Distance matrix (angstroms):
                    1          2          3          4          5
     1  O    0.000000
     2  C    1.219279   0.000000
     3  C    2.394465   1.535569   0.000000
     4  C    2.863886   2.509711   1.537895   0.000000
     5  C    3.105921   2.529462   1.549734   2.536201   0.000000
     6  C    3.887329   3.181191   2.640748   3.959475   1.540614
     7  C    3.591290   3.054526   3.280671   4.708756   2.616317
     8  C    3.992196   3.231527   3.727263   5.244296   3.615660
     9  C    3.619224   2.600617   3.122709   4.547736   3.635507
    10  C    2.392436   1.524808   2.633492   3.772857   3.583040
    11  H    3.258530   2.163723   1.097591   2.159577   2.163920
    12  H    3.902500   3.470851   2.179401   1.095666   2.760340
    13  H    3.130195   2.778037   2.189716   1.096033   3.500769
    14  H    2.607987   2.734869   2.173157   1.093694   2.802528
    15  H    2.833002   2.712325   2.153242   2.772067   1.098551
    16  H    4.032405   3.458067   2.150479   2.662741   1.098311
    17  H    4.540405   3.607084   2.906697   4.259068   2.173494
    18  H    4.704568   4.156272   3.531874   4.660047   2.132583
    19  H    2.794335   2.603750   3.160126   4.420230   2.645347
    20  H    4.508003   4.108130   4.313980   5.693513   3.423763
    21  H    5.044194   4.201012   4.451484   5.989133   4.195996
    22  H    4.195633   3.673285   4.497361   5.949604   4.451204
    23  H    4.026221   2.852384   2.809609   4.205444   3.322539
    24  H    4.465363   3.507879   4.116803   5.462615   4.720940
    25  H    2.960909   2.115727   2.970662   3.822673   4.221464
    26  H    2.486184   2.126323   3.520091   4.554326   4.332767
                    6          7          8          9         10
     6  C    0.000000
     7  C    1.549589   0.000000
     8  C    2.619651   1.542038   0.000000
     9  C    3.148399   2.622284   1.537210   0.000000
    10  C    3.685023   3.178853   2.598202   1.538684   0.000000
    11  H    2.838515   3.568415   3.670836   2.798962   2.663806
    12  H    4.186933   5.225172   5.844361   5.199221   4.655637
    13  H    4.804780   5.408017   5.692132   4.741956   3.790737
    14  H    4.287316   4.895326   5.622402   5.115455   4.188651
    15  H    2.165506   2.847299   4.075432   4.275340   3.978547
    16  H    2.155377   3.531944   4.515682   4.475907   4.510672
    17  H    1.099548   2.185885   2.662216   2.950817   3.812539
    18  H    1.097221   2.168093   3.426996   4.183073   4.752622
    19  H    2.175818   1.096990   2.175181   2.987261   3.001128
    20  H    2.171595   1.097303   2.136956   3.516941   4.192414
    21  H    2.943133   2.161670   1.099172   2.143514   3.512082
    22  H    3.535083   2.155868   1.099018   2.160708   2.887263
    23  H    2.902619   2.935150   2.168198   1.097060   2.168938
    24  H    4.163592   3.534296   2.151901   1.097465   2.148508
    25  H    4.499000   4.201048   3.519122   2.156031   1.101769
    26  H    4.350323   3.497565   2.863576   2.190234   1.095655
                   11         12         13         14         15
    11  H    0.000000
    12  H    2.513108   0.000000
    13  H    2.502677   1.773160   0.000000
    14  H    3.069198   1.780646   1.768848   0.000000
    15  H    3.053804   3.117324   3.782594   2.589826   0.000000
    16  H    2.517795   2.426703   3.678160   3.018603   1.759982
    17  H    2.670175   4.364189   4.985215   4.820916   3.074487
    18  H    3.791036   4.728840   5.608803   4.868397   2.471216
    19  H    3.734449   5.087169   5.101524   4.392382   2.500754
    20  H    4.605668   6.144665   6.452125   5.802253   3.510839
    21  H    4.204415   6.454569   6.457725   6.462246   4.781404
    22  H    4.558837   6.662623   6.333931   6.205947   4.718382
    23  H    2.160812   4.663287   4.427565   4.949630   4.184607
    24  H    3.666647   6.118086   5.508206   6.072216   5.370702
    25  H    2.765049   4.679141   3.537607   4.379216   4.707498
    26  H    3.718724   5.522074   4.544333   4.769780   4.514806
                   16         17         18         19         20
    16  H    0.000000
    17  H    2.493220   0.000000
    18  H    2.387396   1.747203   0.000000
    19  H    3.686541   3.028946   2.756504   0.000000
    20  H    4.213461   2.772163   2.280547   1.742944   0.000000
    21  H    4.933776   2.666326   3.570936   3.060033   2.391714
    22  H    5.430455   3.726527   4.249956   2.425012   2.464813
    23  H    3.948098   2.394723   3.929399   3.476845   3.849041
    24  H    5.521631   3.836449   5.155920   3.922584   4.283674
    25  H    5.006568   4.463060   5.590504   4.073592   5.234018
    26  H    5.344419   4.619664   5.348704   3.110025   4.371159
                   21         22         23         24         25
    21  H    0.000000
    22  H    1.755655   0.000000
    23  H    2.439736   3.063570   0.000000
    24  H    2.443856   2.440136   1.746139   0.000000
    25  H    4.291798   3.833793   2.484833   2.418180   0.000000
    26  H    3.849754   2.722658   3.087898   2.522291   1.765392
                   26
    26  H    0.000000
 Stoichiometry    C9H16O
 Framework group  C1[X(C9H16O)]
 Deg. of freedom    72
 Full point group                 C1      NOp   1
 Largest Abelian subgroup         C1      NOp   1
 Largest concise Abelian subgroup C1      NOp   1
                         Standard orientation:                         
 ---------------------------------------------------------------------
 Center     Atomic      Atomic             Coordinates (Angstroms)
 Number     Number       Type             X           Y           Z
 ---------------------------------------------------------------------
      1          8           0        1.171786   -1.141206    1.449655
      2          6           0        0.712346   -0.927188    0.340713
      3          6           0        1.279516    0.205416   -0.527328
      4          6           0        2.816075    0.143162   -0.512118
      5          6           0        0.787953    1.577867   -0.001571
      6          6           0       -0.719538    1.878378   -0.104800
      7          6           0       -1.645103    0.972383    0.745922
      8          6           0       -2.398261   -0.131088   -0.024134
      9          6           0       -1.554328   -1.043335   -0.928897
     10          6           0       -0.409959   -1.791707   -0.223270
     11          1           0        0.928825    0.083424   -1.560207
     12          1           0        3.240373    0.959393   -1.107284
     13          1           0        3.181559   -0.803521   -0.926245
     14          1           0        3.187096    0.224007    0.513540
     15          1           0        1.100769    1.662295    1.048111
     16          1           0        1.334157    2.355049   -0.552875
     17          1           0       -1.031321    1.851642   -1.158880
     18          1           0       -0.855551    2.919870    0.212511
     19          1           0       -1.066795    0.527257    1.564952
     20          1           0       -2.404414    1.595048    1.235627
     21          1           0       -3.168205    0.339819   -0.651520
     22          1           0       -2.938693   -0.751756    0.704251
     23          1           0       -1.151903   -0.461363   -1.767290
     24          1           0       -2.218343   -1.789638   -1.383370
     25          1           0        0.061486   -2.470601   -0.951787
     26          1           0       -0.785526   -2.414600    0.596128
 ---------------------------------------------------------------------
 Rotational constants (GHZ):           1.7669415           1.1579075           0.8915311
 Standard basis: 6-31G(d) (6D, 7F)
 There are   182 symmetry adapted cartesian basis functions of A   symmetry.
 There are   182 symmetry adapted basis functions of A   symmetry.
   182 basis functions,   344 primitive gaussians,   182 cartesian basis functions
    39 alpha electrons       39 beta electrons
       nuclear repulsion energy       573.2651269721 Hartrees.
 NAtoms=   26 NActive=   26 NUniq=   26 SFac= 1.00D+00 NAtFMM=   60 NAOKFM=F Big=F
 Integral buffers will be    131072 words long.
 Raffenetti 2 integral format.
 Two-electron integral symmetry is turned on.
 One-electron integrals computed using PRISM.
 NBasis=   182 RedAO= T EigKep=  2.92D-03  NBF=   182
 NBsUse=   182 1.00D-06 EigRej= -1.00D+00 NBFU=   182
 ExpMin= 1.61D-01 ExpMax= 5.48D+03 ExpMxC= 8.25D+02 IAcc=3 IRadAn=         5 AccDes= 0.00D+00
 Harris functional with IExCor=  402 and IRadAn=       5 diagonalized for initial guess.
 HarFok:  IExCor=  402 AccDes= 0.00D+00 IRadAn=         5 IDoV= 1 UseB2=F ITyADJ=14
 ICtDFT=  3500011 ScaDFX=  1.000000  1.000000  1.000000  1.000000
 FoFCou: FMM=F IPFlag=           0 FMFlag=      100000 FMFlg1=           0
         NFxFlg=           0 DoJE=T BraDBF=F KetDBF=T FulRan=T
         wScrn=  0.000000 ICntrl=       500 IOpCl=  0 I1Cent=   200000004 NGrid=           0
         NMat0=    1 NMatS0=      1 NMatT0=    0 NMatD0=    1 NMtDS0=    0 NMtDT0=    0
 Petite list used in FoFCou.
 Requested convergence on RMS density matrix=1.00D-08 within 128 cycles.
 Requested convergence on MAX density matrix=1.00D-06.
 Requested convergence on             energy=1.00D-06.
 No special actions if energy rises.
 Integral accuracy reduced to 1.0D-05 until final iterations.
 Initial convergence to 1.0D-05 achieved.  Increase integral accuracy.
 SCF Done:  E(RB3LYP) =  -427.823378353     A.U. after   13 cycles
            NFock= 13  Conv=0.65D-08     -V/T= 2.0098
 DoSCS=F DFT=T ScalE2(SS,OS)=  1.000000  1.000000
 Range of M.O.s used for correlation:     1   182
 NBasis=   182 NAE=    39 NBE=    39 NFC=     0 NFV=     0
 NROrb=    182 NOA=    39 NOB=    39 NVA=   143 NVB=   143
 Symmetrizing basis deriv contribution to polar:
 IMax=3 JMax=2 DiffMx= 0.00D+00
 G2DrvN: will do    27 centers at a time, making    1 passes.
 Calling FoFCou, ICntrl=  3107 FMM=F I1Cent=   0 AccDes= 0.00D+00.
 End of G2Drv F.D. properties file   721 does not exist.
 End of G2Drv F.D. properties file   722 does not exist.
 End of G2Drv F.D. properties file   788 does not exist.
          IDoAtm=11111111111111111111111111
          Differentiating once with respect to electric field.
                with respect to dipole field.
          Differentiating once with respect to nuclear coordinates.
 Keep R1 ints in memory in canonical form, NReq=146744161.
          There are    81 degrees of freedom in the 1st order CPHF.  IDoFFX=6 NUNeed=     3.
     78 vectors produced by pass  0 Test12= 6.89D-15 1.23D-09 XBig12= 6.41D+01 1.77D+00.
 AX will form    78 AO Fock derivatives at one time.
     78 vectors produced by pass  1 Test12= 6.89D-15 1.23D-09 XBig12= 6.61D+00 3.97D-01.
     78 vectors produced by pass  2 Test12= 6.89D-15 1.23D-09 XBig12= 4.36D-02 2.38D-02.
     78 vectors produced by pass  3 Test12= 6.89D-15 1.23D-09 XBig12= 7.79D-05 9.57D-04.
     78 vectors produced by pass  4 Test12= 6.89D-15 1.23D-09 XBig12= 6.59D-08 3.63D-05.
     33 vectors produced by pass  5 Test12= 6.89D-15 1.23D-09 XBig12= 4.28D-11 8.49D-07.
      3 vectors produced by pass  6 Test12= 6.89D-15 1.23D-09 XBig12= 2.38D-14 2.17D-08.
 InvSVY:  IOpt=1 It=  1 EMax= 7.99D-15
 Solved reduced A of dimension   426 with    81 vectors.
 Isotropic polarizability for W=    0.000000       92.59 Bohr**3.
 End of Minotr F.D. properties file   721 does not exist.
 End of Minotr F.D. properties file   722 does not exist.
 End of Minotr F.D. properties file   788 does not exist.

 **********************************************************************

            Population analysis using the SCF density.

 **********************************************************************

 Orbital symmetries:
       Occupied  (A) (A) (A) (A) (A) (A) (A) (A) (A) (A) (A) (A)
                 (A) (A) (A) (A) (A) (A) (A) (A) (A) (A) (A) (A)
                 (A) (A) (A) (A) (A) (A) (A) (A) (A) (A) (A) (A)
                 (A) (A) (A)
       Virtual   (A) (A) (A) (A) (A) (A) (A) (A) (A) (A) (A) (A)
                 (A) (A) (A) (A) (A) (A) (A) (A) (A) (A) (A) (A)
                 (A) (A) (A) (A) (A) (A) (A) (A) (A) (A) (A) (A)
                 (A) (A) (A) (A) (A) (A) (A) (A) (A) (A) (A) (A)
                 (A) (A) (A) (A) (A) (A) (A) (A) (A) (A) (A) (A)
                 (A) (A) (A) (A) (A) (A) (A) (A) (A) (A) (A) (A)
                 (A) (A) (A) (A) (A) (A) (A) (A) (A) (A) (A) (A)
                 (A) (A) (A) (A) (A) (A) (A) (A) (A) (A) (A) (A)
                 (A) (A) (A) (A) (A) (A) (A) (A) (A) (A) (A) (A)
                 (A) (A) (A) (A) (A) (A) (A) (A) (A) (A) (A) (A)
                 (A) (A) (A) (A) (A) (A) (A) (A) (A) (A) (A) (A)
                 (A) (A) (A) (A) (A) (A) (A) (A) (A) (A) (A)
 The electronic state is 1-A.
 Alpha  occ. eigenvalues --  -19.12980 -10.26575 -10.19353 -10.19054 -10.18934
 Alpha  occ. eigenvalues --  -10.18622 -10.18405 -10.18357 -10.18031 -10.17504
 Alpha  occ. eigenvalues --   -1.02986  -0.82272  -0.78881  -0.76536  -0.71017
 Alpha  occ. eigenvalues --   -0.66455  -0.63870  -0.59130  -0.56219  -0.51262
 Alpha  occ. eigenvalues --   -0.48133  -0.46973  -0.45288  -0.44439  -0.42503
 Alpha  occ. eigenvalues --   -0.41995  -0.40877  -0.39454  -0.39018  -0.36885
 Alpha  occ. eigenvalues --   -0.36083  -0.35733  -0.34370  -0.33601  -0.33310
 Alpha  occ. eigenvalues --   -0.31888  -0.31255  -0.30244  -0.23389
 Alpha virt. eigenvalues --   -0.01067   0.07938   0.10067   0.10722   0.11427
 Alpha virt. eigenvalues --    0.13653   0.14083   0.15081   0.15501   0.15905
 Alpha virt. eigenvalues --    0.17112   0.17569   0.18520   0.18841   0.20056
 Alpha virt. eigenvalues --    0.20064   0.20928   0.22200   0.22617   0.24102
 Alpha virt. eigenvalues --    0.24246   0.25420   0.27965   0.29888   0.30991
 Alpha virt. eigenvalues --    0.33964   0.37462   0.48113   0.50653   0.51982
 Alpha virt. eigenvalues --    0.53049   0.54036   0.56158   0.57014   0.57469
 Alpha virt. eigenvalues --    0.61070   0.62395   0.63617   0.64245   0.66656
 Alpha virt. eigenvalues --    0.67270   0.69670   0.71113   0.72440   0.72976
 Alpha virt. eigenvalues --    0.76378   0.78003   0.78873   0.81279   0.81802
 Alpha virt. eigenvalues --    0.83391   0.84080   0.85318   0.86872   0.88050
 Alpha virt. eigenvalues --    0.89278   0.89984   0.90997   0.92295   0.93064
 Alpha virt. eigenvalues --    0.94458   0.94993   0.95298   0.96205   0.96811
 Alpha virt. eigenvalues --    0.98231   0.99726   1.01583   1.02568   1.03362
 Alpha virt. eigenvalues --    1.08008   1.11394   1.13860   1.18473   1.21629
 Alpha virt. eigenvalues --    1.25579   1.29132   1.36908   1.41186   1.49669
 Alpha virt. eigenvalues --    1.50962   1.56659   1.57401   1.60353   1.62884
 Alpha virt. eigenvalues --    1.66585   1.67784   1.69997   1.72699   1.73582
 Alpha virt. eigenvalues --    1.76591   1.81507   1.83189   1.86407   1.87796
 Alpha virt. eigenvalues --    1.90121   1.91190   1.92813   1.93613   1.96733
 Alpha virt. eigenvalues --    1.97681   1.98815   2.01446   2.04946   2.05707
 Alpha virt. eigenvalues --    2.08114   2.12881   2.15795   2.18259   2.22670
 Alpha virt. eigenvalues --    2.24374   2.27321   2.30305   2.30847   2.32720
 Alpha virt. eigenvalues --    2.36011   2.37619   2.39568   2.43393   2.46125
 Alpha virt. eigenvalues --    2.46663   2.50510   2.55572   2.58807   2.61600
 Alpha virt. eigenvalues --    2.65212   2.67163   2.73021   2.74204   2.76498
 Alpha virt. eigenvalues --    2.80578   2.99966   3.00777   4.07117   4.13002
 Alpha virt. eigenvalues --    4.19057   4.24000   4.30230   4.41489   4.50940
 Alpha virt. eigenvalues --    4.53583   4.60391   4.69213
          Condensed to atoms (all electrons):
               1          2          3          4          5          6
     1  O    8.069710   0.539158  -0.087268  -0.004111  -0.004718  -0.000046
     2  C    0.539158   4.537473   0.299348  -0.029058  -0.023710  -0.004587
     3  C   -0.087268   0.299348   5.197972   0.353757   0.366247  -0.037957
     4  C   -0.004111  -0.029058   0.353757   5.097423  -0.036170   0.004137
     5  C   -0.004718  -0.023710   0.366247  -0.036170   5.011291   0.372657
     6  C   -0.000046  -0.004587  -0.037957   0.004137   0.372657   5.026125
     7  C   -0.002836   0.006257  -0.006057   0.000009  -0.032177   0.358485
     8  C    0.000322  -0.003433   0.000928  -0.000026  -0.000366  -0.036970
     9  C    0.001938  -0.028783   0.004047   0.000212   0.000822  -0.003815
    10  C   -0.075113   0.342480  -0.121331   0.005021   0.002200  -0.000597
    11  H    0.003938  -0.037415   0.350330  -0.043670  -0.043596  -0.003674
    12  H    0.000294   0.004577  -0.030983   0.367106  -0.006028   0.000018
    13  H    0.000324  -0.002022  -0.031384   0.370997   0.004369  -0.000148
    14  H    0.010821  -0.007788  -0.034166   0.373304  -0.004737   0.000033
    15  H    0.006512  -0.007886  -0.044096  -0.003880   0.369685  -0.037165
    16  H    0.000003   0.004425  -0.039465  -0.005940   0.367502  -0.034698
    17  H   -0.000003  -0.000861  -0.005309   0.000018  -0.038557   0.372946
    18  H   -0.000010   0.000005   0.004783  -0.000153  -0.032414   0.368401
    19  H    0.003475   0.006689  -0.001378  -0.000017  -0.006306  -0.047511
    20  H    0.000043  -0.000118   0.000051   0.000001   0.003462  -0.033279
    21  H   -0.000003   0.000024   0.000013   0.000000  -0.000004  -0.004784
    22  H    0.000004  -0.000452  -0.000008   0.000000  -0.000148   0.004899
    23  H   -0.000021  -0.007176   0.002816  -0.000031  -0.001785   0.004159
    24  H   -0.000069   0.003635  -0.000220  -0.000003   0.000037  -0.000032
    25  H    0.000960  -0.028274   0.002824  -0.000566   0.000194  -0.000025
    26  H    0.005577  -0.026789   0.006725  -0.000139  -0.000285   0.000080
               7          8          9         10         11         12
     1  O   -0.002836   0.000322   0.001938  -0.075113   0.003938   0.000294
     2  C    0.006257  -0.003433  -0.028783   0.342480  -0.037415   0.004577
     3  C   -0.006057   0.000928   0.004047  -0.121331   0.350330  -0.030983
     4  C    0.000009  -0.000026   0.000212   0.005021  -0.043670   0.367106
     5  C   -0.032177  -0.000366   0.000822   0.002200  -0.043596  -0.006028
     6  C    0.358485  -0.036970  -0.003815  -0.000597  -0.003674   0.000018
     7  C    5.041011   0.379276  -0.045726  -0.002876  -0.000737   0.000001
     8  C    0.379276   4.987511   0.380906  -0.049298   0.000127  -0.000000
     9  C   -0.045726   0.380906   5.041337   0.331830  -0.004825   0.000003
    10  C   -0.002876  -0.049298   0.331830   5.286681   0.003237  -0.000146
    11  H   -0.000737   0.000127  -0.004825   0.003237   0.639680  -0.002559
    12  H    0.000001  -0.000000   0.000003  -0.000146  -0.002559   0.583068
    13  H    0.000005  -0.000000   0.000004   0.000183  -0.002786  -0.031278
    14  H   -0.000004  -0.000000  -0.000024   0.000483   0.005436  -0.029103
    15  H   -0.006549   0.000048  -0.000198   0.000800   0.006504  -0.000249
    16  H    0.004516  -0.000100  -0.000063  -0.000221  -0.003657   0.005424
    17  H   -0.046989  -0.006276  -0.001437   0.000388   0.003697   0.000003
    18  H   -0.032450   0.003799   0.000090  -0.000023   0.000002  -0.000004
    19  H    0.377451  -0.037056  -0.004990   0.001513   0.000162  -0.000003
    20  H    0.366782  -0.033349   0.005009   0.000046  -0.000005  -0.000000
    21  H   -0.037536   0.371336  -0.036964   0.005164  -0.000010   0.000000
    22  H   -0.036127   0.370904  -0.039755  -0.004292   0.000006   0.000000
    23  H   -0.005673  -0.038516   0.367412  -0.039942   0.006078   0.000008
    24  H    0.004855  -0.034711   0.369237  -0.030099   0.000047  -0.000000
    25  H   -0.000060   0.004781  -0.028874   0.346848   0.000102  -0.000013
    26  H   -0.000480  -0.003342  -0.033663   0.344559  -0.000015   0.000003
              13         14         15         16         17         18
     1  O    0.000324   0.010821   0.006512   0.000003  -0.000003  -0.000010
     2  C   -0.002022  -0.007788  -0.007886   0.004425  -0.000861   0.000005
     3  C   -0.031384  -0.034166  -0.044096  -0.039465  -0.005309   0.004783
     4  C    0.370997   0.373304  -0.003880  -0.005940   0.000018  -0.000153
     5  C    0.004369  -0.004737   0.369685   0.367502  -0.038557  -0.032414
     6  C   -0.000148   0.000033  -0.037165  -0.034698   0.372946   0.368401
     7  C    0.000005  -0.000004  -0.006549   0.004516  -0.046989  -0.032450
     8  C   -0.000000  -0.000000   0.000048  -0.000100  -0.006276   0.003799
     9  C    0.000004  -0.000024  -0.000198  -0.000063  -0.001437   0.000090
    10  C    0.000183   0.000483   0.000800  -0.000221   0.000388  -0.000023
    11  H   -0.002786   0.005436   0.006504  -0.003657   0.003697   0.000002
    12  H   -0.031278  -0.029103  -0.000249   0.005424   0.000003  -0.000004
    13  H    0.576242  -0.027703  -0.000053   0.000046   0.000001   0.000002
    14  H   -0.027703   0.536664   0.005333  -0.000541   0.000004   0.000002
    15  H   -0.000053   0.005333   0.587475  -0.035521   0.005396  -0.003741
    16  H    0.000046  -0.000541  -0.035521   0.611236  -0.002895  -0.003774
    17  H    0.000001   0.000004   0.005396  -0.002895   0.611738  -0.036847
    18  H    0.000002   0.000002  -0.003741  -0.003774  -0.036847   0.602849
    19  H    0.000002  -0.000000   0.004241   0.000317   0.004779   0.001807
    20  H   -0.000000  -0.000000   0.000229  -0.000188   0.002268  -0.009876
    21  H    0.000000  -0.000000   0.000001   0.000006   0.003260   0.000084
    22  H    0.000000  -0.000000   0.000002   0.000003   0.000182  -0.000170
    23  H   -0.000007   0.000001   0.000030   0.000096   0.003300  -0.000079
    24  H    0.000000   0.000000   0.000001  -0.000000  -0.000129  -0.000000
    25  H    0.000234  -0.000030  -0.000008   0.000003  -0.000005   0.000001
    26  H   -0.000020  -0.000007  -0.000014   0.000006   0.000007  -0.000000
              19         20         21         22         23         24
     1  O    0.003475   0.000043  -0.000003   0.000004  -0.000021  -0.000069
     2  C    0.006689  -0.000118   0.000024  -0.000452  -0.007176   0.003635
     3  C   -0.001378   0.000051   0.000013  -0.000008   0.002816  -0.000220
     4  C   -0.000017   0.000001   0.000000   0.000000  -0.000031  -0.000003
     5  C   -0.006306   0.003462  -0.000004  -0.000148  -0.001785   0.000037
     6  C   -0.047511  -0.033279  -0.004784   0.004899   0.004159  -0.000032
     7  C    0.377451   0.366782  -0.037536  -0.036127  -0.005673   0.004855
     8  C   -0.037056  -0.033349   0.371336   0.370904  -0.038516  -0.034711
     9  C   -0.004990   0.005009  -0.036964  -0.039755   0.367412   0.369237
    10  C    0.001513   0.000046   0.005164  -0.004292  -0.039942  -0.030099
    11  H    0.000162  -0.000005  -0.000010   0.000006   0.006078   0.000047
    12  H   -0.000003  -0.000000   0.000000   0.000000   0.000008  -0.000000
    13  H    0.000002  -0.000000   0.000000   0.000000  -0.000007   0.000000
    14  H   -0.000000  -0.000000  -0.000000  -0.000000   0.000001   0.000000
    15  H    0.004241   0.000229   0.000001   0.000002   0.000030   0.000001
    16  H    0.000317  -0.000188   0.000006   0.000003   0.000096  -0.000000
    17  H    0.004779   0.002268   0.003260   0.000182   0.003300  -0.000129
    18  H    0.001807  -0.009876   0.000084  -0.000170  -0.000079  -0.000000
    19  H    0.569796  -0.032713   0.005181  -0.004715  -0.000023  -0.000049
    20  H   -0.032713   0.602781  -0.006375  -0.001504  -0.000034  -0.000156
    21  H    0.005181  -0.006375   0.611834  -0.036861  -0.004758  -0.002235
    22  H   -0.004715  -0.001504  -0.036861   0.608101   0.005867  -0.004899
    23  H   -0.000023  -0.000034  -0.004758   0.005867   0.602064  -0.035775
    24  H   -0.000049  -0.000156  -0.002235  -0.004899  -0.035775   0.598000
    25  H    0.000058   0.000001  -0.000172  -0.000067  -0.002808  -0.005016
    26  H    0.000202  -0.000025  -0.000020   0.004091   0.005204  -0.003611
              25         26
     1  O    0.000960   0.005577
     2  C   -0.028274  -0.026789
     3  C    0.002824   0.006725
     4  C   -0.000566  -0.000139
     5  C    0.000194  -0.000285
     6  C   -0.000025   0.000080
     7  C   -0.000060  -0.000480
     8  C    0.004781  -0.003342
     9  C   -0.028874  -0.033663
    10  C    0.346848   0.344559
    11  H    0.000102  -0.000015
    12  H   -0.000013   0.000003
    13  H    0.000234  -0.000020
    14  H   -0.000030  -0.000007
    15  H   -0.000008  -0.000014
    16  H    0.000003   0.000006
    17  H   -0.000005   0.000007
    18  H    0.000001  -0.000000
    19  H    0.000058   0.000202
    20  H    0.000001  -0.000025
    21  H   -0.000172  -0.000020
    22  H   -0.000067   0.004091
    23  H   -0.002808   0.005204
    24  H   -0.005016  -0.003611
    25  H    0.579338  -0.027042
    26  H   -0.027042   0.568052
 Mulliken charges:
               1
     1  O   -0.468882
     2  C    0.464281
     3  C   -0.150220
     4  C   -0.448218
     5  C   -0.267465
     6  C   -0.266654
     7  C   -0.282370
     8  C   -0.256496
     9  C   -0.273730
    10  C   -0.347497
    11  H    0.123602
    12  H    0.139861
    13  H    0.142992
    14  H    0.172024
    15  H    0.153102
    16  H    0.133483
    17  H    0.131319
    18  H    0.137719
    19  H    0.159089
    20  H    0.136951
    21  H    0.132820
    22  H    0.134940
    23  H    0.139592
    24  H    0.141193
    25  H    0.157617
    26  H    0.160947
 Sum of Mulliken charges =  -0.00000
 Mulliken charges with hydrogens summed into heavy atoms:
               1
     1  O   -0.468882
     2  C    0.464281
     3  C   -0.026619
     4  C    0.006660
     5  C    0.019120
     6  C    0.002385
     7  C    0.013671
     8  C    0.011264
     9  C    0.007055
    10  C   -0.028934
 APT charges:
               1
     1  O   -0.634565
     2  C    0.693097
     3  C   -0.066271
     4  C    0.085694
     5  C    0.135683
     6  C    0.108151
     7  C    0.075876
     8  C    0.133240
     9  C    0.123973
    10  C   -0.043534
    11  H   -0.049985
    12  H   -0.028533
    13  H   -0.030742
    14  H    0.011943
    15  H   -0.027621
    16  H   -0.058970
    17  H   -0.043374
    18  H   -0.059813
    19  H   -0.021257
    20  H   -0.057337
    21  H   -0.059064
    22  H   -0.054108
    23  H   -0.034900
    24  H   -0.057393
    25  H   -0.017659
    26  H   -0.022533
 Sum of APT charges =   0.00000
 APT charges with hydrogens summed into heavy atoms:
               1
     1  O   -0.634565
     2  C    0.693097
     3  C   -0.116255
     4  C    0.038362
     5  C    0.049092
     6  C    0.004964
     7  C   -0.002718
     8  C    0.020068
     9  C    0.031680
    10  C   -0.083727
 Electronic spatial extent (au):  <R**2>=           1521.2299
 Charge=             -0.0000 electrons
 Dipole moment (field-independent basis, Debye):
    X=             -1.2170    Y=              0.7238    Z=             -2.2763  Tot=              2.6808
 Quadrupole moment (field-independent basis, Debye-Ang):
   XX=            -63.1750   YY=            -61.9089   ZZ=            -66.1126
   XY=              1.9410   XZ=             -3.2110   YZ=              3.3606
 Traceless Quadrupole moment (field-independent basis, Debye-Ang):
   XX=              0.5572   YY=              1.8233   ZZ=             -2.3804
   XY=              1.9410   XZ=             -3.2110   YZ=              3.3606
 Octapole moment (field-independent basis, Debye-Ang**2):
  XXX=              1.9901  YYY=             -5.0621  ZZZ=             -0.7515  XYY=             -0.9377
  XXY=              0.2775  XXZ=             -1.4501  XZZ=             -3.5864  YZZ=              3.2345
  YYZ=             -2.2244  XYZ=              3.6185
 Hexadecapole moment (field-independent basis, Debye-Ang**3):
 XXXX=          -1105.8441 YYYY=           -649.8066 ZZZZ=           -291.0998 XXXY=             -2.9444
 XXXZ=              3.4808 YYYX=             -2.2178 YYYZ=              2.2726 ZZZX=             -0.3348
 ZZZY=              1.8424 XXYY=           -289.8586 XXZZ=           -233.5746 YYZZ=           -160.0512
 XXYZ=              2.8452 YYXZ=             -6.3368 ZZXY=              5.4422
 N-N= 5.732651269721D+02 E-N=-2.138706854973D+03  KE= 4.236614218199D+02
  Exact polarizability: 100.868   1.962  93.229   0.497   0.124  83.670
 Approx polarizability: 127.067   1.107 126.440   6.223  -4.082 137.490
 Calling FoFJK, ICntrl=    100127 FMM=F ISym2X=0 I1Cent= 0 IOpClX= 0 NMat=1 NMatS=1 NMatT=0.
 Full mass-weighted force constant matrix:
 Low frequencies ---   -5.3707   -3.8611   -0.0006    0.0004    0.0005    9.8764
 Low frequencies ---   95.7538  110.6834  187.0802
 Diagonal vibrational polarizability:
       10.5434219       8.5326990       3.4950453
 Harmonic frequencies (cm**-1), IR intensities (KM/Mole), Raman scattering
 activities (A**4/AMU), depolarization ratios for plane and unpolarized
 incident light, reduced masses (AMU), force constants (mDyne/A),
 and normal coordinates:
                      1                      2                      3
                      A                      A                      A
 Frequencies --     95.7476               110.6785               187.0781
 Red. masses --      3.3834                 3.8200                 2.1593
 Frc consts  --      0.0183                 0.0276                 0.0445
 IR Inten    --      2.3830                 2.4178                 0.1188
  Atom  AN      X      Y      Z        X      Y      Z        X      Y      Z
     1   8     0.22  -0.12  -0.04    -0.13   0.21   0.10    -0.01  -0.06   0.00
     2   6     0.04  -0.02   0.05    -0.03   0.05   0.03     0.01  -0.03   0.00
     3   6    -0.03   0.00   0.03    -0.05   0.01  -0.02    -0.03   0.03   0.05
     4   6    -0.03   0.03  -0.09    -0.05  -0.11  -0.23    -0.03  -0.01  -0.07
     5   6    -0.02  -0.01   0.10     0.05  -0.01   0.11    -0.00  -0.00   0.15
     6   6    -0.01   0.03   0.04     0.05   0.03   0.16     0.03   0.05  -0.09
     7   6    -0.08   0.02  -0.07     0.01  -0.07   0.01    -0.07   0.15  -0.08
     8   6    -0.06   0.08  -0.18     0.05  -0.02  -0.11     0.03  -0.04   0.07
     9   6     0.02  -0.02  -0.00     0.08  -0.06  -0.05     0.01  -0.04   0.05
    10   6    -0.07   0.03   0.19     0.05  -0.04   0.01     0.07  -0.05  -0.06
    11   1    -0.11   0.03   0.06    -0.17   0.07   0.01    -0.09   0.10   0.07
    12   1    -0.10   0.04  -0.14    -0.07  -0.11  -0.24    -0.06   0.04  -0.04
    13   1    -0.05   0.04  -0.12    -0.18  -0.11  -0.33    -0.09   0.02  -0.19
    14   1     0.06   0.05  -0.13     0.09  -0.19  -0.27     0.06  -0.11  -0.10
    15   1    -0.06  -0.08   0.12     0.09  -0.12   0.10    -0.16  -0.12   0.20
    16   1     0.02   0.00   0.17     0.06   0.02   0.16     0.12   0.03   0.31
    17   1     0.05   0.10   0.02     0.06   0.19   0.15     0.17  -0.06  -0.13
    18   1     0.01   0.02   0.08     0.07  -0.02   0.31     0.00   0.08  -0.21
    19   1    -0.15  -0.05  -0.06    -0.06  -0.11   0.03    -0.14   0.32   0.06
    20   1    -0.10   0.01  -0.09    -0.04  -0.11  -0.01    -0.15   0.21  -0.28
    21   1     0.09   0.14  -0.32     0.13   0.03  -0.17    -0.09  -0.20   0.09
    22   1    -0.23   0.14  -0.26    -0.04  -0.01  -0.17     0.17  -0.02   0.18
    23   1     0.12  -0.11  -0.02     0.11  -0.09  -0.06    -0.06  -0.04   0.01
    24   1     0.05  -0.05  -0.00     0.08  -0.07  -0.05    -0.02  -0.05   0.10
    25   1    -0.11  -0.17   0.34     0.11  -0.04   0.04     0.09   0.07  -0.16
    26   1    -0.15   0.21   0.29     0.03  -0.03   0.00     0.13  -0.17  -0.13
                      4                      5                      6
                      A                      A                      A
 Frequencies --    215.1211               236.3648               241.1906
 Red. masses --      1.4754                 1.7840                 2.4575
 Frc consts  --      0.0402                 0.0587                 0.0842
 IR Inten    --      0.6278                 0.5498                 0.3633
  Atom  AN      X      Y      Z        X      Y      Z        X      Y      Z
     1   8     0.00  -0.07   0.03    -0.02   0.06  -0.01    -0.00  -0.03  -0.04
     2   6    -0.01  -0.03   0.04     0.03   0.02  -0.03    -0.05   0.06  -0.00
     3   6    -0.06  -0.01   0.03     0.08  -0.01  -0.02    -0.04   0.11   0.06
     4   6    -0.06  -0.00  -0.01     0.09   0.04  -0.03    -0.05  -0.01   0.03
     5   6    -0.03   0.03  -0.05     0.03  -0.08   0.09     0.05   0.13   0.08
     6   6    -0.02   0.07   0.02     0.03  -0.10  -0.01     0.05   0.01  -0.06
     7   6     0.01   0.03   0.01    -0.05  -0.02  -0.00     0.16  -0.09  -0.04
     8   6     0.07  -0.00  -0.00    -0.09  -0.00   0.01     0.01   0.01  -0.03
     9   6     0.07   0.02  -0.02    -0.06   0.03   0.01    -0.11  -0.14   0.01
    10   6     0.03  -0.04  -0.03    -0.02   0.06  -0.01    -0.02  -0.01  -0.01
    11   1    -0.07  -0.07   0.04     0.08   0.03  -0.02    -0.08   0.18   0.06
    12   1    -0.10  -0.30  -0.44     0.03  -0.22  -0.42     0.00  -0.14  -0.10
    13   1    -0.08  -0.21   0.45     0.11  -0.14   0.39    -0.14  -0.11   0.17
    14   1    -0.00   0.51  -0.07     0.13   0.52  -0.09    -0.02   0.11   0.01
    15   1     0.02   0.09  -0.07    -0.06  -0.20   0.12    -0.02   0.11   0.10
    16   1    -0.03  -0.02  -0.12     0.06   0.00   0.22     0.09   0.12   0.11
    17   1    -0.08   0.15   0.04     0.10  -0.18  -0.03     0.14  -0.14  -0.08
    18   1     0.02   0.06   0.10     0.00  -0.08  -0.10    -0.12   0.02  -0.16
    19   1     0.03   0.06   0.01    -0.10  -0.04   0.02     0.28  -0.21  -0.18
    20   1    -0.02  -0.01  -0.00    -0.02   0.04  -0.03     0.26  -0.15   0.18
    21   1     0.04  -0.02   0.01    -0.09  -0.00   0.02     0.07   0.11  -0.03
    22   1     0.09  -0.02  -0.00    -0.08  -0.01   0.01    -0.07   0.11  -0.00
    23   1     0.09   0.04   0.01    -0.09   0.05   0.01    -0.21  -0.28  -0.14
    24   1     0.05   0.06  -0.07    -0.03   0.00   0.01    -0.16  -0.22   0.22
    25   1     0.07   0.01  -0.05    -0.06   0.04  -0.02     0.03   0.02  -0.01
    26   1     0.00  -0.09  -0.08    -0.00   0.07   0.01     0.07  -0.03   0.01
                      7                      8                      9
                      A                      A                      A
 Frequencies --    258.8829               280.2478               327.5711
 Red. masses --      2.4555                 2.8342                 2.0303
 Frc consts  --      0.0970                 0.1311                 0.1284
 IR Inten    --      0.9608                 2.1492                 1.6995
  Atom  AN      X      Y      Z        X      Y      Z        X      Y      Z
     1   8     0.02  -0.07   0.08    -0.14  -0.08   0.10    -0.01   0.07  -0.06
     2   6     0.00   0.04   0.11    -0.00  -0.09   0.04    -0.04  -0.02  -0.06
     3   6     0.00   0.03   0.09     0.00  -0.07   0.02    -0.06  -0.00  -0.05
     4   6    -0.01  -0.07  -0.11     0.02   0.26  -0.10    -0.07   0.03   0.04
     5   6    -0.02   0.05   0.01     0.01  -0.05  -0.01    -0.02  -0.04   0.07
     6   6    -0.05  -0.10  -0.10     0.04  -0.02  -0.03     0.02   0.00  -0.06
     7   6     0.03  -0.08   0.02     0.09  -0.00   0.01     0.09  -0.01  -0.00
     8   6    -0.03  -0.03   0.02     0.03   0.07  -0.02     0.10  -0.05   0.05
     9   6     0.05   0.15  -0.06    -0.01  -0.01   0.01     0.08   0.05  -0.06
    10   6    -0.00   0.11  -0.00    -0.03  -0.05   0.00    -0.09  -0.04   0.08
    11   1    -0.08   0.00   0.12    -0.03  -0.11   0.04    -0.03   0.07  -0.07
    12   1    -0.03  -0.06  -0.11    -0.27   0.44  -0.06    -0.06   0.04   0.06
    13   1    -0.15  -0.07  -0.24     0.25   0.41  -0.24    -0.00   0.04   0.09
    14   1     0.16  -0.18  -0.16     0.10   0.27  -0.13    -0.15   0.07   0.06
    15   1    -0.06   0.17   0.01     0.01  -0.03  -0.02    -0.14  -0.22   0.13
    16   1    -0.05   0.04  -0.05     0.04  -0.09  -0.03     0.11   0.00   0.26
    17   1     0.02  -0.34  -0.11     0.04  -0.08  -0.03     0.07  -0.09  -0.07
    18   1    -0.19  -0.06  -0.32     0.05  -0.00  -0.09    -0.02   0.02  -0.13
    19   1     0.11  -0.13  -0.07     0.14  -0.07  -0.06     0.15   0.04  -0.03
    20   1     0.11  -0.08   0.14     0.14  -0.01   0.10     0.08  -0.04   0.03
    21   1    -0.09  -0.01   0.10     0.11   0.15  -0.06    -0.03  -0.10   0.17
    22   1     0.06  -0.13  -0.01    -0.07   0.12  -0.05     0.27  -0.15   0.09
    23   1     0.11   0.28   0.06     0.00  -0.06  -0.02     0.21   0.13   0.06
    24   1     0.14   0.17  -0.23    -0.06   0.01   0.05     0.07   0.16  -0.22
    25   1     0.06   0.14   0.01    -0.06  -0.06  -0.02    -0.16  -0.29   0.27
    26   1    -0.09   0.07  -0.07    -0.05  -0.05  -0.01    -0.23   0.22   0.21
                     10                     11                     12
                      A                      A                      A
 Frequencies --    359.1355               433.6268               478.2915
 Red. masses --      2.1645                 2.4509                 2.1008
 Frc consts  --      0.1645                 0.2715                 0.2832
 IR Inten    --      1.8040                 3.1973                 1.5169
  Atom  AN      X      Y      Z        X      Y      Z        X      Y      Z
     1   8     0.06   0.08  -0.01     0.13   0.07   0.06    -0.05  -0.01   0.03
     2   6     0.03  -0.04  -0.02    -0.00   0.01   0.10     0.06  -0.04  -0.02
     3   6    -0.06  -0.03  -0.03    -0.07  -0.10  -0.01     0.08  -0.01  -0.01
     4   6    -0.07  -0.03   0.04    -0.10   0.03   0.03     0.12  -0.05  -0.03
     5   6    -0.08  -0.06   0.03     0.01  -0.11  -0.00    -0.13  -0.02   0.02
     6   6    -0.06  -0.06  -0.05     0.07   0.05  -0.01    -0.13   0.15  -0.05
     7   6     0.02   0.02   0.08     0.06  -0.05  -0.11     0.04  -0.02  -0.05
     8   6     0.01   0.15  -0.03    -0.08  -0.03   0.01    -0.02   0.02   0.01
     9   6     0.06   0.04   0.07    -0.08   0.04  -0.03    -0.01   0.01   0.03
    10   6     0.08  -0.07  -0.05     0.01   0.08  -0.05     0.02   0.00   0.02
    11   1    -0.04  -0.01  -0.03    -0.11  -0.17   0.01     0.12  -0.04  -0.02
    12   1    -0.02  -0.04   0.06    -0.16   0.11   0.11     0.16  -0.09  -0.06
    13   1    -0.06  -0.04   0.07     0.04   0.09   0.02     0.02  -0.08  -0.04
    14   1    -0.14  -0.04   0.06    -0.18   0.03   0.06     0.18  -0.08  -0.05
    15   1    -0.16  -0.15   0.06    -0.03  -0.23   0.02    -0.35  -0.18   0.10
    16   1    -0.02  -0.03   0.14     0.13  -0.12   0.10     0.03   0.05   0.27
    17   1    -0.04  -0.29  -0.05     0.06   0.30  -0.02    -0.21   0.37  -0.03
    18   1    -0.09  -0.00  -0.27     0.15  -0.01   0.23    -0.03   0.09   0.19
    19   1     0.08  -0.07  -0.01     0.13  -0.14  -0.21     0.29  -0.13  -0.28
    20   1     0.08   0.01   0.18     0.15  -0.07   0.05     0.13  -0.17   0.28
    21   1     0.26   0.30  -0.23    -0.21  -0.10   0.12    -0.05  -0.01   0.03
    22   1    -0.29   0.23  -0.19     0.10  -0.05   0.13     0.03   0.03   0.06
    23   1     0.09   0.01   0.07    -0.15   0.09  -0.03    -0.01   0.00   0.03
    24   1     0.02   0.09   0.06    -0.00  -0.03  -0.03     0.01  -0.01   0.04
    25   1     0.06   0.10  -0.22     0.13   0.31  -0.19    -0.07  -0.05   0.01
    26   1     0.16  -0.24  -0.14     0.01  -0.17  -0.23     0.03   0.05   0.06
                     13                     14                     15
                      A                      A                      A
 Frequencies --    513.8472               565.7471               661.3408
 Red. masses --      2.2042                 3.8467                 2.2997
 Frc consts  --      0.3429                 0.7254                 0.5926
 IR Inten    --      0.6567                 5.2556                 1.2957
  Atom  AN      X      Y      Z        X      Y      Z        X      Y      Z
     1   8     0.02  -0.01   0.02    -0.16  -0.17  -0.04    -0.04   0.01   0.06
     2   6     0.00   0.06   0.04    -0.02   0.14  -0.03     0.22  -0.13  -0.09
     3   6     0.01  -0.05  -0.01    -0.04   0.03  -0.16    -0.03  -0.00   0.00
     4   6     0.01  -0.02  -0.00    -0.10   0.01   0.00    -0.11  -0.01   0.01
     5   6    -0.08  -0.09  -0.00     0.02  -0.06  -0.03     0.02   0.03   0.03
     6   6    -0.06  -0.03   0.01     0.05  -0.04  -0.01     0.02   0.01   0.02
     7   6     0.02   0.05   0.09     0.01  -0.04  -0.04    -0.03   0.01  -0.02
     8   6     0.16   0.03  -0.02    -0.01  -0.02   0.00    -0.07   0.03  -0.01
     9   6    -0.03  -0.05  -0.14     0.12   0.01   0.15     0.00   0.05  -0.03
    10   6     0.00   0.14  -0.03     0.15   0.20   0.11     0.10   0.03  -0.04
    11   1    -0.01  -0.12   0.01    -0.08  -0.04  -0.13    -0.11   0.03   0.03
    12   1     0.00  -0.01   0.01     0.05  -0.01   0.09    -0.01  -0.04   0.04
    13   1     0.01  -0.01  -0.01    -0.05  -0.02   0.11    -0.12  -0.04   0.07
    14   1    -0.00  -0.02   0.00    -0.32   0.01   0.08    -0.20  -0.02   0.05
    15   1    -0.13  -0.15   0.02    -0.05  -0.33   0.01     0.17   0.16  -0.03
    16   1    -0.05  -0.05   0.08     0.08   0.05   0.20    -0.05  -0.06  -0.17
    17   1    -0.13  -0.13   0.04     0.02   0.08  -0.01     0.12  -0.09  -0.00
    18   1     0.01   0.01  -0.09     0.09  -0.07   0.10    -0.04   0.03  -0.08
    19   1    -0.01   0.17   0.18    -0.01  -0.05  -0.03     0.01  -0.14  -0.13
    20   1    -0.10   0.01  -0.04     0.04   0.00  -0.04     0.06   0.00   0.14
    21   1     0.09   0.08   0.10     0.09  -0.04  -0.13    -0.21  -0.10   0.08
    22   1     0.21  -0.05  -0.05    -0.11   0.04  -0.02     0.12  -0.06   0.06
    23   1    -0.28  -0.32  -0.44     0.06   0.03   0.13    -0.22  -0.07  -0.22
    24   1    -0.16  -0.22   0.32     0.24  -0.10   0.14     0.00  -0.12   0.24
    25   1     0.10   0.05   0.12     0.20   0.25   0.09    -0.24  -0.35   0.11
    26   1    -0.10   0.22  -0.01     0.30   0.18   0.15    -0.03   0.38   0.17
                     16                     17                     18
                      A                      A                      A
 Frequencies --    720.4886               755.8182               791.9716
 Red. masses --      2.6578                 1.7637                 1.9030
 Frc consts  --      0.8129                 0.5936                 0.7032
 IR Inten    --      0.7302                 1.4944                 3.4192
  Atom  AN      X      Y      Z        X      Y      Z        X      Y      Z
     1   8    -0.03   0.06  -0.13    -0.01   0.00  -0.06     0.00  -0.00   0.01
     2   6    -0.04   0.03  -0.11    -0.08   0.04  -0.01    -0.03  -0.04   0.02
     3   6    -0.01  -0.06   0.24    -0.01  -0.10   0.00    -0.00   0.03  -0.07
     4   6    -0.03  -0.01   0.04     0.04  -0.02   0.00     0.04   0.00  -0.02
     5   6    -0.07  -0.10   0.03     0.05  -0.01   0.03    -0.03   0.02   0.03
     6   6     0.00  -0.06  -0.01    -0.02   0.11   0.02    -0.03  -0.08   0.07
     7   6     0.03  -0.02  -0.09    -0.07   0.07   0.07    -0.02  -0.02  -0.11
     8   6     0.05   0.02   0.01    -0.07   0.00  -0.04     0.10   0.08  -0.06
     9   6     0.04   0.03   0.08     0.06  -0.04  -0.02     0.03   0.08   0.08
    10   6     0.03   0.07  -0.00     0.03   0.01   0.04    -0.07  -0.02   0.05
    11   1     0.09   0.05   0.19     0.01  -0.06  -0.00    -0.02   0.09  -0.07
    12   1    -0.34   0.03  -0.13    -0.12   0.06  -0.00     0.15  -0.02   0.03
    13   1    -0.12   0.04  -0.16     0.18   0.05  -0.02     0.06  -0.02   0.06
    14   1     0.36   0.01  -0.11     0.05   0.06  -0.01    -0.08  -0.00   0.03
    15   1     0.02   0.30  -0.03     0.19   0.03  -0.01     0.12   0.08  -0.02
    16   1    -0.16  -0.28  -0.31     0.05  -0.12  -0.11    -0.21   0.07  -0.08
    17   1    -0.01   0.18  -0.01     0.11  -0.25  -0.01     0.08  -0.09   0.03
    18   1     0.14  -0.10   0.20    -0.08   0.21  -0.34    -0.10  -0.08   0.04
    19   1     0.04  -0.01  -0.09     0.12  -0.21  -0.22    -0.06  -0.18  -0.17
    20   1     0.04  -0.01  -0.07     0.07  -0.07   0.47    -0.00  -0.08  -0.01
    21   1     0.06  -0.03  -0.04    -0.23  -0.19   0.03    -0.20  -0.20   0.10
    22   1     0.04   0.07   0.04     0.15  -0.12   0.02     0.47  -0.04   0.11
    23   1    -0.01  -0.01   0.04     0.09  -0.12  -0.07     0.04  -0.20  -0.11
    24   1     0.04  -0.01   0.15     0.09  -0.09   0.02    -0.11   0.05   0.34
    25   1    -0.05   0.01   0.00     0.17   0.11   0.03    -0.09   0.23  -0.19
    26   1     0.11   0.15   0.09     0.08  -0.07  -0.00    -0.02  -0.26  -0.12
                     19                     20                     21
                      A                      A                      A
 Frequencies --    825.3324               874.6096               914.0343
 Red. masses --      2.3616                 1.7973                 1.8602
 Frc consts  --      0.9478                 0.8100                 0.9157
 IR Inten    --      1.9359                 8.8458                 2.8560
  Atom  AN      X      Y      Z        X      Y      Z        X      Y      Z
     1   8     0.00  -0.03   0.00     0.01   0.01  -0.02     0.02  -0.01  -0.01
     2   6    -0.03   0.08   0.04    -0.06  -0.02   0.02    -0.09   0.08   0.06
     3   6     0.01   0.13   0.02     0.01   0.01   0.04    -0.05  -0.06  -0.03
     4   6    -0.01   0.03   0.01    -0.03  -0.00   0.02     0.08  -0.04  -0.04
     5   6    -0.05  -0.09  -0.06     0.11   0.06  -0.08    -0.00   0.03   0.06
     6   6     0.05  -0.12   0.01     0.01  -0.01  -0.08    -0.04  -0.04   0.01
     7   6    -0.00   0.09   0.02    -0.09  -0.05   0.06    -0.02  -0.01  -0.08
     8   6    -0.09   0.11   0.00    -0.00   0.00   0.00     0.00   0.03   0.08
     9   6     0.01  -0.04  -0.09     0.08   0.08   0.04     0.03   0.03   0.00
    10   6     0.07  -0.13   0.01    -0.00  -0.03  -0.04     0.08  -0.06  -0.10
    11   1     0.06   0.08   0.01     0.09  -0.05   0.02    -0.24  -0.06   0.04
    12   1     0.11  -0.07  -0.04    -0.19   0.04  -0.04     0.03   0.08   0.10
    13   1    -0.27  -0.05  -0.03    -0.01   0.05  -0.08     0.40   0.03   0.09
    14   1     0.10  -0.07  -0.02     0.14   0.03  -0.04    -0.18   0.08   0.05
    15   1    -0.12  -0.10  -0.04    -0.21  -0.19   0.03     0.10   0.10   0.02
    16   1    -0.13   0.03   0.04     0.34   0.15   0.27    -0.13   0.03  -0.06
    17   1    -0.08   0.11   0.04    -0.17   0.19  -0.03     0.10   0.08  -0.03
    18   1     0.31  -0.14   0.17     0.05  -0.08   0.15    -0.11  -0.08   0.11
    19   1     0.03  -0.14  -0.13    -0.08  -0.13   0.01     0.05  -0.01  -0.14
    20   1     0.22   0.20   0.22    -0.02  -0.00   0.11     0.05  -0.00   0.02
    21   1    -0.34  -0.06   0.18    -0.01  -0.08  -0.04     0.14   0.05  -0.07
    22   1     0.22   0.00   0.14     0.02  -0.17  -0.13    -0.15   0.17   0.08
    23   1     0.12  -0.09  -0.08    -0.14  -0.17  -0.23    -0.22   0.13  -0.04
    24   1    -0.04   0.03  -0.12    -0.05  -0.04   0.45    -0.08   0.07   0.09
    25   1     0.18  -0.21   0.15    -0.11  -0.13  -0.01     0.14  -0.38   0.25
    26   1     0.07  -0.02   0.09    -0.17   0.05  -0.05    -0.17   0.28   0.06
                     22                     23                     24
                      A                      A                      A
 Frequencies --    933.8949               955.8975               979.5569
 Red. masses --      1.7548                 1.6323                 2.1865
 Frc consts  --      0.9017                 0.8787                 1.2361
 IR Inten    --      2.4291                 4.0389                 8.7557
  Atom  AN      X      Y      Z        X      Y      Z        X      Y      Z
     1   8    -0.02   0.00  -0.03     0.01  -0.02   0.02    -0.01  -0.01   0.01
     2   6     0.02  -0.00  -0.03     0.02   0.09   0.03     0.07   0.06  -0.02
     3   6     0.00  -0.10   0.01     0.04   0.01  -0.00     0.08  -0.00   0.02
     4   6    -0.02  -0.06   0.01    -0.05   0.02   0.04    -0.08  -0.02  -0.04
     5   6     0.00   0.13  -0.02     0.03  -0.03  -0.05     0.14  -0.03   0.05
     6   6    -0.03  -0.03   0.03    -0.03   0.04   0.08    -0.09  -0.04  -0.10
     7   6     0.06  -0.04  -0.02    -0.04  -0.02  -0.06    -0.12  -0.00   0.02
     8   6    -0.04   0.09  -0.02     0.08   0.02  -0.02     0.11   0.04   0.01
     9   6    -0.04   0.00  -0.05    -0.06  -0.00   0.06    -0.09  -0.03  -0.03
    10   6     0.08  -0.02   0.06     0.01  -0.03  -0.07    -0.02  -0.02   0.03
    11   1     0.04  -0.19   0.01     0.22  -0.27  -0.03    -0.13   0.16   0.08
    12   1    -0.33   0.09  -0.01    -0.14  -0.04  -0.09    -0.07   0.06   0.09
    13   1     0.26   0.08  -0.05    -0.27   0.00  -0.11     0.13   0.01   0.09
    14   1     0.04   0.10  -0.02     0.21  -0.05  -0.05    -0.33   0.06   0.05
    15   1    -0.17  -0.06   0.05     0.13  -0.31  -0.06     0.07   0.18   0.05
    16   1     0.11   0.19   0.19     0.07   0.04   0.10     0.11  -0.11  -0.08
    17   1    -0.17  -0.06   0.08     0.07  -0.27   0.05    -0.14   0.28  -0.10
    18   1    -0.21  -0.07   0.07    -0.15   0.11  -0.22     0.07  -0.10   0.19
    19   1    -0.18   0.02   0.18    -0.07  -0.15  -0.10     0.12   0.00  -0.14
    20   1    -0.01   0.09  -0.30    -0.11  -0.19   0.02    -0.13  -0.18   0.23
    21   1    -0.24   0.10   0.24     0.05  -0.10  -0.07     0.07   0.08   0.08
    22   1     0.21   0.05   0.13     0.10   0.15   0.12     0.11  -0.02  -0.04
    23   1     0.11  -0.02   0.01    -0.03   0.14   0.17     0.17  -0.01   0.10
    24   1    -0.00   0.02  -0.14    -0.17   0.19  -0.10    -0.24   0.22  -0.21
    25   1     0.10   0.03   0.03    -0.08  -0.21   0.04     0.05   0.08  -0.03
    26   1     0.25  -0.05   0.12     0.05   0.16   0.09     0.25  -0.09   0.10
                     25                     26                     27
                      A                      A                      A
 Frequencies --   1013.7084              1025.8799              1070.7120
 Red. masses --      2.1534                 1.7448                 1.8530
 Frc consts  --      1.3038                 1.0819                 1.2516
 IR Inten    --      0.0307                 7.1392                 9.0464
  Atom  AN      X      Y      Z        X      Y      Z        X      Y      Z
     1   8     0.01   0.01   0.02    -0.01  -0.00  -0.01     0.00   0.02  -0.01
     2   6     0.01  -0.04   0.00    -0.05  -0.07   0.00    -0.03  -0.06  -0.00
     3   6     0.12  -0.03  -0.05     0.05   0.01  -0.07    -0.03   0.02   0.06
     4   6    -0.11  -0.04   0.02    -0.04   0.04   0.04     0.02   0.06  -0.03
     5   6     0.00   0.09   0.02     0.04  -0.03   0.05     0.13  -0.05  -0.03
     6   6    -0.03  -0.11   0.04    -0.06   0.03  -0.01    -0.13  -0.02   0.03
     7   6    -0.00   0.13  -0.04    -0.02  -0.05  -0.05     0.04   0.01  -0.04
     8   6     0.00  -0.02   0.04    -0.02   0.03   0.10    -0.02   0.07   0.02
     9   6     0.06  -0.10  -0.00     0.01   0.05  -0.09     0.06  -0.08   0.01
    10   6    -0.08   0.07  -0.05     0.06  -0.03   0.09    -0.02   0.06  -0.04
    11   1     0.30  -0.02  -0.12     0.32   0.12  -0.18    -0.14   0.11   0.09
    12   1    -0.38   0.05  -0.05    -0.05  -0.07  -0.11     0.31  -0.05   0.03
    13   1     0.03   0.06  -0.08    -0.30  -0.00  -0.10    -0.15  -0.05   0.08
    14   1     0.03   0.08  -0.04     0.23  -0.06  -0.05    -0.09  -0.09   0.03
    15   1    -0.01   0.03   0.03     0.28  -0.02  -0.03     0.05  -0.10   0.00
    16   1    -0.21   0.29   0.10    -0.05  -0.07  -0.10     0.33  -0.15   0.02
    17   1    -0.02   0.06   0.04     0.16   0.06  -0.08    -0.39  -0.12   0.11
    18   1     0.00  -0.13   0.14    -0.21  -0.01   0.03    -0.22  -0.03   0.02
    19   1     0.19   0.02  -0.22     0.07   0.15  -0.00    -0.07  -0.01   0.02
    20   1     0.18   0.14   0.24    -0.07  -0.08  -0.10    -0.02  -0.02  -0.10
    21   1     0.11  -0.12  -0.17     0.10   0.28   0.14    -0.09   0.00   0.05
    22   1    -0.11   0.15   0.10    -0.17   0.04  -0.01     0.06   0.29   0.27
    23   1     0.04   0.01   0.06    -0.13  -0.00  -0.19     0.05   0.02   0.07
    24   1     0.16  -0.14  -0.08    -0.02  -0.05   0.12     0.28  -0.20  -0.11
    25   1    -0.00   0.08  -0.01     0.34   0.09   0.15    -0.01   0.01   0.01
    26   1    -0.24   0.02  -0.16    -0.05  -0.14  -0.05    -0.17   0.08  -0.09
                     28                     29                     30
                      A                      A                      A
 Frequencies --   1093.3666              1112.8468              1121.3010
 Red. masses --      2.9192                 1.9704                 1.3525
 Frc consts  --      2.0561                 1.4377                 1.0019
 IR Inten    --      1.5401                 1.8429                 4.3852
  Atom  AN      X      Y      Z        X      Y      Z        X      Y      Z
     1   8     0.01  -0.02  -0.00    -0.01   0.02  -0.04     0.01   0.00   0.01
     2   6    -0.02   0.14   0.04    -0.01  -0.01  -0.01    -0.04  -0.06   0.01
     3   6     0.22  -0.02  -0.01     0.09  -0.12   0.05     0.06   0.05  -0.02
     4   6    -0.12  -0.00  -0.06    -0.04   0.09  -0.06    -0.03  -0.05  -0.01
     5   6    -0.01  -0.07   0.07    -0.07   0.08   0.00    -0.04  -0.03  -0.02
     6   6    -0.07   0.08  -0.00     0.10   0.02  -0.02     0.06   0.05  -0.01
     7   6     0.13  -0.04   0.01    -0.07  -0.06   0.01    -0.02  -0.06   0.02
     8   6    -0.12  -0.01  -0.05     0.02   0.06   0.06     0.02   0.04  -0.00
     9   6     0.08   0.04   0.06     0.04  -0.04  -0.02    -0.01  -0.02   0.01
    10   6    -0.04  -0.09  -0.07    -0.03   0.02  -0.01     0.02   0.02  -0.01
    11   1     0.15   0.02   0.01     0.03  -0.42   0.11     0.11   0.44  -0.09
    12   1    -0.04   0.04   0.07     0.44  -0.09   0.04    -0.19   0.06   0.03
    13   1    -0.02  -0.02   0.08    -0.32  -0.11   0.13     0.19   0.04  -0.01
    14   1    -0.38   0.03   0.03    -0.27  -0.18   0.04    -0.07   0.11  -0.00
    15   1     0.06   0.20   0.03    -0.19   0.11   0.04    -0.24   0.20   0.02
    16   1    -0.09  -0.15  -0.12     0.00   0.06   0.05    -0.00  -0.06  -0.03
    17   1    -0.13  -0.06   0.02     0.21   0.05  -0.05    -0.13  -0.08   0.04
    18   1    -0.08   0.10  -0.06     0.01  -0.00   0.01     0.23   0.12  -0.15
    19   1    -0.04   0.19   0.25    -0.17  -0.22  -0.00    -0.24  -0.26   0.07
    20   1     0.04   0.10  -0.31    -0.02  -0.01   0.03    -0.14  -0.15  -0.05
    21   1    -0.20   0.04   0.09     0.03   0.01   0.02    -0.03  -0.08  -0.02
    22   1     0.03  -0.18  -0.08     0.00   0.11   0.10     0.07   0.23   0.20
    23   1     0.08  -0.20  -0.11     0.06  -0.03   0.01    -0.12   0.16   0.08
    24   1     0.08  -0.06   0.23    -0.04   0.03  -0.03     0.04  -0.03  -0.04
    25   1    -0.21  -0.16  -0.11     0.21   0.06   0.10     0.23  -0.02   0.16
    26   1    -0.13   0.01  -0.03    -0.06  -0.02  -0.05    -0.16   0.04  -0.07
                     31                     32                     33
                      A                      A                      A
 Frequencies --   1125.2229              1163.3125              1193.7729
 Red. masses --      2.0285                 2.2123                 1.4010
 Frc consts  --      1.5132                 1.7640                 1.1764
 IR Inten    --     10.0082                 0.5455                25.2295
  Atom  AN      X      Y      Z        X      Y      Z        X      Y      Z
     1   8     0.01  -0.01   0.03    -0.02   0.00  -0.03    -0.02  -0.01   0.01
     2   6     0.05   0.06   0.01     0.07   0.03  -0.03     0.11   0.07  -0.03
     3   6    -0.07   0.03  -0.05     0.04   0.10   0.12    -0.04  -0.01  -0.03
     4   6     0.03  -0.03   0.05    -0.01  -0.07  -0.05     0.01  -0.01   0.03
     5   6    -0.03  -0.01   0.03    -0.02  -0.05  -0.11    -0.01  -0.00   0.02
     6   6     0.03   0.03  -0.07     0.02   0.03   0.10    -0.00   0.02   0.00
     7   6    -0.06  -0.10   0.03    -0.04  -0.01  -0.10     0.01  -0.01  -0.02
     8   6    -0.02   0.11   0.07    -0.01  -0.02   0.11    -0.01  -0.00   0.06
     9   6     0.09  -0.11   0.00     0.06   0.03  -0.08     0.05  -0.01  -0.03
    10   6    -0.07   0.03  -0.07    -0.05  -0.04   0.07    -0.07  -0.02   0.01
    11   1     0.00  -0.02  -0.07    -0.15  -0.09   0.20    -0.08   0.08  -0.02
    12   1    -0.19   0.02  -0.05    -0.12   0.12   0.13    -0.08  -0.02  -0.04
    13   1     0.08   0.05  -0.09     0.31   0.01   0.08    -0.02   0.02  -0.05
    14   1     0.22   0.05  -0.03    -0.26   0.12   0.03     0.12   0.00  -0.01
    15   1     0.16  -0.04  -0.03    -0.07  -0.24  -0.07    -0.05   0.08   0.02
    16   1    -0.06  -0.06  -0.08    -0.03   0.13   0.13     0.24  -0.26  -0.09
    17   1     0.30   0.15  -0.15     0.10  -0.22   0.07    -0.20  -0.05   0.07
    18   1    -0.02  -0.01   0.05     0.07   0.12  -0.19    -0.18  -0.01   0.03
    19   1    -0.08  -0.02   0.08     0.06   0.03  -0.15    -0.21  -0.23   0.02
    20   1    -0.11  -0.09  -0.06    -0.05  -0.12   0.02     0.26   0.32  -0.07
    21   1    -0.10   0.26   0.28     0.17   0.24   0.09     0.07  -0.23  -0.22
    22   1     0.07   0.08   0.11    -0.23   0.10   0.05    -0.09  -0.01  -0.01
    23   1     0.35  -0.24   0.03    -0.00  -0.11  -0.20     0.03  -0.08  -0.08
    24   1     0.20  -0.14  -0.10     0.06  -0.08   0.10    -0.31   0.25   0.06
    25   1    -0.31  -0.03  -0.17    -0.09   0.13  -0.12     0.26   0.11   0.10
    26   1    -0.06   0.06  -0.05    -0.06  -0.22  -0.07    -0.13  -0.13  -0.10
                     34                     35                     36
                      A                      A                      A
 Frequencies --   1229.5193              1247.3250              1280.7803
 Red. masses --      1.4596                 1.3866                 1.2232
 Frc consts  --      1.3000                 1.2711                 1.1822
 IR Inten    --     15.9938                 2.1493                 3.2420
  Atom  AN      X      Y      Z        X      Y      Z        X      Y      Z
     1   8     0.03   0.01   0.03    -0.01   0.01  -0.02    -0.01   0.00  -0.00
     2   6    -0.08  -0.09   0.02     0.04  -0.05  -0.02     0.04  -0.00  -0.01
     3   6     0.02   0.02   0.03     0.01   0.08   0.06    -0.03  -0.03  -0.02
     4   6    -0.01  -0.01  -0.03    -0.00  -0.03  -0.02     0.01   0.02   0.03
     5   6    -0.02  -0.02  -0.04    -0.01  -0.03  -0.02     0.04   0.01   0.00
     6   6     0.01   0.02   0.04    -0.04   0.01  -0.03     0.00  -0.01   0.03
     7   6    -0.01  -0.01  -0.04     0.03  -0.02   0.06     0.01  -0.01  -0.04
     8   6    -0.01   0.01   0.05    -0.01   0.03  -0.06    -0.05   0.00  -0.01
     9   6    -0.00  -0.02   0.01    -0.00  -0.03   0.05     0.03  -0.00   0.05
    10   6    -0.00   0.07  -0.07    -0.02   0.02  -0.01    -0.04   0.01  -0.05
    11   1     0.16   0.28  -0.06    -0.00  -0.18   0.10    -0.19  -0.01   0.03
    12   1     0.03   0.03   0.05    -0.05   0.06   0.07    -0.00  -0.04  -0.05
    13   1     0.08  -0.01   0.04     0.14   0.00   0.04    -0.08   0.01  -0.03
    14   1    -0.11   0.03   0.00    -0.09   0.06   0.00     0.10  -0.04  -0.00
    15   1    -0.03  -0.08  -0.03     0.30  -0.30  -0.09    -0.11   0.11   0.04
    16   1     0.03  -0.00   0.03    -0.13   0.10   0.03    -0.11   0.16   0.06
    17   1     0.08  -0.07   0.02     0.33   0.14  -0.15    -0.20  -0.11   0.09
    18   1    -0.18   0.01  -0.01    -0.17  -0.04   0.08     0.39   0.09  -0.13
    19   1    -0.00   0.01  -0.03     0.04   0.11   0.12     0.21   0.25  -0.04
    20   1     0.17   0.19  -0.02     0.03   0.07  -0.06    -0.22  -0.29  -0.02
    21   1     0.04   0.03   0.00    -0.12  -0.15  -0.06    -0.08   0.15   0.14
    22   1    -0.06  -0.26  -0.21     0.13  -0.06  -0.03    -0.01  -0.11  -0.08
    23   1     0.39  -0.28   0.02    -0.05   0.08   0.11     0.18  -0.17   0.01
    24   1    -0.24   0.20  -0.01    -0.11   0.10  -0.00    -0.17   0.17   0.06
    25   1     0.06  -0.03   0.06     0.43   0.03   0.25     0.37   0.01   0.21
    26   1     0.39   0.22   0.22    -0.25  -0.02  -0.15    -0.09   0.03  -0.05
                     37                     38                     39
                      A                      A                      A
 Frequencies --   1294.6142              1327.2682              1345.0569
 Red. masses --      1.2373                 1.1819                 1.2358
 Frc consts  --      1.2218                 1.2267                 1.3173
 IR Inten    --      3.4276                 1.4608                 0.6208
  Atom  AN      X      Y      Z        X      Y      Z        X      Y      Z
     1   8    -0.00  -0.01   0.00     0.01  -0.00   0.02    -0.00  -0.00  -0.00
     2   6     0.02   0.04  -0.00    -0.00   0.00  -0.00     0.00  -0.01  -0.00
     3   6     0.01  -0.02  -0.00    -0.01  -0.01   0.01    -0.07   0.07   0.01
     4   6    -0.00  -0.00  -0.00    -0.00  -0.00  -0.01    -0.00  -0.03  -0.05
     5   6    -0.05   0.02  -0.05    -0.02   0.02  -0.02    -0.02   0.02   0.06
     6   6     0.04  -0.03   0.06     0.00  -0.03  -0.00     0.02  -0.02  -0.01
     7   6    -0.04   0.02  -0.01     0.04   0.01   0.04    -0.00   0.02  -0.02
     8   6     0.01   0.00  -0.04    -0.05  -0.02  -0.01    -0.00  -0.02  -0.00
     9   6    -0.02  -0.01   0.04     0.05   0.03  -0.04    -0.01   0.01   0.01
    10   6     0.01  -0.02  -0.00    -0.04  -0.01  -0.01     0.01   0.01  -0.01
    11   1     0.05   0.27  -0.05     0.09   0.10  -0.04     0.63  -0.45  -0.17
    12   1     0.00  -0.00  -0.01     0.02   0.00   0.01     0.08   0.05   0.09
    13   1     0.00  -0.00  -0.00     0.02  -0.00   0.01     0.17  -0.00   0.05
    14   1    -0.03  -0.00   0.00    -0.02  -0.00  -0.00    -0.10   0.05  -0.02
    15   1    -0.28   0.06   0.01    -0.05  -0.03  -0.00     0.09   0.07   0.03
    16   1     0.42  -0.31  -0.05     0.13  -0.09  -0.02     0.22  -0.26  -0.09
    17   1     0.27  -0.04  -0.01     0.22   0.04  -0.06    -0.25  -0.06   0.07
    18   1    -0.33  -0.10   0.10    -0.08  -0.07   0.09     0.14  -0.01   0.01
    19   1     0.23   0.25  -0.08     0.14   0.21   0.09     0.02  -0.01  -0.05
    20   1    -0.03  -0.06   0.10    -0.26  -0.32   0.02    -0.07  -0.09   0.02
    21   1    -0.05   0.19   0.18    -0.05  -0.30  -0.23    -0.00   0.08   0.07
    22   1     0.07  -0.12  -0.10    -0.07   0.40   0.34    -0.03  -0.01  -0.01
    23   1    -0.04   0.06   0.08     0.02  -0.11  -0.15     0.10  -0.06   0.02
    24   1     0.08  -0.06  -0.02    -0.14   0.13   0.08    -0.03   0.01   0.04
    25   1     0.08  -0.03   0.05     0.01   0.04  -0.03     0.05  -0.01   0.04
    26   1    -0.25  -0.02  -0.12     0.29   0.02   0.16    -0.06   0.01  -0.04
                     40                     41                     42
                      A                      A                      A
 Frequencies --   1368.0073              1380.6769              1386.8439
 Red. masses --      1.3627                 1.3292                 1.3577
 Frc consts  --      1.5025                 1.4929                 1.5385
 IR Inten    --      0.9385                 1.2313                 7.5432
  Atom  AN      X      Y      Z        X      Y      Z        X      Y      Z
     1   8     0.00   0.00   0.01     0.01  -0.00   0.02     0.00   0.01  -0.01
     2   6     0.01  -0.01  -0.01     0.01   0.02  -0.01    -0.02  -0.04   0.01
     3   6     0.02   0.04  -0.02    -0.02  -0.03   0.02    -0.01   0.08  -0.05
     4   6    -0.00  -0.01   0.02    -0.01   0.01  -0.01     0.01  -0.01   0.02
     5   6    -0.01  -0.02   0.01    -0.01   0.06  -0.00     0.07  -0.07  -0.01
     6   6     0.04   0.00  -0.02    -0.08  -0.02   0.03    -0.04   0.02   0.04
     7   6     0.01   0.05  -0.00    -0.04  -0.06   0.00    -0.02  -0.05  -0.00
     8   6     0.01  -0.01   0.00     0.02  -0.01  -0.04    -0.00   0.04  -0.00
     9   6    -0.01   0.05   0.02     0.04  -0.00   0.00     0.03  -0.04  -0.01
    10   6    -0.12  -0.04  -0.06    -0.07  -0.02  -0.02    -0.01   0.02   0.01
    11   1    -0.15  -0.17   0.06     0.14   0.18  -0.06    -0.03  -0.45   0.02
    12   1    -0.05  -0.00  -0.01     0.07  -0.01   0.01    -0.06   0.01  -0.02
    13   1     0.01   0.02  -0.05     0.04  -0.00   0.04    -0.03   0.02  -0.09
    14   1     0.04   0.04  -0.00     0.00  -0.04  -0.01    -0.00   0.08   0.01
    15   1    -0.02   0.05   0.01     0.11  -0.14  -0.02    -0.45   0.51   0.10
    16   1     0.01  -0.06  -0.03     0.18  -0.08  -0.01     0.01   0.00   0.04
    17   1    -0.10  -0.01   0.02     0.16   0.07  -0.05     0.24  -0.05  -0.03
    18   1    -0.26  -0.07   0.08     0.51   0.13  -0.19    -0.01   0.04  -0.01
    19   1    -0.11  -0.18  -0.04     0.09   0.08  -0.01     0.14   0.22   0.04
    20   1    -0.09  -0.09   0.03     0.27   0.35  -0.06     0.14   0.15  -0.01
    21   1     0.05   0.12   0.06     0.01   0.16   0.11    -0.02  -0.09  -0.07
    22   1     0.03  -0.09  -0.06     0.09   0.09   0.10     0.06  -0.02  -0.01
    23   1    -0.12   0.05  -0.03    -0.25   0.20   0.01    -0.17   0.15   0.02
    24   1     0.41  -0.32   0.03     0.08  -0.07   0.06    -0.07   0.06  -0.01
    25   1     0.36  -0.00   0.21     0.11   0.02   0.05    -0.07   0.01  -0.02
    26   1     0.45  -0.01   0.23     0.26  -0.01   0.14     0.13  -0.01   0.05
                     43                     44                     45
                      A                      A                      A
 Frequencies --   1402.2026              1412.6050              1413.0554
 Red. masses --      1.4847                 1.4551                 1.3694
 Frc consts  --      1.7200                 1.7107                 1.6110
 IR Inten    --      4.7227                10.7573                 4.6191
  Atom  AN      X      Y      Z        X      Y      Z        X      Y      Z
     1   8    -0.00  -0.01   0.00    -0.00  -0.01   0.02     0.00   0.00   0.00
     2   6     0.03   0.04  -0.01     0.04   0.05  -0.01     0.01  -0.00  -0.00
     3   6    -0.07  -0.03   0.02    -0.08  -0.06   0.05    -0.03  -0.01   0.01
     4   6     0.02   0.01  -0.02     0.04   0.01  -0.04     0.02   0.00  -0.01
     5   6     0.07  -0.02  -0.03     0.04  -0.03  -0.01     0.04  -0.04  -0.01
     6   6    -0.11  -0.01   0.03     0.05   0.02  -0.01     0.01   0.01  -0.02
     7   6     0.06   0.05   0.00    -0.01  -0.02  -0.01     0.01   0.06   0.01
     8   6     0.00  -0.01   0.03    -0.01   0.09   0.03    -0.01  -0.10  -0.08
     9   6    -0.06   0.05   0.01     0.04  -0.04  -0.02     0.07  -0.03   0.01
    10   6     0.00  -0.02  -0.01    -0.04  -0.02   0.01    -0.01   0.01  -0.00
    11   1     0.26   0.09  -0.11     0.42   0.25  -0.16     0.14   0.04  -0.05
    12   1    -0.01   0.02  -0.02    -0.04   0.07  -0.00    -0.05   0.04  -0.01
    13   1    -0.06  -0.04   0.03    -0.08  -0.09   0.09    -0.07  -0.04   0.02
    14   1    -0.10  -0.04   0.03    -0.18  -0.08   0.05    -0.10  -0.01   0.03
    15   1    -0.30   0.15   0.06    -0.03  -0.01   0.01    -0.11   0.07   0.02
    16   1    -0.06   0.10   0.02    -0.29   0.24   0.05    -0.20   0.15   0.02
    17   1     0.49   0.08  -0.15    -0.19  -0.06   0.06     0.02   0.06  -0.03
    18   1     0.19   0.03   0.00    -0.17  -0.02   0.02    -0.25  -0.04   0.05
    19   1    -0.27  -0.33   0.03     0.10   0.17   0.02    -0.19  -0.24  -0.00
    20   1    -0.07  -0.07  -0.06    -0.07  -0.11   0.01     0.02   0.04   0.06
    21   1     0.08  -0.05  -0.08    -0.04  -0.18  -0.13    -0.02   0.49   0.38
    22   1    -0.03  -0.08  -0.06     0.05  -0.24  -0.20    -0.00   0.20   0.19
    23   1     0.24  -0.20  -0.02    -0.29   0.28   0.05    -0.14   0.10   0.01
    24   1     0.19  -0.16  -0.01     0.05  -0.07   0.01    -0.31   0.26   0.10
    25   1     0.10  -0.03   0.07    -0.03   0.01  -0.01    -0.01   0.04  -0.03
    26   1    -0.11  -0.02  -0.06     0.10  -0.07   0.03     0.03   0.02   0.02
                     46                     47                     48
                      A                      A                      A
 Frequencies --   1421.6641              1433.9988              1487.5619
 Red. masses --      1.4071                 1.2419                 1.0875
 Frc consts  --      1.6756                 1.5046                 1.4178
 IR Inten    --      0.5094                 6.7668                 6.9749
  Atom  AN      X      Y      Z        X      Y      Z        X      Y      Z
     1   8    -0.00  -0.00   0.00    -0.00  -0.00  -0.01     0.00  -0.00   0.00
     2   6     0.02   0.02  -0.01     0.02   0.02   0.00     0.00  -0.01  -0.00
     3   6    -0.03  -0.01   0.01    -0.02  -0.02   0.01    -0.00   0.01   0.00
     4   6     0.05   0.00  -0.01    -0.12   0.00  -0.01     0.00  -0.00   0.00
     5   6     0.02  -0.03   0.00     0.03  -0.03  -0.01     0.00  -0.00  -0.00
     6   6     0.05   0.03  -0.01     0.01   0.02  -0.00    -0.00   0.00  -0.00
     7   6    -0.07  -0.07   0.02    -0.01  -0.01   0.00     0.00   0.00  -0.00
     8   6     0.04  -0.05  -0.04     0.01  -0.01  -0.01     0.01   0.01   0.00
     9   6    -0.07   0.08   0.01    -0.01   0.01   0.00     0.00  -0.01   0.00
    10   6     0.00  -0.02  -0.02    -0.01  -0.01  -0.00     0.00  -0.08   0.00
    11   1     0.09   0.02  -0.03     0.09   0.07  -0.03     0.01  -0.02  -0.00
    12   1    -0.15   0.06  -0.06     0.49  -0.14   0.20    -0.01  -0.00  -0.01
    13   1    -0.15  -0.07  -0.00     0.44   0.14   0.13     0.00   0.00  -0.01
    14   1    -0.18  -0.03   0.07     0.51  -0.01  -0.22    -0.01  -0.00   0.01
    15   1    -0.01   0.08   0.00    -0.13   0.07   0.03     0.00   0.01  -0.00
    16   1    -0.17   0.14   0.06    -0.18   0.13   0.02     0.01   0.00   0.01
    17   1    -0.18  -0.03   0.06    -0.01  -0.01   0.01     0.01  -0.02  -0.00
    18   1    -0.16   0.01  -0.01    -0.14  -0.01   0.01     0.02  -0.00   0.02
    19   1     0.21   0.25  -0.00     0.02   0.05   0.02    -0.01  -0.02  -0.01
    20   1     0.26   0.31   0.05     0.06   0.06   0.03    -0.01  -0.00  -0.01
    21   1     0.01  -0.05  -0.01    -0.00  -0.00   0.00    -0.07  -0.06   0.05
    22   1    -0.03   0.36   0.26    -0.00   0.07   0.05    -0.09  -0.00  -0.07
    23   1     0.32  -0.27  -0.04     0.03  -0.04  -0.01    -0.05  -0.00  -0.02
    24   1     0.19  -0.15   0.00     0.04  -0.03  -0.00     0.02  -0.00  -0.05
    25   1     0.15  -0.01   0.07     0.03   0.01   0.00     0.20   0.51  -0.40
    26   1    -0.09   0.03  -0.02    -0.03   0.00  -0.00    -0.25   0.56   0.35
                     49                     50                     51
                      A                      A                      A
 Frequencies --   1512.4999              1515.2116              1519.5799
 Red. masses --      1.0809                 1.0790                 1.0873
 Frc consts  --      1.4569                 1.4595                 1.4792
 IR Inten    --      2.6610                 0.3508                 2.9181
  Atom  AN      X      Y      Z        X      Y      Z        X      Y      Z
     1   8    -0.00   0.00  -0.00     0.00   0.00  -0.00    -0.00  -0.00  -0.00
     2   6     0.01   0.00   0.00    -0.00  -0.00  -0.00     0.00   0.00  -0.00
     3   6    -0.01  -0.01   0.00     0.00   0.00  -0.00    -0.00   0.01   0.00
     4   6    -0.01   0.02   0.00     0.00  -0.01  -0.01    -0.00   0.01   0.01
[...]
 200942,-0.00247890,-0.27941124,-0.01473563,-0.07705249,-0.01592747,-0.
 00002137,-0.00602546,-0.00011582,-0.00021385,-0.00071951,0.00006908,0.
 00005189,0.00025191,0.00010614,0.00008157,-0.00012724,-0.00000166,0.00
 005526,-0.00004325,-0.00000435,-0.00003375,0.00003130,0.00000656,-0.00
 006123,0.00001367,0.00067380,-0.00061809,0.00060747,0.00035459,0.00023
 366,-0.00022928,-0.00024135,-0.00227168,-0.00013989,-0.00057885,-0.000
 53535,0.00025941,0.30385085,0.00009336,-0.00006723,0.00017719,-0.00019
 642,0.00034336,-0.00006483,0.00017150,-0.00002896,0.00032742,0.0000265
 6,0.00004108,0.00007546,-0.00153549,0.00209060,-0.00045097,-0.02801929
 ,-0.00382593,-0.00712692,-0.01536290,-0.04973985,-0.00562866,0.0268408
 3,-0.00027638,0.01052933,-0.00056085,0.00054918,0.00087553,-0.00004105
 ,0.00041800,-0.00044506,0.00005183,-0.00006283,-0.00018980,-0.00000656
 ,0.00000790,-0.00001009,0.00002183,-0.00001293,0.00001203,0.00001252,-
 0.00001016,0.00002102,0.00085280,-0.00045145,0.00007460,0.00016353,0.0
 0027483,-0.00042940,-0.00179716,-0.00449042,0.00049249,-0.00043415,-0.
 00124127,-0.00000760,0.01549069,0.05974103,-0.00125737,-0.00000573,-0.
 00101302,0.00094965,0.00010839,-0.00250511,0.00036836,-0.00008984,-0.0
 0005940,-0.00017514,0.00002030,0.00003068,0.00056238,0.00028222,0.0008
 2247,0.01046425,0.00149748,0.00245306,-0.07874919,-0.00596759,-0.07729
 007,0.01195696,0.00118657,0.00460103,0.00043655,0.00064918,0.00082945,
 -0.00014550,-0.00000229,-0.00032291,-0.00005055,-0.00003108,0.00006627
 ,0.00001684,-0.00005094,0.00003258,0.00000654,-0.00002644,0.00002316,0
 .00001272,0.00003023,-0.00000796,-0.00004460,-0.00004293,0.00020006,0.
 00003497,-0.00022904,0.00004291,0.00148327,0.00196967,-0.00056359,0.00
 007674,0.00015166,0.00006330,0.08625705,0.00351180,0.08335608,0.000492
 61,0.00005107,-0.00094949,-0.00118979,-0.00010781,0.00084388,-0.000063
 53,-0.00010956,0.00017515,0.00007145,0.00003895,0.00007848,-0.00127323
 ,-0.00083724,-0.00022572,-0.00014668,-0.00215690,0.01326456,-0.0498102
 4,-0.00164234,0.00725470,-0.00247498,0.00103409,0.02104062,-0.00137299
 ,0.00390320,0.00004641,-0.00006286,0.00009101,-0.00027621,0.00010115,0
 .00007283,-0.00005916,0.00000491,0.00003620,-0.00002841,0.00000505,-0.
 00000839,0.00002246,0.00000800,-0.00004359,0.00000777,0.00018543,-0.00
 007473,-0.00006394,0.00039521,-0.00011474,0.00021937,-0.00063731,-0.00
 048573,0.00019101,0.00141522,0.00042161,-0.00000951,0.00201473,0.00127
 328,-0.03310311,0.05135060,-0.00010677,0.00044150,-0.00008220,-0.00008
 684,-0.00100451,0.00012836,0.00007705,0.00007318,-0.00033259,0.0000265
 8,0.00007844,0.00017940,-0.00363013,-0.00352630,0.00029225,0.00005314,
 -0.00656419,0.02896310,-0.00137041,-0.04602060,0.01552166,0.00237769,-
 0.00005786,-0.02907693,0.00254602,-0.00459502,0.00004100,0.00023757,0.
 00021396,0.00050835,-0.00003637,-0.00002444,0.00003620,0.00001727,0.00
 008208,-0.00005245,0.00004416,0.00000355,0.00010247,-0.00001027,-0.000
 01712,-0.00001910,0.00009393,0.00013766,-0.00013069,0.00066948,-0.0009
 3972,0.00099251,-0.00068520,-0.00089693,0.00048214,0.00022605,0.000594
 78,0.00101843,0.00012630,0.00004988,-0.00188465,-0.00022365,0.05997881
 ,0.00010095,0.00007655,-0.00022468,-0.00021078,-0.00013144,0.00025783,
 0.00003029,-0.00009257,0.00033675,0.00003584,0.00001033,0.00005038,0.0
 0137339,0.00123358,0.00077903,-0.00078416,-0.00026569,-0.00613738,0.00
 797272,0.01602983,-0.30548015,0.00027397,0.00016183,-0.01164219,0.0009
 7947,-0.00264580,0.00145861,0.00012047,0.00016847,0.00046967,-0.000008
 38,0.00001340,-0.00000679,-0.00000441,0.00001538,-0.00000869,-0.000009
 32,-0.00001620,-0.00002590,-0.00001355,-0.00001244,0.00000148,0.000020
 55,-0.00011536,-0.00001242,-0.00021526,0.00024961,-0.00047113,0.000053
 48,0.00055910,-0.00025159,-0.00025395,0.00010742,0.00216352,-0.0005239
 6,0.00034274,-0.01140619,-0.00936210,-0.01568098,0.32960278,0.00030313
 ,-0.00003966,-0.00032873,-0.00033683,0.00012642,0.00054143,-0.00002231
 ,0.00001638,0.00009263,0.00001601,-0.00001508,0.00000713,0.00019258,-0
 .00001344,-0.00008615,0.00022652,-0.00069463,0.00054919,-0.01689959,0.
 00171833,-0.00724004,-0.23521920,0.00809285,-0.11103948,0.00671463,-0.
 00052600,0.00537203,0.00077548,-0.00038071,0.00132515,0.00001863,-0.00
 000073,-0.00002378,0.00000119,0.00001360,-0.00000459,-0.00000604,0.000
 00082,-0.00001774,-0.00000016,-0.00000823,0.00000551,0.00009246,-0.000
 15423,0.00013248,0.00004217,0.00006179,-0.00007345,0.00055298,0.000597
 45,-0.00028731,0.00011450,0.00015104,-0.00002084,-0.00044489,0.0035389
 7,0.00173816,0.00057623,-0.00023569,0.00050452,0.25689860,-0.00028254,
 0.00008649,0.00025150,0.00030653,-0.00024272,-0.00052540,0.00000079,0.
 00003205,-0.00006327,-0.00001099,-0.00000847,0.00000252,-0.00004150,-0
 .00005347,0.00019971,0.00121888,0.00190560,-0.00007667,0.02600040,-0.0
 0308212,0.01246469,0.00806874,-0.05124212,0.00682298,0.00010676,-0.000
 62633,0.00106002,-0.00029477,0.00095830,-0.00016524,-0.00003572,-0.000
 00814,0.00004231,0.00000360,0.00000206,0.00000347,0.00000159,-0.000002
 11,0.00000320,-0.00000584,0.00000540,-0.00000641,-0.00020090,0.0000808
 1,-0.00005488,-0.00006435,-0.00002560,0.00006527,-0.00091264,-0.000087
 84,0.00020848,-0.00003645,0.00012605,-0.00003851,0.00290638,-0.0042323
 8,-0.00185716,-0.00087526,0.00131261,0.00038719,-0.01274399,0.05288992
 ,-0.00076099,0.00052146,0.00025473,0.00121979,-0.00165166,-0.00024932,
 -0.00010615,0.00012080,-0.00004466,0.00007183,0.00005997,0.00008201,0.
 00017091,-0.00001002,-0.00025399,-0.00028411,0.00046137,0.00002704,0.0
 1073509,-0.00144897,0.00456922,-0.11085730,0.00694314,-0.11352869,-0.0
 2956656,0.00116279,-0.01974797,0.00367715,0.00030512,-0.00550748,-0.00
 002801,-0.00001998,-0.00000454,-0.00000471,0.00006483,-0.00003200,0.00
 000436,-0.00002640,0.00003707,-0.00001624,-0.00001968,-0.00000361,-0.0
 0003124,0.00000258,0.00007318,-0.00003366,0.00003264,0.00008153,-0.000
 03091,0.00032030,-0.00017547,0.00009832,0.00002217,-0.00002943,0.00153
 854,-0.00247342,0.00024827,0.00039574,0.00039255,0.00114148,0.11830435
 ,-0.00397471,0.12792351,0.00009627,-0.00015145,0.00000816,-0.00005802,
 0.00031670,0.00001361,-0.00012540,-0.00002409,0.00000402,0.00003576,-0
 .00002685,-0.00006717,0.00032925,0.00015631,0.00012140,-0.00185489,0.0
 0227171,0.00201217,0.00860451,0.01753660,-0.00437032,-0.11932732,-0.10
 916106,0.02883230,-0.00497133,-0.00565287,0.00232823,0.00065936,0.0007
 8145,-0.00034223,0.00005293,0.00003727,-0.00005593,-0.00000360,-0.0000
 1988,0.00001709,-0.00001093,0.00000694,-0.00001687,0.00001356,-0.00000
 531,0.00001475,0.00002080,-0.00002094,0.00003803,-0.00005239,0.0000240
 5,-0.00018635,0.00028919,0.00014328,-0.00008591,0.00038802,0.00081314,
 -0.00014584,0.00116965,-0.00031565,-0.00055671,0.00039538,-0.00078930,
 -0.00025588,-0.01526400,-0.02370355,0.00685861,0.12852110,0.00022071,0
 .00027157,-0.00005710,-0.00022961,-0.00060179,0.00002624,0.00009202,0.
 00019012,0.00008105,-0.00001969,0.00009462,0.00007551,-0.00044935,-0.0
 0042029,-0.00053731,0.00394912,-0.00189976,-0.00317883,-0.01375135,-0.
 02390576,0.00639310,-0.10885834,-0.21855392,0.04858112,0.00053425,0.00
 086119,-0.00058922,0.00006221,0.00004604,-0.00009589,-0.00001309,-0.00
 000335,-0.00000612,0.00000154,0.00001737,-0.00003180,0.00001799,-0.000
 01849,0.00006787,-0.00000213,-0.00001558,-0.00001172,0.00004899,-0.000
 03317,0.00004107,0.00011806,-0.00013500,0.00035281,0.00021586,0.000529
 19,0.00006089,-0.00028963,-0.00145520,0.00035602,0.00014800,0.00111036
 ,0.00074895,-0.00024851,0.00062035,-0.00051103,0.00041748,0.00158203,-
 0.00108549,0.11728372,0.23929857,-0.00015934,0.00000693,0.00013926,0.0
 0007096,-0.00003785,-0.00011830,0.00038283,-0.00001959,-0.00011907,-0.
 00013248,0.00001524,0.00008039,-0.00021513,-0.00046681,-0.00028165,0.0
 0158167,-0.00116819,0.00026754,-0.00560771,-0.00844203,0.00239275,0.02
 894268,0.04820256,-0.06314358,0.01969168,0.02801126,-0.01039510,0.0010
 7039,0.00067913,0.00164856,-0.00020946,-0.00008000,0.00013299,0.000006
 89,0.00000066,-0.00001279,0.00001565,-0.00000148,0.00001960,-0.0000303
 0,0.00004022,-0.00003686,0.00000488,0.00000663,0.00007562,0.00008993,-
 0.00009280,0.00015272,0.00006676,0.00017025,-0.00016817,-0.00008421,-0
 .00032918,-0.00000076,-0.00000485,0.00047630,0.00040788,-0.00054102,0.
 00027184,0.00017067,-0.00869376,-0.01483274,0.00409829,-0.03648174,-0.
 05094029,0.06979447,0.00026067,0.00127625,-0.00001867,0.00012791,-0.00
 300662,0.00066018,-0.00142327,0.00049414,0.00081900,0.00066054,0.00016
 700,-0.00038276,0.00003958,0.00049926,0.00006381,-0.00067790,-0.000104
 42,-0.00032615,-0.00006778,-0.00096941,-0.00008624,-0.00532168,-0.0056
 5788,0.00208514,-0.15527060,-0.11924733,0.03547238,-0.01943991,-0.0200
 7634,0.00473429,0.00092161,0.00085478,-0.00085478,-0.00003285,0.000019
 80,-0.00002120,-0.00002863,-0.00001104,0.00005751,0.00014542,-0.000238
 45,0.00017168,0.00014056,-0.00011611,-0.00011522,-0.00002564,0.0000218
 5,0.00000664,0.00064880,0.00015940,0.00014410,0.00028991,0.00000505,-0
 .00015999,0.00004507,0.00005805,0.00001710,0.00008848,0.00018371,-0.00
 004103,0.00082329,0.00052754,0.00003037,0.00084572,0.00014406,0.001487
 53,0.16833803,-0.00026740,0.00025846,0.00009889,0.00018701,-0.00068532
 ,-0.00049445,0.00062030,-0.00077602,0.00098203,0.00033325,0.00010379,-
 0.00007445,-0.00010063,0.00000589,0.00003355,-0.00023607,-0.00027528,-
 0.00048763,0.00042466,0.00011377,0.00020994,0.00127502,0.00131200,0.00
 055716,-0.12020818,-0.18693448,0.03932440,0.00119261,0.00239477,-0.001
 25749,0.00132635,-0.00135875,0.00063973,-0.00002035,0.00004104,-0.0000
 2954,-0.00002379,-0.00000202,-0.00002022,0.00005195,-0.00009733,0.0000
 6539,0.00002194,0.00004237,-0.00001170,0.00002310,0.00001061,0.0000056
 1,0.00038394,-0.00052729,-0.00064702,0.00016451,0.00013927,-0.00004882
 ,-0.00000272,-0.00001536,-0.00001248,-0.00014040,0.00008482,0.00011568
 ,0.00013895,0.00020946,0.00064151,0.00053385,0.00126128,-0.00029491,0.
 13252419,0.20576743,0.00010255,0.00019543,-0.00003034,0.00059237,0.000
 10023,0.00071092,-0.00093799,0.00054129,-0.00029330,0.00008044,0.00000
 162,-0.00004709,0.00002867,-0.00033424,0.00011604,0.00121161,-0.000373
 61,-0.00002357,-0.00053301,0.00059216,0.00122004,0.02150754,0.02632053
 ,-0.00898798,0.03565381,0.03939045,-0.06071578,-0.01412417,-0.01680011
 ,0.00382424,-0.00027419,0.00098257,-0.00010953,-0.00000330,0.00002017,
 -0.00001082,-0.00002861,0.00000818,-0.00003290,0.00001341,-0.00002333,
 -0.00000472,-0.00006608,0.00002844,-0.00013806,0.00004875,-0.00004690,
 0.00003620,-0.00056726,-0.00080268,-0.00030214,-0.00035333,0.00003136,
 0.00009655,-0.00003753,-0.00007487,-0.00001444,-0.00029311,0.00000336,
 0.00015444,-0.00052326,-0.00001055,0.00132442,0.00180986,-0.00067427,-
 0.00675631,-0.03597419,-0.04513588,0.07043774,-0.00220613,0.00204665,0
 .00088853,-0.00167252,-0.00484539,-0.00402829,-0.00024187,0.00016996,0
 .00098022,0.00022558,-0.00001544,-0.00002872,0.00006998,0.00021688,-0.
 00027157,-0.00016217,-0.00006984,-0.00023146,0.00085977,-0.00124553,0.
 00211059,-0.00482286,0.00762469,0.00269652,-0.10633642,0.10499494,0.02
 330761,-0.01538215,0.02561268,0.00078369,0.00033193,0.00006847,-0.0001
 7655,0.00000557,0.00005269,-0.00002783,-0.00001340,-0.00001399,-0.0000
 0151,0.00002551,-0.00011066,0.00006426,0.00002307,-0.00005864,-0.00001
 222,-0.00000975,0.00006911,0.00010378,0.00025661,0.00015599,0.00006715
 ,0.00016365,0.00001014,-0.00005073,0.00017002,-0.00015254,-0.00023936,
 -0.00025581,0.00059592,0.00021885,0.00054384,-0.00042618,-0.00002773,-
 0.00011104,0.00001062,-0.00032265,0.01105260,-0.01890519,-0.00435019,0
 .11552233,0.00021119,-0.00006500,0.00003452,-0.00040567,0.00102262,-0.
 00001407,-0.00051553,0.00007453,0.00037297,0.00019017,0.00012705,-0.00
 020185,-0.00009304,0.00023129,0.00004024,-0.00018417,0.00030517,0.0000
 1587,-0.00050399,0.00093723,-0.00018923,-0.00088540,0.00015926,0.00097
 737,0.10527466,-0.24035489,-0.04055185,-0.00047655,-0.00028535,-0.0000
 6846,0.00041970,-0.00005520,-0.00023193,-0.00001215,-0.00002772,0.0000
 0501,0.00000784,-0.00000047,0.00004802,0.00006664,-0.00005518,0.000060
 76,0.00005823,-0.00002637,-0.00001043,-0.00000458,-0.00003708,0.000000
 60,0.00022589,0.00016817,0.00011489,0.00013290,-0.00000471,-0.00011325
 ,0.00001241,0.00002882,0.00002734,0.00019344,-0.00014407,0.00001286,-0
 .00029646,0.00003996,-0.00053147,0.00008498,0.00099076,-0.00025537,0.0
 1128570,-0.02214921,-0.00442257,-0.11508813,0.25836864,-0.00216319,0.0
 0157199,0.00081241,-0.00189320,-0.00278891,-0.00278154,0.00013075,0.00
 010840,0.00026893,-0.00001777,-0.00003452,0.00019223,-0.00000189,0.000
 06366,-0.00040499,0.00009693,0.00076279,-0.00008711,-0.00008224,0.0021
 5349,-0.00622036,0.01695848,-0.03029572,-0.00828623,0.02309990,-0.0407
 9238,-0.05541600,-0.01126951,0.02024397,0.00061536,-0.00007194,-0.0000
 1084,0.00008820,0.00001389,0.00005851,-0.00003352,0.00000198,-0.000022
 56,0.00001990,-0.00004854,-0.00002746,-0.00001247,-0.00002838,-0.00000
 489,0.00001883,0.00001438,0.00001797,0.00020306,-0.00016459,0.00000826
 ,0.00016443,-0.00005075,-0.00009393,0.00009079,0.00016830,0.00009815,0
 .00002470,0.00122468,-0.00158232,-0.00088224,-0.00068793,-0.00011235,0
 .00105967,0.00009172,0.00036847,0.00145843,-0.00372539,0.00617455,0.00
 103057,-0.02270729,0.04409658,0.06651017,-0.00099121,0.00309139,-0.003
 53079,-0.00893910,0.00126931,0.01732659,0.00010301,0.00011560,-0.00192
 533,0.00007053,0.00027516,0.00026477,-0.00012622,-0.00040323,0.0001704
 3,0.00008746,0.00003749,0.00003353,-0.00046728,0.00016314,0.00026750,-
 0.00462442,0.00014997,-0.00179087,0.00739288,-0.00311524,-0.02883398,-
 0.07146407,0.00804989,0.08645822,0.00014904,0.00007951,-0.00003406,-0.
 00001398,0.00003420,-0.00010199,0.00001160,0.00005545,-0.00008783,0.00
 000463,-0.00008542,-0.00002364,0.00001067,-0.00004416,-0.00003384,0.00
 007303,-0.00005272,-0.00008506,0.00000165,0.00003761,-0.00001595,-0.00
 000321,-0.00002189,0.00000819,0.00018973,-0.00007160,0.00000259,0.0001
 4535,-0.00003891,0.00003138,0.00012386,0.00012798,-0.00152946,-0.00000
 974,0.00021468,-0.00002685,0.00113305,-0.00030230,0.00070267,0.0015120
 3,-0.00003874,0.00059534,0.08245339,0.00218991,-0.00224207,0.00391894,
 0.01048301,-0.00138091,-0.03085588,0.00006557,-0.00034554,0.00401489,-
 0.00062690,-0.00057684,-0.00032949,0.00038607,0.00109349,-0.00001671,0
 .00005958,0.00006833,0.00001895,0.00020812,0.00002165,0.00015138,0.000
 86840,0.00058966,0.00035086,-0.00134281,0.00013645,0.00224493,0.009530
 62,-0.05328990,-0.03355259,-0.00055561,-0.00051038,0.00002037,0.000116
 49,-0.00011804,0.00019356,0.00004565,-0.00007105,0.00016054,-0.0000214
 3,0.00020822,0.00000798,-0.00007112,-0.00001809,0.00001810,-0.00005795
 ,0.00009737,0.00020763,-0.00003016,-0.00001103,-0.00000894,-0.00001421
 ,0.00000331,-0.00000834,-0.00011898,-0.00004953,0.00004547,-0.00013188
 ,0.00005267,-0.00001584,0.00008198,0.00030303,0.00029759,0.00003047,0.
 00014935,-0.00044122,0.00025595,0.00011625,-0.00039769,-0.00042162,0.0
 0021893,0.00048567,-0.01305854,0.05170539,-0.00083638,-0.00080399,-0.0
 0003929,0.00221063,-0.00064459,-0.00134316,0.00079441,-0.00032003,0.00
 028593,-0.00007433,-0.00009616,0.00002823,-0.00031787,-0.00003703,-0.0
 0027764,0.00004020,0.00010223,-0.00007599,-0.00031581,0.00037119,0.000
 47688,-0.00513774,0.00012596,-0.00040857,0.00652904,-0.00222264,-0.021
 53080,0.08177633,-0.02587099,-0.26097226,-0.00033073,-0.00006775,-0.00
 005720,-0.00000281,0.00000037,0.00003229,0.00007489,-0.00008566,0.0000
 8181,-0.00002445,0.00004223,0.00000456,0.00001933,0.00007379,0.0001278
 3,-0.00000216,-0.00003089,0.00005780,0.00001115,0.00000797,0.00000275,
 0.00000575,-0.00009038,0.00002548,0.00005575,0.00002440,0.00008879,0.0
 0006586,-0.00007049,-0.00002804,0.00022273,-0.00007811,-0.00156072,0.0
 0004765,0.00001790,0.00033205,-0.00000818,-0.00045225,0.00077265,0.000
 43693,0.00056673,0.00102019,-0.08704143,0.02986948,0.28811513,0.001595
 72,-0.00049187,0.00025544,0.01017549,0.01453770,-0.00367788,-0.0019082
 4,0.00194465,0.00058501,0.00030858,0.00033323,0.00007822,0.00013195,0.
 00030006,-0.00025733,-0.00020988,0.00003802,0.00008361,0.00012827,0.00
 002939,-0.00018189,0.00093482,0.00000779,0.00127239,-0.01687903,-0.018
 60757,0.00461825,-0.16019513,-0.12894034,0.03124379,0.00009428,0.00005
 287,-0.00004630,-0.00000396,0.00014277,-0.00013807,-0.00001364,-0.0000
 1904,-0.00001343,0.00003159,-0.00002513,0.00002746,0.00002532,-0.00002
 190,-0.00000377,0.00004150,0.00007714,0.00013056,0.00013831,0.00005235
 ,0.00003146,0.00008596,-0.00001555,-0.00001452,0.00004913,-0.00010208,
 -0.00006260,0.00003762,-0.00006133,-0.00003311,0.00017693,0.00036547,0
 .00017202,0.00036713,0.00038243,-0.00090235,-0.00327300,0.00100537,-0.
 00368549,0.00045163,0.00034064,0.00051624,-0.00682268,-0.00787061,0.00
 180121,0.17453133,-0.00010460,0.00603851,-0.00126207,-0.02268828,-0.02
 781388,0.00639177,0.00445360,-0.00238227,-0.00045993,-0.00065854,-0.00
 079001,-0.00047903,-0.00029470,-0.00060454,0.00066358,0.00018069,-0.00
 003136,0.00005672,-0.00030123,-0.00017202,-0.00002910,-0.00000954,0.00
 023104,-0.00013662,0.00212748,0.00280618,-0.00115265,-0.12410051,-0.19
 184571,0.03617200,0.00017208,0.00062027,-0.00001316,0.00014306,-0.0003
 3318,0.00031244,-0.00000832,0.00003405,0.00007978,0.00008394,-0.000080
 87,0.00002936,0.00004901,-0.00004285,-0.00010129,-0.00000433,-0.000203
 51,-0.00037710,-0.00002934,0.00006341,0.00001007,-0.00004846,0.0000696
 3,-0.00007759,0.00019750,-0.00015036,-0.00002909,0.00008505,0.00006648
 ,0.00000338,0.00015281,0.00007750,-0.00010702,-0.00014951,0.00001952,-
 0.00047855,0.00095088,0.00095984,0.00088093,-0.00027560,0.00053280,-0.
 00044659,0.00353136,0.00384926,-0.00033127,0.13654552,0.20908208,-0.00
 125883,0.00028283,-0.00108461,0.00030501,-0.00397019,-0.00035791,0.000
 51880,-0.00025226,0.00219341,-0.00024882,-0.00043423,-0.00006339,0.000
 08580,0.00049320,-0.00026235,-0.00023851,-0.00000025,0.00000988,-0.000
 01029,-0.00003046,-0.00010896,-0.00013956,-0.00118662,0.00161817,-0.01
 387645,-0.01668714,0.00405486,0.02989153,0.03629658,-0.05938224,-0.000
 22773,-0.00004563,-0.00008170,0.00005666,-0.00008935,0.00008624,0.0000
 2531,-0.00003198,0.00002129,-0.00000118,0.00002474,0.00001589,-0.00000
 080,-0.00000683,0.00005200,-0.00003532,0.00009585,0.00012138,0.0001548
 8,0.00001692,-0.00000403,0.00006190,0.00001354,-0.00001663,0.00007446,
 -0.00013684,-0.00010798,0.00008108,-0.00002120,-0.00000927,0.00023177,
 0.00028468,0.00021747,0.00036735,0.00054809,-0.00013862,-0.00403596,0.
 00011840,-0.00225683,0.00081798,0.00021671,0.00054659,0.01919985,0.023
 62039,-0.00515871,-0.03179893,-0.03911896,0.06009604\\0.00005907,-0.00
 001861,-0.00002355,-0.00002735,-0.00000899,0.00002987,-0.00006536,-0.0
 0001396,-0.00008881,0.00003315,-0.00001632,0.00005930,0.00003490,0.000
 00280,0.00005371,-0.00002563,0.00002087,-0.00002525,0.00003049,-0.0000
 4541,-0.00003031,-0.00004498,0.00003704,0.00007242,0.00004746,-0.00004
 317,-0.00000377,-0.00005891,0.00004286,0.00001156,0.00001462,-0.000016
 70,-0.00000535,-0.00000539,0.00001535,-0.00000556,0.00000325,0.0000016
 6,-0.00001061,-0.00001085,0.00001038,0.00000519,-0.00000995,0.00000076
 ,0.00000803,0.00000006,0.00000063,-0.00000394,0.00000874,-0.00000727,-
 0.00001600,-0.00000110,0.00000298,0.00000479,0.00001009,0.00000045,0.0
 0000986,-0.00000189,0.00000995,-0.00000566,0.00000069,-0.00000028,-0.0
 0000024,-0.00000862,-0.00000279,0.00000287,0.00000609,0.00002473,-0.00
 001385,0.00001225,-0.00000272,-0.00001011,0.00000768,0.00000253,-0.000
 01125,-0.00000851,0.00000322,-0.00000335\\\@


 WAR ES EIN GOTT DER DIESE ZEICHEN SCHRIEB?
          - LUDWIG BOLTZMANN, QUOTING GOETHE, ABOUT MAXWELL'S EQUATIONS.
 Job cpu time:       0 days  0 hours  2 minutes 12.5 seconds.
 Elapsed time:       0 days  0 hours  2 minutes 13.5 seconds.
 File lengths (MBytes):  RWF=    106 Int=      0 D2E=      0 Chk=      4 Scr=      1
 Normal termination of Gaussian 16 at Wed Feb 21 19:47:41 2024.
