 Entering Gaussian System, Link 0=g16
 Input=/Volumes/SSD-PMU3/b3lyp_6-31gd_freq/MQPHVIPKLRXGDJ-RNJXMRFFSA-N_calculating/gaussianinput0.gjf
 Output=/Volumes/SSD-PMU3/b3lyp_6-31gd_freq/MQPHVIPKLRXGDJ-RNJXMRFFSA-N_calculating/gaussianinput0.log
 Initial command:
 /Applications/g16/l1.exe "/Users/macmini_m1_2022/PycharmProjects/sphere_model/sphere_model_lib/Gau-59764.inp" -scrdir="/Users/macmini_m1_2022/PycharmProjects/sphere_model/sphere_model_lib/"
 Entering Link 1 = /Applications/g16/l1.exe PID=     59765.
  
 Copyright (c) 1988,1990,1992,1993,1995,1998,2003,2009,2016,
            Gaussian, Inc.  All Rights Reserved.
  
 This is part of the Gaussian(R) 16 program.  It is based on
 the Gaussian(R) 09 system (copyright 2009, Gaussian, Inc.),
 the Gaussian(R) 03 system (copyright 2003, Gaussian, Inc.),
 the Gaussian(R) 98 system (copyright 1998, Gaussian, Inc.),
 the Gaussian(R) 94 system (copyright 1995, Gaussian, Inc.),
 the Gaussian 92(TM) system (copyright 1992, Gaussian, Inc.),
 the Gaussian 90(TM) system (copyright 1990, Gaussian, Inc.),
 the Gaussian 88(TM) system (copyright 1988, Gaussian, Inc.),
 the Gaussian 86(TM) system (copyright 1986, Carnegie Mellon
 University), and the Gaussian 82(TM) system (copyright 1983,
 Carnegie Mellon University). Gaussian is a federally registered
 trademark of Gaussian, Inc.
  
 This software contains proprietary and confidential information,
 including trade secrets, belonging to Gaussian, Inc.
  
 This software is provided under written license and may be
 used, copied, transmitted, or stored only in accord with that
 written license.
  
 The following legend is applicable only to US Government
 contracts under FAR:
  
                    RESTRICTED RIGHTS LEGEND
  
 Use, reproduction and disclosure by the US Government is
 subject to restrictions as set forth in subparagraphs (a)
 and (c) of the Commercial Computer Software - Restricted
 Rights clause in FAR 52.227-19.
  
 Gaussian, Inc.
 340 Quinnipiac St., Bldg. 40, Wallingford CT 06492
  
  
 ---------------------------------------------------------------
 Warning -- This program may not be used in any manner that
 competes with the business of Gaussian, Inc. or will provide
 assistance to any competitor of Gaussian, Inc.  The licensee
 of this program is prohibited from giving any competitor of
 Gaussian, Inc. access to this program.  By using this program,
 the user acknowledges that Gaussian, Inc. is engaged in the
 business of creating and licensing software in the field of
 computational chemistry and represents and warrants to the
 licensee that it is not a competitor of Gaussian, Inc. and that
 it will not use this program in any manner prohibited above.
 ---------------------------------------------------------------
  

 Cite this work as:
 Gaussian 16, Revision A.03,
 M. J. Frisch, G. W. Trucks, H. B. Schlegel, G. E. Scuseria, 
 M. A. Robb, J. R. Cheeseman, G. Scalmani, V. Barone, 
 G. A. Petersson, H. Nakatsuji, X. Li, M. Caricato, A. V. Marenich, 
 J. Bloino, B. G. Janesko, R. Gomperts, B. Mennucci, H. P. Hratchian, 
 J. V. Ortiz, A. F. Izmaylov, J. L. Sonnenberg, D. Williams-Young, 
 F. Ding, F. Lipparini, F. Egidi, J. Goings, B. Peng, A. Petrone, 
 T. Henderson, D. Ranasinghe, V. G. Zakrzewski, J. Gao, N. Rega, 
 G. Zheng, W. Liang, M. Hada, M. Ehara, K. Toyota, R. Fukuda, 
 J. Hasegawa, M. Ishida, T. Nakajima, Y. Honda, O. Kitao, H. Nakai, 
 T. Vreven, K. Throssell, J. A. Montgomery, Jr., J. E. Peralta, 
 F. Ogliaro, M. J. Bearpark, J. J. Heyd, E. N. Brothers, K. N. Kudin, 
 V. N. Staroverov, T. A. Keith, R. Kobayashi, J. Normand, 
 K. Raghavachari, A. P. Rendell, J. C. Burant, S. S. Iyengar, 
 J. Tomasi, M. Cossi, J. M. Millam, M. Klene, C. Adamo, R. Cammi, 
 J. W. Ochterski, R. L. Martin, K. Morokuma, O. Farkas, 
 J. B. Foresman, and D. J. Fox, Gaussian, Inc., Wallingford CT, 2016.
 
 ******************************************
 Gaussian 16:  EM64M-G16RevA.03 25-Dec-2016
                22-Feb-2024 
 ******************************************
 %nprocshared=8
 Will use up to    8 processors via shared memory.
 %mem=8GB
 %chk= 0.chk
 ---------------------
 # freq b3lyp/6-31g(d)
 ---------------------
 1/10=4,30=1,38=1/1,3;
 2/12=2,17=6,18=5,40=1/2;
 3/5=1,6=6,7=1,11=2,25=1,30=1,71=2,74=-5,140=1/1,2,3;
 4//1;
 5/5=2,38=5,98=1/2;
 8/6=4,10=90,11=11/1;
 11/6=1,8=1,9=11,15=111,16=1/1,2,10;
 10/6=1/2;
 6/7=2,8=2,9=2,10=2,28=1/1;
 7/8=1,10=1,25=1/1,2,3,16;
 1/10=4,30=1/3;
 99//99;
 ---------
 good luck
 ---------
 Symbolic Z-matrix:
 Charge =  0 Multiplicity = 1
 C                    -3.96095  -0.06927  -1.93171 
 C                    -2.50988  -0.06286  -1.42312 
 C                    -1.58379  -0.12273  -2.64375 
 C                    -2.29685   1.02966  -0.30403 
 C                    -2.8107   -0.01921   0.72185 
 C                    -2.28948  -1.09946  -0.26237 
 C                    -0.79413  -1.31685   0.00396 
 C                     0.        0.        0. 
 C                    -0.81167   1.31238   0.00396 
 C                    -0.15005   2.4019   -0.85177 
 O                     1.21604   0.        0. 
 H                    -4.14478   0.7992   -2.57652 
 H                    -4.70039  -0.04296  -1.12587 
 H                    -4.15393  -0.96996  -2.52798 
 H                    -1.77827  -1.03923  -3.21607 
 H                    -0.51826  -0.11582  -2.39891 
 H                    -1.77145   0.7245   -3.31478 
 H                    -2.85967   1.96516  -0.41024 
 H                    -3.89668  -0.02353   0.83522 
 H                    -2.35777   0.00291   1.72078 
 H                    -2.83049  -2.0512   -0.32581 
 H                    -0.64537  -1.79193   0.9842 
 H                    -0.32521  -1.9825   -0.73038 
 H                    -0.76477   1.65872   1.05019 
 H                    -0.63772   3.36772  -0.67906 
 H                     0.90754   2.49118  -0.58955 
 H                    -0.21551   2.17861  -1.92086 
 

 GradGradGradGradGradGradGradGradGradGradGradGradGradGradGradGradGradGrad
 Berny optimization.
 Initialization pass.
 Trust Radius=3.00D-01 FncErr=1.00D-07 GrdErr=1.00D-07 EigMax=2.50D+02 EigMin=1.00D-04
 Number of steps in this run=      2 maximum allowed number of steps=      2.
 GradGradGradGradGradGradGradGradGradGradGradGradGradGradGradGradGradGrad

                          Input orientation:                          
 ---------------------------------------------------------------------
 Center     Atomic      Atomic             Coordinates (Angstroms)
 Number     Number       Type             X           Y           Z
 ---------------------------------------------------------------------
      1          6           0       -3.960946   -0.069272   -1.931709
      2          6           0       -2.509879   -0.062856   -1.423118
      3          6           0       -1.583792   -0.122725   -2.643752
      4          6           0       -2.296853    1.029661   -0.304028
      5          6           0       -2.810703   -0.019211    0.721846
      6          6           0       -2.289478   -1.099455   -0.262366
      7          6           0       -0.794126   -1.316849    0.003961
      8          6           0        0.000000    0.000000    0.000000
      9          6           0       -0.811673    1.312384    0.003961
     10          6           0       -0.150053    2.401900   -0.851774
     11          8           0        1.216037    0.000000    0.000000
     12          1           0       -4.144783    0.799201   -2.576524
     13          1           0       -4.700386   -0.042963   -1.125868
     14          1           0       -4.153928   -0.969962   -2.527979
     15          1           0       -1.778273   -1.039230   -3.216074
     16          1           0       -0.518260   -0.115822   -2.398914
     17          1           0       -1.771448    0.724500   -3.314779
     18          1           0       -2.859673    1.965161   -0.410237
     19          1           0       -3.896684   -0.023534    0.835217
     20          1           0       -2.357770    0.002906    1.720780
     21          1           0       -2.830486   -2.051202   -0.325811
     22          1           0       -0.645372   -1.791928    0.984195
     23          1           0       -0.325207   -1.982498   -0.730383
     24          1           0       -0.764772    1.658719    1.050192
     25          1           0       -0.637719    3.367719   -0.679056
     26          1           0        0.907536    2.491181   -0.589546
     27          1           0       -0.215512    2.178610   -1.920859
 ---------------------------------------------------------------------
                    Distance matrix (angstroms):
                    1          2          3          4          5
     1  C    0.000000
     2  C    1.537629   0.000000
     3  C    2.482080   1.533352   0.000000
     4  C    2.574142   1.578397   2.703841   0.000000
     5  C    2.892563   2.166396   3.583752   1.554539   0.000000
     6  C    2.577167   1.571769   2.668894   2.129536   1.551540
     7  C    3.915612   2.559856   3.009965   2.803418   2.503159
     8  C    4.407425   2.885950   3.084296   2.535383   2.901979
     9  C    3.946354   2.609932   3.109034   1.542903   2.506915
    10  C    4.668603   3.459803   3.411821   2.606111   3.926464
    11  O    5.526070   3.988943   3.852730   3.673286   4.090974
    12  H    1.097191   2.178623   2.722709   2.938060   3.650865
    13  H    1.094003   2.210673   3.467491   2.757338   2.643012
    14  H    1.097280   2.178636   2.708655   3.520395   3.642738
    15  H    2.711913   2.168697   1.097887   3.609605   4.196852
    16  H    3.474555   2.218452   1.093321   2.977259   3.873470
    17  H    2.708664   2.177979   1.096942   3.071448   4.234088
    18  H    2.768862   2.293717   3.312964   1.096908   2.285113
    19  H    2.768050   2.650444   4.178820   2.228578   1.091891
    20  H    3.989494   3.148262   4.434407   2.271076   1.097044
    21  H    2.790142   2.293554   3.262839   3.126812   2.286255
    22  H    4.739522   3.501604   4.102301   3.514011   2.810696
    23  H    4.280446   2.989598   2.950216   3.625227   3.484416
    24  H    4.700342   3.482310   4.182052   2.139369   2.666288
    25  H    4.942255   3.978374   4.115615   2.891347   4.260948
    26  H    5.662105   4.347030   4.154393   3.533507   4.674090
    27  H    4.368222   3.245926   2.773248   2.875101   4.306893
                    6          7          8          9         10
     6  C    0.000000
     7  C    1.534362   0.000000
     8  C    2.553301   1.537772   0.000000
     9  C    2.841092   2.629292   1.543107   0.000000
    10  C    4.145362   3.869910   2.552873   1.535275   0.000000
    11  O    3.683242   2.403094   1.216037   2.415362   2.891512
    12  H    3.521701   4.729003   4.945344   4.246396   4.636947
    13  H    2.770251   4.261240   4.833534   4.270312   5.172815
    14  H    2.936996   4.221294   4.958490   4.773939   5.496374
    15  H    2.998224   3.378497   3.819082   4.102807   4.481338
    16  H    2.944416   2.700440   2.456989   2.810635   2.977943
    17  H    3.593382   4.017001   3.827622   3.504399   3.392490
    18  H    3.120715   3.899953   3.493978   2.189060   2.779881
    19  H    2.223827   3.462588   3.985259   3.463085   4.771364
    20  H    2.269963   2.670993   2.918933   2.655676   4.152977
    21  H    1.096603   2.189700   3.510731   3.936758   5.224124
    22  H    2.176354   1.099403   2.143864   3.259642   4.604814
    23  H    2.203898   1.096465   2.137643   3.410595   4.389574
    24  H    3.413951   3.154277   2.106924   1.103063   2.132527
    25  H    4.780960   4.736682   3.494186   2.172826   1.095653
    26  H    4.818777   4.212956   2.716094   2.167370   1.093265
    27  H    4.218725   4.032116   2.912471   2.193328   1.094114
                   11         12         13         14         15
    11  O    0.000000
    12  H    6.001299   0.000000
    13  H    6.022747   1.767014   0.000000
    14  H    6.013986   1.769853   1.767444   0.000000
    15  H    4.515421   3.064184   3.728304   2.474269   0.000000
    16  H    2.962430   3.744393   4.372200   3.736883   1.762971
    17  H    4.520810   2.486628   3.736176   3.027617   1.766503
    18  H    4.543299   2.775567   2.816543   3.843810   4.250707
    19  H    5.180546   3.518298   2.119474   3.503282   4.683189
    20  H    3.966508   4.721686   3.686917   4.714298   5.078818
    21  H    4.548399   3.862368   2.858258   2.787494   3.238033
    22  H    2.764867   5.624815   4.894322   5.031994   4.415006
    23  H    2.615185   5.072992   4.802124   4.349217   3.029821
    24  H    2.788881   5.031532   4.808328   5.585665   5.148508
    25  H    3.903724   4.743118   5.323312   5.881983   5.211384
    26  H    2.578511   5.686546   6.177242   6.430820   5.155194
    27  H    3.238113   4.215666   5.067691   5.078703   3.804510
                   16         17         18         19         20
    16  H    0.000000
    17  H    1.765058   0.000000
    18  H    3.710464   3.340634   0.000000
    19  H    4.677806   4.722145   2.565435   0.000000
    20  H    4.513288   5.120676   2.939997   1.775719   0.000000
    21  H    3.659213   4.214263   4.017356   2.568307   2.937917
    22  H    3.777686   5.107018   4.578568   3.704111   2.587720
    23  H    2.511124   4.012300   4.702130   4.363954   3.752511
    24  H    3.886656   4.575930   2.572036   3.561609   2.393543
    25  H    3.886803   3.901152   2.641309   4.941100   4.476578
    26  H    3.478961   4.210108   3.807980   5.606627   4.710769
    27  H    2.363178   2.545267   3.052724   5.098668   4.752314
                   21         22         23         24         25
    21  H    0.000000
    22  H    2.560871   0.000000
    23  H    2.538665   1.754594   0.000000
    24  H    4.463639   3.453343   4.077024   0.000000
    25  H    5.856425   5.421109   5.359582   2.434568   0.000000
    26  H    5.888600   4.820084   4.642553   2.485628   1.778804
    27  H    5.222411   4.938551   4.329444   3.065798   1.770399
                   26         27
    26  H    0.000000
    27  H    1.769557   0.000000
 Stoichiometry    C10H16O
 Framework group  C1[X(C10H16O)]
 Deg. of freedom    75
 Full point group                 C1      NOp   1
 Largest Abelian subgroup         C1      NOp   1
 Largest concise Abelian subgroup C1      NOp   1
                         Standard orientation:                         
 ---------------------------------------------------------------------
 Center     Atomic      Atomic             Coordinates (Angstroms)
 Number     Number       Type             X           Y           Z
 ---------------------------------------------------------------------
      1          6           0        2.740645    0.569327    0.153023
      2          6           0        1.250333    0.231014    0.322780
      3          6           0        0.793306    0.787566    1.676495
      4          6           0        0.435552    0.543525   -0.992440
      5          6           0        0.851739   -0.864481   -1.503223
      6          6           0        0.948051   -1.275066   -0.010098
      7          6           0       -0.451992   -1.674787    0.474022
      8          6           0       -1.508506   -0.601134    0.164522
      9          6           0       -1.093049    0.543882   -0.782850
     10          6           0       -1.707616    1.887874   -0.366845
     11          8           0       -2.624209   -0.661236    0.644460
     12          1           0        2.891762    1.655847    0.174593
     13          1           0        3.163158    0.197082   -0.784932
     14          1           0        3.327321    0.138017    0.973880
     15          1           0        1.377900    0.330182    2.485449
     16          1           0       -0.261793    0.609780    1.901241
     17          1           0        0.961348    1.870370    1.727268
     18          1           0        0.750977    1.417255   -1.575801
     19          1           0        1.814119   -0.875087   -2.018916
     20          1           0        0.121562   -1.402465   -2.120411
     21          1           0        1.701934   -2.017210    0.278729
     22          1           0       -0.773031   -2.607129   -0.012146
     23          1           0       -0.488628   -1.866705    1.552938
     24          1           0       -1.546365    0.274154   -1.751611
     25          1           0       -1.555028    2.634288   -1.154271
     26          1           0       -2.781397    1.770667   -0.198069
     27          1           0       -1.260955    2.274533    0.554065
 ---------------------------------------------------------------------
 Rotational constants (GHZ):           1.6722571           0.9960127           0.9049954
 Standard basis: 6-31G(d) (6D, 7F)
 There are   197 symmetry adapted cartesian basis functions of A   symmetry.
 There are   197 symmetry adapted basis functions of A   symmetry.
   197 basis functions,   372 primitive gaussians,   197 cartesian basis functions
    42 alpha electrons       42 beta electrons
       nuclear repulsion energy       671.8813561321 Hartrees.
 NAtoms=   27 NActive=   27 NUniq=   27 SFac= 1.00D+00 NAtFMM=   60 NAOKFM=F Big=F
 Integral buffers will be    131072 words long.
 Raffenetti 2 integral format.
 Two-electron integral symmetry is turned on.
 One-electron integrals computed using PRISM.
 NBasis=   197 RedAO= T EigKep=  1.83D-03  NBF=   197
 NBsUse=   197 1.00D-06 EigRej= -1.00D+00 NBFU=   197
 ExpMin= 1.61D-01 ExpMax= 5.48D+03 ExpMxC= 8.25D+02 IAcc=3 IRadAn=         5 AccDes= 0.00D+00
 Harris functional with IExCor=  402 and IRadAn=       5 diagonalized for initial guess.
 HarFok:  IExCor=  402 AccDes= 0.00D+00 IRadAn=         5 IDoV= 1 UseB2=F ITyADJ=14
 ICtDFT=  3500011 ScaDFX=  1.000000  1.000000  1.000000  1.000000
 FoFCou: FMM=F IPFlag=           0 FMFlag=      100000 FMFlg1=           0
         NFxFlg=           0 DoJE=T BraDBF=F KetDBF=T FulRan=T
         wScrn=  0.000000 ICntrl=       500 IOpCl=  0 I1Cent=   200000004 NGrid=           0
         NMat0=    1 NMatS0=      1 NMatT0=    0 NMatD0=    1 NMtDS0=    0 NMtDT0=    0
 Petite list used in FoFCou.
 Requested convergence on RMS density matrix=1.00D-08 within 128 cycles.
 Requested convergence on MAX density matrix=1.00D-06.
 Requested convergence on             energy=1.00D-06.
 No special actions if energy rises.
 Integral accuracy reduced to 1.0D-05 until final iterations.
 Initial convergence to 1.0D-05 achieved.  Increase integral accuracy.
 SCF Done:  E(RB3LYP) =  -465.898970524     A.U. after   13 cycles
            NFock= 13  Conv=0.97D-08     -V/T= 2.0097
 DoSCS=F DFT=T ScalE2(SS,OS)=  1.000000  1.000000
 Range of M.O.s used for correlation:     1   197
 NBasis=   197 NAE=    42 NBE=    42 NFC=     0 NFV=     0
 NROrb=    197 NOA=    42 NOB=    42 NVA=   155 NVB=   155
 Symmetrizing basis deriv contribution to polar:
 IMax=3 JMax=2 DiffMx= 0.00D+00
 G2DrvN: will do    28 centers at a time, making    1 passes.
 Calling FoFCou, ICntrl=  3107 FMM=F I1Cent=   0 AccDes= 0.00D+00.
 End of G2Drv F.D. properties file   721 does not exist.
 End of G2Drv F.D. properties file   722 does not exist.
 End of G2Drv F.D. properties file   788 does not exist.
          IDoAtm=111111111111111111111111111
          Differentiating once with respect to electric field.
                with respect to dipole field.
          Differentiating once with respect to nuclear coordinates.
 Keep R1 ints in memory in canonical form, NReq=198401981.
          There are    84 degrees of freedom in the 1st order CPHF.  IDoFFX=6 NUNeed=     3.
     81 vectors produced by pass  0 Test12= 7.75D-15 1.19D-09 XBig12= 7.12D+01 1.99D+00.
 AX will form    81 AO Fock derivatives at one time.
     81 vectors produced by pass  1 Test12= 7.75D-15 1.19D-09 XBig12= 1.20D+01 1.15D+00.
     81 vectors produced by pass  2 Test12= 7.75D-15 1.19D-09 XBig12= 1.01D-01 4.51D-02.
     81 vectors produced by pass  3 Test12= 7.75D-15 1.19D-09 XBig12= 2.70D-04 1.89D-03.
     81 vectors produced by pass  4 Test12= 7.75D-15 1.19D-09 XBig12= 2.47D-07 5.23D-05.
     37 vectors produced by pass  5 Test12= 7.75D-15 1.19D-09 XBig12= 1.75D-10 1.68D-06.
      3 vectors produced by pass  6 Test12= 7.75D-15 1.19D-09 XBig12= 1.33D-13 5.98D-08.
      1 vectors produced by pass  7 Test12= 7.75D-15 1.19D-09 XBig12= 9.84D-17 1.60D-09.
 InvSVY:  IOpt=1 It=  1 EMax= 7.11D-15
 Solved reduced A of dimension   446 with    84 vectors.
 Isotropic polarizability for W=    0.000000       99.37 Bohr**3.
 End of Minotr F.D. properties file   721 does not exist.
 End of Minotr F.D. properties file   722 does not exist.
 End of Minotr F.D. properties file   788 does not exist.

 **********************************************************************

            Population analysis using the SCF density.

 **********************************************************************

 Orbital symmetries:
       Occupied  (A) (A) (A) (A) (A) (A) (A) (A) (A) (A) (A) (A)
                 (A) (A) (A) (A) (A) (A) (A) (A) (A) (A) (A) (A)
                 (A) (A) (A) (A) (A) (A) (A) (A) (A) (A) (A) (A)
                 (A) (A) (A) (A) (A) (A)
       Virtual   (A) (A) (A) (A) (A) (A) (A) (A) (A) (A) (A) (A)
                 (A) (A) (A) (A) (A) (A) (A) (A) (A) (A) (A) (A)
                 (A) (A) (A) (A) (A) (A) (A) (A) (A) (A) (A) (A)
                 (A) (A) (A) (A) (A) (A) (A) (A) (A) (A) (A) (A)
                 (A) (A) (A) (A) (A) (A) (A) (A) (A) (A) (A) (A)
                 (A) (A) (A) (A) (A) (A) (A) (A) (A) (A) (A) (A)
                 (A) (A) (A) (A) (A) (A) (A) (A) (A) (A) (A) (A)
                 (A) (A) (A) (A) (A) (A) (A) (A) (A) (A) (A) (A)
                 (A) (A) (A) (A) (A) (A) (A) (A) (A) (A) (A) (A)
                 (A) (A) (A) (A) (A) (A) (A) (A) (A) (A) (A) (A)
                 (A) (A) (A) (A) (A) (A) (A) (A) (A) (A) (A) (A)
                 (A) (A) (A) (A) (A) (A) (A) (A) (A) (A) (A) (A)
                 (A) (A) (A) (A) (A) (A) (A) (A) (A) (A) (A)
 The electronic state is 1-A.
 Alpha  occ. eigenvalues --  -19.13247 -10.27018 -10.20072 -10.19622 -10.19392
 Alpha  occ. eigenvalues --  -10.19286 -10.19021 -10.18399 -10.17783 -10.17685
 Alpha  occ. eigenvalues --  -10.17450  -1.03301  -0.87903  -0.77650  -0.75719
 Alpha  occ. eigenvalues --   -0.73040  -0.68226  -0.66159  -0.61248  -0.59875
 Alpha  occ. eigenvalues --   -0.54988  -0.49424  -0.47968  -0.45976  -0.45878
 Alpha  occ. eigenvalues --   -0.45201  -0.42658  -0.41782  -0.40935  -0.40357
 Alpha  occ. eigenvalues --   -0.39026  -0.38029  -0.37622  -0.37447  -0.36036
 Alpha  occ. eigenvalues --   -0.35755  -0.33774  -0.31068  -0.30650  -0.29495
 Alpha  occ. eigenvalues --   -0.28872  -0.23318
 Alpha virt. eigenvalues --   -0.01459   0.07628   0.10741   0.10890   0.11215
 Alpha virt. eigenvalues --    0.12581   0.13351   0.13755   0.15302   0.16041
 Alpha virt. eigenvalues --    0.16700   0.17252   0.17527   0.18352   0.18995
 Alpha virt. eigenvalues --    0.19478   0.20201   0.21250   0.21470   0.22835
 Alpha virt. eigenvalues --    0.24219   0.25224   0.26033   0.27386   0.27822
 Alpha virt. eigenvalues --    0.27923   0.33423   0.34790   0.38356   0.48334
 Alpha virt. eigenvalues --    0.49622   0.51224   0.51505   0.54288   0.54498
 Alpha virt. eigenvalues --    0.55214   0.58497   0.60281   0.61556   0.63500
 Alpha virt. eigenvalues --    0.65061   0.65453   0.66049   0.69827   0.70232
 Alpha virt. eigenvalues --    0.71863   0.72402   0.72911   0.74470   0.77486
 Alpha virt. eigenvalues --    0.79273   0.80486   0.81614   0.82425   0.83859
 Alpha virt. eigenvalues --    0.85217   0.86737   0.87644   0.88679   0.89438
 Alpha virt. eigenvalues --    0.90554   0.91570   0.91971   0.92477   0.93441
 Alpha virt. eigenvalues --    0.93692   0.94253   0.94896   0.95799   0.96953
 Alpha virt. eigenvalues --    0.99284   0.99543   1.02257   1.03727   1.07065
 Alpha virt. eigenvalues --    1.09922   1.13261   1.16224   1.20800   1.24021
 Alpha virt. eigenvalues --    1.28156   1.32893   1.33750   1.35913   1.45674
 Alpha virt. eigenvalues --    1.46942   1.51183   1.52431   1.58687   1.64440
 Alpha virt. eigenvalues --    1.66460   1.67576   1.69654   1.72798   1.74127
 Alpha virt. eigenvalues --    1.76348   1.77253   1.80581   1.82608   1.85784
 Alpha virt. eigenvalues --    1.86573   1.87719   1.89151   1.90611   1.94164
 Alpha virt. eigenvalues --    1.97221   1.98896   2.00329   2.01563   2.03378
 Alpha virt. eigenvalues --    2.04502   2.07074   2.10846   2.13774   2.16119
 Alpha virt. eigenvalues --    2.17293   2.18288   2.20998   2.21798   2.25102
 Alpha virt. eigenvalues --    2.26193   2.30400   2.32382   2.33966   2.36060
 Alpha virt. eigenvalues --    2.37530   2.37918   2.41546   2.44637   2.49556
 Alpha virt. eigenvalues --    2.51123   2.54522   2.56005   2.60041   2.61801
 Alpha virt. eigenvalues --    2.67913   2.69328   2.73708   2.74986   2.81108
 Alpha virt. eigenvalues --    2.86116   2.90098   3.01281   3.04745   4.06095
 Alpha virt. eigenvalues --    4.13374   4.21705   4.27601   4.30511   4.38496
 Alpha virt. eigenvalues --    4.41183   4.56863   4.61424   4.69120   4.83952
          Condensed to atoms (all electrons):
               1          2          3          4          5          6
     1  C    5.158948   0.375308  -0.063514  -0.046959  -0.001357  -0.047599
     2  C    0.375308   4.852809   0.378753   0.360422  -0.132615   0.365165
     3  C   -0.063514   0.378753   5.173833  -0.046519   0.011729  -0.049929
     4  C   -0.046959   0.360422  -0.046519   5.154702   0.315517  -0.125631
     5  C   -0.001357  -0.132615   0.011729   0.315517   5.202765   0.326572
     6  C   -0.047599   0.365165  -0.049929  -0.125631   0.326572   5.121458
     7  C    0.004632  -0.044595  -0.004362   0.000986  -0.039941   0.300035
     8  C   -0.000013  -0.009997  -0.004808  -0.012552  -0.014158  -0.016417
     9  C    0.004592  -0.041380  -0.002072   0.311980  -0.029047   0.005040
    10  C   -0.000058  -0.002758  -0.001419  -0.041364   0.004691  -0.000765
    11  O   -0.000001   0.000243  -0.001538   0.003398  -0.000062   0.003392
    12  H    0.365152  -0.028843  -0.004860  -0.005356  -0.000612   0.005379
    13  H    0.367711  -0.030382   0.005588  -0.004620   0.004558  -0.004811
    14  H    0.364568  -0.029257  -0.004759   0.005309  -0.000595  -0.005307
    15  H   -0.006113  -0.028054   0.361064   0.004917  -0.000300  -0.003632
    16  H    0.005477  -0.025143   0.364196  -0.005629   0.000451  -0.006350
    17  H   -0.005626  -0.027560   0.364979  -0.002788  -0.000353   0.005156
    18  H   -0.005384  -0.035772   0.001163   0.351801  -0.032150   0.011907
    19  H    0.000552   0.000006  -0.000228  -0.025357   0.361584  -0.026200
    20  H    0.000126   0.009348  -0.000456  -0.034058   0.359797  -0.032699
    21  H   -0.005310  -0.035336   0.001179   0.012046  -0.032739   0.350893
    22  H   -0.000124   0.004877   0.000140  -0.000985  -0.006035  -0.029661
    23  H    0.000013  -0.004989   0.002758  -0.000597   0.005289  -0.029789
    24  H   -0.000155   0.005302  -0.000002  -0.044016  -0.007210  -0.001484
    25  H   -0.000004  -0.000101   0.000032  -0.002654  -0.000004   0.000009
    26  H    0.000002   0.000065  -0.000089   0.004551  -0.000162  -0.000034
    27  H   -0.000099   0.000944   0.001626  -0.004021   0.000041  -0.000020
               7          8          9         10         11         12
     1  C    0.004632  -0.000013   0.004592  -0.000058  -0.000001   0.365152
     2  C   -0.044595  -0.009997  -0.041380  -0.002758   0.000243  -0.028843
     3  C   -0.004362  -0.004808  -0.002072  -0.001419  -0.001538  -0.004860
     4  C    0.000986  -0.012552   0.311980  -0.041364   0.003398  -0.005356
     5  C   -0.039941  -0.014158  -0.029047   0.004691  -0.000062  -0.000612
     6  C    0.300035  -0.016417   0.005040  -0.000765   0.003392   0.005379
     7  C    5.326548   0.335223  -0.141752   0.005122  -0.070812  -0.000157
     8  C    0.335223   4.542999   0.319675  -0.030478   0.532156   0.000013
     9  C   -0.141752   0.319675   5.212827   0.355464  -0.076146   0.000003
    10  C    0.005122  -0.030478   0.355464   5.100830  -0.004303  -0.000008
    11  O   -0.070812   0.532156  -0.076146  -0.004303   8.064731  -0.000000
    12  H   -0.000157   0.000013   0.000003  -0.000008  -0.000000   0.579461
    13  H    0.000044  -0.000007   0.000052   0.000001   0.000000  -0.030102
    14  H    0.000034   0.000009  -0.000145   0.000000  -0.000000  -0.031592
    15  H    0.000087  -0.000010  -0.000105   0.000153   0.000014  -0.000271
    16  H    0.000361   0.009046  -0.000075  -0.001302   0.001510  -0.000037
    17  H   -0.000028   0.000102  -0.000066  -0.000621   0.000013   0.005007
    18  H   -0.000158   0.003358  -0.033407  -0.003894  -0.000065   0.003297
    19  H    0.003974   0.000243   0.003525  -0.000150   0.000002  -0.000030
    20  H   -0.003778  -0.001492  -0.004095   0.000206  -0.000147   0.000008
    21  H   -0.029376   0.003016   0.000028   0.000017  -0.000065  -0.000048
    22  H    0.350584  -0.023575   0.003621  -0.000052  -0.000338   0.000003
    23  H    0.350532  -0.023525   0.005196  -0.000214   0.000370  -0.000002
    24  H    0.005151  -0.035068   0.359113  -0.034115  -0.001370  -0.000002
    25  H   -0.000135   0.004425  -0.029833   0.366987   0.000211   0.000004
    26  H    0.000566  -0.005289  -0.030586   0.365436   0.012101   0.000000
    27  H    0.000253  -0.005142  -0.036479   0.379023   0.000434  -0.000009
              13         14         15         16         17         18
     1  C    0.367711   0.364568  -0.006113   0.005477  -0.005626  -0.005384
     2  C   -0.030382  -0.029257  -0.028054  -0.025143  -0.027560  -0.035772
     3  C    0.005588  -0.004759   0.361064   0.364196   0.364979   0.001163
     4  C   -0.004620   0.005309   0.004917  -0.005629  -0.002788   0.351801
     5  C    0.004558  -0.000595  -0.000300   0.000451  -0.000353  -0.032150
     6  C   -0.004811  -0.005307  -0.003632  -0.006350   0.005156   0.011907
     7  C    0.000044   0.000034   0.000087   0.000361  -0.000028  -0.000158
     8  C   -0.000007   0.000009  -0.000010   0.009046   0.000102   0.003358
     9  C    0.000052  -0.000145  -0.000105  -0.000075  -0.000066  -0.033407
    10  C    0.000001   0.000000   0.000153  -0.001302  -0.000621  -0.003894
    11  O    0.000000  -0.000000   0.000014   0.001510   0.000013  -0.000065
    12  H   -0.030102  -0.031592  -0.000271  -0.000037   0.005007   0.003297
    13  H    0.573697  -0.030049  -0.000049  -0.000182  -0.000039   0.000277
    14  H   -0.030049   0.580931   0.005252  -0.000031  -0.000252  -0.000040
    15  H   -0.000049   0.005252   0.582295  -0.029521  -0.031103  -0.000108
    16  H   -0.000182  -0.000031  -0.029521   0.557980  -0.031572  -0.000126
    17  H   -0.000039  -0.000252  -0.031103  -0.031572   0.575338   0.000878
    18  H    0.000277  -0.000040  -0.000108  -0.000126   0.000878   0.624860
    19  H    0.003649  -0.000004   0.000006  -0.000005   0.000004  -0.004687
    20  H   -0.000199   0.000008   0.000012  -0.000014   0.000011   0.001711
    21  H    0.000319   0.003234   0.001129  -0.000157  -0.000108  -0.000598
    22  H   -0.000003  -0.000003  -0.000026   0.000123  -0.000000   0.000030
    23  H    0.000001  -0.000012   0.000379  -0.000234  -0.000031   0.000029
    24  H   -0.000003   0.000003   0.000005   0.000093  -0.000011  -0.002414
    25  H   -0.000001  -0.000000  -0.000004   0.000038   0.000055   0.003664
    26  H   -0.000000  -0.000000  -0.000003   0.000103   0.000014  -0.000043
    27  H   -0.000001   0.000004   0.000055   0.002058   0.001861  -0.000138
              19         20         21         22         23         24
     1  C    0.000552   0.000126  -0.005310  -0.000124   0.000013  -0.000155
     2  C    0.000006   0.009348  -0.035336   0.004877  -0.004989   0.005302
     3  C   -0.000228  -0.000456   0.001179   0.000140   0.002758  -0.000002
     4  C   -0.025357  -0.034058   0.012046  -0.000985  -0.000597  -0.044016
     5  C    0.361584   0.359797  -0.032739  -0.006035   0.005289  -0.007210
     6  C   -0.026200  -0.032699   0.350893  -0.029661  -0.029789  -0.001484
     7  C    0.003974  -0.003778  -0.029376   0.350584   0.350532   0.005151
     8  C    0.000243  -0.001492   0.003016  -0.023575  -0.023525  -0.035068
     9  C    0.003525  -0.004095   0.000028   0.003621   0.005196   0.359113
    10  C   -0.000150   0.000206   0.000017  -0.000052  -0.000214  -0.034115
    11  O    0.000002  -0.000147  -0.000065  -0.000338   0.000370  -0.001370
    12  H   -0.000030   0.000008  -0.000048   0.000003  -0.000002  -0.000002
    13  H    0.003649  -0.000199   0.000319  -0.000003   0.000001  -0.000003
    14  H   -0.000004   0.000008   0.003234  -0.000003  -0.000012   0.000003
    15  H    0.000006   0.000012   0.001129  -0.000026   0.000379   0.000005
    16  H   -0.000005  -0.000014  -0.000157   0.000123  -0.000234   0.000093
    17  H    0.000004   0.000011  -0.000108  -0.000000  -0.000031  -0.000011
    18  H   -0.004687   0.001711  -0.000598   0.000030   0.000029  -0.002414
    19  H    0.576592  -0.033917  -0.004672   0.000078  -0.000151   0.000222
    20  H   -0.033917   0.599692   0.001575   0.003701   0.000128   0.005453
    21  H   -0.004672   0.001575   0.622156  -0.002383  -0.002737   0.000034
    22  H    0.000078   0.003701  -0.002383   0.557407  -0.024569  -0.000343
    23  H   -0.000151   0.000128  -0.002737  -0.024569   0.552279  -0.000080
    24  H    0.000222   0.005453   0.000034  -0.000343  -0.000080   0.595716
    25  H   -0.000002   0.000004  -0.000000   0.000003   0.000003  -0.005413
    26  H    0.000002  -0.000007   0.000000  -0.000008  -0.000008  -0.001758
    27  H    0.000002   0.000007  -0.000001  -0.000004  -0.000012   0.005123
              25         26         27
     1  C   -0.000004   0.000002  -0.000099
     2  C   -0.000101   0.000065   0.000944
     3  C    0.000032  -0.000089   0.001626
     4  C   -0.002654   0.004551  -0.004021
     5  C   -0.000004  -0.000162   0.000041
     6  C    0.000009  -0.000034  -0.000020
     7  C   -0.000135   0.000566   0.000253
     8  C    0.004425  -0.005289  -0.005142
     9  C   -0.029833  -0.030586  -0.036479
    10  C    0.366987   0.365436   0.379023
    11  O    0.000211   0.012101   0.000434
    12  H    0.000004   0.000000  -0.000009
    13  H   -0.000001  -0.000000  -0.000001
    14  H   -0.000000  -0.000000   0.000004
    15  H   -0.000004  -0.000003   0.000055
    16  H    0.000038   0.000103   0.002058
    17  H    0.000055   0.000014   0.001861
    18  H    0.003664  -0.000043  -0.000138
    19  H   -0.000002   0.000002   0.000002
    20  H    0.000004  -0.000007   0.000007
    21  H   -0.000000   0.000000  -0.000001
    22  H    0.000003  -0.000008  -0.000004
    23  H    0.000003  -0.000008  -0.000012
    24  H   -0.005413  -0.001758   0.005123
    25  H    0.582188  -0.028218  -0.031795
    26  H   -0.028218   0.536799  -0.026483
    27  H   -0.031795  -0.026483   0.560088
 Mulliken charges:
               1
     1  C   -0.464765
     2  C    0.123540
     3  C   -0.482487
     4  C   -0.122522
     5  C   -0.295655
     6  C   -0.114676
     7  C   -0.349036
     8  C    0.432266
     9  C   -0.155931
    10  C   -0.456430
    11  O   -0.463727
    12  H    0.143605
    13  H    0.144547
    14  H    0.142694
    15  H    0.143932
    16  H    0.158943
    17  H    0.146738
    18  H    0.116008
    19  H    0.144962
    20  H    0.129076
    21  H    0.117903
    22  H    0.167541
    23  H    0.169974
    24  H    0.157226
    25  H    0.140545
    26  H    0.173046
    27  H    0.152683
 Sum of Mulliken charges =  -0.00000
 Mulliken charges with hydrogens summed into heavy atoms:
               1
     1  C   -0.033919
     2  C    0.123540
     3  C   -0.032874
     4  C   -0.006514
     5  C   -0.021617
     6  C    0.003227
     7  C   -0.011520
     8  C    0.432266
     9  C    0.001295
    10  C    0.009844
    11  O   -0.463727
 APT charges:
               1
     1  C    0.073253
     2  C    0.092010
     3  C    0.024617
     4  C    0.077475
     5  C    0.035467
     6  C    0.099139
     7  C   -0.028784
     8  C    0.713161
     9  C   -0.006205
    10  C    0.061113
    11  O   -0.658713
    12  H   -0.032010
    13  H   -0.015623
    14  H   -0.034110
    15  H   -0.029359
    16  H   -0.017160
    17  H   -0.022213
    18  H   -0.071079
    19  H   -0.032439
    20  H   -0.044351
    21  H   -0.073128
    22  H   -0.018725
    23  H   -0.018950
    24  H   -0.046237
    25  H   -0.026413
    26  H    0.009586
    27  H   -0.010325
 Sum of APT charges =  -0.00000
 APT charges with hydrogens summed into heavy atoms:
               1
     1  C   -0.008490
     2  C    0.092010
     3  C   -0.044114
     4  C    0.006396
     5  C   -0.041322
     6  C    0.026012
     7  C   -0.066459
     8  C    0.713161
     9  C   -0.052441
    10  C    0.033961
    11  O   -0.658713
 Electronic spatial extent (au):  <R**2>=           1605.2674
 Charge=             -0.0000 electrons
 Dipole moment (field-independent basis, Debye):
    X=              2.5907    Y=              0.2034    Z=             -1.0012  Tot=              2.7849
 Quadrupole moment (field-independent basis, Debye-Ang):
   XX=            -76.5767   YY=            -66.4441   ZZ=            -67.2903
   XY=             -2.0526   XZ=              3.5681   YZ=              0.3693
 Traceless Quadrupole moment (field-independent basis, Debye-Ang):
   XX=             -6.4730   YY=              3.6596   ZZ=              2.8134
   XY=             -2.0526   XZ=              3.5681   YZ=              0.3693
 Octapole moment (field-independent basis, Debye-Ang**2):
  XXX=             17.8986  YYY=             -4.6316  ZZZ=              2.2207  XYY=             -3.0383
  XXY=              5.7013  XXZ=             -9.3622  XZZ=             -1.7034  YZZ=             -1.2343
  YYZ=              0.3225  XYZ=             -2.5484
 Hexadecapole moment (field-independent basis, Debye-Ang**3):
 XXXX=          -1175.2689 YYYY=           -586.0686 ZZZZ=           -449.7085 XXXY=            -22.0455
 XXXZ=             18.2389 YYYX=             13.0875 YYYZ=             -2.9397 ZZZX=             -2.9644
 ZZZY=             -6.0536 XXYY=           -284.2854 XXZZ=           -255.8200 YYZZ=           -172.2604
 XXYZ=              6.0467 YYXZ=              2.0768 ZZXY=             -0.4835
 N-N= 6.718813561320D+02 E-N=-2.424178513188D+03  KE= 4.614361520522D+02
  Exact polarizability: 107.571  -0.722  97.750  -0.132  -0.844  92.798
 Approx polarizability: 150.178   0.787 138.995  -4.034  -2.049 138.759
 Calling FoFJK, ICntrl=    100127 FMM=F ISym2X=0 I1Cent= 0 IOpClX= 0 NMat=1 NMatS=1 NMatT=0.
 Full mass-weighted force constant matrix:
 Low frequencies ---   -0.0005   -0.0004    0.0007    2.9674    5.0526   13.2475
 Low frequencies ---   80.1374  173.1295  192.2135
 Diagonal vibrational polarizability:
        4.4463124       8.8848103      13.4659511
 Harmonic frequencies (cm**-1), IR intensities (KM/Mole), Raman scattering
 activities (A**4/AMU), depolarization ratios for plane and unpolarized
 incident light, reduced masses (AMU), force constants (mDyne/A),
 and normal coordinates:
                      1                      2                      3
                      A                      A                      A
 Frequencies --     80.1280               173.1278               192.2122
 Red. masses --      4.9980                 2.2571                 1.2079
 Frc consts  --      0.0189                 0.0399                 0.0263
 IR Inten    --      4.0597                 0.0170                 0.2870
  Atom  AN      X      Y      Z        X      Y      Z        X      Y      Z
     1   6    -0.04   0.01   0.11    -0.08   0.14  -0.00    -0.02   0.03  -0.01
     2   6    -0.04  -0.03   0.01    -0.05   0.00  -0.02    -0.01  -0.00  -0.00
     3   6    -0.12  -0.10   0.02    -0.12  -0.04  -0.02    -0.03   0.04  -0.03
     4   6     0.01   0.01  -0.01    -0.02  -0.07  -0.06     0.00  -0.03  -0.01
     5   6     0.07   0.05  -0.06     0.01  -0.08  -0.00     0.01  -0.03   0.01
     6   6     0.01  -0.03  -0.08     0.01  -0.02   0.01    -0.00  -0.01   0.01
     7   6    -0.01  -0.07  -0.15     0.00  -0.02  -0.01    -0.01  -0.02  -0.03
     8   6     0.04   0.03   0.05     0.01  -0.01  -0.00    -0.00  -0.01  -0.02
     9   6    -0.01  -0.04  -0.05     0.01  -0.01  -0.01     0.01  -0.01  -0.01
    10   6    -0.06  -0.03  -0.19     0.20   0.05   0.09     0.04  -0.01   0.06
    11   8     0.15   0.19   0.32     0.01   0.01   0.01     0.01   0.03   0.02
    12   1    -0.07   0.02   0.17    -0.22   0.16  -0.10    -0.03   0.03   0.10
    13   1     0.02   0.06   0.12    -0.02   0.11   0.04    -0.04   0.13  -0.06
    14   1    -0.08  -0.01   0.12    -0.05   0.29   0.05     0.01  -0.05  -0.07
    15   1    -0.17  -0.14   0.03    -0.13  -0.07  -0.03     0.13   0.27  -0.02
    16   1    -0.14  -0.10  -0.05    -0.12  -0.06  -0.06     0.03  -0.16   0.07
    17   1    -0.12  -0.10   0.08    -0.13  -0.04   0.03    -0.26   0.09  -0.17
    18   1    -0.00   0.05   0.04    -0.00  -0.09  -0.09     0.01  -0.03  -0.02
    19   1     0.10   0.11  -0.01     0.02  -0.07   0.01     0.02  -0.03   0.01
    20   1     0.12   0.06  -0.13     0.03  -0.12   0.01     0.02  -0.04   0.01
    21   1     0.01  -0.02  -0.08     0.02   0.00   0.05    -0.00  -0.01   0.03
    22   1    -0.03   0.03  -0.34     0.00  -0.01  -0.03     0.00  -0.01  -0.08
    23   1    -0.02  -0.28  -0.19    -0.02  -0.04  -0.02    -0.05  -0.07  -0.04
    24   1     0.03  -0.16  -0.04    -0.09   0.06   0.02    -0.00   0.05  -0.02
    25   1    -0.08  -0.10  -0.26    -0.02  -0.01  -0.01     0.44   0.14   0.29
    26   1    -0.06  -0.05  -0.18     0.25   0.13   0.45    -0.04   0.11  -0.36
    27   1    -0.08   0.06  -0.22     0.53   0.10  -0.09    -0.26  -0.29   0.32
                      4                      5                      6
                      A                      A                      A
 Frequencies --    196.8482               209.4022               248.5854
 Red. masses --      2.1677                 1.0245                 1.6665
 Frc consts  --      0.0495                 0.0265                 0.0607
 IR Inten    --      0.0096                 0.0219                 0.7829
  Atom  AN      X      Y      Z        X      Y      Z        X      Y      Z
     1   6     0.04  -0.15   0.10    -0.00   0.00  -0.00    -0.01   0.03  -0.07
     2   6    -0.01   0.02  -0.02    -0.00   0.00   0.00     0.01  -0.02   0.05
     3   6    -0.08   0.18  -0.11     0.01  -0.01   0.01     0.10   0.04   0.06
     4   6     0.01   0.02  -0.03    -0.00  -0.00  -0.00     0.01  -0.01   0.05
     5   6     0.01   0.02  -0.03     0.00  -0.01   0.01     0.05   0.00   0.05
     6   6    -0.01   0.01  -0.02    -0.00   0.00   0.01    -0.01  -0.02   0.05
     7   6     0.00  -0.04  -0.05    -0.00   0.01   0.01    -0.07  -0.05  -0.09
     8   6     0.02  -0.02   0.00    -0.00   0.00   0.00    -0.03  -0.00  -0.04
     9   6     0.01   0.01   0.03    -0.00  -0.00  -0.01     0.00  -0.01  -0.01
    10   6     0.00  -0.01   0.09     0.01   0.01  -0.02    -0.03  -0.03   0.00
    11   8     0.03  -0.03   0.02    -0.01  -0.00  -0.01    -0.03   0.05  -0.01
    12   1     0.19  -0.17   0.07     0.06  -0.01   0.52    -0.09   0.05  -0.29
    13   1     0.09  -0.25   0.16    -0.13   0.45  -0.24    -0.02  -0.11  -0.02
    14   1    -0.11  -0.20   0.17     0.07  -0.43  -0.29     0.06   0.24  -0.01
    15   1    -0.05   0.40  -0.01     0.12   0.10  -0.01     0.36   0.29   0.02
    16   1    -0.07   0.11  -0.09     0.05  -0.14   0.08     0.18  -0.21   0.25
    17   1    -0.20   0.21  -0.32    -0.13   0.02  -0.04    -0.16   0.09  -0.11
    18   1    -0.01   0.03  -0.03    -0.00  -0.00  -0.00     0.03  -0.00   0.08
    19   1     0.01   0.02  -0.02     0.01  -0.01   0.01     0.06   0.02   0.08
    20   1     0.01   0.03  -0.04     0.00  -0.01   0.01     0.08  -0.00   0.02
    21   1     0.01   0.03  -0.03    -0.00   0.00   0.01    -0.05  -0.04   0.07
    22   1     0.01  -0.01  -0.10    -0.00   0.00   0.01    -0.03   0.03  -0.27
    23   1     0.00  -0.09  -0.06    -0.00   0.01   0.01    -0.17  -0.22  -0.13
    24   1    -0.02   0.03   0.04    -0.01  -0.02   0.00     0.04  -0.00  -0.03
    25   1    -0.26  -0.04   0.01    -0.14  -0.05  -0.11    -0.26  -0.07  -0.08
    26   1     0.05  -0.10   0.35     0.04  -0.02   0.15     0.01  -0.12   0.22
    27   1     0.19   0.09  -0.04     0.14   0.09  -0.12     0.12   0.07  -0.11
                      7                      8                      9
                      A                      A                      A
 Frequencies --    278.1946               293.6827               354.2266
 Red. masses --      2.4883                 1.5855                 2.3707
 Frc consts  --      0.1135                 0.0806                 0.1753
 IR Inten    --      3.0793                 0.5647                 0.1626
  Atom  AN      X      Y      Z        X      Y      Z        X      Y      Z
     1   6     0.00   0.01   0.00    -0.01  -0.02  -0.04     0.03   0.07  -0.06
     2   6     0.00   0.02  -0.02    -0.02   0.05   0.01     0.07  -0.07   0.02
     3   6    -0.00  -0.01  -0.01     0.05   0.10   0.02    -0.09   0.02  -0.08
     4   6     0.03  -0.02  -0.06    -0.02  -0.00   0.00     0.07  -0.02   0.08
     5   6     0.04  -0.06   0.02     0.05   0.01   0.04    -0.06  -0.07   0.04
     6   6     0.00   0.01   0.04    -0.01   0.03   0.05     0.03  -0.09   0.03
     7   6    -0.02   0.03   0.02    -0.04  -0.05  -0.09    -0.01  -0.07  -0.05
     8   6     0.02   0.02  -0.09    -0.04  -0.04  -0.01     0.05   0.04   0.04
     9   6     0.02  -0.01  -0.09    -0.03  -0.03  -0.00     0.08   0.09   0.12
    10   6    -0.11  -0.15   0.16     0.06   0.01  -0.00    -0.10   0.07   0.00
    11   8     0.04   0.17  -0.03    -0.02  -0.04   0.04     0.02  -0.00  -0.05
    12   1     0.02   0.01   0.11     0.06  -0.03   0.09    -0.12   0.09  -0.00
    13   1    -0.01   0.11  -0.04    -0.08   0.08  -0.11    -0.05   0.21  -0.15
    14   1     0.01  -0.07  -0.05     0.01  -0.15  -0.13     0.19   0.08  -0.17
    15   1    -0.17  -0.25  -0.02    -0.21  -0.23   0.03    -0.34  -0.00   0.08
    16   1    -0.06   0.19  -0.12    -0.04   0.49  -0.11    -0.16   0.19  -0.31
    17   1     0.24  -0.06   0.14     0.49   0.02   0.16     0.04   0.01  -0.12
    18   1     0.06  -0.05  -0.09    -0.06  -0.00  -0.02     0.14  -0.05   0.07
    19   1     0.05  -0.09   0.04     0.07   0.04   0.08    -0.11  -0.12  -0.06
    20   1     0.05  -0.09   0.03     0.10  -0.03   0.01    -0.15  -0.02   0.12
    21   1    -0.01   0.02   0.10    -0.01   0.06   0.10     0.00  -0.12  -0.01
    22   1     0.01  -0.01   0.06     0.03   0.01  -0.27    -0.05   0.04  -0.22
    23   1    -0.06   0.10   0.03    -0.13  -0.22  -0.12    -0.08  -0.24  -0.08
    24   1     0.02   0.06  -0.11    -0.03  -0.01  -0.00     0.10   0.06   0.12
    25   1    -0.35   0.02   0.28     0.18   0.01   0.02    -0.15   0.03  -0.05
    26   1    -0.07  -0.39   0.29     0.04   0.12  -0.06    -0.09  -0.09  -0.09
    27   1    -0.07  -0.24   0.18     0.06  -0.05   0.02    -0.25   0.22   0.01
                     10                     11                     12
                      A                      A                      A
 Frequencies --    372.3483               393.9809               407.5410
 Red. masses --      3.1796                 2.7151                 2.5475
 Frc consts  --      0.2597                 0.2483                 0.2493
 IR Inten    --      1.2106                 2.9176                 0.4257
  Atom  AN      X      Y      Z        X      Y      Z        X      Y      Z
     1   6    -0.10  -0.14  -0.12    -0.09  -0.03  -0.13     0.07  -0.07  -0.13
     2   6    -0.10   0.05   0.06    -0.04  -0.05   0.06     0.04   0.04  -0.03
     3   6    -0.09  -0.02   0.11    -0.09   0.06   0.02    -0.12  -0.10  -0.06
     4   6    -0.02   0.04   0.01     0.05   0.06   0.10     0.00  -0.00  -0.02
     5   6    -0.08  -0.02   0.08     0.04   0.15  -0.04     0.19   0.01   0.04
     6   6     0.04   0.06   0.09    -0.05  -0.04  -0.06     0.04   0.06   0.06
     7   6     0.08  -0.01  -0.02    -0.00  -0.05   0.08    -0.01   0.07   0.00
     8   6     0.11   0.00  -0.10     0.02  -0.05   0.03    -0.06   0.04   0.07
     9   6     0.00   0.07  -0.09     0.08  -0.09   0.03    -0.02   0.00   0.05
    10   6    -0.01   0.06  -0.01     0.09  -0.11  -0.00    -0.03   0.02   0.02
    11   8     0.16  -0.04  -0.01    -0.01   0.09  -0.04    -0.08  -0.02   0.02
    12   1     0.11  -0.17  -0.26    -0.12  -0.03  -0.18     0.21  -0.09  -0.21
    13   1    -0.32  -0.31  -0.15    -0.25  -0.02  -0.21    -0.03  -0.17  -0.14
    14   1    -0.05  -0.19  -0.19     0.09  -0.01  -0.25     0.09  -0.11  -0.16
    15   1    -0.02  -0.02   0.06    -0.20   0.09   0.12    -0.15  -0.10  -0.03
    16   1    -0.07  -0.14   0.13    -0.12   0.17  -0.06    -0.11  -0.32  -0.20
    17   1    -0.19  -0.00   0.18    -0.00   0.05  -0.08    -0.33  -0.08   0.09
    18   1     0.08  -0.01  -0.01     0.02   0.17   0.25    -0.06   0.01  -0.04
    19   1    -0.19  -0.12  -0.10     0.08   0.13   0.03     0.27   0.14   0.20
    20   1    -0.21  -0.05   0.26     0.06   0.28  -0.18     0.37  -0.08  -0.08
    21   1     0.12   0.15   0.12    -0.03  -0.05  -0.14    -0.00   0.07   0.18
    22   1     0.14  -0.00  -0.07    -0.06  -0.14   0.29     0.01   0.11  -0.09
    23   1    -0.05  -0.00  -0.02     0.14   0.14   0.13    -0.02  -0.05  -0.02
    24   1     0.01   0.11  -0.10     0.13  -0.11   0.01    -0.05  -0.02   0.07
    25   1    -0.03   0.09   0.01     0.11  -0.13  -0.02    -0.03   0.02   0.02
    26   1    -0.00   0.05   0.01     0.09  -0.08   0.01    -0.03   0.01   0.01
    27   1     0.02   0.02  -0.01     0.11  -0.09  -0.02    -0.05   0.03   0.03
                     13                     14                     15
                      A                      A                      A
 Frequencies --    446.3768               487.6588               540.7041
 Red. masses --      2.5744                 3.2908                 4.0565
 Frc consts  --      0.3022                 0.4611                 0.6988
 IR Inten    --      5.5411                 2.2776                 0.2755
  Atom  AN      X      Y      Z        X      Y      Z        X      Y      Z
     1   6    -0.09  -0.02  -0.01     0.19   0.05  -0.02     0.06  -0.02   0.01
     2   6    -0.04  -0.13   0.04     0.14  -0.01   0.05     0.05  -0.05   0.05
     3   6     0.03   0.04  -0.01    -0.06  -0.01  -0.02    -0.02   0.02   0.01
     4   6    -0.01  -0.05   0.03     0.05   0.03   0.09    -0.19  -0.09   0.11
     5   6     0.15  -0.02  -0.01    -0.10   0.04   0.04    -0.00  -0.01   0.01
     6   6     0.01  -0.11  -0.03    -0.03   0.01   0.02     0.24  -0.04  -0.03
     7   6    -0.00   0.08  -0.00    -0.07   0.06  -0.02     0.18  -0.06  -0.04
     8   6    -0.01   0.04  -0.08    -0.13  -0.08  -0.17    -0.06  -0.06  -0.08
     9   6    -0.06   0.09  -0.07    -0.03  -0.01  -0.13    -0.18  -0.05   0.02
    10   6    -0.07   0.11   0.02     0.05  -0.03  -0.01    -0.03   0.07   0.01
    11   8     0.06  -0.09   0.07    -0.00  -0.07   0.14    -0.07   0.19  -0.06
    12   1    -0.21  -0.00   0.01     0.13   0.06  -0.05     0.12  -0.03   0.02
    13   1    -0.08   0.06  -0.03     0.12   0.07  -0.06     0.04  -0.05   0.01
    14   1    -0.01   0.03  -0.04     0.27   0.09  -0.07     0.04  -0.06   0.00
    15   1     0.00   0.11   0.06    -0.23   0.05   0.13    -0.13   0.12   0.15
    16   1     0.01   0.21   0.05    -0.10  -0.08  -0.27    -0.05   0.10  -0.09
    17   1     0.17   0.02  -0.21    -0.16   0.00  -0.02     0.01   0.02  -0.12
    18   1     0.10  -0.03   0.12     0.05   0.05   0.11    -0.22  -0.08   0.12
    19   1     0.23   0.14   0.15    -0.16  -0.08  -0.07    -0.10   0.28  -0.18
    20   1     0.32  -0.06  -0.18    -0.24   0.14   0.12     0.02  -0.17   0.13
    21   1    -0.05  -0.16   0.01    -0.11  -0.10  -0.05     0.26  -0.03  -0.07
    22   1    -0.12  -0.03   0.31     0.07  -0.07   0.14     0.28  -0.15   0.07
    23   1     0.05   0.40   0.06    -0.16   0.27   0.01     0.22   0.06  -0.02
    24   1    -0.03   0.17  -0.10     0.16   0.13  -0.26    -0.15   0.02  -0.01
    25   1    -0.11   0.16   0.07     0.03   0.02   0.04     0.10  -0.03  -0.05
    26   1    -0.06   0.07   0.05     0.06   0.04   0.10    -0.05   0.31   0.07
    27   1    -0.06   0.06   0.04     0.18  -0.14  -0.03     0.11   0.05  -0.05
                     16                     17                     18
                      A                      A                      A
 Frequencies --    576.2524               626.2631               659.5522
 Red. masses --      3.3414                 3.1836                 2.9792
 Frc consts  --      0.6537                 0.7357                 0.7636
 IR Inten    --      1.3868                 0.9883                 0.7509
  Atom  AN      X      Y      Z        X      Y      Z        X      Y      Z
     1   6    -0.01  -0.01   0.00     0.04   0.01  -0.01     0.18   0.04  -0.03
     2   6     0.02  -0.04   0.09    -0.00   0.09   0.04     0.04   0.03   0.04
     3   6    -0.05   0.06   0.13    -0.05   0.08   0.19    -0.06   0.06   0.15
     4   6     0.01  -0.09   0.02     0.12  -0.05  -0.11    -0.11  -0.03  -0.09
     5   6    -0.02  -0.06  -0.09     0.06  -0.11  -0.14    -0.03   0.01  -0.00
     6   6     0.08   0.01  -0.09     0.00   0.02  -0.10    -0.11  -0.09  -0.04
     7   6     0.03   0.25  -0.10     0.01  -0.09  -0.03    -0.07  -0.06   0.05
     8   6    -0.00   0.18   0.11    -0.10  -0.10  -0.03     0.13   0.04   0.04
     9   6    -0.00  -0.05  -0.03     0.08   0.05   0.07    -0.09  -0.02  -0.03
    10   6     0.04  -0.13  -0.00    -0.04   0.08   0.01    -0.03   0.03   0.01
    11   8    -0.05  -0.06  -0.01    -0.09   0.02   0.06     0.11  -0.01  -0.07
    12   1     0.02  -0.02  -0.05     0.14   0.00  -0.09     0.21   0.04  -0.06
    13   1    -0.14  -0.05  -0.04    -0.12  -0.06  -0.05     0.13   0.02  -0.04
    14   1     0.09  -0.01  -0.07     0.11  -0.01  -0.08     0.23   0.04  -0.06
    15   1    -0.12   0.14   0.22     0.00   0.03   0.12    -0.12   0.07   0.20
    16   1    -0.07   0.15   0.10    -0.04   0.02   0.23    -0.07   0.02   0.05
    17   1     0.00   0.06   0.00    -0.08   0.08   0.30    -0.12   0.07   0.19
    18   1     0.01  -0.07   0.06     0.09  -0.07  -0.17    -0.14  -0.09  -0.20
    19   1    -0.13  -0.09  -0.31     0.02  -0.25  -0.20     0.13   0.17   0.29
    20   1    -0.17  -0.07   0.10    -0.04  -0.09  -0.04     0.23  -0.03  -0.28
    21   1    -0.04  -0.10  -0.05     0.02   0.05  -0.04    -0.13  -0.17  -0.18
    22   1    -0.15   0.41  -0.30     0.10  -0.29   0.29    -0.25   0.02   0.01
    23   1     0.10  -0.04  -0.15     0.19   0.22   0.03    -0.06  -0.09   0.04
    24   1    -0.03  -0.17   0.01     0.04   0.14   0.06    -0.22  -0.11   0.05
    25   1     0.01  -0.03   0.09    -0.11   0.03  -0.05     0.05   0.03   0.02
    26   1     0.05  -0.16   0.04    -0.04  -0.09  -0.09    -0.03   0.15   0.04
    27   1     0.07  -0.24   0.03    -0.20   0.23   0.03     0.06  -0.05  -0.00
                     19                     20                     21
                      A                      A                      A
 Frequencies --    700.2453               828.0490               850.3162
 Red. masses --      2.9824                 2.4110                 1.9931
 Frc consts  --      0.8616                 0.9740                 0.8491
 IR Inten    --      1.9251                 0.8689                 0.4311
  Atom  AN      X      Y      Z        X      Y      Z        X      Y      Z
     1   6    -0.00   0.01  -0.00     0.00  -0.04   0.03    -0.02  -0.03   0.01
     2   6    -0.01   0.05  -0.03     0.04  -0.14   0.07     0.04  -0.07   0.04
     3   6    -0.00  -0.00  -0.01     0.02  -0.05   0.02     0.01  -0.02   0.03
     4   6    -0.08  -0.07   0.07     0.04   0.05  -0.09    -0.06  -0.03  -0.11
     5   6    -0.02  -0.04   0.01     0.03  -0.03  -0.09    -0.10   0.06   0.12
     6   6    -0.05   0.04  -0.01    -0.09   0.17   0.05    -0.02   0.05  -0.03
     7   6    -0.07   0.13  -0.14     0.02   0.06   0.02     0.08   0.03  -0.02
     8   6     0.04  -0.02  -0.14     0.03  -0.09  -0.02    -0.04  -0.02  -0.01
     9   6     0.04  -0.06   0.25    -0.07  -0.07   0.03     0.09   0.06   0.01
    10   6     0.03  -0.07   0.01    -0.05   0.04   0.03     0.06  -0.04  -0.01
    11   8     0.11   0.02  -0.02     0.04   0.03  -0.02    -0.04   0.00   0.03
    12   1     0.06  -0.00   0.02    -0.34   0.00  -0.03    -0.18  -0.01  -0.01
    13   1     0.03  -0.01   0.02    -0.04   0.11  -0.05    -0.03   0.04  -0.02
    14   1    -0.07  -0.03   0.03     0.26   0.16  -0.05     0.10   0.06  -0.03
    15   1     0.04  -0.05  -0.07    -0.09   0.17   0.22    -0.06   0.11   0.15
    16   1     0.01  -0.05   0.01    -0.02   0.09  -0.07    -0.02   0.06  -0.03
    17   1    -0.03  -0.00   0.07     0.04  -0.04  -0.29     0.02  -0.01  -0.15
    18   1    -0.25  -0.06   0.00     0.00   0.13   0.02    -0.01  -0.21  -0.36
    19   1     0.01   0.11   0.05     0.06  -0.29  -0.03     0.04   0.30   0.38
    20   1     0.07  -0.12  -0.02    -0.04  -0.01  -0.02     0.20  -0.09  -0.09
    21   1    -0.15  -0.01   0.12    -0.15   0.16   0.16    -0.03  -0.03  -0.22
    22   1    -0.01  -0.06   0.20     0.26   0.06  -0.14     0.23  -0.00  -0.07
    23   1    -0.13   0.51  -0.07    -0.03  -0.10  -0.01     0.13  -0.03  -0.03
    24   1     0.04   0.00   0.23    -0.17  -0.06   0.08     0.01   0.16   0.01
    25   1     0.12  -0.34  -0.22     0.12  -0.10  -0.07    -0.10  -0.02  -0.03
    26   1     0.01  -0.05  -0.14    -0.08   0.29   0.02     0.08  -0.33  -0.12
    27   1    -0.11   0.25  -0.05     0.03   0.10  -0.03    -0.14   0.09   0.03
                     22                     23                     24
                      A                      A                      A
 Frequencies --    870.4316               890.7252               928.1255
 Red. masses --      2.2370                 2.1472                 2.1118
 Frc consts  --      0.9986                 1.0037                 1.0718
 IR Inten    --      3.0688                 2.3847                 3.2620
  Atom  AN      X      Y      Z        X      Y      Z        X      Y      Z
     1   6    -0.01  -0.00   0.01    -0.00   0.02  -0.02     0.12   0.01  -0.02
     2   6     0.00   0.02   0.01    -0.02   0.05  -0.02    -0.09  -0.06   0.01
     3   6     0.01  -0.01  -0.02    -0.00   0.02  -0.01    -0.03  -0.04  -0.01
     4   6     0.05   0.13  -0.03     0.01  -0.05   0.17    -0.09   0.01   0.07
     5   6     0.03  -0.05   0.20    -0.05  -0.12  -0.01     0.00  -0.05  -0.05
     6   6    -0.05  -0.02  -0.10    -0.13   0.06  -0.09    -0.06   0.12   0.02
     7   6     0.04  -0.01  -0.15     0.11   0.05   0.04    -0.01  -0.10  -0.07
     8   6     0.01   0.02   0.06     0.00  -0.05  -0.01     0.02   0.06   0.07
     9   6    -0.06  -0.02   0.01     0.01  -0.01  -0.04     0.03   0.07  -0.03
    10   6    -0.03  -0.02  -0.01    -0.02   0.04   0.00     0.05  -0.01  -0.05
    11   8    -0.02   0.01  -0.01     0.00   0.02  -0.01    -0.00  -0.01  -0.01
    12   1    -0.04   0.00  -0.03     0.12   0.00   0.02    -0.02   0.02   0.01
    13   1    -0.06   0.00  -0.02     0.05  -0.03   0.03     0.20   0.09  -0.01
    14   1     0.04   0.02  -0.01    -0.13  -0.06   0.03     0.15   0.08   0.00
    15   1     0.01  -0.01  -0.02     0.02  -0.06  -0.08     0.04   0.06  -0.00
    16   1     0.01  -0.01  -0.02     0.01  -0.04  -0.01    -0.02   0.12   0.15
    17   1    -0.00  -0.01  -0.02    -0.02   0.01   0.10     0.10  -0.05  -0.21
    18   1     0.08   0.09  -0.08     0.05   0.01   0.28    -0.04   0.09   0.22
    19   1     0.03  -0.36   0.20     0.17  -0.14   0.40    -0.01   0.09  -0.08
    20   1    -0.04  -0.10   0.32     0.17  -0.12  -0.27     0.05  -0.23   0.05
    21   1    -0.09  -0.10  -0.21    -0.17  -0.03  -0.22     0.03   0.31   0.32
    22   1    -0.04  -0.17   0.23     0.23   0.15  -0.23     0.03  -0.25   0.21
    23   1     0.35   0.30  -0.08     0.23  -0.27  -0.02     0.20   0.20  -0.01
    24   1    -0.09  -0.25   0.08     0.22   0.09  -0.15     0.04  -0.08   0.01
    25   1     0.10   0.00   0.04    -0.03   0.07   0.03    -0.14   0.21   0.13
    26   1    -0.04   0.23   0.10    -0.01   0.05   0.04     0.09  -0.27   0.01
    27   1     0.15  -0.16  -0.04     0.02  -0.00   0.00    -0.01  -0.18   0.05
                     25                     26                     27
                      A                      A                      A
 Frequencies --    956.4883               965.5072               980.7723
 Red. masses --      2.0072                 1.4420                 1.8743
 Frc consts  --      1.0819                 0.7920                 1.0623
 IR Inten    --      1.2046                 0.9718                 3.5169
  Atom  AN      X      Y      Z        X      Y      Z        X      Y      Z
     1   6     0.07   0.01  -0.06     0.07   0.05   0.06     0.05  -0.05  -0.07
     2   6    -0.07  -0.06  -0.09    -0.08   0.00   0.05    -0.05  -0.06  -0.09
     3   6    -0.07  -0.01   0.07    -0.07  -0.04  -0.07    -0.07   0.06   0.05
     4   6    -0.03   0.16  -0.03     0.03  -0.04  -0.01     0.08  -0.07  -0.01
     5   6     0.03  -0.06   0.03    -0.01   0.04   0.02    -0.04   0.08   0.02
     6   6     0.05  -0.07  -0.02    -0.00  -0.01   0.00    -0.02  -0.03   0.07
     7   6     0.02   0.04   0.06     0.02   0.03   0.00     0.07   0.04  -0.06
     8   6    -0.03  -0.01  -0.05    -0.00  -0.02  -0.01    -0.00  -0.01   0.01
     9   6    -0.01   0.04   0.02    -0.00  -0.02   0.00     0.00  -0.04   0.01
    10   6     0.04  -0.07   0.03    -0.01   0.01   0.02    -0.04   0.03   0.00
    11   8    -0.01   0.00   0.02    -0.00   0.00   0.00    -0.02   0.01  -0.00
    12   1     0.04   0.01   0.08     0.29   0.02  -0.18    -0.28  -0.01   0.14
    13   1     0.33   0.07   0.03    -0.35  -0.13  -0.06     0.47   0.20   0.01
    14   1    -0.12  -0.00   0.07     0.32  -0.02  -0.15    -0.09   0.10   0.10
    15   1     0.06   0.08   0.03     0.27  -0.07  -0.33     0.09  -0.11  -0.16
    16   1    -0.06   0.19   0.30    -0.01   0.19   0.43    -0.02   0.02   0.28
    17   1     0.11  -0.02  -0.13     0.27  -0.09  -0.21     0.01   0.03   0.22
    18   1    -0.03   0.30   0.18     0.06  -0.08  -0.05     0.18  -0.14  -0.05
    19   1     0.05  -0.23   0.07    -0.01   0.01   0.02    -0.03   0.11   0.04
    20   1     0.01  -0.13   0.11    -0.03   0.12  -0.02    -0.10   0.30  -0.10
    21   1     0.09  -0.04  -0.07    -0.02  -0.04  -0.03    -0.05  -0.01   0.20
    22   1    -0.04   0.15  -0.14     0.02   0.05  -0.05     0.17  -0.02  -0.01
    23   1    -0.09  -0.16   0.02     0.01  -0.03  -0.01     0.09   0.08  -0.05
    24   1    -0.08   0.30  -0.02    -0.03   0.02  -0.00     0.03  -0.17   0.03
    25   1     0.09  -0.29  -0.18     0.02  -0.04  -0.03     0.03   0.06   0.05
    26   1     0.01  -0.07  -0.14    -0.02   0.05  -0.01    -0.05   0.17   0.09
    27   1    -0.08   0.20  -0.04    -0.02   0.07  -0.00     0.08  -0.08  -0.01
                     28                     29                     30
                      A                      A                      A
 Frequencies --   1018.7219              1027.5767              1042.9475
 Red. masses --      1.7900                 1.3855                 1.6056
 Frc consts  --      1.0945                 0.8620                 1.0290
 IR Inten    --      7.0431                 3.9580                 1.9246
  Atom  AN      X      Y      Z        X      Y      Z        X      Y      Z
     1   6     0.01   0.04  -0.05     0.03  -0.05   0.04    -0.02   0.08  -0.02
     2   6    -0.03   0.00  -0.00    -0.01   0.01   0.04    -0.00   0.01   0.02
     3   6     0.01  -0.04   0.02     0.02   0.07  -0.05     0.04  -0.04   0.01
     4   6    -0.04  -0.07  -0.01    -0.04  -0.02   0.01     0.03  -0.02  -0.02
     5   6     0.08   0.07   0.07     0.05   0.02  -0.00    -0.03   0.00  -0.04
     6   6    -0.04   0.01  -0.04    -0.05  -0.03   0.01    -0.04  -0.04   0.09
     7   6    -0.03   0.04  -0.01     0.05  -0.01  -0.01     0.07  -0.03  -0.05
     8   6     0.03  -0.09   0.04     0.00   0.02   0.01    -0.01   0.07   0.01
     9   6     0.03  -0.08  -0.05    -0.05   0.02  -0.04    -0.07   0.06  -0.01
    10   6     0.03   0.10   0.02     0.05  -0.03   0.03     0.02  -0.06   0.01
    11   8     0.01   0.01  -0.01     0.00   0.00  -0.01    -0.01  -0.00  -0.00
    12   1     0.21   0.01   0.09    -0.27  -0.01  -0.03     0.37   0.02   0.01
    13   1     0.20  -0.05   0.07    -0.05   0.11  -0.06    -0.03  -0.15   0.06
    14   1    -0.29  -0.11   0.08     0.28   0.15  -0.04    -0.24  -0.16   0.02
    15   1    -0.06   0.12   0.16     0.03  -0.21  -0.21    -0.09   0.10   0.17
    16   1    -0.02   0.08  -0.06     0.06  -0.21  -0.09    -0.00   0.01  -0.16
    17   1     0.01  -0.03  -0.20    -0.10   0.06   0.36    -0.03  -0.02  -0.14
    18   1    -0.09  -0.04   0.03    -0.05   0.05   0.09     0.21  -0.00   0.10
    19   1    -0.08  -0.15  -0.22    -0.02  -0.09  -0.13     0.06  -0.15   0.12
    20   1    -0.22   0.18   0.34    -0.09   0.07   0.11    -0.06   0.32  -0.29
    21   1    -0.21  -0.13   0.01    -0.11  -0.05   0.10    -0.11  -0.07   0.20
    22   1    -0.08   0.06  -0.01    -0.04   0.02   0.00     0.25  -0.14   0.05
    23   1     0.18  -0.04  -0.02     0.26  -0.06  -0.01     0.08   0.10  -0.03
    24   1    -0.10   0.03  -0.02    -0.19   0.30  -0.05    -0.30   0.09   0.09
    25   1    -0.20   0.15   0.03    -0.03  -0.18  -0.13     0.06  -0.18  -0.09
    26   1     0.05  -0.24  -0.09     0.04  -0.19  -0.16     0.01  -0.05  -0.08
    27   1    -0.23   0.21   0.10    -0.16   0.23   0.02    -0.03   0.06  -0.02
                     31                     32                     33
                      A                      A                      A
 Frequencies --   1056.9113              1070.2558              1115.1567
 Red. masses --      1.4852                 1.5253                 1.3183
 Frc consts  --      0.9775                 1.0294                 0.9659
 IR Inten    --      1.9269                16.3385                14.0315
  Atom  AN      X      Y      Z        X      Y      Z        X      Y      Z
     1   6    -0.01  -0.00   0.03    -0.01   0.02   0.01    -0.01   0.01  -0.01
     2   6     0.02  -0.01  -0.01     0.01   0.00  -0.01     0.01  -0.04   0.02
     3   6    -0.01   0.02  -0.01     0.00   0.00   0.00    -0.01   0.04  -0.02
     4   6    -0.06   0.07  -0.04    -0.03   0.10  -0.01     0.03  -0.01  -0.02
     5   6     0.00  -0.01  -0.03    -0.01  -0.03  -0.03    -0.02   0.01  -0.01
     6   6     0.01  -0.09   0.07    -0.02  -0.07   0.03     0.04   0.06  -0.01
     7   6     0.05   0.04  -0.01     0.00   0.06  -0.02    -0.06   0.02  -0.00
     8   6    -0.01  -0.03  -0.03     0.02  -0.12   0.05     0.03  -0.07   0.04
     9   6     0.02  -0.02   0.05     0.04   0.04  -0.02    -0.05   0.03  -0.01
    10   6     0.04   0.06  -0.07    -0.02  -0.02  -0.01     0.03  -0.00  -0.02
    11   8    -0.00   0.01   0.00    -0.01   0.02  -0.00     0.00   0.01  -0.01
    12   1    -0.00  -0.00  -0.05     0.09   0.01  -0.02     0.06   0.00   0.03
    13   1    -0.13  -0.02  -0.02    -0.09  -0.06   0.01     0.04  -0.03   0.02
    14   1     0.10   0.01  -0.04    -0.00  -0.04  -0.03    -0.08  -0.04   0.01
    15   1     0.02  -0.05  -0.07    -0.00   0.00   0.01     0.04  -0.11  -0.15
    16   1     0.01  -0.03   0.04     0.00  -0.00  -0.02     0.02  -0.07   0.05
    17   1    -0.00   0.02   0.09    -0.01   0.00   0.02    -0.01   0.03   0.17
    18   1    -0.34   0.26   0.09     0.15  -0.03  -0.11     0.49   0.05   0.33
    19   1     0.06  -0.27   0.08    -0.12   0.44  -0.23    -0.01   0.13   0.02
    20   1    -0.03   0.11  -0.11     0.09  -0.25   0.03     0.11  -0.28   0.09
    21   1    -0.11  -0.24  -0.00    -0.37  -0.27   0.46    -0.07  -0.17  -0.28
    22   1     0.26  -0.00  -0.06     0.03   0.05  -0.01     0.14  -0.06   0.02
    23   1    -0.16   0.03  -0.02     0.25  -0.07  -0.04    -0.26   0.09   0.01
    24   1    -0.03  -0.24   0.13     0.14   0.05  -0.07    -0.37  -0.11   0.18
    25   1    -0.22   0.37   0.18     0.07  -0.02   0.00    -0.07   0.04   0.01
    26   1     0.10  -0.28   0.06    -0.03   0.13   0.03     0.04  -0.14  -0.04
    27   1    -0.05  -0.20   0.09     0.09  -0.05  -0.04    -0.06  -0.01   0.03
                     34                     35                     36
                      A                      A                      A
 Frequencies --   1126.1010              1157.6907              1185.3872
 Red. masses --      2.1248                 1.8125                 2.1121
 Frc consts  --      1.5876                 1.4312                 1.7485
 IR Inten    --      3.6451                 5.3994                 3.3121
  Atom  AN      X      Y      Z        X      Y      Z        X      Y      Z
     1   6    -0.01   0.01  -0.02    -0.02   0.03  -0.02    -0.06  -0.05  -0.00
     2   6     0.02  -0.02   0.01     0.04  -0.06   0.03     0.17   0.06  -0.07
     3   6    -0.02   0.01  -0.01    -0.02   0.03  -0.01    -0.09  -0.03   0.02
     4   6    -0.02  -0.06  -0.00    -0.03  -0.01  -0.05     0.01   0.02   0.09
     5   6     0.12   0.04   0.01    -0.01   0.04  -0.03     0.02  -0.03  -0.02
     6   6    -0.08   0.03  -0.04    -0.03   0.02   0.07     0.04   0.05   0.02
     7   6     0.01  -0.03   0.10     0.01  -0.05  -0.02    -0.06  -0.03  -0.03
     8   6    -0.03   0.05  -0.08    -0.01   0.13   0.01     0.05  -0.01   0.10
     9   6    -0.04   0.14   0.11     0.11  -0.08  -0.07    -0.08   0.03  -0.05
    10   6    -0.02  -0.08  -0.08    -0.05   0.02   0.08     0.03  -0.01   0.01
    11   8     0.03  -0.01   0.00    -0.01  -0.03   0.01     0.01   0.00  -0.02
    12   1     0.04   0.00   0.04     0.13   0.01   0.03    -0.23  -0.02   0.02
    13   1     0.06  -0.02   0.02     0.01  -0.07   0.04    -0.04   0.04  -0.02
    14   1    -0.10  -0.04   0.02    -0.13  -0.08   0.01    -0.07   0.02   0.04
    15   1     0.03  -0.02  -0.06     0.04  -0.08  -0.11     0.15   0.07  -0.10
    16   1    -0.00   0.01   0.09     0.01  -0.04   0.08    -0.06   0.20   0.34
    17   1     0.05  -0.01   0.01     0.02   0.01   0.11     0.18  -0.06  -0.13
    18   1    -0.03  -0.17  -0.16    -0.27   0.23   0.17    -0.22  -0.14  -0.28
    19   1    -0.06  -0.03  -0.33    -0.02   0.04  -0.05     0.03  -0.08   0.00
    20   1    -0.12  -0.00   0.34     0.08  -0.33   0.18    -0.04   0.18  -0.13
    21   1    -0.27  -0.21  -0.17    -0.18  -0.26  -0.25    -0.21  -0.25  -0.08
    22   1     0.34  -0.04  -0.11     0.32  -0.18   0.04     0.22  -0.18   0.08
    23   1     0.07  -0.22   0.06     0.02   0.05   0.00    -0.17   0.14  -0.00
    24   1     0.03   0.03   0.10     0.23  -0.07  -0.13     0.06   0.25  -0.17
    25   1     0.09   0.05   0.07     0.10  -0.17  -0.08    -0.04  -0.06  -0.04
    26   1     0.00   0.05   0.12    -0.08   0.21  -0.03     0.02  -0.08  -0.07
    27   1     0.22  -0.37  -0.07    -0.01   0.23  -0.03    -0.06   0.08   0.01
                     37                     38                     39
                      A                      A                      A
 Frequencies --   1210.5688              1219.0108              1238.5735
 Red. masses --      1.9925                 1.6840                 1.6931
 Frc consts  --      1.7204                 1.4744                 1.5303
 IR Inten    --     17.4643                 0.3730                 1.1094
  Atom  AN      X      Y      Z        X      Y      Z        X      Y      Z
     1   6    -0.02  -0.01   0.00    -0.05   0.06  -0.03    -0.01  -0.03   0.04
     2   6     0.05   0.03  -0.04     0.13  -0.13   0.04     0.05   0.10  -0.11
     3   6    -0.02  -0.02   0.02    -0.05   0.05  -0.02    -0.01  -0.05   0.04
     4   6     0.10   0.08   0.06     0.04   0.01  -0.01     0.05  -0.09  -0.06
     5   6    -0.01  -0.04   0.02    -0.04   0.05  -0.02    -0.03   0.04   0.01
     6   6    -0.05  -0.03  -0.05     0.00   0.03   0.00    -0.01   0.01   0.08
     7   6     0.01  -0.04   0.06    -0.01  -0.02  -0.01     0.01  -0.02  -0.01
     8   6    -0.05   0.12  -0.10    -0.01  -0.01  -0.03    -0.01   0.01  -0.03
     9   6    -0.06  -0.11  -0.01    -0.05  -0.01   0.04    -0.03  -0.00   0.04
    10   6     0.06   0.05   0.03     0.02   0.01  -0.03    -0.00  -0.00  -0.03
    11   8     0.02  -0.02   0.01     0.01   0.00  -0.00     0.01   0.00  -0.00
    12   1    -0.05  -0.00  -0.01     0.20   0.01   0.05    -0.13  -0.01  -0.07
    13   1    -0.04   0.01  -0.01    -0.01  -0.16   0.07    -0.12   0.05  -0.05
    14   1    -0.00   0.00  -0.00    -0.25  -0.16   0.01     0.10   0.05  -0.02
    15   1     0.03   0.05   0.02     0.08  -0.10  -0.18     0.01   0.15   0.14
    16   1    -0.02   0.07   0.06     0.02  -0.07   0.20    -0.05   0.16   0.04
    17   1     0.05  -0.02  -0.07     0.08   0.01   0.19     0.04  -0.04  -0.16
    18   1     0.08  -0.05  -0.14    -0.17   0.02  -0.11     0.02   0.32   0.53
    19   1    -0.12   0.44  -0.18     0.06  -0.18   0.18    -0.03   0.11   0.02
    20   1     0.07  -0.17   0.03     0.07  -0.15   0.02     0.07  -0.19   0.09
    21   1    -0.06   0.07   0.22     0.09   0.23   0.29    -0.10  -0.16  -0.11
    22   1     0.21  -0.04  -0.07    -0.41   0.10   0.03    -0.34   0.07   0.03
    23   1     0.11  -0.15   0.04     0.36  -0.09  -0.01     0.35  -0.08  -0.01
    24   1    -0.32  -0.38   0.18    -0.01   0.14  -0.03     0.00   0.16  -0.02
    25   1    -0.15   0.03  -0.03    -0.06   0.08   0.03    -0.02   0.06   0.03
    26   1     0.06  -0.22  -0.09     0.03  -0.09   0.02     0.01  -0.01   0.05
    27   1    -0.20   0.16   0.10    -0.01  -0.09   0.02     0.03  -0.11  -0.00
                     40                     41                     42
                      A                      A                      A
 Frequencies --   1248.9274              1265.1552              1301.6722
 Red. masses --      2.2537                 1.6921                 1.7095
 Frc consts  --      2.0712                 1.5958                 1.7066
 IR Inten    --      3.4447                 1.9839                 1.3539
  Atom  AN      X      Y      Z        X      Y      Z        X      Y      Z
     1   6     0.01  -0.05  -0.09    -0.01  -0.01  -0.02     0.01   0.04  -0.00
     2   6    -0.04   0.13   0.22     0.06   0.00   0.07    -0.07  -0.08  -0.01
     3   6    -0.01  -0.05  -0.06    -0.03   0.01  -0.03     0.03   0.02   0.00
     4   6     0.04   0.04   0.01    -0.06   0.01  -0.05     0.09   0.04  -0.02
     5   6    -0.02  -0.00  -0.09     0.01  -0.13   0.07     0.03  -0.09   0.03
     6   6    -0.00  -0.02   0.09     0.05   0.06  -0.01    -0.04   0.04   0.07
     7   6     0.07  -0.01  -0.01    -0.06  -0.01   0.01     0.02  -0.00  -0.02
     8   6    -0.01  -0.01  -0.03    -0.02  -0.00  -0.04     0.02   0.01   0.03
     9   6    -0.01  -0.01   0.02     0.09   0.02  -0.02    -0.09  -0.07   0.06
    10   6     0.01   0.00  -0.01    -0.03  -0.00   0.00     0.02   0.01  -0.04
    11   8    -0.01   0.00   0.01     0.01  -0.01   0.01     0.00   0.01  -0.01
    12   1    -0.17  -0.02   0.21    -0.05  -0.01   0.07     0.12   0.02  -0.02
    13   1     0.37   0.12   0.01     0.08   0.00   0.01    -0.01  -0.07   0.03
    14   1    -0.19   0.12   0.15    -0.08   0.01   0.04    -0.01  -0.07  -0.04
    15   1     0.12  -0.02  -0.14     0.07  -0.04  -0.12    -0.07  -0.07   0.02
    16   1    -0.01   0.03  -0.02     0.00  -0.03   0.09     0.02  -0.07  -0.07
    17   1     0.13  -0.07  -0.22     0.09  -0.01   0.03    -0.09   0.03   0.05
    18   1    -0.04  -0.11  -0.27    -0.04   0.20   0.24    -0.18   0.07  -0.12
    19   1     0.02  -0.03  -0.02    -0.07   0.27  -0.10    -0.11   0.45  -0.24
    20   1     0.09  -0.25  -0.02    -0.14   0.56  -0.34    -0.04   0.15  -0.11
    21   1    -0.07  -0.25  -0.30    -0.04  -0.05  -0.05     0.08  -0.03  -0.45
    22   1    -0.37   0.11   0.04    -0.08   0.01   0.00    -0.06   0.02   0.00
    23   1     0.06  -0.01  -0.01     0.32  -0.11   0.01    -0.05   0.10  -0.01
    24   1    -0.08  -0.04   0.06    -0.24  -0.08   0.15     0.18   0.42  -0.20
    25   1    -0.02   0.04   0.02     0.07  -0.01   0.01    -0.11   0.11   0.03
    26   1     0.02  -0.03   0.01    -0.03   0.09   0.02     0.04  -0.07   0.05
    27   1    -0.02  -0.01   0.01     0.07  -0.02  -0.04    -0.06  -0.09   0.04
                     43                     44                     45
                      A                      A                      A
 Frequencies --   1313.5612              1327.1938              1348.7931
 Red. masses --      1.5472                 2.0594                 1.4687
 Frc consts  --      1.5729                 2.1372                 1.5743
 IR Inten    --      1.8283                 1.4153                 2.4495
  Atom  AN      X      Y      Z        X      Y      Z        X      Y      Z
     1   6    -0.01  -0.02  -0.03    -0.02   0.01   0.00    -0.01  -0.01  -0.02
     2   6     0.02   0.05   0.09     0.13   0.00  -0.02     0.01   0.02   0.07
     3   6    -0.01  -0.01  -0.02    -0.04  -0.01  -0.00    -0.01  -0.00  -0.02
     4   6     0.07  -0.05  -0.05    -0.05  -0.01   0.00    -0.01  -0.02  -0.10
     5   6    -0.03   0.01   0.04     0.06  -0.03   0.01    -0.00  -0.01   0.03
     6   6    -0.02  -0.06  -0.11    -0.17  -0.03   0.03     0.01   0.01  -0.06
     7   6     0.00   0.01   0.01     0.17  -0.01  -0.02     0.02  -0.02   0.02
     8   6     0.02   0.01   0.05    -0.00  -0.05   0.01     0.00   0.01   0.00
     9   6     0.01  -0.02   0.01     0.04   0.05  -0.04    -0.12   0.03   0.04
    10   6    -0.02  -0.01  -0.04    -0.01  -0.01   0.02     0.05   0.00   0.03
    11   8    -0.01   0.00  -0.01    -0.03   0.01   0.01     0.01   0.00  -0.01
    12   1    -0.01  -0.01   0.08    -0.00   0.01   0.01     0.03  -0.01   0.07
    13   1     0.12   0.04   0.01    -0.07  -0.05   0.01     0.09   0.01   0.02
    14   1    -0.05   0.06   0.04    -0.07  -0.05   0.00    -0.02   0.04   0.02
    15   1     0.05   0.01  -0.05     0.06   0.06  -0.03     0.02   0.00  -0.03
    16   1    -0.00   0.02   0.01    -0.02   0.06   0.14     0.01  -0.02   0.02
    17   1     0.05  -0.02  -0.04     0.07  -0.02   0.04     0.05  -0.01   0.00
    18   1    -0.31   0.27   0.21     0.06   0.03   0.11     0.17   0.12   0.21
    19   1    -0.05   0.16   0.02    -0.07   0.20  -0.24    -0.03   0.03  -0.02
    20   1     0.04  -0.10   0.06    -0.05   0.04   0.09    -0.01   0.11  -0.07
    21   1     0.06   0.20   0.35     0.22   0.31  -0.14    -0.10  -0.01   0.20
    22   1     0.30  -0.07  -0.02    -0.37   0.18  -0.04    -0.01   0.00  -0.01
    23   1    -0.32   0.06   0.00    -0.52   0.22  -0.01    -0.14   0.01   0.02
    24   1    -0.18   0.47  -0.04    -0.09  -0.20   0.08     0.72  -0.36  -0.24
    25   1     0.01   0.09   0.06     0.04  -0.05  -0.01    -0.08  -0.08  -0.07
    26   1    -0.02   0.07   0.08    -0.02   0.04  -0.04     0.04  -0.10  -0.08
    27   1     0.06  -0.11  -0.03     0.03   0.06  -0.03    -0.12   0.10   0.07
                     46                     47                     48
                      A                      A                      A
 Frequencies --   1365.0166              1379.8945              1429.3738
 Red. masses --      1.6733                 1.5832                 1.2206
 Frc consts  --      1.8370                 1.7762                 1.4693
 IR Inten    --     15.1985                 0.2554                 6.2048
  Atom  AN      X      Y      Z        X      Y      Z        X      Y      Z
[...]
 .00010902,0.00001396,0.00011471,0.00009911,0.00005518,-0.00030510,0.00
 003253,0.00043198,0.00001348,-0.00000303,0.00000570,0.00032947,-0.0000
 0031,-0.00043030,-0.00045393,-0.00091035,0.00164220,-0.00003178,0.0003
 6257,-0.00004017,0.00273840,0.04609653,0.00075127,0.00001025,0.0004314
 4,0.00359952,-0.00026607,-0.00572353,-0.00134464,-0.00000321,-0.000636
 18,-0.00565528,-0.00258639,-0.01245323,-0.10046511,-0.00453569,-0.2578
 3704,-0.00534916,0.00213539,-0.01188214,-0.00160146,0.00069956,0.00087
 016,0.00088264,-0.00003635,-0.00059498,-0.00204245,-0.00106868,0.00036
 003,0.00014695,0.00022494,0.00050230,0.00018901,0.00002810,0.00004459,
 -0.00002938,0.00006548,0.00004778,-0.00014792,0.00000820,0.00016680,-0
 .00003050,-0.00006511,0.00005460,0.00021070,-0.00012731,-0.00030827,0.
 00016121,-0.00000863,0.00005115,0.00022178,0.00010535,-0.00032762,0.00
 024808,0.00030025,-0.00086021,0.00097704,0.00011869,0.00416499,0.10755
 167,0.00536886,0.28261797,0.00082974,0.00051337,0.00002275,0.00128016,
 0.00469756,0.00012006,-0.00026503,-0.00021368,0.00006749,0.00005434,0.
 00231014,0.00079455,0.00668296,0.01024009,-0.00063483,-0.11389309,-0.1
 1217477,-0.00710664,-0.01614096,-0.02957808,-0.00188361,-0.00301346,0.
 00659381,-0.00177066,-0.00009296,0.00028541,0.00013858,0.00031233,-0.0
 0004022,-0.00009527,-0.00317449,-0.00308293,0.00048208,-0.00002593,-0.
 00010358,0.00012734,0.00005876,0.00006721,0.00015988,0.00030813,-0.000
 24623,0.00012328,0.00004671,-0.00007767,0.00013263,0.00010689,0.000035
 94,-0.00011452,0.00007478,0.00002831,0.00006486,0.00048373,0.00090882,
 -0.00027103,0.00083032,-0.00085403,-0.00045550,-0.00002447,0.00041215,
 0.00021638,0.12321617,-0.00116604,0.00124937,-0.00075759,-0.00625815,-
 0.01167178,-0.00362049,0.00048904,-0.00068936,-0.00013553,0.00319961,-
 0.00656770,0.00091734,-0.00766401,-0.01097872,0.00183348,-0.11365671,-
 0.24122717,-0.01378625,0.00392638,0.00741036,0.00055865,0.00167145,-0.
 00038830,0.00044779,0.00069741,0.00068328,0.00012050,-0.00022453,0.000
 07596,0.00004526,0.00045634,0.00077085,-0.00015692,0.00006879,0.000270
 14,-0.00005781,0.00040607,-0.00028662,-0.00004926,0.00066740,0.0001981
 7,0.00077762,-0.00014923,0.00018243,0.00040163,-0.00004870,0.00001454,
 0.00002801,-0.00019632,-0.00002996,0.00034614,-0.00091333,-0.00178628,
 -0.00016252,0.00020159,0.00115388,0.00005619,0.00010400,-0.00091661,-0
 .00028497,0.11984654,0.26174074,0.00135671,-0.00088128,0.00207646,0.01
 382518,0.01641522,0.00447528,-0.00072989,0.00174628,0.00043828,0.00021
 720,0.00051387,-0.00211947,-0.01362695,-0.01362171,0.00128919,-0.00687
 435,-0.01232601,-0.05548355,-0.00248575,-0.00518323,0.00021320,-0.0007
 8653,0.00128490,0.00049823,-0.00001139,-0.00012719,-0.00036689,-0.0001
 0275,-0.00002780,-0.00000978,-0.00053946,-0.00055736,-0.00004149,0.000
 24036,-0.00020115,0.00005509,-0.00032629,-0.00008353,-0.00002049,-0.00
 020834,-0.00046616,-0.00029188,0.00001524,-0.00041512,-0.00018862,0.00
 005762,-0.00000777,0.00001845,0.00026171,-0.00020136,-0.00078359,-0.00
 026958,0.00027541,0.00187694,-0.00001351,0.00159894,0.00134105,0.00008
 516,-0.00159831,-0.00077932,0.00940020,0.01383034,0.04709096,0.0003329
 9,0.00205880,-0.00116201,-0.00668825,-0.00125315,0.00018076,-0.0008108
 6,-0.00042721,0.00075855,0.00003128,-0.00034732,-0.00048356,0.00207856
 ,-0.00121219,-0.00138835,-0.00563729,0.01753048,-0.02985505,-0.0483554
 6,0.01175402,-0.02610396,0.00125817,-0.00480643,0.01708365,-0.00041221
 ,-0.00039908,-0.00115511,0.00003441,-0.00007194,-0.00000583,-0.0009663
 7,-0.00058761,-0.00300889,-0.00080553,0.00003992,-0.00036187,-0.000018
 21,-0.00001320,0.00007426,0.00005530,-0.00007391,0.00001001,0.00003397
 ,-0.00000658,-0.00005483,0.00049012,0.00000853,0.00009454,0.00025405,0
 .00003762,-0.00008218,0.00003726,-0.00000787,0.00015253,0.00018184,-0.
 00034426,0.00000589,0.00030505,0.00030223,0.00087274,0.00120431,-0.000
 71776,0.00040254,0.05527853,-0.00014801,-0.00028080,0.00013773,0.00085
 384,0.00096279,-0.00011331,-0.00002155,0.00025247,-0.00016300,-0.00078
 032,0.00023168,0.00013484,0.00010071,0.00041959,0.00128215,0.00154767,
 -0.00175094,0.00240617,0.01258232,-0.09308382,0.10390142,0.00320906,-0
 .01413867,0.02790960,-0.00101549,-0.00157634,-0.00369092,-0.00006596,-
 0.00030403,-0.00002237,0.00042302,0.00148832,-0.00335488,0.00010020,-0
 .00000499,0.00002746,0.00002760,0.00000632,-0.00001121,0.00001546,0.00
 001361,-0.00000875,0.00013948,-0.00002883,0.00014309,-0.00007072,-0.00
 010723,-0.00013754,-0.00010171,0.00002370,0.00002381,0.00004897,0.0000
 7004,-0.00002187,-0.00014405,0.00002160,-0.00025038,0.00005773,-0.0003
 5186,-0.00058425,0.00027104,0.00023244,-0.00034793,-0.01499551,0.09953
 203,0.00013642,0.00047337,-0.00014344,-0.00090307,-0.00171748,0.000657
 21,0.00007682,0.00027056,0.00028112,-0.00007225,-0.00045187,0.00022472
 ,0.00061899,-0.00031845,0.00099686,-0.00105391,0.00243537,-0.00519305,
 -0.02843079,0.09821658,-0.25047123,0.00005453,0.00024520,0.00075516,0.
 00062448,-0.00032404,-0.00126787,-0.00010485,0.00017375,0.00005477,0.0
 0021501,-0.00014358,0.00112915,-0.00019515,0.00000110,-0.00002179,-0.0
 0006611,-0.00000318,0.00004062,0.00003442,-0.00001291,-0.00000374,0.00
 004696,-0.00002767,0.00010366,-0.00023891,-0.00016420,-0.00000748,-0.0
 0011097,0.00004629,-0.00002659,0.00002322,0.00010307,0.00013188,0.0000
 3908,-0.00001329,0.00023681,-0.00016195,0.00044430,0.00049657,-0.00031
 694,-0.00029428,0.00009902,0.03209982,-0.10868979,0.27244852,0.0000701
 7,-0.00008889,0.00014678,0.00101665,-0.00069446,0.00103429,0.00019985,
 0.00010259,-0.00006509,-0.00010635,-0.00069869,0.00029664,-0.00693330,
 -0.00077055,-0.00196392,-0.01123734,0.02017046,0.02263097,-0.09501164,
 0.06634694,0.07323152,0.00687540,-0.00927188,-0.01321499,-0.00133275,-
 0.00115673,0.00119092,0.00064467,-0.00036565,-0.00004545,-0.00009453,-
 0.00003214,0.00149559,0.00002413,0.00004142,-0.00007057,0.00015745,-0.
 00002127,0.00001988,-0.00003427,-0.00003641,-0.00006462,-0.00008649,-0
 .00008006,-0.00036388,0.00036522,0.00010246,-0.00016037,0.00017054,-0.
 00014354,-0.00010109,0.00014786,0.00010080,-0.00015004,-0.00057553,0.0
 0205683,0.00085567,0.00017424,-0.00042550,-0.00006881,0.00110603,-0.00
 077235,0.00001493,0.00178763,-0.00245784,-0.00245064,0.10280918,-0.000
 08190,0.00004141,0.00022682,0.00023846,0.00000806,-0.00078706,0.000605
 04,0.00041992,-0.00004611,-0.00059293,0.00030518,-0.00023632,0.0006766
 9,0.00107798,0.00007156,0.00077994,-0.00175076,-0.00068512,0.06640476,
 -0.14129839,-0.11138428,0.01259140,-0.02285861,-0.02096046,-0.00318281
 ,-0.00233680,0.00292606,0.00097424,-0.00075422,-0.00065643,0.00087292,
 0.00391684,0.00299717,0.00002188,-0.00002486,0.00001257,-0.00013074,0.
 00000876,0.00000757,0.00006084,0.00002875,0.00001894,0.00012262,0.0000
 5310,0.00018672,-0.00049197,-0.00077125,0.00037597,-0.00042603,0.00013
 046,-0.00006024,0.00010343,0.00007062,0.00006843,-0.00007862,-0.000171
 83,-0.00008427,-0.00009790,0.00001008,0.00003365,0.00021980,0.00046683
 ,0.00039978,-0.00613091,0.00966206,0.00994555,-0.07206447,0.15384751,-
 0.00001358,-0.00014498,0.00006322,0.00056983,-0.00007906,0.00054288,0.
 00027119,0.00052236,-0.00031110,0.00014825,-0.00008682,0.00016183,-0.0
 0108390,0.00052905,0.00016980,-0.00204011,0.00541892,0.00525249,0.0729
 7281,-0.10989061,-0.16691281,0.00124339,0.00296128,0.00033003,-0.00021
 013,0.00064617,-0.00049076,0.00004717,0.00016046,-0.00000212,-0.001500
 65,0.00038281,0.00091092,0.00005394,-0.00001211,0.00003531,0.00000742,
 -0.00000947,-0.00000350,-0.00001066,0.00001284,0.00000814,0.00004891,0
 .00002336,-0.00015505,-0.00044645,0.00049859,-0.00068429,-0.00020595,-
 0.00004634,0.00009253,-0.00001869,-0.00007952,0.00005894,-0.00009160,0
 .00016813,0.00040490,-0.00004490,0.00020376,0.00043606,0.00073424,-0.0
 0001862,0.00034393,0.01185572,-0.01862146,-0.02067180,-0.08225517,0.11
 746528,0.18038124,0.00025645,-0.00201889,-0.00101170,-0.00621404,0.001
 14629,-0.00024723,-0.00052602,0.00023428,0.00057514,-0.00635719,-0.016
 11463,-0.03022869,0.00138324,0.00091352,-0.00208533,0.00001390,0.00018
 864,-0.00054564,-0.00012544,0.00051848,-0.00158463,-0.00071863,0.00539
 134,0.01916865,-0.04331349,0.00117668,-0.00494482,0.00003384,0.0023890
 0,0.01433901,-0.00107615,0.00083407,-0.00332043,0.00004853,0.00006881,
 0.00000887,-0.00002251,0.00002113,0.00005774,-0.00075870,-0.00006928,-
 0.00036879,0.00014733,-0.00005365,-0.00009421,0.00022467,-0.00005209,-
 0.00003193,0.00003187,0.00002453,-0.00007422,0.00105863,0.00067099,0.0
 0041042,0.00020403,0.00029278,-0.00001680,0.00029192,-0.00032869,0.000
 87722,0.00002479,0.00002563,0.00014252,0.00031963,0.00042254,0.0001013
 0,-0.00009591,-0.00013065,-0.00001352,0.05469307,0.00011407,-0.0004329
 3,-0.00017122,-0.00120014,0.00071503,-0.00024981,0.00002933,0.00011183
 ,0.00033873,-0.00204760,-0.00194999,-0.00404469,-0.00085429,0.00032047
 ,-0.00174455,0.00064082,0.00008175,-0.00018010,0.00007266,-0.00161884,
 0.00448731,0.00085476,-0.01053621,-0.02941916,0.00004101,-0.07120867,-
 0.08258489,-0.00103199,0.00528618,0.02653994,0.00026211,0.00017782,0.0
 0359947,-0.00001597,0.00002312,0.00000875,-0.00003719,0.00001389,0.000
 01342,-0.00016646,0.00000353,-0.00005210,0.00002399,0.00003444,-0.0000
 2052,-0.00003208,-0.00005413,0.00015911,-0.00014141,0.00000383,-0.0001
 3190,-0.00028401,0.00016239,0.00030565,0.00015947,-0.00003563,0.000292
 14,-0.00017747,-0.00040988,0.00069478,-0.00006142,0.00005895,0.0000373
 4,-0.00033489,-0.00124330,-0.00020960,0.00023877,0.00032120,0.00000016
 ,0.00571858,0.08126509,0.00017150,-0.00061237,-0.00022643,-0.00146520,
 0.00207382,0.00068029,-0.00005443,-0.00000133,0.00023871,-0.00195650,-
 0.00438734,-0.00875680,0.00136737,0.00092283,0.00091914,0.00007546,0.0
 0055383,0.00021064,0.00073257,-0.00007310,-0.00088378,0.00007100,-0.00
 300226,-0.00241092,-0.00923518,-0.07534188,-0.26198451,0.00125791,-0.0
 0365390,-0.02101738,-0.00025422,0.00034042,0.00128124,0.00004559,0.000
 00859,0.00000875,-0.00007365,0.00000418,0.00004621,-0.00024020,-0.0000
 3128,-0.00005161,0.00000607,-0.00008126,-0.00003991,0.00000034,0.00014
 502,0.00003737,0.00003440,-0.00001577,0.00009351,-0.00019102,0.0003147
 3,0.00010406,0.00018141,0.00013120,0.00042124,0.00005766,-0.00050649,0
 .00096836,0.00001349,-0.00005794,0.00016753,0.00004670,0.00002807,0.00
 012691,-0.00005258,-0.00030834,0.00003403,0.00791557,0.08031062,0.2892
 0575,-0.00002042,0.00000518,0.00000143,-0.00005452,-0.00003352,-0.0000
 7035,0.00004171,-0.00003076,0.00003155,0.00125254,-0.00050688,-0.00029
 407,0.00022014,0.00010928,0.00004462,0.00013677,-0.00001580,0.00004401
 ,0.00048577,-0.00060111,-0.00037795,-0.00385999,-0.00135201,0.00167410
 ,0.00609955,-0.01568158,-0.00137841,-0.10265773,0.10499938,0.01872437,
 0.00166189,0.00113494,-0.00063744,-0.00000939,-0.00000354,-0.00001207,
 -0.00000429,-0.00000348,-0.00000597,0.00000741,0.00001578,0.00001119,-
 0.00003263,0.00001250,0.00001460,-0.00008752,-0.00002957,-0.00001166,0
 .00000086,0.00001175,-0.00002477,-0.00017630,0.00037125,-0.00002563,0.
 00002587,0.00006867,-0.00003348,-0.00000169,0.00003171,-0.00002235,-0.
 00000311,0.00004623,0.00000622,0.00001454,-0.00001234,0.00002892,-0.00
 007295,-0.00020124,0.00000482,0.00046045,0.00072189,-0.00066471,0.1078
 7711,-0.00001468,-0.00002958,0.00004238,0.00000022,0.00006109,-0.00021
 576,0.00021401,-0.00014029,0.00001557,0.00144801,0.00005198,-0.0003027
 0,-0.00019348,0.00026615,0.00024000,0.00034281,0.00024324,0.00005236,0
 .00092430,-0.00074746,-0.00044023,-0.00406253,-0.00072860,0.00286355,0
 .01066354,-0.02162932,-0.00234151,0.10470955,-0.25099843,-0.03954718,0
 .00035215,0.00019975,-0.00041734,-0.00003261,0.00001418,-0.00005930,-0
 .00002830,-0.00000779,0.00000899,-0.00000085,0.00002504,-0.00000454,-0
 .00012625,-0.00000598,0.00000123,-0.00020036,0.00006547,0.00002454,0.0
 0002283,-0.00000280,-0.00003367,-0.00111440,0.00039846,-0.00017133,-0.
 00006220,-0.00001170,0.00000628,0.00004240,0.00004183,-0.00006387,-0.0
 0012689,0.00010040,-0.00000050,-0.00008513,-0.00012218,0.00003684,-0.0
 0018406,-0.00033510,0.00001677,0.00018613,0.00134955,-0.00004385,-0.11
 417571,0.27346043,-0.00004203,-0.00005071,0.00012898,0.00010298,-0.000
 01851,-0.00021344,0.00023221,-0.00043248,0.00000657,-0.00052211,-0.000
 62882,0.00020846,-0.00018796,-0.00007015,-0.00004432,-0.00023394,-0.00
 001150,-0.00003183,-0.00073540,0.00065983,0.00038999,0.00320139,0.0026
 8136,-0.00188796,-0.00935860,0.01831061,0.00114603,0.01978510,-0.04051
 131,-0.05703831,-0.00038583,-0.00011077,0.00039221,0.00001014,-0.00000
 425,-0.00001184,-0.00004826,0.00000722,0.00000120,0.00001191,0.0000262
 0,-0.00000095,-0.00023648,-0.00009154,-0.00001567,-0.00030221,0.000294
 33,-0.00009709,0.00015412,-0.00003497,0.00009396,0.00010430,-0.0001646
 2,0.00015760,0.00000895,-0.00006145,0.00000700,-0.00002671,0.00004443,
 0.00000053,0.00005962,-0.00003218,0.00001526,0.00003217,0.00006659,-0.
 00001478,0.00015136,0.00033891,-0.00000843,-0.00077633,-0.00023489,0.0
 0102708,-0.02350055,0.04045650,0.05891724,0.00003978,-0.00006282,-0.00
 001039,0.00006285,0.00014400,0.00018335,-0.00006250,-0.00007733,-0.000
 02209,0.00047844,-0.00160414,0.00276071,-0.00079627,0.00015113,-0.0005
 0475,-0.00002183,-0.00000220,0.00005897,-0.00009048,-0.00003784,-0.000
 19051,-0.00259149,0.00088052,-0.00019697,-0.01335064,-0.00312753,-0.00
 287779,-0.30213346,-0.02087287,-0.06488387,0.00173204,0.00246579,-0.00
 054782,0.00000565,0.00001343,0.00000075,0.00002439,0.00000742,0.000008
 66,-0.00003399,-0.00002479,-0.00003040,0.00001416,-0.00001048,-0.00003
 410,-0.00001859,-0.00001719,-0.00002074,0.00001792,0.00001703,-0.00000
 689,0.00035243,0.00006906,-0.00004789,-0.00008520,-0.00029820,0.000124
 03,0.00001316,-0.00000380,0.00004299,0.00004606,-0.00006356,-0.0000082
 0,0.00003258,0.00001538,0.00003129,0.00005151,-0.00004315,-0.00001202,
 0.00041388,0.00023466,0.00019290,-0.01210349,-0.00125114,-0.00335897,0
 .32756191,0.00002703,-0.00012895,-0.00000741,0.00018592,0.00045713,0.0
 0018618,-0.00009336,-0.00010330,-0.00009446,-0.00008958,-0.00376774,0.
 00377927,-0.00164231,0.00019587,-0.00033215,-0.00008838,0.00052809,0.0
 0004371,0.00030394,0.00022751,0.00007354,-0.00340362,0.00034085,-0.000
 85109,-0.02425115,-0.00319350,-0.00735037,-0.01804983,-0.04935091,-0.0
 0599518,0.00222277,0.00033148,0.00002053,0.00001504,0.00000398,-0.0000
 0806,0.00002913,0.00000769,0.00001371,-0.00004580,-0.00001569,-0.00004
 623,-0.00002488,-0.00007084,-0.00000814,-0.00001660,0.00002943,-0.0001
 1430,0.00011313,-0.00004852,0.00005143,-0.00004629,0.00019533,0.000009
 91,-0.00016384,-0.00054450,0.00027847,0.00004775,0.00007789,0.00004494
 ,0.00014076,-0.00006720,-0.00000924,0.00007637,0.00003292,0.00001493,0
 .00013262,0.00000633,0.00000574,0.00059856,0.00082062,-0.00011651,0.02
 869968,0.00400697,0.00831990,0.02325266,0.05133924,-0.00004827,0.00015
 199,0.00006052,0.00039523,-0.00001986,-0.00032961,-0.00009893,-0.00004
 674,-0.00031757,0.00046879,0.00317435,-0.00198230,0.00103496,0.0000999
 5,0.00036078,-0.00005474,-0.00016389,-0.00002099,0.00003314,-0.0000683
 9,0.00019640,0.00005119,-0.00002745,0.00087399,0.02003215,0.00103732,0
 .00489449,-0.06567274,-0.00662179,-0.06685444,-0.00033170,-0.00003972,
 -0.00102796,0.00002751,-0.00001942,0.00002030,-0.00004728,-0.00001312,
 -0.00000169,0.00006065,0.00000553,0.00003787,-0.00011647,-0.00017282,0
 .00013198,-0.00017580,0.00007893,-0.00004287,0.00015685,-0.00012481,0.
 00026969,-0.00020479,-0.00005419,-0.00013701,0.00013776,0.00031831,-0.
 00016676,-0.00003911,-0.00006366,-0.00001129,-0.00003722,0.00003968,0.
 00003085,-0.00002189,-0.00003761,0.00000256,-0.00006000,0.00002053,-0.
 00000081,0.00012986,-0.00086649,0.00067710,0.00689789,0.00114008,0.000
 59901,0.06959540,0.00397160,0.06931464,-0.00001331,0.00003082,0.000021
 20,-0.00017043,-0.00024050,0.00001602,0.00013067,-0.00061729,0.0002370
 5,0.00065081,0.00088786,0.00021312,0.00000938,-0.00001569,0.00008736,0
 .00011703,-0.00005147,0.00001038,0.00002222,-0.00004428,0.00001853,-0.
 00023768,0.00093460,-0.00064556,0.00060421,0.00319911,0.01483459,-0.05
 138288,-0.00297388,-0.01865158,0.00027349,0.00023448,0.00053780,-0.000
 05552,0.00001215,-0.00003389,0.00003226,0.00001608,-0.00001734,0.00002
 396,0.00001692,0.00000572,-0.00000739,0.00011997,-0.00011106,0.0001117
 2,-0.00002575,-0.00009913,-0.00020275,-0.00015578,-0.00049755,-0.00017
 103,0.00011870,0.00003762,-0.00003562,0.00002436,-0.00007141,-0.000064
 16,0.00003071,-0.00019217,-0.00003273,0.00002420,-0.00004262,-0.000036
 03,-0.00000150,-0.00002571,-0.00001948,-0.00001868,-0.00001036,-0.0003
 9815,-0.00272720,0.00201776,0.00079942,0.00275265,0.01586115,0.0004412
 0,-0.00792970,-0.03211241,0.04961081,0.00008256,-0.00000211,-0.0002012
 7,-0.00040960,0.00002888,0.00033133,-0.00082351,-0.00059205,-0.0005478
 6,0.00053275,0.00105164,-0.00055746,0.00015238,-0.00003163,0.00007605,
 0.00005144,-0.00003330,0.00001371,-0.00002191,0.00002813,-0.00002016,-
 0.00126157,0.00219155,0.00103935,0.00305718,0.00480387,0.02462131,-0.0
 0312833,-0.06221466,-0.05781497,0.00085245,-0.00002685,-0.00051812,-0.
 00000559,0.00000439,0.00000857,0.00009659,-0.00000652,0.00000553,-0.00
 001934,-0.00003494,-0.00002495,0.00020642,-0.00005019,-0.00004127,0.00
 003149,-0.00125413,-0.00024861,-0.00016148,-0.00020106,-0.00018483,-0.
 00012570,-0.00006783,-0.00013910,-0.00005599,0.00000789,-0.00009866,-0
 .00002771,0.00003300,-0.00020793,-0.00001145,0.00000136,-0.00004643,0.
 00000701,0.00004343,-0.00003655,-0.00002837,-0.00007328,-0.00002670,-0
 .00205411,-0.00326012,0.00340034,-0.00358068,-0.00552532,-0.02874771,0
 .00024595,-0.00131020,-0.00169832,0.00639913,0.06649006,-0.00009032,0.
 00016941,0.00018667,0.00073716,0.00030597,-0.00023951,0.00001639,-0.00
 136363,-0.00055642,-0.00073226,-0.00012376,0.00026445,0.00008552,-0.00
 001172,0.00012619,-0.00008765,-0.00006033,-0.00001562,-0.00008498,0.00
 021752,-0.00008214,0.00149108,-0.00198762,-0.00012891,-0.00139954,-0.0
 0240065,-0.01686611,-0.01766928,-0.05605875,-0.30217472,-0.00109807,0.
 00064043,0.00035288,0.00005349,-0.00002986,0.00003266,-0.00009947,-0.0
 0001154,0.00001377,0.00009305,0.00000952,0.00004165,-0.00050044,-0.000
 41106,0.00007416,-0.00074708,-0.00000544,-0.00017682,0.00006148,-0.000
 56355,0.00017465,0.00031296,-0.00002635,0.00002132,0.00009005,0.000075
 67,0.00003505,-0.00005378,-0.00012661,0.00020049,0.00002881,0.00001175
 ,0.00005538,0.00001365,-0.00000564,0.00003624,0.00001867,0.00011310,0.
 00001440,0.00161798,0.00312249,-0.00087661,-0.00042430,-0.00126334,-0.
 00372651,-0.00024564,-0.00188072,-0.00657686,0.01861251,0.06166470,0.3
 2979028\\-0.00005969,0.00000149,-0.00001251,0.00002051,0.00001671,0.00
 007182,0.00005607,0.00000339,-0.00013017,0.00002971,0.00003207,-0.0000
 0731,-0.00007498,-0.00003422,0.00002474,0.00000149,-0.00002040,-0.0000
 5302,0.00002868,0.00000630,0.00003685,0.00004237,-0.00000617,0.0000150
 7,-0.00001356,-0.00004961,0.00005264,0.00007058,0.00010572,-0.00003217
 ,-0.00001229,-0.00003328,0.00001551,-0.00001241,-0.00001195,0.00000539
 ,-0.00000110,-0.00001119,0.00001770,0.00000470,0.00000323,0.00000624,-
 0.00000861,0.00000134,0.00001121,-0.00003899,0.00000234,0.00002854,-0.
 00001965,0.00000143,0.00002026,-0.00000079,-0.00001088,-0.00000639,-0.
 00000789,-0.00001560,-0.00000004,-0.00000101,0.00000604,-0.00001938,0.
 00000581,0.00000715,-0.00000304,0.00001377,0.00001228,-0.00001489,-0.0
 0001643,-0.00000915,0.00000476,-0.00000638,0.00002184,-0.00003983,-0.0
 0000492,-0.00001130,-0.00000661,0.00000315,-0.00001565,0.00001098,0.00
 000187,0.00000806,0.00000363\\\@


 THERE IS MUCH PLEASURE TO BE GAINED FROM USELESS KNOWLEDGE

                                       -- BERTRAND RUSSELL
 Job cpu time:       0 days  0 hours  2 minutes 45.9 seconds.
 Elapsed time:       0 days  0 hours  2 minutes 54.7 seconds.
 File lengths (MBytes):  RWF=    127 Int=      0 D2E=      0 Chk=      5 Scr=      1
 Normal termination of Gaussian 16 at Thu Feb 22 10:27:54 2024.
