 Entering Gaussian System, Link 0=g16
 Input=/Volumes/SSD-PMU3/b3lyp_6-31gd_freq/OXOICARUXGZREZ-HLTSFMKQSA-N_calculating/gaussianinput0.gjf
 Output=/Volumes/SSD-PMU3/b3lyp_6-31gd_freq/OXOICARUXGZREZ-HLTSFMKQSA-N_calculating/gaussianinput0.log
 Initial command:
 /Applications/g16/l1.exe "/Users/macmini_m1_2022/PycharmProjects/sphere_model/sphere_model_lib/Gau-92403.inp" -scrdir="/Users/macmini_m1_2022/PycharmProjects/sphere_model/sphere_model_lib/"
 Entering Link 1 = /Applications/g16/l1.exe PID=     92404.
  
 Copyright (c) 1988,1990,1992,1993,1995,1998,2003,2009,2016,
            Gaussian, Inc.  All Rights Reserved.
  
 This is part of the Gaussian(R) 16 program.  It is based on
 the Gaussian(R) 09 system (copyright 2009, Gaussian, Inc.),
 the Gaussian(R) 03 system (copyright 2003, Gaussian, Inc.),
 the Gaussian(R) 98 system (copyright 1998, Gaussian, Inc.),
 the Gaussian(R) 94 system (copyright 1995, Gaussian, Inc.),
 the Gaussian 92(TM) system (copyright 1992, Gaussian, Inc.),
 the Gaussian 90(TM) system (copyright 1990, Gaussian, Inc.),
 the Gaussian 88(TM) system (copyright 1988, Gaussian, Inc.),
 the Gaussian 86(TM) system (copyright 1986, Carnegie Mellon
 University), and the Gaussian 82(TM) system (copyright 1983,
 Carnegie Mellon University). Gaussian is a federally registered
 trademark of Gaussian, Inc.
  
 This software contains proprietary and confidential information,
 including trade secrets, belonging to Gaussian, Inc.
  
 This software is provided under written license and may be
 used, copied, transmitted, or stored only in accord with that
 written license.
  
 The following legend is applicable only to US Government
 contracts under FAR:
  
                    RESTRICTED RIGHTS LEGEND
  
 Use, reproduction and disclosure by the US Government is
 subject to restrictions as set forth in subparagraphs (a)
 and (c) of the Commercial Computer Software - Restricted
 Rights clause in FAR 52.227-19.
  
 Gaussian, Inc.
 340 Quinnipiac St., Bldg. 40, Wallingford CT 06492
  
  
 ---------------------------------------------------------------
 Warning -- This program may not be used in any manner that
 competes with the business of Gaussian, Inc. or will provide
 assistance to any competitor of Gaussian, Inc.  The licensee
 of this program is prohibited from giving any competitor of
 Gaussian, Inc. access to this program.  By using this program,
 the user acknowledges that Gaussian, Inc. is engaged in the
 business of creating and licensing software in the field of
 computational chemistry and represents and warrants to the
 licensee that it is not a competitor of Gaussian, Inc. and that
 it will not use this program in any manner prohibited above.
 ---------------------------------------------------------------
  

 Cite this work as:
 Gaussian 16, Revision A.03,
 M. J. Frisch, G. W. Trucks, H. B. Schlegel, G. E. Scuseria, 
 M. A. Robb, J. R. Cheeseman, G. Scalmani, V. Barone, 
 G. A. Petersson, H. Nakatsuji, X. Li, M. Caricato, A. V. Marenich, 
 J. Bloino, B. G. Janesko, R. Gomperts, B. Mennucci, H. P. Hratchian, 
 J. V. Ortiz, A. F. Izmaylov, J. L. Sonnenberg, D. Williams-Young, 
 F. Ding, F. Lipparini, F. Egidi, J. Goings, B. Peng, A. Petrone, 
 T. Henderson, D. Ranasinghe, V. G. Zakrzewski, J. Gao, N. Rega, 
 G. Zheng, W. Liang, M. Hada, M. Ehara, K. Toyota, R. Fukuda, 
 J. Hasegawa, M. Ishida, T. Nakajima, Y. Honda, O. Kitao, H. Nakai, 
 T. Vreven, K. Throssell, J. A. Montgomery, Jr., J. E. Peralta, 
 F. Ogliaro, M. J. Bearpark, J. J. Heyd, E. N. Brothers, K. N. Kudin, 
 V. N. Staroverov, T. A. Keith, R. Kobayashi, J. Normand, 
 K. Raghavachari, A. P. Rendell, J. C. Burant, S. S. Iyengar, 
 J. Tomasi, M. Cossi, J. M. Millam, M. Klene, C. Adamo, R. Cammi, 
 J. W. Ochterski, R. L. Martin, K. Morokuma, O. Farkas, 
 J. B. Foresman, and D. J. Fox, Gaussian, Inc., Wallingford CT, 2016.
 
 ******************************************
 Gaussian 16:  EM64M-G16RevA.03 25-Dec-2016
                24-Feb-2024 
 ******************************************
 %nprocshared=10
 Will use up to   10 processors via shared memory.
 %mem=12GB
 %chk= 0.chk
 ---------------------
 # freq b3lyp/6-31g(d)
 ---------------------
 1/10=4,30=1,38=1/1,3;
 2/12=2,17=6,18=5,40=1/2;
 3/5=1,6=6,7=1,11=2,25=1,30=1,71=2,74=-5,140=1/1,2,3;
 4//1;
 5/5=2,38=5,98=1/2;
 8/6=4,10=90,11=11/1;
 11/6=1,8=1,9=11,15=111,16=1/1,2,10;
 10/6=1/2;
 6/7=2,8=2,9=2,10=2,28=1/1;
 7/8=1,10=1,25=1/1,2,3,16;
 1/10=4,30=1/3;
 99//99;
 ---------
 good luck
 ---------
 Symbolic Z-matrix:
 Charge =  0 Multiplicity = 1
 O                     1.21718   0.        0. 
 C                     0.        0.        0. 
 C                    -0.81408  -1.2881    0.0039 
 C                    -1.86585  -1.28748   1.13156 
 C                    -2.70804  -0.0164    1.11025 
 F                    -3.4545   -0.00897  -0.08584 
 C                    -1.8629    1.25799   1.16241 
 C                    -2.72173   2.53447   1.14945 
 C                    -1.85962   3.80501   1.18051 
 C                    -0.83245   3.81908   0.03845 
 C                     0.03598   2.55314   0.04507 
 C                    -0.82522   1.28541   0.0039 
 H                    -0.13137  -2.13796   0.08684 
 H                    -1.33729  -1.36231  -0.95901 
 H                    -1.37035  -1.3584    2.10868 
 H                    -2.52116  -2.16086   1.03926 
 H                    -3.43698  -0.02182   1.93134 
 H                    -1.3081    1.22572   2.11418 
 H                    -3.41069   2.52179   2.0051 
 H                    -3.34375   2.52603   0.24487 
 H                    -1.33043   3.86      2.14339 
 H                    -2.5021    4.69281   1.12716 
 H                    -0.19659   4.7101    0.11244 
 H                    -1.36203   3.89299  -0.92295 
 H                     0.65996   2.5309    0.94871 
 H                     0.73145   2.55183  -0.80115 
 H                    -1.41147   1.2755   -0.92947 
 

 GradGradGradGradGradGradGradGradGradGradGradGradGradGradGradGradGradGrad
 Berny optimization.
 Initialization pass.
 Trust Radius=3.00D-01 FncErr=1.00D-07 GrdErr=1.00D-07 EigMax=2.50D+02 EigMin=1.00D-04
 Number of steps in this run=      2 maximum allowed number of steps=      2.
 GradGradGradGradGradGradGradGradGradGradGradGradGradGradGradGradGradGrad

                          Input orientation:                          
 ---------------------------------------------------------------------
 Center     Atomic      Atomic             Coordinates (Angstroms)
 Number     Number       Type             X           Y           Z
 ---------------------------------------------------------------------
      1          8           0        1.217177    0.000000    0.000000
      2          6           0        0.000000    0.000000    0.000000
      3          6           0       -0.814082   -1.288101    0.003897
      4          6           0       -1.865848   -1.287480    1.131558
      5          6           0       -2.708039   -0.016397    1.110254
      6          9           0       -3.454504   -0.008969   -0.085842
      7          6           0       -1.862903    1.257991    1.162412
      8          6           0       -2.721734    2.534470    1.149452
      9          6           0       -1.859623    3.805014    1.180513
     10          6           0       -0.832447    3.819077    0.038454
     11          6           0        0.035977    2.553141    0.045065
     12          6           0       -0.825219    1.285408    0.003897
     13          1           0       -0.131371   -2.137965    0.086838
     14          1           0       -1.337289   -1.362314   -0.959014
     15          1           0       -1.370351   -1.358398    2.108677
     16          1           0       -2.521158   -2.160863    1.039260
     17          1           0       -3.436985   -0.021817    1.931340
     18          1           0       -1.308099    1.225721    2.114183
     19          1           0       -3.410689    2.521790    2.005103
     20          1           0       -3.343750    2.526034    0.244873
     21          1           0       -1.330426    3.860002    2.143392
     22          1           0       -2.502103    4.692806    1.127165
     23          1           0       -0.196594    4.710101    0.112444
     24          1           0       -1.362034    3.892994   -0.922945
     25          1           0        0.659960    2.530903    0.948710
     26          1           0        0.731454    2.551831   -0.801147
     27          1           0       -1.411474    1.275503   -0.929465
 ---------------------------------------------------------------------
                    Distance matrix (angstroms):
                    1          2          3          4          5
     1  O    0.000000
     2  C    1.217177   0.000000
     3  C    2.405251   1.523794   0.000000
     4  C    3.527474   2.533657   1.542022   0.000000
     5  C    4.079247   2.926843   2.535415   1.524923   0.000000
     6  F    4.672478   3.455582   2.935313   2.374970   1.409933
     7  C    3.524292   2.530642   2.987435   2.545660   1.530046
     8  C    4.822841   3.892636   4.423062   3.916652   2.551205
     9  C    5.033730   4.396583   5.330797   5.092733   3.915090
    10  C    4.334488   3.908938   5.107328   5.323506   4.401984
    11  C    2.813502   2.553792   3.934391   4.421287   3.907272
    12  C    2.413228   1.527506   2.573533   2.995710   2.542387
    13  H    2.529232   2.143757   1.093271   2.196173   3.491081
    14  H    3.049738   2.136340   1.098386   2.157653   2.823529
    15  H    3.603757   2.858256   2.178182   1.097865   2.141781
    16  H    4.441232   3.479314   2.178944   1.095786   2.153764
    17  H    5.039025   3.942514   3.492582   2.170259   1.097986
    18  H    3.514140   2.771874   3.319136   2.755506   2.123809
    19  H    5.638883   4.691765   5.026178   4.202398   2.781522
    20  H    5.219470   4.197794   4.583112   4.184889   2.759886
    21  H    5.097453   4.611266   5.598840   5.273240   4.241658
    22  H    6.093109   5.436308   6.315251   6.014039   4.713734
    23  H    4.918988   4.715543   6.030879   6.308406   5.444517
    24  H    4.760206   4.226389   5.291789   5.595724   4.607490
    25  H    2.759712   2.782277   4.201222   4.581832   4.225902
    26  H    2.718383   2.772851   4.216854   5.022115   4.698868
    27  H    3.066043   2.117327   2.792867   3.320113   2.740536
                    6          7          8          9         10
     6  F    0.000000
     7  C    2.386738   0.000000
     8  C    2.920956   1.538557   0.000000
     9  C    4.323629   2.547089   1.535735   0.000000
    10  C    4.641613   2.980651   2.540460   1.536095   0.000000
    11  C    4.331859   2.555704   2.970688   2.539631   1.535187
    12  C    2.931997   1.555537   2.543466   2.966957   2.533915
    13  H    3.950399   3.960755   5.447089   6.285060   5.998350
    14  H    2.660183   3.412143   4.641901   5.617089   5.300625
    15  H    3.313694   2.825512   4.230930   5.268937   5.601911
    16  H    2.601468   3.483824   4.700907   6.004104   6.293889
    17  H    2.017299   2.169537   2.767225   4.206715   5.011896
    18  H    3.312344   1.102142   2.154505   2.797976   3.355651
    19  H    3.283095   2.168630   1.098617   2.175412   3.492563
    20  H    2.558882   2.154697   1.097833   2.171139   2.832174
    21  H    4.944707   2.831310   2.163490   1.100095   2.163428
    22  H    4.948246   3.493962   2.169596   1.097179   2.176338
    23  H    5.737849   3.974429   3.490715   2.173849   1.097136
    24  H    4.506050   3.397473   2.826517   2.163301   1.100097
    25  H    4.944700   2.833869   3.387649   2.832912   2.171460
    26  H    4.958992   3.501467   3.966062   3.494442   2.180970
    27  H    2.556470   2.140104   2.761100   3.324345   2.782428
                   11         12         13         14         15
    11  C    0.000000
    12  C    1.533134   0.000000
    13  H    4.694276   3.493964   0.000000
    14  H    4.269054   2.863537   1.774734   0.000000
    15  H    4.640732   3.423007   2.496123   3.067872   0.000000
    16  H    5.454282   3.978061   2.572686   2.456079   1.764075
    17  H    4.716981   3.499314   4.336745   3.815731   2.467564
    18  H    2.801755   2.165651   4.099902   4.017875   2.584875
    19  H    3.965128   3.495443   6.012236   5.307659   4.385153
    20  H    3.385737   2.817840   5.665443   4.538114   4.738869
    21  H    2.824521   3.385440   6.453120   6.074336   5.218668
    22  H    3.491555   3.960307   7.304936   6.509486   6.233883
    23  H    2.170508   3.483601   6.848424   6.270840   6.495332
    24  H    2.164875   2.818991   6.237520   5.255490   6.063656
    25  H    1.098373   2.156313   4.813248   4.773422   4.538100
    26  H    1.095338   2.162210   4.850482   4.430028   5.307970
    27  H    2.162679   1.102251   3.784613   2.639025   4.021123
                   16         17         18         19         20
    16  H    0.000000
    17  H    2.492000   0.000000
    18  H    3.754454   2.474255   0.000000
    19  H    4.863266   2.544812   2.472363   0.000000
    20  H    4.824387   3.056863   3.054343   1.761507   0.000000
    21  H    6.236006   4.421660   2.634538   2.477384   3.072022
    22  H    6.854259   4.873230   3.797437   2.511895   2.486304
    23  H    7.312505   6.016607   4.169329   4.324496   3.833051
    24  H    6.468617   5.270494   4.042450   3.827617   2.675739
    25  H    5.669249   4.926144   2.633455   4.205500   4.065108
    26  H    6.014654   5.609459   3.797037   5.003328   4.207388
    27  H    4.112893   3.737638   3.045810   3.763214   2.583909
                   21         22         23         24         25
    21  H    0.000000
    22  H    1.760428   0.000000
    23  H    2.476488   2.518994   0.000000
    24  H    3.066677   2.478388   1.760098   0.000000
    25  H    2.674959   3.834620   2.486349   3.073572   0.000000
    26  H    3.825307   4.331057   2.520724   2.489226   1.751442
    27  H    4.016050   4.134871   3.789191   2.617966   3.065030
                   26         27
    26  H    0.000000
    27  H    2.497523   0.000000
 Stoichiometry    C10H15FO
 Framework group  C1[X(C10H15FO)]
 Deg. of freedom    75
 Full point group                 C1      NOp   1
 Largest Abelian subgroup         C1      NOp   1
 Largest concise Abelian subgroup C1      NOp   1
                         Standard orientation:                         
 ---------------------------------------------------------------------
 Center     Atomic      Atomic             Coordinates (Angstroms)
 Number     Number       Type             X           Y           Z
 ---------------------------------------------------------------------
      1          8           0       -1.105407    2.587312   -0.255747
      2          6           0       -1.100117    1.412618    0.062978
      3          6           0       -2.382983    0.604277    0.213933
      4          6           0       -2.323435   -0.705486   -0.597736
      5          6           0       -1.051209   -1.491345   -0.298978
      6          9           0       -1.098201   -1.899029    1.049909
      7          6           0        0.220527   -0.667914   -0.512726
      8          6           0        1.498618   -1.471922   -0.217409
      9          6           0        2.765424   -0.626659   -0.415439
     10          6           0        2.719955    0.663382    0.417217
     11          6           0        1.452048    1.478485    0.125987
     12          6           0        0.187558    0.636793    0.333648
     13          1           0       -3.230820    1.227194   -0.083368
     14          1           0       -2.501251    0.349742    1.275854
     15          1           0       -2.349323   -0.483848   -1.672685
     16          1           0       -3.197396   -1.328485   -0.376799
     17          1           0       -1.013876   -2.409532   -0.899904
     18          1           0        0.231762   -0.381764   -1.577014
     19          1           0        1.530192   -2.360670   -0.862459
     20          1           0        1.449291   -1.835956    0.817136
     21          1           0        2.864461   -0.366658   -1.479770
     22          1           0        3.652396   -1.217847   -0.155480
     23          1           0        3.610739    1.272684    0.219824
     24          1           0        2.749745    0.404785    1.486073
     25          1           0        1.470683    1.844146   -0.909565
     26          1           0        1.406927    2.370825    0.759594
     27          1           0        0.135222    0.314770    1.386510
 ---------------------------------------------------------------------
 Rotational constants (GHZ):           1.2801420           0.8777628           0.5861826
 Standard basis: 6-31G(d) (6D, 7F)
 There are   210 symmetry adapted cartesian basis functions of A   symmetry.
 There are   210 symmetry adapted basis functions of A   symmetry.
   210 basis functions,   396 primitive gaussians,   210 cartesian basis functions
    46 alpha electrons       46 beta electrons
       nuclear repulsion energy       768.0163334862 Hartrees.
 NAtoms=   27 NActive=   27 NUniq=   27 SFac= 1.00D+00 NAtFMM=   60 NAOKFM=F Big=F
 Integral buffers will be    131072 words long.
 Raffenetti 2 integral format.
 Two-electron integral symmetry is turned on.
 One-electron integrals computed using PRISM.
 NBasis=   210 RedAO= T EigKep=  2.33D-03  NBF=   210
 NBsUse=   210 1.00D-06 EigRej= -1.00D+00 NBFU=   210
 ExpMin= 1.61D-01 ExpMax= 7.00D+03 ExpMxC= 1.05D+03 IAcc=3 IRadAn=         5 AccDes= 0.00D+00
 Harris functional with IExCor=  402 and IRadAn=       5 diagonalized for initial guess.
 HarFok:  IExCor=  402 AccDes= 0.00D+00 IRadAn=         5 IDoV= 1 UseB2=F ITyADJ=14
 ICtDFT=  3500011 ScaDFX=  1.000000  1.000000  1.000000  1.000000
 FoFCou: FMM=F IPFlag=           0 FMFlag=      100000 FMFlg1=           0
         NFxFlg=           0 DoJE=T BraDBF=F KetDBF=T FulRan=T
         wScrn=  0.000000 ICntrl=       500 IOpCl=  0 I1Cent=   200000004 NGrid=           0
         NMat0=    1 NMatS0=      1 NMatT0=    0 NMatD0=    1 NMtDS0=    0 NMtDT0=    0
 Petite list used in FoFCou.
 Requested convergence on RMS density matrix=1.00D-08 within 128 cycles.
 Requested convergence on MAX density matrix=1.00D-06.
 Requested convergence on             energy=1.00D-06.
 No special actions if energy rises.
 Integral accuracy reduced to 1.0D-05 until final iterations.
 Initial convergence to 1.0D-05 achieved.  Increase integral accuracy.
 SCF Done:  E(RB3LYP) =  -565.179699861     A.U. after   14 cycles
            NFock= 14  Conv=0.28D-08     -V/T= 2.0091
 DoSCS=F DFT=T ScalE2(SS,OS)=  1.000000  1.000000
 Range of M.O.s used for correlation:     1   210
 NBasis=   210 NAE=    46 NBE=    46 NFC=     0 NFV=     0
 NROrb=    210 NOA=    46 NOB=    46 NVA=   164 NVB=   164
 Symmetrizing basis deriv contribution to polar:
 IMax=3 JMax=2 DiffMx= 0.00D+00
 G2DrvN: will do    28 centers at a time, making    1 passes.
 Calling FoFCou, ICntrl=  3107 FMM=F I1Cent=   0 AccDes= 0.00D+00.
 End of G2Drv F.D. properties file   721 does not exist.
 End of G2Drv F.D. properties file   722 does not exist.
 End of G2Drv F.D. properties file   788 does not exist.
          IDoAtm=111111111111111111111111111
          Differentiating once with respect to electric field.
                with respect to dipole field.
          Differentiating once with respect to nuclear coordinates.
 Keep R1 ints in memory in canonical form, NReq=255809756.
          There are    84 degrees of freedom in the 1st order CPHF.  IDoFFX=6 NUNeed=     3.
     81 vectors produced by pass  0 Test12= 8.98D-15 1.19D-09 XBig12= 7.50D+01 2.29D+00.
 AX will form    81 AO Fock derivatives at one time.
     81 vectors produced by pass  1 Test12= 8.98D-15 1.19D-09 XBig12= 1.23D+01 1.03D+00.
     81 vectors produced by pass  2 Test12= 8.98D-15 1.19D-09 XBig12= 8.72D-02 3.13D-02.
     81 vectors produced by pass  3 Test12= 8.98D-15 1.19D-09 XBig12= 3.01D-04 1.50D-03.
     81 vectors produced by pass  4 Test12= 8.98D-15 1.19D-09 XBig12= 3.39D-07 4.40D-05.
     40 vectors produced by pass  5 Test12= 8.98D-15 1.19D-09 XBig12= 2.21D-10 1.44D-06.
      4 vectors produced by pass  6 Test12= 8.98D-15 1.19D-09 XBig12= 1.37D-13 3.28D-08.
 InvSVY:  IOpt=1 It=  1 EMax= 2.66D-15
 Solved reduced A of dimension   449 with    84 vectors.
 Isotropic polarizability for W=    0.000000      100.36 Bohr**3.
 End of Minotr F.D. properties file   721 does not exist.
 End of Minotr F.D. properties file   722 does not exist.
 End of Minotr F.D. properties file   788 does not exist.

 **********************************************************************

            Population analysis using the SCF density.

 **********************************************************************

 Orbital symmetries:
       Occupied  (A) (A) (A) (A) (A) (A) (A) (A) (A) (A) (A) (A)
                 (A) (A) (A) (A) (A) (A) (A) (A) (A) (A) (A) (A)
                 (A) (A) (A) (A) (A) (A) (A) (A) (A) (A) (A) (A)
                 (A) (A) (A) (A) (A) (A) (A) (A) (A) (A)
       Virtual   (A) (A) (A) (A) (A) (A) (A) (A) (A) (A) (A) (A)
                 (A) (A) (A) (A) (A) (A) (A) (A) (A) (A) (A) (A)
                 (A) (A) (A) (A) (A) (A) (A) (A) (A) (A) (A) (A)
                 (A) (A) (A) (A) (A) (A) (A) (A) (A) (A) (A) (A)
                 (A) (A) (A) (A) (A) (A) (A) (A) (A) (A) (A) (A)
                 (A) (A) (A) (A) (A) (A) (A) (A) (A) (A) (A) (A)
                 (A) (A) (A) (A) (A) (A) (A) (A) (A) (A) (A) (A)
                 (A) (A) (A) (A) (A) (A) (A) (A) (A) (A) (A) (A)
                 (A) (A) (A) (A) (A) (A) (A) (A) (A) (A) (A) (A)
                 (A) (A) (A) (A) (A) (A) (A) (A) (A) (A) (A) (A)
                 (A) (A) (A) (A) (A) (A) (A) (A) (A) (A) (A) (A)
                 (A) (A) (A) (A) (A) (A) (A) (A) (A) (A) (A) (A)
                 (A) (A) (A) (A) (A) (A) (A) (A) (A) (A) (A) (A)
                 (A) (A) (A) (A) (A) (A) (A) (A)
 The electronic state is 1-A.
 Alpha  occ. eigenvalues --  -24.67549 -19.13617 -10.26957 -10.26669 -10.20285
 Alpha  occ. eigenvalues --  -10.20158 -10.19504 -10.19362 -10.18619 -10.18350
 Alpha  occ. eigenvalues --  -10.18105 -10.17878  -1.17871  -1.03466  -0.85179
 Alpha  occ. eigenvalues --   -0.80681  -0.75774  -0.74823  -0.70983  -0.62930
 Alpha  occ. eigenvalues --   -0.62408  -0.58723  -0.56172  -0.53331  -0.50075
 Alpha  occ. eigenvalues --   -0.48414  -0.47705  -0.46571  -0.45009  -0.43957
 Alpha  occ. eigenvalues --   -0.43530  -0.41693  -0.40953  -0.39325  -0.38631
 Alpha  occ. eigenvalues --   -0.37527  -0.37048  -0.35778  -0.34765  -0.34398
 Alpha  occ. eigenvalues --   -0.34337  -0.32825  -0.32215  -0.30535  -0.29813
 Alpha  occ. eigenvalues --   -0.23706
 Alpha virt. eigenvalues --   -0.01365   0.07853   0.09295   0.09963   0.11517
 Alpha virt. eigenvalues --    0.12438   0.13606   0.14328   0.15346   0.15768
 Alpha virt. eigenvalues --    0.16725   0.17497   0.17795   0.18147   0.18440
 Alpha virt. eigenvalues --    0.18854   0.19334   0.19787   0.21039   0.22276
 Alpha virt. eigenvalues --    0.24692   0.25032   0.26155   0.26758   0.27991
 Alpha virt. eigenvalues --    0.29562   0.30515   0.34694   0.37050   0.50256
 Alpha virt. eigenvalues --    0.51539   0.52362   0.52854   0.53528   0.55140
 Alpha virt. eigenvalues --    0.56082   0.57570   0.59158   0.60301   0.61948
 Alpha virt. eigenvalues --    0.62682   0.64504   0.65831   0.66823   0.69003
 Alpha virt. eigenvalues --    0.69243   0.71222   0.72414   0.74467   0.75407
 Alpha virt. eigenvalues --    0.77579   0.80303   0.81753   0.83141   0.83516
 Alpha virt. eigenvalues --    0.85019   0.85905   0.86561   0.87574   0.88014
 Alpha virt. eigenvalues --    0.89007   0.89357   0.90682   0.91841   0.92185
 Alpha virt. eigenvalues --    0.93568   0.94406   0.95043   0.96349   0.96951
 Alpha virt. eigenvalues --    1.00209   1.02944   1.06232   1.09436   1.11572
 Alpha virt. eigenvalues --    1.13893   1.17111   1.19692   1.20270   1.22910
 Alpha virt. eigenvalues --    1.27605   1.32608   1.35745   1.36950   1.38369
 Alpha virt. eigenvalues --    1.41025   1.44121   1.45759   1.48708   1.52744
 Alpha virt. eigenvalues --    1.57302   1.60817   1.63193   1.66707   1.69409
 Alpha virt. eigenvalues --    1.70209   1.71116   1.73391   1.75972   1.78110
 Alpha virt. eigenvalues --    1.80155   1.81029   1.84389   1.85442   1.87387
 Alpha virt. eigenvalues --    1.88930   1.90278   1.90860   1.91463   1.92470
 Alpha virt. eigenvalues --    1.94120   1.96236   1.97177   1.99326   2.01569
 Alpha virt. eigenvalues --    2.03041   2.06281   2.07175   2.07752   2.10003
 Alpha virt. eigenvalues --    2.12396   2.14455   2.19297   2.21708   2.24440
 Alpha virt. eigenvalues --    2.24875   2.29175   2.30096   2.32052   2.36071
 Alpha virt. eigenvalues --    2.36300   2.38030   2.39174   2.42681   2.45511
 Alpha virt. eigenvalues --    2.47898   2.53439   2.53789   2.58390   2.60091
 Alpha virt. eigenvalues --    2.62472   2.63253   2.66221   2.72346   2.73759
 Alpha virt. eigenvalues --    2.75246   2.78349   2.84863   2.86114   2.98728
 Alpha virt. eigenvalues --    3.04949   3.10859   4.00611   4.12272   4.16370
 Alpha virt. eigenvalues --    4.21201   4.28504   4.31274   4.51022   4.54427
 Alpha virt. eigenvalues --    4.57659   4.60909   4.67610   4.71227
          Condensed to atoms (all electrons):
               1          2          3          4          5          6
     1  O    8.009759   0.584951  -0.075863   0.001689  -0.000032  -0.000002
     2  C    0.584951   4.528894   0.339017  -0.020692  -0.013798  -0.004929
     3  C   -0.075863   0.339017   5.298929   0.313587  -0.028868   0.004067
     4  C    0.001689  -0.020692   0.313587   5.154601   0.349653  -0.038346
     5  C   -0.000032  -0.013798  -0.028868   0.349653   4.709582   0.226440
     6  F   -0.000002  -0.004929   0.004067  -0.038346   0.226440   9.193618
     7  C    0.000672  -0.010264  -0.020549  -0.035539   0.336541  -0.043922
     8  C   -0.000053   0.002578  -0.000206   0.005309  -0.031591  -0.001002
     9  C   -0.000011  -0.000000  -0.000021  -0.000119   0.003559   0.000132
    10  C    0.000613   0.004464  -0.000077  -0.000013   0.000179  -0.000012
    11  C    0.006496  -0.028061   0.006261  -0.000012   0.003916   0.000177
    12  C   -0.094645   0.276573  -0.128125  -0.014755  -0.024762   0.002587
    13  H    0.005148  -0.023530   0.344202  -0.026417   0.003854   0.000088
    14  H    0.001194  -0.029865   0.353410  -0.035575  -0.004970   0.006604
    15  H    0.000412  -0.003260  -0.037732   0.349269  -0.028594   0.002407
    16  H   -0.000058   0.003473  -0.030763   0.362942  -0.026684   0.000429
    17  H   -0.000002  -0.000436   0.006112  -0.054811   0.363726  -0.031476
    18  H    0.000465  -0.003825   0.000850  -0.001272  -0.036531   0.002336
    19  H    0.000000  -0.000074   0.000009  -0.000028  -0.003815  -0.000245
    20  H   -0.000000  -0.000017  -0.000002   0.000346  -0.006934   0.008745
    21  H   -0.000000  -0.000040   0.000000  -0.000001  -0.000052  -0.000001
    22  H    0.000000   0.000007  -0.000000   0.000002  -0.000103   0.000000
    23  H    0.000002  -0.000079   0.000002  -0.000000   0.000005  -0.000000
    24  H   -0.000003  -0.000071  -0.000001   0.000000  -0.000029  -0.000006
    25  H    0.004087  -0.004565   0.000234  -0.000042  -0.000020  -0.000001
    26  H    0.004616  -0.003008   0.000193  -0.000012  -0.000117   0.000000
    27  H    0.001111  -0.035325   0.003171  -0.001618  -0.005756   0.008916
               7          8          9         10         11         12
     1  O    0.000672  -0.000053  -0.000011   0.000613   0.006496  -0.094645
     2  C   -0.010264   0.002578  -0.000000   0.004464  -0.028061   0.276573
     3  C   -0.020549  -0.000206  -0.000021  -0.000077   0.006261  -0.128125
     4  C   -0.035539   0.005309  -0.000119  -0.000013  -0.000012  -0.014755
     5  C    0.336541  -0.031591   0.003559   0.000179   0.003916  -0.024762
     6  F   -0.043922  -0.001002   0.000132  -0.000012   0.000177   0.002587
     7  C    5.120435   0.369904  -0.034078  -0.013347  -0.036408   0.327683
     8  C    0.369904   5.045294   0.371917  -0.045223  -0.011909  -0.040375
     9  C   -0.034078   0.371917   5.002401   0.381088  -0.042127  -0.013513
    10  C   -0.013347  -0.045223   0.381088   5.023129   0.355844  -0.032878
    11  C   -0.036408  -0.011909  -0.042127   0.355844   5.021335   0.348440
    12  C    0.327683  -0.040375  -0.013513  -0.032878   0.348440   5.335548
    13  H   -0.000103   0.000009   0.000000   0.000001  -0.000144   0.006865
    14  H   -0.001031  -0.000022   0.000000  -0.000004  -0.000066   0.004476
    15  H   -0.001037  -0.000122  -0.000002  -0.000001  -0.000033   0.001208
    16  H    0.005512  -0.000153   0.000002   0.000000   0.000008  -0.000474
    17  H   -0.055145  -0.007199   0.000022   0.000003  -0.000117   0.006444
    18  H    0.346639  -0.043410  -0.003466  -0.000662  -0.003736  -0.048117
    19  H   -0.035390   0.363489  -0.031583   0.004778  -0.000034   0.005056
    20  H   -0.041063   0.369355  -0.036989  -0.004246  -0.000504  -0.007446
    21  H   -0.005611  -0.039613   0.370665  -0.041079  -0.003894  -0.001022
    22  H    0.004461  -0.032492   0.369510  -0.031992   0.004573   0.000175
    23  H    0.000210   0.004771  -0.033023   0.370579  -0.032827   0.004311
    24  H   -0.001014  -0.004066  -0.041411   0.370082  -0.038105  -0.005708
    25  H   -0.006672  -0.000665  -0.004632  -0.040044   0.373983  -0.040732
    26  H    0.004442   0.000045   0.004589  -0.032113   0.371764  -0.033650
    27  H   -0.046394  -0.007018  -0.000764  -0.002934  -0.039525   0.351384
              13         14         15         16         17         18
     1  O    0.005148   0.001194   0.000412  -0.000058  -0.000002   0.000465
     2  C   -0.023530  -0.029865  -0.003260   0.003473  -0.000436  -0.003825
     3  C    0.344202   0.353410  -0.037732  -0.030763   0.006112   0.000850
     4  C   -0.026417  -0.035575   0.349269   0.362942  -0.054811  -0.001272
     5  C    0.003854  -0.004970  -0.028594  -0.026684   0.363726  -0.036531
     6  F    0.000088   0.006604   0.002407   0.000429  -0.031476   0.002336
     7  C   -0.000103  -0.001031  -0.001037   0.005512  -0.055145   0.346639
     8  C    0.000009  -0.000022  -0.000122  -0.000153  -0.007199  -0.043410
     9  C    0.000000   0.000000  -0.000002   0.000002   0.000022  -0.003466
    10  C    0.000001  -0.000004  -0.000001   0.000000   0.000003  -0.000662
    11  C   -0.000144  -0.000066  -0.000033   0.000008  -0.000117  -0.003736
    12  C    0.006865   0.004476   0.001208  -0.000474   0.006444  -0.048117
    13  H    0.558061  -0.026184  -0.003774  -0.002291  -0.000109  -0.000037
    14  H   -0.026184   0.559293   0.005685  -0.005664   0.000201   0.000025
    15  H   -0.003774   0.005685   0.596305  -0.032050   0.000363   0.001698
    16  H   -0.002291  -0.005664  -0.032050   0.572453  -0.004384  -0.000100
    17  H   -0.000109   0.000201   0.000363  -0.004384   0.644666   0.000117
    18  H   -0.000037   0.000025   0.001698  -0.000100   0.000117   0.640375
    19  H   -0.000000   0.000000  -0.000001   0.000001   0.005766  -0.004316
    20  H    0.000000  -0.000019  -0.000018  -0.000001  -0.000048   0.006423
    21  H   -0.000000  -0.000000  -0.000000   0.000000  -0.000003   0.004878
    22  H    0.000000  -0.000000  -0.000000  -0.000000  -0.000003  -0.000046
    23  H   -0.000000  -0.000000  -0.000000   0.000000  -0.000000  -0.000029
    24  H    0.000000  -0.000001  -0.000000  -0.000000  -0.000000   0.000154
    25  H   -0.000001  -0.000004  -0.000005   0.000000  -0.000002   0.005165
    26  H   -0.000005  -0.000016  -0.000000   0.000000   0.000003  -0.000032
    27  H   -0.000075   0.001123   0.000025  -0.000054   0.000354   0.007133
              19         20         21         22         23         24
     1  O    0.000000  -0.000000  -0.000000   0.000000   0.000002  -0.000003
     2  C   -0.000074  -0.000017  -0.000040   0.000007  -0.000079  -0.000071
     3  C    0.000009  -0.000002   0.000000  -0.000000   0.000002  -0.000001
     4  C   -0.000028   0.000346  -0.000001   0.000002  -0.000000   0.000000
     5  C   -0.003815  -0.006934  -0.000052  -0.000103   0.000005  -0.000029
     6  F   -0.000245   0.008745  -0.000001   0.000000  -0.000000  -0.000006
     7  C   -0.035390  -0.041063  -0.005611   0.004461   0.000210  -0.001014
     8  C    0.363489   0.369355  -0.039613  -0.032492   0.004771  -0.004066
     9  C   -0.031583  -0.036989   0.370665   0.369510  -0.033023  -0.041411
    10  C    0.004778  -0.004246  -0.041079  -0.031992   0.370579   0.370082
    11  C   -0.000034  -0.000504  -0.003894   0.004573  -0.032827  -0.038105
    12  C    0.005056  -0.007446  -0.001022   0.000175   0.004311  -0.005708
    13  H   -0.000000   0.000000  -0.000000   0.000000  -0.000000   0.000000
    14  H    0.000000  -0.000019  -0.000000  -0.000000  -0.000000  -0.000001
    15  H   -0.000001  -0.000018  -0.000000  -0.000000  -0.000000  -0.000000
    16  H    0.000001  -0.000001   0.000000  -0.000000   0.000000  -0.000000
    17  H    0.005766  -0.000048  -0.000003  -0.000003  -0.000000  -0.000000
    18  H   -0.004316   0.006423   0.004878  -0.000046  -0.000029   0.000154
    19  H    0.607983  -0.034979  -0.004210  -0.002379  -0.000159  -0.000050
    20  H   -0.034979   0.587661   0.005579  -0.003985  -0.000051   0.004429
    21  H   -0.004210   0.005579   0.614947  -0.036842  -0.004400   0.006053
    22  H   -0.002379  -0.003985  -0.036842   0.600863  -0.002244  -0.004406
    23  H   -0.000159  -0.000051  -0.004400  -0.002244   0.600280  -0.036654
    24  H   -0.000050   0.004429   0.006053  -0.004406  -0.036654   0.614048
    25  H   -0.000023   0.000130   0.004693  -0.000054  -0.004027   0.005711
    26  H    0.000013  -0.000016  -0.000051  -0.000150  -0.002123  -0.004054
    27  H    0.000011   0.005768   0.000165  -0.000034  -0.000044   0.004822
              25         26         27
     1  O    0.004087   0.004616   0.001111
     2  C   -0.004565  -0.003008  -0.035325
     3  C    0.000234   0.000193   0.003171
     4  C   -0.000042  -0.000012  -0.001618
     5  C   -0.000020  -0.000117  -0.005756
     6  F   -0.000001   0.000000   0.008916
     7  C   -0.006672   0.004442  -0.046394
     8  C   -0.000665   0.000045  -0.007018
     9  C   -0.004632   0.004589  -0.000764
    10  C   -0.040044  -0.032113  -0.002934
    11  C    0.373983   0.371764  -0.039525
    12  C   -0.040732  -0.033650   0.351384
    13  H   -0.000001  -0.000005  -0.000075
    14  H   -0.000004  -0.000016   0.001123
    15  H   -0.000005  -0.000000   0.000025
    16  H    0.000000   0.000000  -0.000054
    17  H   -0.000002   0.000003   0.000354
    18  H    0.005165  -0.000032   0.007133
    19  H   -0.000023   0.000013   0.000011
    20  H    0.000130  -0.000016   0.005768
    21  H    0.004693  -0.000051   0.000165
    22  H   -0.000054  -0.000150  -0.000034
    23  H   -0.004027  -0.002123  -0.000044
    24  H    0.005711  -0.004054   0.004822
    25  H    0.594995  -0.033388   0.005825
    26  H   -0.033388   0.577589  -0.003521
    27  H    0.005825  -0.003521   0.598705
 Mulliken charges:
               1
     1  O   -0.450546
     2  C    0.441883
     3  C   -0.347838
     4  C   -0.308148
     5  C    0.215200
     6  F   -0.336603
     7  C   -0.128929
     8  C   -0.267553
     9  C   -0.262144
    10  C   -0.266134
    11  C   -0.255296
    12  C   -0.184550
    13  H    0.164440
    14  H    0.171409
    15  H    0.149257
    16  H    0.157856
    17  H    0.125957
    18  H    0.129321
    19  H    0.130176
    20  H    0.147880
    21  H    0.129840
    22  H    0.135139
    23  H    0.135501
    24  H    0.130279
    25  H    0.140056
    26  H    0.149003
    27  H    0.154549
 Sum of Mulliken charges =  -0.00000
 Mulliken charges with hydrogens summed into heavy atoms:
               1
     1  O   -0.450546
     2  C    0.441883
     3  C   -0.011990
     4  C   -0.001036
     5  C    0.341157
     6  F   -0.336603
     7  C    0.000392
     8  C    0.010503
     9  C    0.002834
    10  C   -0.000355
    11  C    0.033762
    12  C   -0.030001
 APT charges:
               1
     1  O   -0.640204
     2  C    0.728383
     3  C   -0.072207
     4  C    0.082579
     5  C    0.547707
     6  F   -0.482233
     7  C    0.055258
     8  C    0.097132
     9  C    0.123365
    10  C    0.125284
    11  C    0.100787
    12  C   -0.090472
    13  H   -0.022715
    14  H    0.010621
    15  H   -0.020840
    16  H   -0.042289
    17  H   -0.078277
    18  H   -0.042903
    19  H   -0.060730
    20  H   -0.021599
    21  H   -0.051162
    22  H   -0.061004
    23  H   -0.061118
    24  H   -0.049593
    25  H   -0.031865
    26  H   -0.034036
    27  H   -0.007869
 Sum of APT charges =   0.00000
 APT charges with hydrogens summed into heavy atoms:
               1
     1  O   -0.640204
     2  C    0.728383
     3  C   -0.084301
     4  C    0.019451
     5  C    0.469430
     6  F   -0.482233
     7  C    0.012355
     8  C    0.014802
     9  C    0.011199
    10  C    0.014574
    11  C    0.034886
    12  C   -0.098341
 Electronic spatial extent (au):  <R**2>=           2025.8326
 Charge=             -0.0000 electrons
 Dipole moment (field-independent basis, Debye):
    X=              0.3015    Y=             -2.1963    Z=             -0.7369  Tot=              2.3362
 Quadrupole moment (field-independent basis, Debye-Ang):
   XX=            -68.5371   YY=            -82.3009   ZZ=            -70.8883
   XY=              2.7063   XZ=              0.9518   YZ=              4.5227
 Traceless Quadrupole moment (field-independent basis, Debye-Ang):
   XX=              5.3717   YY=             -8.3922   ZZ=              3.0205
   XY=              2.7063   XZ=              0.9518   YZ=              4.5227
 Octapole moment (field-independent basis, Debye-Ang**2):
  XXX=            -21.5460  YYY=            -32.6160  ZZZ=              6.3381  XYY=              8.6080
  XXY=             -4.4539  XXZ=              1.7726  XZZ=             -4.6451  YZZ=              0.7614
  YYZ=              1.1282  XYZ=             -5.2335
 Hexadecapole moment (field-independent basis, Debye-Ang**3):
 XXXX=          -1486.2124 YYYY=           -948.5612 ZZZZ=           -212.5241 XXXY=             10.4088
 XXXZ=             -6.7438 YYYX=             38.8702 YYYZ=              7.4253 ZZZX=             -6.9957
 ZZZY=            -16.2911 XXYY=           -404.3700 XXZZ=           -289.7559 YYZZ=           -181.8569
 XXYZ=             -3.1960 YYXZ=             -0.4461 ZZXY=             -0.6492
 N-N= 7.680163334862D+02 E-N=-2.853799582771D+03  KE= 5.600909057370D+02
  Exact polarizability: 112.917  -0.251 104.616   1.065   1.350  83.551
 Approx polarizability: 136.940  -0.438 154.252   0.034  -6.158 137.026
 Calling FoFJK, ICntrl=    100127 FMM=F ISym2X=0 I1Cent= 0 IOpClX= 0 NMat=1 NMatS=1 NMatT=0.
 Full mass-weighted force constant matrix:
 Low frequencies ---  -16.0949   -0.0007    0.0002    0.0004    4.5432   16.4534
 Low frequencies ---   76.7964  102.0860  141.0190
 Diagonal vibrational polarizability:
       11.0116997       8.4934432      16.2282776
 Harmonic frequencies (cm**-1), IR intensities (KM/Mole), Raman scattering
 activities (A**4/AMU), depolarization ratios for plane and unpolarized
 incident light, reduced masses (AMU), force constants (mDyne/A),
 and normal coordinates:
                      1                      2                      3
                      A                      A                      A
 Frequencies --     76.7587               102.0807               141.0188
 Red. masses --      4.9481                 3.5362                 3.1805
 Frc consts  --      0.0172                 0.0217                 0.0373
 IR Inten    --      3.0742                 1.6397                 0.7905
  Atom  AN      X      Y      Z        X      Y      Z        X      Y      Z
     1   8    -0.04   0.08   0.36     0.04   0.00   0.07    -0.05   0.06   0.08
     2   6    -0.01  -0.00   0.04    -0.00  -0.02  -0.04    -0.02   0.03  -0.04
     3   6    -0.01  -0.04  -0.15    -0.04   0.00  -0.19    -0.00   0.01   0.03
     4   6     0.05  -0.04  -0.14     0.01  -0.09  -0.04    -0.04  -0.03   0.09
     5   6     0.02  -0.04   0.01     0.01  -0.03   0.08     0.00   0.01  -0.02
     6   9    -0.08   0.08   0.04     0.03   0.18   0.15     0.16   0.05   0.00
     7   6     0.03  -0.06   0.02    -0.01  -0.01  -0.03    -0.02   0.01  -0.13
     8   6     0.02  -0.03   0.14     0.02  -0.00  -0.16    -0.04  -0.02  -0.10
     9   6     0.02  -0.06   0.04    -0.01   0.05  -0.12     0.03  -0.06   0.16
    10   6     0.02   0.06  -0.14    -0.02  -0.07   0.06    -0.07  -0.05   0.15
    11   6    -0.01   0.00  -0.19    -0.01  -0.03   0.14     0.02  -0.02  -0.12
    12   6     0.02  -0.00  -0.07    -0.02  -0.05   0.02    -0.01   0.02  -0.15
    13   1     0.02  -0.03  -0.21     0.02   0.00  -0.35    -0.03  -0.01   0.05
    14   1    -0.12  -0.05  -0.16    -0.20   0.12  -0.17     0.05   0.06   0.05
    15   1     0.17  -0.05  -0.15     0.03  -0.22  -0.06    -0.16  -0.09   0.08
    16   1     0.02  -0.02  -0.23     0.01  -0.08   0.01    -0.00  -0.04   0.21
    17   1     0.05  -0.08   0.08     0.03  -0.12   0.22    -0.04  -0.01   0.01
    18   1     0.08  -0.13   0.00    -0.11   0.01  -0.02    -0.04  -0.02  -0.14
    19   1     0.02  -0.11   0.25     0.02   0.07  -0.26     0.01   0.05  -0.19
    20   1     0.01   0.10   0.18     0.08  -0.11  -0.20    -0.17  -0.13  -0.14
    21   1     0.02  -0.20   0.00    -0.07   0.20  -0.09     0.25  -0.05   0.18
    22   1     0.02  -0.02   0.12     0.02   0.04  -0.25    -0.05  -0.10   0.33
    23   1     0.00   0.05  -0.25    -0.02  -0.03   0.16    -0.00  -0.10   0.32
    24   1     0.06   0.20  -0.10    -0.03  -0.22   0.02    -0.30  -0.04   0.16
    25   1    -0.04  -0.11  -0.23     0.01   0.10   0.19     0.16  -0.15  -0.16
    26   1    -0.01   0.07  -0.29    -0.02  -0.11   0.25    -0.04   0.06  -0.23
    27   1     0.09   0.06  -0.04    -0.09  -0.09  -0.00     0.02   0.01  -0.15
                      4                      5                      6
                      A                      A                      A
 Frequencies --    179.9063               240.1329               272.3095
 Red. masses --      3.9690                 3.5576                 3.7256
 Frc consts  --      0.0757                 0.1209                 0.1628
 IR Inten    --      2.9054                 0.2596                 7.0032
  Atom  AN      X      Y      Z        X      Y      Z        X      Y      Z
     1   8    -0.10  -0.12  -0.06    -0.15   0.03  -0.01     0.21  -0.11   0.01
     2   6    -0.02  -0.08   0.08    -0.06   0.03  -0.01     0.03  -0.10   0.05
     3   6     0.03  -0.13   0.19    -0.03  -0.04  -0.02    -0.05   0.04   0.01
     4   6     0.05   0.06  -0.13     0.00  -0.03  -0.02    -0.09   0.02   0.03
     5   6     0.01   0.05  -0.04     0.05   0.06  -0.06    -0.04   0.02  -0.08
     6   9    -0.09   0.25   0.03     0.19   0.09  -0.05     0.11   0.11  -0.05
     7   6     0.03   0.00  -0.04     0.01   0.08  -0.02    -0.01  -0.04  -0.10
     8   6     0.02  -0.02  -0.06    -0.09  -0.01   0.14    -0.02  -0.01   0.04
     9   6     0.04  -0.02   0.03    -0.06  -0.15  -0.03    -0.01   0.01   0.10
    10   6     0.01  -0.02   0.02     0.06  -0.11  -0.08    -0.03   0.14  -0.08
    11   6     0.02  -0.01  -0.03     0.05  -0.01   0.13    -0.13  -0.01   0.04
    12   6     0.03  -0.03   0.00    -0.02   0.06   0.02    -0.03  -0.14   0.03
    13   1    -0.04  -0.12   0.43    -0.05  -0.06  -0.02     0.02   0.10  -0.07
    14   1     0.20  -0.41   0.14    -0.02  -0.04  -0.02    -0.14   0.09   0.01
    15   1     0.19   0.30  -0.08    -0.04  -0.04  -0.02    -0.20  -0.00   0.03
    16   1     0.01   0.04  -0.36     0.04  -0.08   0.00    -0.05  -0.00   0.13
    17   1     0.02  -0.04   0.09     0.09   0.05  -0.05    -0.13  -0.01  -0.04
    18   1     0.04   0.04  -0.03     0.13   0.07  -0.02     0.06   0.01  -0.08
    19   1     0.04   0.02  -0.12    -0.19  -0.15   0.32     0.08  -0.05   0.10
    20   1    -0.01  -0.09  -0.09    -0.13   0.21   0.22    -0.12   0.05   0.05
    21   1     0.11  -0.02   0.04    -0.13  -0.23  -0.06     0.10  -0.14   0.07
    22   1     0.02  -0.03   0.08    -0.06  -0.17  -0.06    -0.04   0.04   0.27
    23   1     0.02  -0.02   0.05     0.04  -0.13  -0.21    -0.12   0.19  -0.34
    24   1    -0.04  -0.01   0.03     0.21  -0.10  -0.08     0.20   0.31  -0.05
    25   1     0.03  -0.05  -0.04     0.02   0.21   0.21    -0.25   0.08   0.08
    26   1     0.01   0.01  -0.05     0.16  -0.13   0.32    -0.20  -0.07   0.11
    27   1     0.10  -0.07  -0.01    -0.10   0.01  -0.00    -0.01  -0.26  -0.01
                      7                      8                      9
                      A                      A                      A
 Frequencies --    296.6690               325.7610               361.2142
 Red. masses --      2.1835                 2.7959                 2.2552
 Frc consts  --      0.1132                 0.1748                 0.1734
 IR Inten    --      1.0493                 3.8655                 0.2302
  Atom  AN      X      Y      Z        X      Y      Z        X      Y      Z
     1   8    -0.03  -0.03  -0.03     0.07  -0.01  -0.02    -0.04   0.08  -0.01
     2   6    -0.02  -0.00   0.08    -0.02   0.01   0.07    -0.03   0.07  -0.05
     3   6    -0.06   0.00  -0.07    -0.02   0.04   0.01     0.01   0.05   0.04
     4   6     0.01  -0.02  -0.02     0.12   0.10  -0.08     0.09   0.09  -0.03
     5   6     0.02   0.04   0.02     0.04   0.01   0.02     0.00  -0.05   0.06
     6   9     0.01  -0.03   0.00     0.16  -0.02   0.02     0.02  -0.06   0.06
     7   6    -0.02   0.10   0.08     0.00  -0.01   0.06     0.01  -0.07  -0.04
     8   6    -0.04   0.01  -0.12    -0.03  -0.04   0.04     0.02  -0.07  -0.07
     9   6     0.05  -0.08   0.07    -0.10   0.01  -0.06     0.04  -0.05   0.05
    10   6     0.04   0.01  -0.07    -0.15  -0.05   0.02    -0.01   0.04  -0.07
    11   6     0.01  -0.01  -0.04    -0.10  -0.03  -0.09    -0.07   0.01   0.09
    12   6     0.00   0.04   0.16    -0.05  -0.01   0.07    -0.05  -0.02  -0.07
    13   1     0.01   0.03  -0.22    -0.02   0.02  -0.04    -0.05  -0.02   0.10
    14   1    -0.23   0.05  -0.08    -0.10  -0.03  -0.02     0.10  -0.01   0.03
    15   1     0.03  -0.06  -0.03     0.40   0.22  -0.07     0.34   0.19  -0.02
    16   1     0.02  -0.04  -0.03     0.02   0.13  -0.38    -0.01   0.16  -0.27
    17   1     0.10   0.06  -0.01     0.02   0.03   0.00    -0.08  -0.05   0.07
    18   1    -0.08   0.24   0.11     0.04   0.03   0.08    -0.05  -0.13  -0.05
    19   1    -0.10   0.16  -0.34    -0.08  -0.04   0.04     0.06   0.01  -0.17
    20   1    -0.07  -0.25  -0.21     0.03  -0.02   0.04    -0.01  -0.19  -0.11
    21   1     0.29  -0.19   0.07    -0.22   0.08  -0.05     0.20  -0.17   0.04
    22   1    -0.05  -0.14   0.30    -0.02   0.06  -0.18     0.00  -0.02   0.24
    23   1     0.02   0.00  -0.20    -0.11  -0.07   0.19    -0.07   0.07  -0.23
    24   1     0.12   0.14  -0.04    -0.32  -0.13   0.01     0.15   0.13  -0.05
    25   1    -0.10  -0.14  -0.09    -0.11  -0.24  -0.16    -0.10   0.27   0.18
    26   1     0.12   0.08  -0.15    -0.07   0.09  -0.26    -0.09  -0.14   0.31
    27   1     0.07   0.06   0.17     0.01   0.03   0.09    -0.14  -0.04  -0.08
                     10                     11                     12
                      A                      A                      A
 Frequencies --    383.5485               436.2982               458.6946
 Red. masses --      3.6872                 2.8939                 2.8816
 Frc consts  --      0.3196                 0.3246                 0.3572
 IR Inten    --      0.3412                 0.5186                 2.6971
  Atom  AN      X      Y      Z        X      Y      Z        X      Y      Z
     1   8    -0.12  -0.01  -0.01    -0.03  -0.05  -0.01    -0.08  -0.11   0.01
     2   6    -0.11   0.00   0.03     0.01  -0.03   0.05     0.03  -0.10   0.05
     3   6    -0.18   0.13   0.02    -0.05   0.01  -0.01    -0.06   0.06  -0.03
     4   6    -0.04   0.11   0.07    -0.03   0.06  -0.07    -0.02   0.07   0.02
     5   6    -0.01   0.06  -0.02    -0.10  -0.04   0.06    -0.02   0.06   0.02
     6   9    -0.00   0.02  -0.04     0.07  -0.06   0.07     0.01  -0.03  -0.00
     7   6     0.09  -0.07   0.02    -0.12   0.00  -0.09     0.06  -0.06   0.00
     8   6     0.20  -0.02   0.04    -0.08   0.15   0.00    -0.00  -0.15  -0.00
     9   6     0.20   0.00  -0.06     0.00   0.07   0.02    -0.10   0.00   0.03
    10   6     0.05  -0.06   0.01     0.17   0.03   0.07    -0.02   0.04   0.01
    11   6    -0.02  -0.14  -0.02     0.11  -0.07  -0.01     0.08   0.19  -0.01
    12   6    -0.06  -0.07   0.01     0.02  -0.04  -0.05     0.14   0.03  -0.07
    13   1    -0.08   0.16  -0.22     0.04   0.09  -0.10     0.13   0.20  -0.30
    14   1    -0.39   0.26   0.02    -0.19  -0.01  -0.04    -0.37   0.18  -0.03
    15   1    -0.10   0.12   0.07     0.29   0.16  -0.06     0.05   0.09   0.02
    16   1     0.01   0.04   0.07    -0.18   0.15  -0.38    -0.03   0.05  -0.06
    17   1    -0.15   0.08  -0.06    -0.14  -0.05   0.07    -0.07   0.09  -0.02
    18   1     0.15  -0.07   0.02    -0.21  -0.04  -0.10     0.10  -0.13  -0.02
    19   1     0.19  -0.08   0.12     0.01   0.04   0.16     0.05  -0.05  -0.15
    20   1     0.29   0.07   0.08    -0.14   0.31   0.06    -0.01  -0.30  -0.06
    21   1     0.17   0.03  -0.06     0.00   0.13   0.04    -0.23   0.04   0.02
    22   1     0.24   0.04  -0.08    -0.08  -0.09  -0.06    -0.01   0.09  -0.09
    23   1    -0.01   0.07   0.12     0.13   0.05  -0.05     0.09  -0.11   0.03
    24   1     0.01  -0.14  -0.01     0.26   0.06   0.07    -0.09   0.07   0.02
    25   1    -0.01  -0.23  -0.05     0.19  -0.16  -0.04     0.13   0.35   0.05
    26   1     0.01  -0.07  -0.11     0.02  -0.01  -0.10     0.04   0.07   0.16
    27   1    -0.09  -0.06   0.01     0.06  -0.13  -0.08     0.24   0.04  -0.06
                     13                     14                     15
                      A                      A                      A
 Frequencies --    495.2897               556.1864               579.1791
 Red. masses --      2.0058                 3.1696                 3.1640
 Frc consts  --      0.2899                 0.5777                 0.6253
 IR Inten    --      0.7357                 5.9810                 3.7091
  Atom  AN      X      Y      Z        X      Y      Z        X      Y      Z
     1   8     0.07  -0.06   0.00    -0.11  -0.01  -0.03    -0.16  -0.05   0.01
     2   6    -0.01  -0.04   0.05     0.05   0.02   0.10     0.14  -0.05  -0.01
     3   6    -0.06  -0.01   0.02     0.11   0.07   0.01     0.23   0.06  -0.10
     4   6     0.04  -0.01   0.02     0.22  -0.00   0.13    -0.08   0.07  -0.04
     5   6     0.04   0.02   0.04     0.13  -0.04  -0.03    -0.11  -0.02  -0.01
     6   9    -0.05  -0.04   0.03    -0.09   0.02  -0.03     0.05   0.00   0.01
     7   6     0.01   0.07  -0.07     0.01   0.01  -0.13    -0.05  -0.03   0.03
     8   6    -0.00   0.11  -0.00    -0.07   0.04  -0.02     0.02   0.03   0.00
     9   6     0.08  -0.05  -0.05    -0.09   0.01   0.02     0.07   0.00  -0.04
    10   6    -0.08  -0.06  -0.05    -0.02   0.01   0.02    -0.09   0.00  -0.04
    11   6    -0.01   0.08  -0.01    -0.04  -0.09   0.01    -0.05  -0.00   0.01
    12   6     0.00   0.04  -0.06     0.00  -0.07   0.00     0.05  -0.04   0.10
    13   1    -0.01  -0.01  -0.11     0.24   0.03  -0.42     0.33   0.23  -0.00
    14   1    -0.19   0.03   0.01    -0.26   0.31   0.02     0.25   0.04  -0.10
    15   1     0.10   0.02   0.02     0.09  -0.02   0.13    -0.11  -0.03  -0.06
    16   1     0.04  -0.05  -0.06     0.25   0.00   0.23    -0.16   0.24   0.10
    17   1     0.07   0.03   0.03     0.10  -0.05  -0.01    -0.15  -0.03   0.01
    18   1    -0.07   0.02  -0.08    -0.04   0.00  -0.12    -0.06   0.06   0.05
    19   1    -0.08  -0.07   0.24    -0.03  -0.02   0.07     0.01  -0.07   0.14
    20   1    -0.03   0.37   0.09    -0.19   0.14   0.01     0.09   0.19   0.06
    21   1     0.32  -0.20  -0.06    -0.14   0.05   0.03     0.28  -0.13  -0.05
    22   1    -0.02  -0.08   0.25    -0.09  -0.02  -0.05    -0.00   0.02   0.23
    23   1    -0.01  -0.07   0.26    -0.06   0.02  -0.14    -0.06   0.03   0.21
    24   1    -0.33  -0.22  -0.08     0.11   0.08   0.03    -0.28  -0.13  -0.07
    25   1    -0.02   0.31   0.07    -0.06  -0.18  -0.03    -0.18   0.05   0.03
    26   1     0.04  -0.07   0.20    -0.10  -0.02  -0.09    -0.04  -0.04   0.06
    27   1     0.09  -0.04  -0.08     0.02  -0.23  -0.05     0.05  -0.01   0.10
                     16                     17                     18
                      A                      A                      A
 Frequencies --    631.1660               734.9671               789.9279
 Red. masses --      5.0339                 2.6325                 1.9848
 Frc consts  --      1.1815                 0.8378                 0.7297
 IR Inten    --      4.1140                 2.9420                 0.1487
  Atom  AN      X      Y      Z        X      Y      Z        X      Y      Z
     1   8     0.02   0.14  -0.12     0.02  -0.03   0.04     0.00   0.01   0.03
     2   6    -0.01   0.22   0.30     0.01  -0.06  -0.11    -0.02  -0.03  -0.12
     3   6    -0.02  -0.02   0.04     0.01  -0.02   0.07    -0.03  -0.01   0.01
     4   6    -0.03  -0.12  -0.05     0.07  -0.02   0.10     0.01  -0.00   0.06
     5   6    -0.09  -0.25  -0.10    -0.04  -0.13  -0.04    -0.02  -0.04  -0.01
     6   9     0.03   0.06  -0.03     0.02   0.09  -0.11    -0.01   0.00  -0.00
     7   6    -0.07  -0.15  -0.06    -0.10  -0.06   0.16     0.03  -0.03  -0.09
     8   6     0.05  -0.08   0.01    -0.04   0.07   0.02    -0.00  -0.08  -0.07
     9   6     0.03   0.01  -0.01     0.01   0.02  -0.01    -0.02  -0.03  -0.06
    10   6     0.00   0.02  -0.01     0.04  -0.00  -0.02     0.01   0.04   0.04
    11   6     0.06   0.10  -0.02     0.03   0.01  -0.02     0.02   0.12   0.07
    12   6     0.03   0.05   0.09    -0.06   0.03  -0.03     0.01   0.02   0.13
    13   1    -0.01  -0.10  -0.18     0.10  -0.07  -0.29    -0.08  -0.09  -0.01
    14   1    -0.35  -0.09  -0.01    -0.18   0.36   0.14     0.09   0.16   0.06
    15   1    -0.08  -0.11  -0.05     0.25   0.26   0.15     0.17   0.14   0.08
    16   1    -0.11   0.01   0.01    -0.04   0.03  -0.22    -0.04  -0.00  -0.16
    17   1    -0.13  -0.34   0.03    -0.04  -0.11  -0.09    -0.11  -0.05   0.00
    18   1    -0.04  -0.12  -0.05    -0.05  -0.04   0.16    -0.02   0.10  -0.05
    19   1     0.16  -0.14   0.09    -0.06   0.19  -0.14     0.01  -0.33   0.28
    20   1     0.07   0.01   0.04     0.13  -0.13  -0.04    -0.04   0.31   0.07
    21   1     0.08  -0.04  -0.02     0.13  -0.06  -0.02     0.16  -0.06  -0.05
    22   1     0.04   0.05   0.07    -0.09  -0.07   0.11    -0.05  -0.00   0.12
    23   1     0.10  -0.06   0.18     0.07  -0.00   0.12     0.05  -0.04  -0.02
    24   1    -0.19  -0.06  -0.03    -0.07  -0.08  -0.03     0.09  -0.02   0.02
    25   1     0.01   0.20   0.02     0.05   0.15   0.03    -0.02  -0.33  -0.09
    26   1     0.11   0.05   0.07     0.02  -0.08   0.10     0.04   0.40  -0.32
    27   1     0.26  -0.06   0.06    -0.15   0.29   0.05    -0.12  -0.02   0.10
                     19                     20                     21
                      A                      A                      A
 Frequencies --    819.6797               844.0639               860.1376
 Red. masses --      2.0389                 3.1911                 1.8355
 Frc consts  --      0.8071                 1.3395                 0.8001
 IR Inten    --      3.8003                 7.3046                 1.7745
  Atom  AN      X      Y      Z        X      Y      Z        X      Y      Z
     1   8     0.01   0.00  -0.00    -0.03   0.10  -0.01    -0.01   0.04  -0.01
     2   6     0.08   0.00   0.01     0.09   0.06  -0.09     0.01   0.02  -0.03
     3   6     0.07  -0.06   0.06    -0.09  -0.05   0.06     0.00  -0.04  -0.01
     4   6    -0.10  -0.07   0.01    -0.09  -0.08   0.01     0.00  -0.04   0.05
     5   6    -0.05  -0.02  -0.01     0.02   0.06   0.02    -0.03   0.05   0.02
     6   9    -0.01  -0.01   0.02    -0.01  -0.00  -0.00    -0.01  -0.00  -0.00
     7   6     0.02   0.11  -0.05     0.07  -0.00  -0.00    -0.02   0.06  -0.05
     8   6     0.06  -0.03   0.02     0.02   0.04  -0.00    -0.06  -0.06   0.04
     9   6     0.07  -0.04   0.02    -0.13   0.12   0.04     0.10  -0.05  -0.00
    10   6    -0.08  -0.04   0.01    -0.09  -0.01  -0.10     0.10   0.09  -0.00
    11   6    -0.06  -0.02   0.03     0.08  -0.14   0.01    -0.04   0.00  -0.05
    12   6    -0.02   0.12  -0.04     0.17  -0.11   0.05     0.03  -0.09   0.05
    13   1     0.27   0.07  -0.26    -0.04  -0.03  -0.05    -0.04  -0.12  -0.04
    14   1    -0.25   0.21   0.08    -0.12   0.16   0.10     0.05   0.08   0.02
    15   1     0.16   0.21   0.06     0.18   0.18   0.06     0.20   0.06   0.06
    16   1    -0.24   0.01  -0.33    -0.09  -0.22  -0.38    -0.04  -0.04  -0.17
    17   1     0.08  -0.04   0.02     0.11   0.07  -0.00    -0.02   0.07  -0.01
    18   1     0.09   0.10  -0.05     0.11   0.05   0.01     0.00   0.12  -0.03
    19   1    -0.02   0.00  -0.03     0.20   0.06  -0.01    -0.11   0.00  -0.05
    20   1    -0.03  -0.07   0.00     0.04   0.04  -0.00    -0.24  -0.16  -0.00
    21   1    -0.18   0.12   0.03     0.12  -0.09   0.02    -0.23  -0.02  -0.03
    22   1     0.23   0.09  -0.23    -0.20   0.18   0.37     0.19  -0.05  -0.31
    23   1    -0.22   0.07  -0.26    -0.03  -0.08   0.01     0.17   0.13   0.43
    24   1     0.18   0.13   0.05    -0.19  -0.10  -0.11    -0.33  -0.01  -0.01
    25   1     0.02  -0.11  -0.00    -0.06  -0.06   0.04    -0.27   0.17   0.01
    26   1     0.04   0.04  -0.05     0.11  -0.20   0.10    -0.15  -0.10   0.10
    27   1    -0.12   0.07  -0.06     0.12  -0.14   0.04     0.05  -0.15   0.03
                     22                     23                     24
                      A                      A                      A
 Frequencies --    865.0543               892.1724               912.6116
 Red. masses --      2.6417                 2.1306                 1.6493
 Frc consts  --      1.1647                 0.9992                 0.8093
 IR Inten    --      4.0845                 4.1749                 3.2940
  Atom  AN      X      Y      Z        X      Y      Z        X      Y      Z
     1   8     0.00   0.03  -0.03     0.02  -0.01   0.01    -0.02   0.01   0.00
     2   6     0.05   0.05   0.06    -0.05  -0.01  -0.01     0.01  -0.00  -0.04
     3   6     0.02  -0.11  -0.01     0.01  -0.07  -0.09    -0.05   0.09   0.03
     4   6     0.03  -0.03   0.02     0.08   0.04   0.10    -0.03  -0.03  -0.04
     5   6    -0.05   0.17   0.11    -0.09   0.05   0.06     0.06  -0.07  -0.00
     6   9     0.01   0.02  -0.08     0.00   0.02  -0.05    -0.00   0.01  -0.02
     7   6    -0.09  -0.04   0.09    -0.05  -0.01  -0.06    -0.00   0.00   0.06
     8   6    -0.04  -0.10  -0.05     0.07   0.00  -0.02    -0.01  -0.00  -0.09
     9   6     0.04   0.00  -0.09     0.01   0.03   0.10     0.02  -0.05   0.02
    10   6    -0.02   0.06   0.08    -0.06  -0.09  -0.04    -0.03  -0.01   0.07
    11   6    -0.04  -0.04   0.04     0.05  -0.02  -0.05    -0.03  -0.01  -0.07
    12   6     0.05   0.00  -0.10    -0.00   0.04   0.07     0.07  -0.04   0.02
    13   1     0.06  -0.11  -0.13    -0.15  -0.25   0.00    -0.04   0.15   0.14
    14   1    -0.18  -0.14  -0.04     0.17  -0.09  -0.07     0.08   0.10   0.05
    15   1     0.13  -0.12   0.00     0.22  -0.07   0.08    -0.03   0.02  -0.03
    16   1     0.08  -0.13  -0.02     0.02   0.09   0.04    -0.01  -0.06  -0.07
    17   1    -0.02   0.27  -0.05    -0.31   0.09  -0.03     0.19  -0.08   0.02
    18   1    -0.20  -0.20   0.05    -0.18   0.08  -0.03    -0.17   0.14   0.09
    19   1    -0.19  -0.27   0.19     0.24  -0.07   0.09    -0.12  -0.23   0.22
    20   1     0.18   0.16   0.06    -0.04   0.12   0.02    -0.00   0.32   0.03
    21   1     0.32   0.01  -0.06    -0.16   0.25   0.13    -0.02   0.28   0.09
    22   1    -0.04  -0.00   0.16     0.15   0.14  -0.13     0.05  -0.11  -0.20
    23   1    -0.14   0.19  -0.08    -0.08  -0.13  -0.22    -0.07  -0.01  -0.18
    24   1     0.19   0.06   0.07    -0.01   0.17   0.02     0.05   0.32   0.14
    25   1     0.15  -0.10   0.02    -0.00   0.19   0.03    -0.01   0.27   0.03
    26   1    -0.25  -0.00  -0.03     0.30  -0.16   0.16    -0.10  -0.19   0.19
    27   1     0.08   0.06  -0.07     0.13   0.05   0.08     0.22   0.16   0.09
                     25                     26                     27
                      A                      A                      A
 Frequencies --    961.4194               972.5285               994.1399
 Red. masses --      2.2369                 2.2852                 1.8320
 Frc consts  --      1.2182                 1.2735                 1.0668
 IR Inten    --     25.8070                 2.3517                 1.5970
  Atom  AN      X      Y      Z        X      Y      Z        X      Y      Z
     1   8     0.01   0.01   0.01     0.00   0.05  -0.02     0.00  -0.01  -0.00
     2   6     0.00  -0.00  -0.05     0.01   0.03   0.01    -0.05   0.00   0.02
     3   6     0.01  -0.12   0.04     0.02  -0.12  -0.03    -0.03   0.01  -0.07
     4   6     0.04   0.11  -0.03    -0.03   0.05   0.04     0.02   0.03   0.07
     5   6    -0.01   0.03  -0.16    -0.06   0.03  -0.03    -0.04  -0.10  -0.05
     6   9     0.01  -0.04   0.13     0.00  -0.01   0.03    -0.01   0.01   0.01
     7   6    -0.01  -0.01   0.02     0.10  -0.03   0.04     0.07   0.06   0.01
     8   6    -0.05  -0.07  -0.04     0.06   0.14  -0.02    -0.07   0.01   0.04
     9   6     0.01   0.05  -0.00    -0.07  -0.10  -0.01     0.05   0.00  -0.07
    10   6    -0.00   0.04   0.00     0.05  -0.06   0.07    -0.08   0.03   0.03
    11   6     0.05  -0.07  -0.04    -0.11   0.08  -0.04     0.03  -0.04   0.02
    12   6    -0.02   0.03   0.02     0.04  -0.07  -0.01     0.10  -0.01  -0.03
    13   1     0.06  -0.22  -0.31    -0.02  -0.25  -0.19    -0.23  -0.18   0.08
    14   1    -0.30  -0.02   0.02    -0.09  -0.04  -0.03     0.20  -0.04  -0.06
    15   1    -0.39   0.23   0.00    -0.03   0.14   0.06     0.11   0.01   0.07
    16   1     0.15   0.04   0.22    -0.07   0.09   0.00    -0.12   0.19   0.01
    17   1    -0.10  -0.01  -0.09    -0.20   0.03  -0.04    -0.14  -0.11  -0.03
    18   1     0.07   0.21   0.07     0.25   0.00   0.04     0.31   0.11   0.03
    19   1    -0.07  -0.20   0.14     0.05   0.16  -0.06    -0.31   0.11  -0.10
    20   1    -0.07   0.13   0.03     0.26   0.09  -0.03    -0.04  -0.13  -0.01
    21   1     0.10   0.11   0.02    -0.00   0.05   0.04     0.09  -0.09  -0.08
    22   1     0.01   0.07   0.05    -0.24  -0.40  -0.11     0.06   0.08   0.06
    23   1    -0.02   0.10   0.05     0.12  -0.23  -0.14    -0.27   0.26  -0.08
    24   1    -0.09   0.10   0.02     0.11   0.10   0.10     0.15  -0.01   0.01
    25   1     0.03   0.14   0.04    -0.16   0.11  -0.03     0.30  -0.06   0.02
    26   1     0.10  -0.19   0.14    -0.33   0.05  -0.01    -0.06  -0.04   0.01
    27   1    -0.11   0.23   0.08     0.14  -0.06   0.00     0.37  -0.01  -0.01
                     28                     29                     30
                      A                      A                      A
 Frequencies --   1026.2768              1058.7594              1064.9993
 Red. masses --      2.3399                 1.5439                 2.3057
 Frc consts  --      1.4520                 1.0197                 1.5408
 IR Inten    --      1.2058                 2.7109                21.6470
  Atom  AN      X      Y      Z        X      Y      Z        X      Y      Z
     1   8    -0.02   0.03   0.01     0.00   0.01  -0.01     0.01  -0.00   0.00
     2   6     0.11  -0.01  -0.09    -0.05   0.01  -0.01    -0.03   0.00   0.00
     3   6    -0.10  -0.04   0.06     0.03  -0.04  -0.02     0.01  -0.08  -0.02
     4   6     0.05   0.07  -0.06    -0.04   0.06  -0.00    -0.08   0.10   0.01
     5   6    -0.01  -0.02   0.03     0.07  -0.02   0.01     0.07  -0.09   0.16
     6   9     0.01   0.00  -0.02     0.00   0.00  -0.00    -0.00   0.02  -0.09
     7   6    -0.04  -0.09  -0.00    -0.09   0.05   0.04     0.10   0.01  -0.01
     8   6    -0.04   0.11   0.03     0.03  -0.02   0.02     0.01   0.00  -0.05
     9   6     0.10  -0.07   0.02     0.03   0.02   0.02    -0.06  -0.05   0.01
    10   6    -0.10  -0.01  -0.03    -0.01  -0.04  -0.02     0.01   0.10  -0.01
    11   6    -0.00   0.05   0.07     0.01   0.06   0.02     0.02  -0.09   0.02
    12   6     0.11  -0.00   0.03     0.02  -0.09  -0.02     0.01   0.07  -0.01
    13   1    -0.05  -0.01  -0.03    -0.08  -0.24  -0.14     0.01  -0.10  -0.09
    14   1    -0.27  -0.16   0.01     0.04   0.13   0.02    -0.18  -0.19  -0.07
    15   1    -0.24  -0.08  -0.08    -0.23   0.32   0.06    -0.14   0.09   0.02
    16   1     0.27  -0.14   0.20    -0.13   0.22   0.06    -0.29   0.44   0.16
    17   1    -0.17  -0.03   0.03     0.41  -0.01   0.01     0.19  -0.12   0.21
    18   1    -0.23  -0.21  -0.04    -0.33  -0.04   0.01    -0.08  -0.03  -0.02
    19   1    -0.06   0.22  -0.12    -0.01  -0.02   0.01     0.09  -0.07   0.06
    20   1    -0.21  -0.09  -0.05    -0.04  -0.03   0.01    -0.09   0.12  -0.01
    21   1    -0.23  -0.01  -0.00    -0.04  -0.02   0.01    -0.15  -0.15  -0.03
    22   1     0.19  -0.05  -0.26     0.18   0.27   0.06    -0.12  -0.17  -0.07
    23   1    -0.20   0.13  -0.06     0.08  -0.21  -0.10    -0.04   0.24   0.22
    24   1    -0.02   0.05  -0.01     0.10  -0.14  -0.05    -0.21   0.07  -0.01
    25   1    -0.06  -0.19  -0.02     0.09  -0.06  -0.03    -0.07  -0.05   0.03
    26   1     0.12   0.19  -0.11    -0.16   0.12  -0.07     0.12  -0.10   0.04
    27   1    -0.01  -0.03   0.01     0.17  -0.24  -0.06    -0.12   0.14   0.02
                     31                     32                     33
                      A                      A                      A
 Frequencies --   1071.6228              1087.2401              1104.8569
 Red. masses --      1.3370                 1.5082                 2.7976
 Frc consts  --      0.9046                 1.0504                 2.0121
 IR Inten    --      0.3587                 7.3109                 1.3780
  Atom  AN      X      Y      Z        X      Y      Z        X      Y      Z
     1   8     0.00   0.00  -0.00     0.01  -0.01   0.00    -0.01   0.00  -0.00
     2   6    -0.02   0.01   0.02    -0.03  -0.00   0.02     0.00   0.00  -0.01
     3   6     0.03  -0.01  -0.02     0.02  -0.00  -0.05     0.01   0.03   0.04
     4   6    -0.04  -0.00   0.01    -0.03  -0.01   0.01     0.06  -0.02  -0.02
     5   6     0.03   0.02   0.01     0.06   0.06  -0.06    -0.08  -0.01  -0.03
     6   9    -0.00  -0.00  -0.00    -0.00  -0.01   0.03     0.00   0.00   0.01
     7   6     0.04  -0.05   0.02    -0.07  -0.07  -0.03    -0.08   0.13   0.04
     8   6    -0.07   0.02  -0.00     0.04   0.03   0.02     0.16   0.01  -0.01
     9   6     0.04   0.01  -0.01    -0.02  -0.06  -0.03    -0.07  -0.14  -0.03
    10   6    -0.04   0.01  -0.00    -0.02   0.04   0.03    -0.09   0.13   0.02
    11   6     0.07   0.03  -0.01     0.01  -0.02  -0.00     0.16   0.01   0.02
    12   6    -0.06  -0.04   0.01    -0.00   0.06   0.04    -0.05  -0.14  -0.05
    13   1     0.03  -0.03  -0.02    -0.03  -0.05   0.01    -0.01  -0.01  -0.02
    14   1     0.06   0.07   0.01     0.26   0.27   0.05    -0.09  -0.08   0.00
    15   1    -0.01   0.11   0.03    -0.08   0.30   0.08     0.07  -0.20  -0.05
    16   1    -0.06   0.01  -0.05     0.05  -0.18  -0.15     0.03   0.04   0.08
    17   1     0.08   0.03   0.01     0.15   0.08  -0.08    -0.03   0.02  -0.07
    18   1     0.19  -0.34  -0.06    -0.19  -0.24  -0.08    -0.09   0.32   0.09
    19   1    -0.38   0.02  -0.03     0.30   0.08  -0.04     0.07  -0.00   0.01
    20   1     0.16  -0.00   0.00     0.06  -0.07  -0.02     0.35   0.03   0.01
    21   1     0.16   0.30   0.07    -0.08  -0.19  -0.07    -0.18  -0.22  -0.06
    22   1     0.01  -0.06  -0.05    -0.15  -0.29  -0.08    -0.03  -0.10  -0.07
    23   1    -0.02  -0.04  -0.07    -0.20   0.32   0.07    -0.03   0.04   0.03
    24   1    -0.15   0.30   0.07     0.00   0.05   0.03    -0.25   0.33   0.07
    25   1    -0.12   0.01  -0.02     0.13   0.03   0.02     0.24  -0.05   0.01
    26   1     0.41   0.03   0.01     0.14  -0.04   0.04     0.10   0.03  -0.01
    27   1    -0.19  -0.36  -0.09     0.23  -0.02   0.02    -0.26  -0.28  -0.10
                     34                     35                     36
                      A                      A                      A
 Frequencies --   1149.4465              1155.2449              1176.2293
 Red. masses --      2.3587                 2.1333                 2.3805
 Frc consts  --      1.8361                 1.6774                 1.9405
 IR Inten    --     27.9630                 2.4631                41.4927
  Atom  AN      X      Y      Z        X      Y      Z        X      Y      Z
     1   8    -0.02  -0.03  -0.00    -0.00   0.00   0.02    -0.02   0.03  -0.01
     2   6     0.15   0.01   0.05     0.02  -0.03  -0.09     0.14   0.01   0.00
     3   6    -0.11   0.01  -0.10    -0.04   0.00   0.06    -0.04  -0.05  -0.05
     4   6    -0.01   0.04   0.13     0.05   0.03  -0.05    -0.06   0.05   0.08
     5   6     0.06  -0.06  -0.12    -0.02  -0.04   0.05     0.11   0.00   0.02
     6   9    -0.01   0.01   0.04    -0.00  -0.00  -0.02    -0.01   0.00  -0.01
     7   6    -0.08   0.03   0.03    -0.09   0.10  -0.10    -0.02  -0.04  -0.07
     8   6     0.03  -0.03  -0.01     0.02  -0.07   0.10    -0.00   0.00   0.06
     9   6    -0.02  -0.01   0.03    -0.03   0.03  -0.08     0.01   0.01  -0.08
    10   6     0.03   0.01  -0.03     0.03  -0.03   0.07    -0.03  -0.01   0.09
    11   6    -0.03  -0.04   0.05    -0.04  -0.03  -0.06     0.04   0.06  -0.11
    12   6     0.05   0.09  -0.06     0.05   0.07   0.08    -0.12  -0.09   0.08
    13   1    -0.23   0.01   0.24    -0.05  -0.06  -0.06     0.06   0.18   0.13
    14   1     0.07  -0.36  -0.17    -0.11   0.01   0.05    -0.14  -0.39  -0.14
    15   1     0.15   0.08   0.12    -0.12  -0.09  -0.07     0.10   0.06   0.07
    16   1    -0.05   0.03  -0.10     0.03   0.13   0.18    -0.04  -0.03  -0.09
    17   1     0.18   0.04  -0.25     0.12  -0.10   0.15     0.05  -0.01   0.04
    18   1    -0.09  -0.15  -0.02     0.08  -0.15  -0.16    -0.04   0.18  -0.00
    19   1    -0.03  -0.06   0.04     0.01   0.07  -0.09     0.00   0.10  -0.08
    20   1     0.23   0.03   0.02     0.47  -0.26   0.05    -0.14  -0.15  -0.00
    21   1     0.03   0.15   0.07     0.30   0.10  -0.02     0.08  -0.18  -0.12
    22   1    -0.01  -0.02  -0.03    -0.18  -0.10   0.13     0.01   0.08   0.11
    23   1     0.13  -0.12   0.05    -0.01  -0.02  -0.07    -0.08  -0.01  -0.15
    24   1    -0.19   0.11  -0.00     0.06   0.16   0.11     0.24  -0.01   0.07
    25   1    -0.38  -0.14   0.01    -0.26   0.13  -0.00     0.35   0.28  -0.02
    26   1    -0.05   0.04  -0.06     0.03  -0.11   0.08    -0.05  -0.09   0.09
    27   1    -0.25  -0.02  -0.11     0.16  -0.24  -0.02    -0.28   0.14   0.14
                     37                     38                     39
                      A                      A                      A
 Frequencies --   1205.2433              1242.4473              1258.2999
 Red. masses --      1.2663                 1.4265                 1.3591
 Frc consts  --      1.0837                 1.2974                 1.2679
 IR Inten    --      3.8966                 8.1030                 2.7593
  Atom  AN      X      Y      Z        X      Y      Z        X      Y      Z
     1   8     0.00   0.01   0.00     0.02   0.03   0.00    -0.00  -0.03   0.01
     2   6    -0.03  -0.01  -0.03    -0.11  -0.02  -0.07     0.01   0.00   0.02
     3   6     0.02   0.04   0.04     0.03  -0.03   0.02     0.01   0.06   0.03
     4   6     0.00  -0.03   0.02    -0.02   0.00   0.04     0.00  -0.04  -0.03
     5   6    -0.01   0.03  -0.05     0.04   0.00  -0.05    -0.01   0.06  -0.01
     6   9    -0.00   0.00   0.02    -0.00   0.01   0.02    -0.00  -0.01   0.01
     7   6    -0.01  -0.02   0.02    -0.01  -0.02  -0.01    -0.01  -0.06  -0.05
     8   6    -0.04  -0.02   0.00     0.02   0.03  -0.01     0.00   0.04   0.02
     9   6     0.03   0.04   0.01    -0.01  -0.03   0.00     0.01  -0.03  -0.04
    10   6    -0.00  -0.05  -0.01    -0.01   0.03   0.01    -0.03   0.03   0.02
    11   6    -0.02   0.05  -0.00     0.01  -0.04   0.00     0.04  -0.03   0.01
    12   6     0.02  -0.05  -0.01     0.01   0.04   0.06     0.02   0.01   0.03
    13   1    -0.02  -0.06  -0.05     0.33   0.38   0.02    -0.27  -0.39  -0.10
    14   1    -0.20  -0.24  -0.05    -0.20  -0.26  -0.06     0.02   0.09   0.04
    15   1     0.20  -0.27  -0.04     0.20  -0.20  -0.01     0.05  -0.11  -0.04
    16   1    -0.25   0.35   0.06    -0.11   0.12  -0.01    -0.17   0.23   0.04
    17   1     0.35   0.12  -0.17    -0.04   0.12  -0.26     0.23   0.06   0.01
    18   1     0.05   0.04   0.04    -0.10  -0.33  -0.10     0.07  -0.14  -0.08
    19   1     0.35  -0.02   0.03    -0.20   0.03  -0.02    -0.04   0.10  -0.06
    20   1    -0.10  -0.01   0.00     0.03   0.02  -0.02    -0.08  -0.03  -0.02
    21   1     0.05   0.08   0.02    -0.08  -0.09  -0.02     0.01  -0.04  -0.05
    22   1    -0.15  -0.27  -0.09     0.14   0.21   0.04     0.12   0.16   0.03
    23   1    -0.18   0.22   0.01     0.12  -0.16  -0.02     0.16  -0.29  -0.10
    24   1     0.07  -0.06  -0.02    -0.03   0.02   0.01    -0.11   0.20   0.06
    25   1    -0.02  -0.00  -0.02     0.04  -0.00   0.02    -0.03  -0.02   0.02
    26   1     0.23   0.07  -0.02    -0.18  -0.06   0.02    -0.26  -0.04   0.01
    27   1    -0.01  -0.01   0.00     0.27  -0.10   0.02    -0.19   0.41   0.14
                     40                     41                     42
                      A                      A                      A
 Frequencies --   1271.4434              1281.1850              1322.2842
 Red. masses --      1.4290                 1.4250                 1.2570
 Frc consts  --      1.3610                 1.3781                 1.2949
 IR Inten    --      1.8592                 5.1657                 0.9041
  Atom  AN      X      Y      Z        X      Y      Z        X      Y      Z
     1   8     0.01   0.01  -0.01    -0.01  -0.00   0.01     0.00   0.00  -0.00
     2   6    -0.07   0.00   0.00     0.08  -0.01  -0.02    -0.02   0.00   0.00
     3   6     0.01  -0.03  -0.02    -0.02   0.02   0.02     0.02   0.02   0.00
     4   6    -0.01   0.01   0.02     0.00   0.00  -0.01    -0.01  -0.02   0.00
     5   6     0.05   0.01   0.02    -0.00   0.02   0.01     0.02   0.02  -0.01
     6   9    -0.01  -0.01  -0.01    -0.00  -0.00  -0.00    -0.00  -0.00   0.01
     7   6    -0.06  -0.01  -0.06    -0.03  -0.01  -0.03    -0.02  -0.02  -0.06
     8   6    -0.04  -0.01   0.05    -0.00   0.01  -0.05     0.05   0.01   0.02
     9   6     0.03  -0.01   0.00    -0.01  -0.02   0.10    -0.04  -0.01   0.02
    10   6    -0.03   0.00  -0.08     0.01   0.02  -0.07     0.03   0.00   0.01
    11   6     0.03  -0.00   0.08    -0.02   0.01  -0.01    -0.05   0.02   0.02
    12   6     0.02  -0.04  -0.02    -0.06   0.01   0.06     0.01  -0.08  -0.04
    13   1     0.20   0.26   0.05    -0.13  -0.16  -0.04    -0.01  -0.05  -0.04
    14   1    -0.01  -0.06  -0.03    -0.03  -0.03   0.00    -0.05  -0.10  -0.04
    15   1    -0.01   0.11   0.04     0.02  -0.05  -0.02    -0.00   0.04   0.02
    16   1     0.04  -0.07  -0.01    -0.03   0.06   0.03    -0.02  -0.01  -0.03
    17   1     0.00  -0.07   0.14     0.14  -0.02   0.08    -0.04   0.01  -0.01
    18   1     0.17   0.26   0.02     0.30  -0.17  -0.07    -0.19   0.12  -0.03
    19   1     0.17   0.05  -0.02    -0.22  -0.07   0.05    -0.47   0.04  -0.05
    20   1     0.22  -0.11   0.03     0.41   0.10   0.00     0.25  -0.03   0.02
    21   1     0.19   0.35   0.10    -0.13   0.12   0.12    -0.06  -0.04   0.02
    22   1    -0.08  -0.24  -0.12     0.04  -0.03  -0.09     0.01   0.09   0.07
    23   1     0.07  -0.12  -0.01    -0.03   0.15   0.12    -0.03   0.11   0.08
    24   1    -0.23   0.16  -0.03     0.05  -0.33  -0.15     0.08  -0.09  -0.00
    25   1     0.16  -0.15   0.02     0.49   0.04   0.01    -0.20  -0.06  -0.01
    26   1    -0.25   0.09  -0.07    -0.16  -0.01  -0.00     0.50   0.06  -0.00
    27   1     0.11   0.35   0.11     0.14  -0.05   0.04     0.18   0.46   0.13
                     43                     44                     45
                      A                      A                      A
 Frequencies --   1334.3811              1346.1069              1348.8540
 Red. masses --      1.2476                 1.3287                 1.3737
 Frc consts  --      1.3089                 1.4185                 1.4726
 IR Inten    --      4.7830                 1.4371                11.3356
  Atom  AN      X      Y      Z        X      Y      Z        X      Y      Z
     1   8     0.01   0.01  -0.00     0.00   0.00  -0.01    -0.01   0.01  -0.00
     2   6    -0.04  -0.00  -0.00    -0.01   0.02   0.04     0.07   0.00  -0.01
     3   6     0.01   0.01  -0.02    -0.05  -0.10  -0.01    -0.05  -0.06   0.01
     4   6     0.03  -0.01   0.02     0.00   0.05  -0.02    -0.01   0.06  -0.00
     5   6    -0.04   0.02   0.01     0.02  -0.03   0.01     0.01  -0.00   0.01
     6   9     0.00  -0.01  -0.01    -0.00   0.01   0.01    -0.00   0.00   0.00
     7   6    -0.07  -0.02   0.01    -0.02   0.02  -0.03    -0.03  -0.05   0.01
     8   6    -0.04   0.03  -0.05    -0.01   0.00  -0.01    -0.00   0.01  -0.01
     9   6     0.01  -0.02   0.01    -0.00  -0.01   0.02     0.01  -0.00  -0.03
    10   6    -0.00  -0.01   0.04    -0.01  -0.01   0.01     0.01   0.02   0.01
    11   6     0.02   0.01  -0.02     0.04   0.02  -0.02    -0.06  -0.02   0.04
    12   6     0.04  -0.01  -0.01     0.04  -0.04   0.00    -0.07   0.02  -0.04
    13   1     0.09   0.15   0.04     0.12   0.19   0.11     0.03   0.04   0.02
    14   1    -0.03  -0.17  -0.07     0.21   0.50   0.17     0.10   0.26   0.10
    15   1    -0.05   0.23   0.08     0.08  -0.31  -0.10     0.13  -0.30  -0.08
    16   1     0.09  -0.09   0.02    -0.05   0.15   0.08     0.01   0.06   0.05
    17   1     0.28  -0.13   0.27     0.01   0.16  -0.29     0.21   0.02  -0.01
    18   1     0.51  -0.02   0.01     0.10  -0.08  -0.05     0.27   0.26   0.10
    19   1     0.19  -0.03   0.03    -0.01  -0.00  -0.00     0.08  -0.01   0.02
    20   1     0.15   0.11  -0.02     0.19   0.02   0.01    -0.10   0.01  -0.02
    21   1    -0.18  -0.26  -0.07    -0.06  -0.01   0.02    -0.01  -0.13  -0.06
    22   1     0.19   0.26   0.04     0.04   0.04   0.00     0.07   0.10   0.01
    23   1    -0.04   0.04  -0.00    -0.13   0.17   0.02     0.19  -0.24  -0.01
    24   1     0.12  -0.04   0.03     0.12  -0.15  -0.03    -0.10   0.19   0.06
    25   1    -0.28   0.03  -0.01    -0.17   0.05  -0.02     0.09  -0.08   0.02
    26   1     0.08  -0.01   0.01    -0.09  -0.00  -0.00     0.35   0.03  -0.00
    27   1    -0.08   0.04   0.00    -0.32   0.21   0.06     0.46  -0.08  -0.05
                     46                     47                     48
                      A                      A                      A
 Frequencies --   1364.1968              1382.8357              1389.8722
[...]
 8756,0.00022000,-0.00012472,-0.00006498,-0.00007292,-0.00007415,-0.000
 16164,-0.00007144,-0.00019064,0.00346602,-0.00493189,-0.00011616,0.000
 37585,-0.00036809,0.00053680,0.00075475,0.05649761,0.00000753,0.000044
 42,-0.00010573,0.00005445,-0.00009458,0.00032672,-0.00000249,0.0000153
 1,-0.00005837,0.00012276,0.00015871,0.00001730,-0.00177602,-0.00012928
 ,-0.00132758,0.00109061,-0.00185738,0.00085312,-0.00005646,0.00146460,
 -0.00127344,-0.11636229,-0.00008715,-0.22657862,0.00009139,-0.00076502
 ,-0.00050187,0.00047181,0.00022024,0.00079295,-0.00001586,-0.00004536,
 0.00007812,0.00045877,-0.00006672,0.00088597,0.00000167,0.00001324,0.0
 0000515,-0.00003014,0.00000134,0.00002927,0.00006920,-0.00001375,0.000
 04861,-0.00002604,0.00009679,-0.00000343,-0.00000292,0.00005130,0.0000
 1441,0.00008848,-0.00001030,0.00128018,-0.01432146,0.00005111,-0.02137
 894,0.13022911,0.00172240,0.24433755,0.00011081,-0.00004474,0.00002448
 ,-0.00005392,0.00012637,-0.00006743,-0.00000850,0.00000195,0.00002648,
 -0.00004092,-0.00002790,-0.00003339,-0.00023651,0.00009803,-0.00008679
 ,0.00027182,-0.00021094,0.00027134,0.00034327,0.00127467,0.00018521,-0
 .01146045,-0.00172288,-0.01762320,-0.10815982,-0.00300881,-0.10576183,
 0.01078864,0.00099664,0.02170040,0.00142449,-0.00059409,0.00015010,-0.
 00006440,-0.00009000,0.00008268,0.00001394,-0.00000320,-0.00000463,-0.
 00001138,0.00000884,0.00000968,0.00001701,-0.00000440,0.00000560,0.000
 00801,-0.00002581,-0.00000858,-0.00000135,0.00000423,0.00001279,0.0006
 6515,-0.00047831,0.00031602,0.00025126,0.00058283,0.00018042,-0.001248
 50,-0.00396921,0.00044417,0.11880788,0.00010548,0.00004486,0.00003045,
 -0.00006408,-0.00002162,-0.00006582,0.00000056,0.00000860,0.00000642,0
 .00003028,0.00001683,-0.00001347,-0.00051720,0.00020920,-0.00010558,0.
 00038116,-0.00033984,0.00030673,-0.00072733,0.00192521,-0.00118962,-0.
 01519817,-0.00275119,-0.02561498,-0.00276540,-0.05185774,-0.00934837,0
 .00051819,-0.00049380,0.00130951,-0.00052779,0.00009398,-0.00080856,0.
 00005472,-0.00024825,0.00003914,0.00000783,0.00000720,-0.00000265,-0.0
 0000831,0.00000816,0.00000926,0.00002217,-0.00002197,0.00001720,0.0000
 0549,0.00001982,0.00000093,0.00002973,0.00002694,0.00000084,0.00048889
 ,-0.00036868,0.00052892,0.00071424,0.00116547,0.00041881,-0.00323476,-
 0.00451614,-0.00012380,0.00802071,0.05405109,0.00012796,-0.00006421,0.
 00004166,-0.00018271,0.00005353,-0.00001824,0.00003311,-0.00004256,-0.
 00000342,-0.00004655,-0.00003005,-0.00006654,0.00000056,-0.00026668,0.
 00008426,0.00017327,0.00009830,0.00019234,0.00003335,0.00036030,-0.000
 06696,-0.00026798,-0.00001474,-0.00014151,-0.10575029,-0.00974594,-0.2
 3866056,-0.01183325,-0.00032715,-0.02455725,-0.00155014,0.00061528,0.0
 0069952,0.00029696,-0.00017461,0.00005446,-0.00000291,-0.00002057,-0.0
 0000243,0.00000139,0.00000647,0.00000689,0.00000503,-0.00000543,0.0000
 1888,0.00000858,-0.00001944,0.00000711,0.00000806,0.00001912,-0.000004
 91,0.00031787,-0.00063939,0.00018225,-0.00024343,-0.00045673,0.0008812
 3,0.00009516,0.00022538,0.00135540,0.11442821,0.00973934,0.26242434,0.
 00021475,0.00023116,0.00001225,-0.00015333,-0.00011960,-0.00009603,-0.
 00003953,0.00011915,0.00004640,-0.00038302,-0.00029047,-0.00003488,0.0
 0105217,-0.00090805,0.00012173,-0.00000165,0.00011413,-0.00008357,-0.0
 0260792,-0.00307484,-0.00011422,0.01253414,-0.01766642,0.00115870,-0.1
 3874619,0.12310733,-0.01018045,-0.01324841,0.01812646,-0.00258719,-0.0
 0218787,-0.00176201,0.00468703,-0.00032390,-0.00054050,-0.00002139,0.0
 0003214,0.00003587,-0.00002065,-0.00000016,0.00001003,-0.00000653,-0.0
 0000701,0.00001751,-0.00000353,0.00009661,-0.00015572,-0.00002314,0.00
 005603,0.00004746,0.00002413,0.00000639,-0.00001865,0.00016207,0.00078
 796,0.00086124,0.00005712,0.00090477,0.00081184,0.00003289,-0.00978848
 ,0.01271512,-0.00109001,0.15069384,0.00029293,-0.00005703,0.00003674,-
 0.00027373,0.00027013,-0.00005086,-0.00002416,0.00003511,0.00007290,-0
 .00062731,-0.00039549,-0.00010365,0.00208051,-0.00083772,0.00014564,-0
 .00028358,-0.00000054,-0.00031666,-0.00560295,-0.00309356,-0.00020092,
 0.01659193,-0.02289233,0.00189302,0.12242823,-0.21611241,0.01221247,-0
 .00116111,0.00169583,-0.00040692,-0.00031567,0.00105820,-0.00009239,-0
 .00035521,0.00025393,0.00033565,0.00004254,-0.00001185,-0.00002818,-0.
 00001190,0.00001191,-0.00000320,0.00001009,0.00003094,0.00000622,0.000
 13520,-0.00025916,-0.00001865,-0.00000644,0.00001611,0.00005847,-0.000
 13856,0.00032852,0.00012055,0.00000555,0.00082702,0.00053841,0.0001664
 2,0.00110893,-0.00056030,-0.00103226,0.00176052,0.00074531,-0.13219504
 ,0.23558900,-0.00013498,-0.00015247,0.00003672,0.00010522,0.00003523,0
 .00004815,0.00002714,-0.00005803,-0.00001700,0.00002990,0.00001310,-0.
 00005949,-0.00008425,-0.00004303,0.00034763,0.00005786,0.00011304,0.00
 007670,0.00008386,0.00018356,0.00036748,0.00025589,-0.00152542,-0.0007
 5740,-0.01068634,0.01293013,-0.05114408,0.01596457,-0.02233364,0.00119
 191,0.00282667,0.00154721,-0.00413359,0.00007284,0.00055167,0.00004619
 ,-0.00001718,-0.00002177,0.00000462,-0.00000002,-0.00000922,-0.0000002
 5,-0.00000843,0.00000641,0.00000947,-0.00001330,0.00000857,0.00000610,
 -0.00002823,-0.00001701,-0.00000651,0.00031264,-0.00038477,0.00021374,
 -0.00025770,0.00022506,-0.00002795,0.00046836,-0.00018209,0.00023041,-
 0.01710801,0.02410322,-0.00146440,0.00844083,-0.01370505,0.05288604,-0
 .00000842,-0.00016791,0.00001137,0.00106495,0.00089481,0.00000921,-0.0
 0030986,0.00030970,-0.00000777,-0.00011316,-0.00006210,0.00001154,0.00
 012309,0.00002692,-0.00005738,0.00004501,-0.00012093,-0.00003545,-0.00
 041261,0.00044224,0.00017918,-0.00214740,0.00158854,0.00454633,-0.0133
 0384,-0.01812158,-0.00291270,-0.13707680,-0.12230444,-0.01274398,0.012
 55662,0.01770916,0.00157233,-0.00249546,0.00304192,-0.00017917,0.00008
 475,0.00014104,-0.00002397,-0.00001495,-0.00000550,0.00000633,0.000005
 56,0.00000573,-0.00001408,0.00003371,-0.00004493,-0.00002173,0.0000911
 5,0.00007680,-0.00002356,0.00006574,-0.00007772,-0.00001792,-0.0006747
 6,-0.00155845,0.00025787,0.00036658,0.00047190,-0.00001190,0.00113532,
 0.00031042,0.00002086,0.00015108,0.00029816,-0.00068047,0.14891536,0.0
 0061463,0.00003152,-0.00002270,-0.00243960,-0.00050541,0.00017755,0.00
 055043,-0.00049430,0.00000498,0.00007225,0.00006418,-0.00010977,0.0000
 9226,0.00015611,0.00006174,-0.00011696,-0.00003121,-0.00003384,0.00044
 660,0.00035699,-0.00045649,0.00029462,0.00112547,0.00019519,0.00075694
 ,0.00106977,0.00036070,-0.12182130,-0.21712584,-0.01603730,-0.01631796
 ,-0.02274120,-0.00248420,0.00560898,-0.00338576,0.00030894,-0.00011194
 ,-0.00024707,0.00000394,-0.00000771,0.00000181,-0.00000363,-0.00000038
 ,0.00000832,0.00002462,-0.00004498,-0.00001620,0.00002769,-0.00008994,
 -0.00003891,0.00001829,-0.00004772,-0.00002536,0.00009379,0.00002022,0
 .00003104,-0.00016699,-0.00000571,-0.00004174,-0.00006584,0.00003705,0
 .00014111,0.00043895,-0.00029409,0.00053705,0.00039234,0.13148201,0.23
 667058,0.00009944,-0.00007766,-0.00010178,-0.00016228,0.00009697,0.000
 43087,-0.00000202,-0.00003904,-0.00008978,0.00007652,0.00002790,0.0000
 2426,-0.00011975,0.00001894,-0.00003460,-0.00001574,0.00002941,0.00008
 463,0.00012831,-0.00044887,-0.00007306,0.00287808,-0.00133792,-0.00407
 324,0.01597969,0.02236390,0.00154996,-0.01336226,-0.01682333,-0.051854
 89,-0.00012589,0.00115289,-0.00073940,0.00021748,-0.00037530,0.0006202
 6,-0.00001586,-0.00001087,0.00000806,-0.00000435,-0.00002441,0.0000039
 6,-0.00000002,-0.00000338,0.00000512,-0.00002239,0.00002904,0.00000783
 ,-0.00005584,-0.00006193,0.00003259,-0.00004705,0.00003928,-0.00001762
 ,0.00099515,0.00130634,0.00007554,0.00028008,0.00007219,0.00018649,-0.
 00084030,0.00027860,0.00097497,-0.00067475,-0.00038975,0.00085833,0.01
 125288,0.01795917,0.05373244,0.00030014,0.00026119,0.00008216,-0.00039
 873,-0.00007784,0.00025068,0.00001185,0.00003798,-0.00005802,-0.000012
 06,0.00000376,0.00002551,0.00000885,-0.00006838,-0.00007479,0.00005261
 ,0.00001884,0.00002451,-0.00012348,0.00007131,0.00015089,0.00135897,0.
 00055623,0.00018808,0.01082373,-0.00136783,0.02175061,-0.10819708,0.00
 508188,-0.10575912,-0.01140915,0.00189424,-0.01782099,0.00035640,-0.00
 140931,0.00025806,0.00000679,0.00001871,-0.00001193,0.00000799,0.00000
 587,-0.00000009,-0.00000573,-0.00000517,0.00000431,0.00001809,0.000006
 28,-0.00000825,0.00003625,0.00002205,-0.00000256,-0.00013936,0.0000108
 2,-0.00000396,0.00008990,0.00031047,-0.00023906,-0.00015447,0.00003084
 ,-0.00040307,-0.00256108,-0.00050529,0.00432420,0.00114690,-0.00000887
 ,-0.00084254,-0.00969598,0.00134898,-0.01698165,0.11880747,-0.00048327
 ,-0.00035191,-0.00012147,0.00080475,0.00000059,-0.00035301,-0.00005842
 ,0.00004930,0.00006964,-0.00000174,-0.00001766,0.00000021,0.00002303,-
 0.00000973,0.00014737,-0.00005377,0.00005611,-0.00010467,-0.00001932,-
 0.00023995,-0.00002057,0.00055128,0.00010682,0.00080378,-0.00013851,-0
 .00049410,-0.00072607,0.00493410,-0.05232119,0.01304461,0.01480004,-0.
 00292639,0.02556249,0.00070613,0.00199784,0.00116075,-0.00000341,0.000
 02409,0.00000598,-0.00001098,-0.00001233,-0.00001274,0.00000094,0.0000
 0510,-0.00000955,-0.00001175,0.00000506,0.00000664,-0.00002186,-0.0000
 1433,-0.00000510,-0.00000366,0.00004053,-0.00020270,-0.00003469,-0.000
 00192,-0.00013318,-0.00018700,0.00009482,0.00003604,0.00040529,0.00097
 495,-0.00010482,-0.00031644,0.00015129,-0.00028706,-0.01270573,0.00222
 580,-0.02412012,-0.01018053,0.05435788,0.00019644,-0.00004692,-0.00005
 588,-0.00004032,0.00028943,0.00021450,-0.00004334,0.00002075,-0.000070
 57,0.00004982,0.00002969,0.00001470,-0.00017931,0.00000914,-0.00016805
 ,0.00009997,0.00001139,0.00017302,0.00024698,0.00014935,0.00003841,-0.
 00142584,-0.00057462,0.00060880,-0.01194894,0.00071783,-0.02448302,-0.
 10549824,0.01336418,-0.23821251,-0.00008544,0.00000664,0.00046195,0.00
 012347,-0.00044249,0.00015186,0.00000748,0.00001671,0.00000333,0.00000
 386,0.00000142,0.00001055,0.00000304,-0.00001014,0.00001017,-0.0000055
 6,0.00002553,-0.00000092,0.00000462,0.00000311,0.00001574,0.00000321,-
 0.00021506,0.00006681,0.00024392,-0.00018530,0.00045627,0.00086561,0.0
 0081566,0.00049966,0.00430594,0.00020398,-0.00301731,0.00001803,-0.000
 46002,0.00095344,-0.00138872,-0.00067409,-0.00199942,0.11424375,-0.013
 79878,0.26202270,0.00089820,0.00020651,0.00016633,-0.00076623,0.001192
 13,0.00032468,-0.00002822,-0.00017222,-0.00005380,0.00008405,0.0000244
 1,-0.00009546,-0.00001945,-0.00024479,-0.00020127,0.00007307,0.0000398
 3,0.00048493,0.00062035,0.00082562,-0.00166415,-0.00018393,0.00000253,
 0.00029324,0.00038025,-0.00077850,-0.00132006,-0.01097126,0.00109443,-
 0.01536150,-0.12955703,0.00194963,-0.11667042,-0.01196827,-0.00194270,
 -0.01621681,0.00000017,-0.00005728,0.00005197,0.00002429,0.00004677,0.
 00005830,0.00000602,-0.00002794,0.00004875,-0.00001601,0.00002006,0.00
 002817,-0.00003139,0.00001840,0.00000921,-0.00020740,-0.00020126,0.000
 87952,-0.00007368,0.00000112,0.00004156,0.00024349,0.00000647,0.000054
 74,-0.00011761,0.00014069,0.00084696,0.00037957,0.00000546,0.00029565,
 0.00087645,-0.00015579,0.00044202,-0.00123544,0.00311819,0.00017410,0.
 14072376,0.00139402,-0.00002988,0.00043206,-0.00223802,0.00125832,-0.0
 0088183,0.00004033,-0.00003351,0.00002651,0.00003106,0.00006850,-0.000
 00853,0.00009715,-0.00005716,-0.00043382,-0.00008873,-0.00008769,0.000
 45593,0.00089474,0.00104987,-0.00113496,-0.00000360,-0.00019670,0.0000
 1811,-0.00095534,0.00100898,0.00088750,0.01691609,-0.00184935,0.024993
 01,0.00212500,-0.04795490,0.00481125,-0.01641583,-0.00139676,-0.024280
 69,0.00004783,-0.00007453,0.00006639,0.00011731,0.00010759,0.00010494,
 -0.00000602,-0.00002760,0.00003907,0.00002023,-0.00000726,-0.00000332,
 -0.00001216,-0.00000958,0.00003009,0.00003620,0.00012379,0.00067431,-0
 .00001081,0.00013447,-0.00000950,-0.00001484,-0.00014922,0.00000158,-0
 .00004162,0.00014488,-0.00079745,-0.00044969,-0.00004135,-0.00008066,-
 0.00080045,0.00107954,0.00018642,0.00404739,-0.00450034,-0.00031193,-0
 .00189849,0.05645489,0.00146823,0.00099268,0.00070676,-0.00239943,0.00
 061935,0.00010911,0.00033024,-0.00018640,-0.00020667,0.00002410,0.0000
 7891,-0.00001582,-0.00012372,-0.00001796,0.00016466,0.00017297,0.00001
 667,0.00011848,0.00054607,0.00017145,0.00062572,-0.00000854,0.00003699
 ,0.00009749,0.00046244,-0.00017548,0.00073836,0.00044507,0.00061096,-0
 .00028794,-0.11626959,0.00346391,-0.22460595,-0.00010152,-0.00132179,-
 0.00120631,-0.00003292,-0.00009750,0.00000210,0.00002913,0.00003943,0.
 00001906,-0.00001100,-0.00000870,0.00002853,0.00003623,-0.00000663,-0.
 00002061,-0.00004240,-0.00005567,-0.00000054,-0.00033146,0.00003350,0.
 00053608,-0.00003829,-0.00001819,0.00000071,0.00006605,0.00000743,-0.0
 0012397,-0.00040705,-0.00004314,0.00053706,-0.00004855,0.00005970,0.00
 021954,0.00001640,0.00060449,0.00024836,0.00044861,0.00011107,0.001362
 17,0.13034002,-0.00502773,0.24176757,0.00102682,0.00061313,-0.00034898
 ,-0.00087494,0.00078757,-0.00018342,0.00001093,0.00001228,0.00011977,-
 0.00013191,0.00009525,-0.00001985,-0.00031144,0.00056446,0.00129244,0.
 00001295,-0.00002308,-0.00022453,-0.00102184,-0.00339088,-0.00172110,0
 .00061370,-0.00004221,-0.00022209,-0.00082600,0.00360718,-0.00150593,-
 0.01195420,0.00014026,0.01407169,-0.15141441,-0.00110085,0.12795185,-0
 .01285499,-0.00185581,0.01499353,0.00004914,-0.00002770,-0.00003020,-0
 .00002379,0.00002817,-0.00002019,0.00000952,-0.00000810,-0.00000474,0.
 00003255,-0.00005734,-0.00001847,-0.00027131,-0.00035268,-0.00002835,0
 .00009509,-0.00004986,0.00019974,-0.00002070,0.00000815,0.00003972,-0.
 00006101,0.00000545,-0.00001775,0.00007953,0.00003289,0.00024723,-0.00
 060348,-0.00004295,0.00094716,0.00076041,-0.00001521,-0.00024841,0.000
 26066,-0.00066063,-0.00023282,0.01239950,0.00023774,-0.01466428,0.1647
 3935,0.00147654,-0.00009975,-0.00045112,-0.00201452,0.00070036,0.00081
 838,0.00008455,0.00015151,-0.00008931,-0.00009901,0.00024717,0.0000999
 1,-0.00101324,0.00079439,0.00169659,-0.00006039,-0.00003477,-0.0002949
 7,-0.00224721,-0.00554265,-0.00144715,0.00006412,-0.00055112,-0.000105
 40,0.00269285,-0.00521578,0.00165030,0.01790365,0.00055296,-0.02356708
 ,-0.00045084,-0.04782438,-0.00116020,-0.01732814,-0.00065660,0.0231103
 9,0.00006087,0.00000498,-0.00004755,-0.00000970,0.00003245,0.00002124,
 0.00001693,-0.00001257,-0.00000912,0.00007631,-0.00004316,-0.00006123,
 -0.00041440,-0.00059375,0.00001384,0.00026217,-0.00001626,-0.00017583,
 -0.00000019,0.00020363,0.00001378,-0.00000164,0.00011985,0.00000277,-0
 .00028828,-0.00002089,0.00017235,0.00150772,0.00005264,-0.00127295,-0.
 00086557,0.00084580,-0.00024016,-0.00059813,0.00116653,0.00043928,-0.0
 0010468,-0.00018739,0.00036227,0.00089169,0.05481840,-0.00136464,-0.00
 121864,0.00053121,0.00220194,-0.00028717,0.00017071,-0.00035712,0.0001
 0821,-0.00016436,0.00005767,-0.00005699,-0.00005169,0.00001934,-0.0004
 3136,0.00011858,0.00013902,0.00015662,0.00012200,-0.00002281,-0.000014
 03,0.00076928,-0.00023568,0.00003001,-0.00000510,-0.00025248,-0.000228
 38,0.00097253,-0.00254431,0.00012509,0.00163160,0.12808335,0.00048481,
 -0.21078713,-0.00254904,0.00047596,0.00166234,0.00001583,0.00008676,0.
 00000035,-0.00005028,-0.00008485,-0.00001845,-0.00000119,-0.00000442,0
 .00002108,-0.00002903,0.00002747,0.00003680,-0.00004289,0.00003916,-0.
 00002112,-0.00019576,-0.00010211,0.00044147,0.00001703,-0.00000505,-0.
 00004178,0.00003867,0.00001167,-0.00000565,-0.00022062,0.00012002,0.00
 047384,0.00022063,0.00017439,0.00012780,0.00006855,-0.00050763,-0.0000
 4044,0.00017855,-0.00045405,0.00080447,0.01700073,0.00018193,-0.021962
 32,-0.14027409,0.00085669,0.22446058,-0.00091276,0.00337189,0.00240792
 ,-0.01361686,0.00049768,-0.01749830,0.00041724,-0.00023449,0.00123352,
 -0.00017228,-0.00036089,0.00002280,0.00154935,-0.00051728,0.00026119,-
 0.00188876,-0.00057387,-0.00026298,0.00990827,-0.00018428,0.02107331,0
 .00150685,-0.00018190,0.00018054,-0.00003391,0.00001087,0.00002179,0.0
 0062462,0.00113012,0.00022332,-0.01119777,-0.00130704,-0.01603050,-0.1
 1315712,0.00007849,-0.11723408,-0.00008310,-0.00013313,0.00037441,0.00
 062863,0.00035603,0.00028376,-0.00010856,0.00009201,0.00001558,-0.0000
 4241,-0.00001934,0.00005327,0.00009434,0.00036891,-0.00030579,-0.00285
 091,-0.00020702,0.00366241,0.00019763,-0.00031763,-0.00018948,-0.00023
 439,0.00012911,-0.00019119,-0.00016420,-0.00003023,-0.00000147,0.00003
 458,0.00002267,-0.00002714,-0.00002253,0.00014430,0.00032890,0.0006459
 8,-0.00045204,0.00025830,-0.00153324,-0.00306950,0.00009318,0.00027986
 ,0.00045852,0.00009861,0.13013144,0.00317858,-0.00353021,-0.00358588,0
 .01460276,0.00380995,0.02647507,-0.00148917,-0.00056234,-0.00296137,0.
 00033566,0.00017665,-0.00006647,0.00066023,-0.00005770,0.00139764,-0.0
 0074904,-0.00029786,-0.00053106,-0.00064862,0.00091310,0.00036503,-0.0
 0058204,0.00006241,-0.00096573,0.00007015,-0.00020154,0.00008475,-0.00
 055722,0.00165791,-0.00117358,-0.01594827,-0.00161003,-0.02430343,0.00
 219764,-0.05179540,0.00412698,0.00003014,0.00045690,-0.00031023,-0.000
 17088,-0.00184278,0.00014919,-0.00000839,0.00011898,-0.00007387,0.0000
 2746,-0.00002960,-0.00001824,-0.00001245,0.00006728,-0.00023838,-0.000
 13470,0.00062338,-0.00021360,-0.00002171,-0.00001631,0.00010130,0.0001
 9459,0.00019028,-0.00006039,-0.00001416,0.00004129,0.00023545,0.000086
 45,-0.00002570,-0.00003639,0.00003596,0.00030791,0.00039169,0.00049451
 ,-0.00036687,0.00061524,-0.00310860,-0.00482760,-0.00024963,0.00060308
 ,0.00110839,0.00051589,0.00092804,0.05562949,0.00074395,0.00034738,-0.
 00091861,-0.00104441,-0.00018664,0.00021173,-0.00056440,-0.00020533,-0
 .00045878,0.00039111,0.00020002,-0.00012437,-0.00226733,-0.00066644,-0
 .00239983,-0.00002875,-0.00065042,0.00293629,-0.01057238,0.00133280,-0
 .02770733,-0.00178723,0.00054864,0.00113292,0.00015668,-0.00024782,0.0
 0000365,0.00001460,0.00030396,0.00011124,-0.00054688,-0.00025883,-0.00
 031938,-0.11149645,0.00014955,-0.21786536,0.00006479,0.00014370,0.0002
 4727,0.00025272,-0.00003588,0.00057289,0.00005685,-0.00015679,0.000138
 72,-0.00001781,0.00009205,0.00001669,0.00003563,-0.00007891,0.00026464
 ,0.00413484,0.00019228,-0.00327559,0.00009938,0.00035723,0.00044890,0.
 00081886,-0.00077125,0.00041631,0.00001830,0.00020262,0.00006931,0.000
 00308,-0.00006294,-0.00001359,0.00016597,-0.00010989,0.00018056,0.0002
 7611,-0.00049471,0.00013912,0.00004259,0.00006131,0.00114836,-0.000097
 90,-0.00033572,0.00075341,0.12114809,0.00033003,0.24429083\\-0.0000183
 2,0.00000880,0.00000203,-0.00001972,0.00001215,-0.00000340,-0.00002770
 ,-0.00001095,0.00002603,-0.00000207,-0.00003699,-0.00001779,0.00001662
 ,-0.00001131,0.00006393,0.00002360,0.00006077,0.00000076,0.00011015,-0
 .00002781,-0.00002143,-0.00001252,-0.00002594,-0.00002593,0.00004608,0
 .00000280,-0.00000690,-0.00002842,0.00005052,-0.00000681,0.00002340,0.
 00001813,0.00001148,-0.00012041,0.00001370,0.00003176,0.00000708,-0.00
 000555,-0.00000136,0.00001381,0.00000557,-0.00000591,-0.00000817,-0.00
 000637,-0.00000670,0.00000627,-0.00000835,-0.00000272,0.00000644,0.000
 00362,-0.00001405,-0.00000423,-0.00000394,-0.00000839,0.00001002,-0.00
 000836,-0.00000185,-0.00001128,-0.00000169,-0.00000474,-0.00000294,-0.
 00000836,-0.00000645,-0.00000246,-0.00000203,-0.00000914,-0.00000112,-
 0.00000761,-0.00000106,0.00000280,-0.00000439,0.00000836,-0.00000353,0
 .00000343,0.00000077,-0.00000494,-0.00000387,-0.00000535,0.00000156,-0
 .00000598,0.00000485\\\@


 WE TEND TO MEET ANY NEW SITUATION BY REORGANIZING. IT CAN BE A
 WONDERFUL METHOD FOR CREATING THE ILLUSION OF PROGRESS WHILE PRODUCING
 CONFUSION, INEFFICIENCY, AND DEMORALIZATION.
     -- PETRONIUS ARBITER, 210 B.C.
 Job cpu time:       0 days  0 hours  2 minutes 38.1 seconds.
 Elapsed time:       0 days  0 hours  2 minutes 43.3 seconds.
 File lengths (MBytes):  RWF=    146 Int=      0 D2E=      0 Chk=     16 Scr=      1
 Normal termination of Gaussian 16 at Sat Feb 24 04:28:41 2024.
