 Entering Gaussian System, Link 0=g16
 Input=/Volumes/SSD-PMU3/b3lyp_6-31gd_freq/MILHJIWCSVKZDK-NAKRPEOUSA-N_calculating/gaussianinput0.gjf
 Output=/Volumes/SSD-PMU3/b3lyp_6-31gd_freq/MILHJIWCSVKZDK-NAKRPEOUSA-N_calculating/gaussianinput0.log
 Initial command:
 /Applications/g16/l1.exe "/Users/macmini_m1_2022/PycharmProjects/sphere_model/sphere_model_lib/Gau-28450.inp" -scrdir="/Users/macmini_m1_2022/PycharmProjects/sphere_model/sphere_model_lib/"
 Entering Link 1 = /Applications/g16/l1.exe PID=     28451.
  
 Copyright (c) 1988,1990,1992,1993,1995,1998,2003,2009,2016,
            Gaussian, Inc.  All Rights Reserved.
  
 This is part of the Gaussian(R) 16 program.  It is based on
 the Gaussian(R) 09 system (copyright 2009, Gaussian, Inc.),
 the Gaussian(R) 03 system (copyright 2003, Gaussian, Inc.),
 the Gaussian(R) 98 system (copyright 1998, Gaussian, Inc.),
 the Gaussian(R) 94 system (copyright 1995, Gaussian, Inc.),
 the Gaussian 92(TM) system (copyright 1992, Gaussian, Inc.),
 the Gaussian 90(TM) system (copyright 1990, Gaussian, Inc.),
 the Gaussian 88(TM) system (copyright 1988, Gaussian, Inc.),
 the Gaussian 86(TM) system (copyright 1986, Carnegie Mellon
 University), and the Gaussian 82(TM) system (copyright 1983,
 Carnegie Mellon University). Gaussian is a federally registered
 trademark of Gaussian, Inc.
  
 This software contains proprietary and confidential information,
 including trade secrets, belonging to Gaussian, Inc.
  
 This software is provided under written license and may be
 used, copied, transmitted, or stored only in accord with that
 written license.
  
 The following legend is applicable only to US Government
 contracts under FAR:
  
                    RESTRICTED RIGHTS LEGEND
  
 Use, reproduction and disclosure by the US Government is
 subject to restrictions as set forth in subparagraphs (a)
 and (c) of the Commercial Computer Software - Restricted
 Rights clause in FAR 52.227-19.
  
 Gaussian, Inc.
 340 Quinnipiac St., Bldg. 40, Wallingford CT 06492
  
  
 ---------------------------------------------------------------
 Warning -- This program may not be used in any manner that
 competes with the business of Gaussian, Inc. or will provide
 assistance to any competitor of Gaussian, Inc.  The licensee
 of this program is prohibited from giving any competitor of
 Gaussian, Inc. access to this program.  By using this program,
 the user acknowledges that Gaussian, Inc. is engaged in the
 business of creating and licensing software in the field of
 computational chemistry and represents and warrants to the
 licensee that it is not a competitor of Gaussian, Inc. and that
 it will not use this program in any manner prohibited above.
 ---------------------------------------------------------------
  

 Cite this work as:
 Gaussian 16, Revision A.03,
 M. J. Frisch, G. W. Trucks, H. B. Schlegel, G. E. Scuseria, 
 M. A. Robb, J. R. Cheeseman, G. Scalmani, V. Barone, 
 G. A. Petersson, H. Nakatsuji, X. Li, M. Caricato, A. V. Marenich, 
 J. Bloino, B. G. Janesko, R. Gomperts, B. Mennucci, H. P. Hratchian, 
 J. V. Ortiz, A. F. Izmaylov, J. L. Sonnenberg, D. Williams-Young, 
 F. Ding, F. Lipparini, F. Egidi, J. Goings, B. Peng, A. Petrone, 
 T. Henderson, D. Ranasinghe, V. G. Zakrzewski, J. Gao, N. Rega, 
 G. Zheng, W. Liang, M. Hada, M. Ehara, K. Toyota, R. Fukuda, 
 J. Hasegawa, M. Ishida, T. Nakajima, Y. Honda, O. Kitao, H. Nakai, 
 T. Vreven, K. Throssell, J. A. Montgomery, Jr., J. E. Peralta, 
 F. Ogliaro, M. J. Bearpark, J. J. Heyd, E. N. Brothers, K. N. Kudin, 
 V. N. Staroverov, T. A. Keith, R. Kobayashi, J. Normand, 
 K. Raghavachari, A. P. Rendell, J. C. Burant, S. S. Iyengar, 
 J. Tomasi, M. Cossi, J. M. Millam, M. Klene, C. Adamo, R. Cammi, 
 J. W. Ochterski, R. L. Martin, K. Morokuma, O. Farkas, 
 J. B. Foresman, and D. J. Fox, Gaussian, Inc., Wallingford CT, 2016.
 
 ******************************************
 Gaussian 16:  EM64M-G16RevA.03 25-Dec-2016
                26-Feb-2024 
 ******************************************
 %nprocshared=10
 Will use up to   10 processors via shared memory.
 %mem=12GB
 %chk= 0.chk
 ---------------------
 # freq b3lyp/6-31g(d)
 ---------------------
 1/10=4,30=1,38=1/1,3;
 2/12=2,17=6,18=5,40=1/2;
 3/5=1,6=6,7=1,11=2,25=1,30=1,71=2,74=-5,140=1/1,2,3;
 4//1;
 5/5=2,38=5,98=1/2;
 8/6=4,10=90,11=11/1;
 11/6=1,8=1,9=11,15=111,16=1/1,2,10;
 10/6=1/2;
 6/7=2,8=2,9=2,10=2,28=1/1;
 7/8=1,10=1,25=1/1,2,3,16;
 1/10=4,30=1/3;
 99//99;
 ---------
 good luck
 ---------
 Symbolic Z-matrix:
 Charge =  0 Multiplicity = 1
 O                     1.2157    0.        0. 
 C                     0.        0.        0. 
 C                    -0.84538  -1.27253   0.00513 
 C                    -2.33559  -0.89243   0.07168 
 C                    -2.58359  -0.07231   1.3682 
 C                    -4.08191   0.14173   1.67767 
 C                    -4.87749  -1.15728   1.86535 
 C                    -1.69859   1.2472    1.32113 
 C                    -2.45775   2.57602   1.53755 
 C                    -1.55214   3.81207   1.61774 
 C                    -0.85964   1.25435   0.00513 
 C                    -1.78359   1.20539  -1.23585 
 C                    -2.68671  -0.06062  -1.17924 
 H                    -0.54086  -1.89354   0.85788 
 H                    -0.61366  -1.85113  -0.89959 
 H                    -2.93933  -1.80578   0.09062 
 H                    -2.19671  -0.68417   2.19662 
 H                    -4.16795   0.7245    2.60223 
 H                    -4.55965   0.74698   0.89699 
 H                    -4.40873  -1.80458   2.61728 
 H                    -5.89597  -0.93874   2.20573 
 H                    -4.96208  -1.73329   0.93782 
 H                    -0.97712   1.18309   2.14777 
 H                    -3.2096    2.72843   0.75307 
 H                    -3.01648   2.50499   2.47788 
 H                    -0.76556   3.67917   2.37091 
 H                    -2.13452   4.69699   1.89838 
 H                    -1.06276   4.03388   0.66362 
 H                    -0.1949    2.12056  -0.03139 
 H                    -1.17032   1.20879  -2.14433 
 H                    -2.38835   2.11791  -1.27474 
 H                    -2.54389  -0.6761   -2.07578 
 H                    -3.74643   0.21688  -1.16538 
 

 GradGradGradGradGradGradGradGradGradGradGradGradGradGradGradGradGradGrad
 Berny optimization.
 Initialization pass.
 Trust Radius=3.00D-01 FncErr=1.00D-07 GrdErr=1.00D-07 EigMax=2.50D+02 EigMin=1.00D-04
 Number of steps in this run=      2 maximum allowed number of steps=      2.
 GradGradGradGradGradGradGradGradGradGradGradGradGradGradGradGradGradGrad

                          Input orientation:                          
 ---------------------------------------------------------------------
 Center     Atomic      Atomic             Coordinates (Angstroms)
 Number     Number       Type             X           Y           Z
 ---------------------------------------------------------------------
      1          8           0        1.215700    0.000000    0.000000
      2          6           0        0.000000    0.000000    0.000000
      3          6           0       -0.845381   -1.272531    0.005128
      4          6           0       -2.335593   -0.892431    0.071682
      5          6           0       -2.583588   -0.072311    1.368198
      6          6           0       -4.081908    0.141734    1.677674
      7          6           0       -4.877485   -1.157277    1.865348
      8          6           0       -1.698588    1.247195    1.321131
      9          6           0       -2.457749    2.576017    1.537549
     10          6           0       -1.552136    3.812071    1.617736
     11          6           0       -0.859637    1.254349    0.005128
     12          6           0       -1.783588    1.205391   -1.235854
     13          6           0       -2.686714   -0.060622   -1.179238
     14          1           0       -0.540859   -1.893536    0.857879
     15          1           0       -0.613657   -1.851134   -0.899591
     16          1           0       -2.939328   -1.805777    0.090618
     17          1           0       -2.196709   -0.684173    2.196619
     18          1           0       -4.167945    0.724497    2.602233
     19          1           0       -4.559649    0.746980    0.896986
     20          1           0       -4.408730   -1.804578    2.617280
     21          1           0       -5.895975   -0.938743    2.205734
     22          1           0       -4.962080   -1.733293    0.937822
     23          1           0       -0.977121    1.183092    2.147770
     24          1           0       -3.209598    2.728431    0.753065
     25          1           0       -3.016480    2.504986    2.477879
     26          1           0       -0.765561    3.679166    2.370907
     27          1           0       -2.134520    4.696990    1.898383
     28          1           0       -1.062757    4.033875    0.663622
     29          1           0       -0.194903    2.120557   -0.031391
     30          1           0       -1.170320    1.208789   -2.144334
     31          1           0       -2.388348    2.117906   -1.274740
     32          1           0       -2.543886   -0.676097   -2.075780
     33          1           0       -3.746434    0.216876   -1.165381
 ---------------------------------------------------------------------
                    Distance matrix (angstroms):
                    1          2          3          4          5
     1  O    0.000000
     2  C    1.215700   0.000000
     3  C    2.422275   1.527753   0.000000
     4  C    3.662411   2.501313   1.539363   0.000000
     5  C    4.038785   2.924401   2.513931   1.554044   0.000000
     6  C    5.558716   4.415501   3.908025   2.588112   1.544847
     7  C    6.476551   5.348708   4.442023   3.122274   2.585783
     8  C    3.434233   2.487184   2.967970   2.558300   1.589508
     9  C    4.742800   3.878202   4.445151   3.767469   2.656719
    10  C    4.980951   4.422452   5.380816   5.013624   4.026734
    11  C    2.424962   1.520656   2.526920   2.606058   2.567098
    12  C    3.460640   2.482235   2.925810   2.532828   3.008922
    13  C    4.077145   2.934742   2.502390   1.542723   2.549549
    14  H    2.721568   2.148014   1.097982   2.200315   2.783887
    15  H    2.753635   2.147682   1.098633   2.197168   3.491090
    16  H    4.531368   3.450897   2.162469   1.095014   2.182582
    17  H    4.115551   3.181000   2.641001   2.139630   1.100151
    18  H    6.023300   4.966717   4.666102   3.517905   2.160540
    19  H    5.892132   4.706693   4.320836   2.883612   2.190456
    20  H    6.460717   5.435398   4.450154   3.407342   2.809288
    21  H    7.504827   6.364670   5.519292   4.151222   3.524781
    22  H    6.484503   5.339106   4.246108   2.890620   2.932799
    23  H    3.289542   2.639581   3.261649   3.234715   2.182775
    24  H    5.253066   4.279365   4.707083   3.786662   2.935035
    25  H    5.506922   4.638318   5.009771   4.218511   2.839234
    26  H    4.804462   4.443371   5.488405   5.352657   4.287683
    27  H    6.073677   5.497431   6.393862   5.883782   4.819646
    28  H    4.680161   4.223978   5.351524   5.122401   4.435101
    29  H    2.547067   2.129726   3.455069   3.697469   3.531761
    30  H    3.428182   2.725617   3.298897   3.268595   3.997052
    31  H    4.370315   3.437251   3.938765   3.298146   3.438065
    32  H    4.347466   3.352212   2.751514   2.168359   3.496730
    33  H    5.101757   3.929493   3.464756   2.179761   2.802653
                    6          7          8          9         10
     6  C    0.000000
     7  C    1.534794   0.000000
     8  C    2.651298   4.022815   0.000000
     9  C    2.929720   4.460948   1.545616   0.000000
    10  C    4.458106   5.984453   2.586119   1.534404   0.000000
    11  C    3.797151   5.041772   1.560690   2.578581   3.101935
    12  C    3.860348   4.977133   2.558739   3.166208   3.871863
    13  C    3.185822   3.907894   2.989753   3.792785   4.909998
    14  H    4.165743   4.512582   3.379220   4.910532   5.844144
    15  H    4.758422   5.128992   3.963373   5.379590   6.268139
    16  H    2.759898   2.706782   3.517703   4.639574   5.984698
    17  H    2.122593   2.742285   2.178253   3.336368   4.578951
    18  H    1.096278   2.141850   2.830576   2.736138   4.164709
    19  H    1.097284   2.159847   2.935266   2.858965   4.354239
    20  H    2.185818   1.097329   4.282311   4.915461   6.380123
    21  H    2.176492   1.095875   4.814448   4.961996   6.464125
    22  H    2.199502   1.095105   4.436284   5.020109   6.545308
    23  H    3.308341   4.557404   1.099070   2.122468   2.742829
    24  H    2.882157   4.372385   2.190870   1.097234   2.160813
    25  H    2.713010   4.153397   2.157995   1.096105   2.143040
    26  H    4.898179   6.368256   2.808390   2.185160   1.097101
    27  H    4.958971   6.465090   3.524818   2.175593   1.095909
    28  H    5.029149   6.553194   2.932948   2.198886   1.094999
    29  H    4.684597   6.022324   2.202986   2.790966   2.724504
    30  H    4.921757   5.951377   3.505708   4.133164   4.590864
    31  H    3.935753   5.175208   2.823553   2.850202   3.454832
    32  H    4.137968   4.605400   3.994069   4.862079   5.896548
    33  H    2.863765   3.514668   3.382007   3.812097   5.048377
                   11         12         13         14         15
    11  C    0.000000
    12  C    1.547940   0.000000
    13  C    2.543636   1.556159   0.000000
    14  H    3.276886   3.940995   3.480533   0.000000
    15  H    3.243925   3.290009   2.753489   1.759488   0.000000
    16  H    3.700918   3.487463   2.172997   2.519731   2.528105
    17  H    3.216871   3.939923   3.467756   2.448800   3.668020
    18  H    4.239174   4.543933   4.136421   4.801314   5.615123
    19  H    3.839651   3.530674   2.910466   4.808797   5.054576
    20  H    5.364367   5.549588   4.518879   4.250157   5.174276
    21  H    5.917518   5.775255   4.746418   5.604071   6.195029
    22  H    5.160035   4.843918   3.529456   4.424846   4.722156
    23  H    2.147043   3.478476   3.941892   3.364489   4.315674
    24  H    2.873090   2.882526   3.433077   5.338139   5.517481
    25  H    3.511490   4.123201   4.479464   5.300952   6.013039
    26  H    3.389026   4.490509   5.502760   5.778819   6.426776
    27  H    4.130559   4.705089   5.693113   6.859842   7.281457
    28  H    2.863675   3.482518   4.774754   5.953513   6.105625
    29  H    1.092484   2.193668   3.504885   4.125946   4.086986
    30  H    2.172277   1.096105   2.200515   4.362789   3.349983
    31  H    2.172729   1.095413   2.200938   4.904380   4.363891
    32  H    3.300529   2.196253   1.096812   3.755081   2.547531
    33  H    3.283297   2.198839   1.095538   4.338563   3.763190
                   16         17         18         19         20
    16  H    0.000000
    17  H    2.498944   0.000000
    18  H    3.770941   2.456551   0.000000
    19  H    3.129255   3.052987   1.749801   0.000000
    20  H    2.922869   2.515015   2.540556   3.081012   0.000000
    21  H    3.737275   3.708026   2.430981   2.517985   1.769446
    22  H    2.194205   3.214421   3.072726   2.513040   1.769705
    23  H    4.124981   2.230798   3.255488   3.819576   4.574118
    24  H    4.590308   3.841309   2.890260   2.401978   5.045928
    25  H    4.928250   3.304825   2.124024   2.823328   4.531019
    26  H    6.325313   4.595355   4.512183   5.016499   6.588234
    27  H    6.797184   5.389780   4.517845   4.742006   6.925260
    28  H    6.160470   5.088802   4.934814   4.804830   7.007128
    29  H    4.791957   4.103385   4.966893   4.669005   6.338650
    30  H    4.148736   4.845684   5.634731   4.577166   6.499281
    31  H    4.190832   4.465278   4.487703   3.363091   5.883506
    32  H    2.475042   4.286489   5.146167   3.863391   5.174546
    33  H    2.513977   3.810063   3.824953   2.279405   4.339751
                   21         22         23         24         25
    21  H    0.000000
    22  H    1.763823   0.000000
    23  H    5.357300   5.084208   0.000000
    24  H    4.772320   4.797115   3.052414   0.000000
    25  H    4.497202   4.911226   2.452623   1.749916   0.000000
    26  H    6.904601   6.997086   2.514942   3.081335   2.541019
    27  H    6.782661   7.089874   3.707998   2.518486   2.432807
    28  H    7.103875   6.967075   3.215119   2.514182   3.073445
    29  H    6.845894   6.206248   2.497889   3.173841   3.795460
    30  H    6.772503   5.703769   4.296527   3.855242   5.143276
    31  H    5.810357   5.133348   3.818247   2.271384   3.824465
    32  H    5.443973   4.005886   4.873368   4.476198   5.574804
    33  H    4.161778   3.115191   4.424888   3.205704   4.363671
                   26         27         28         29         30
    26  H    0.000000
    27  H    1.770111   0.000000
    28  H    1.768888   1.764379   0.000000
    29  H    2.919923   3.758211   2.212916   0.000000
    30  H    5.162751   5.425937   3.984633   2.499457   0.000000
    31  H    4.285057   4.096927   3.030739   2.521334   1.751080
    32  H    6.473313   6.695642   5.646406   4.185513   2.333276
    33  H    5.777403   5.661832   5.011672   4.186085   2.928925
                   31         32         33
    31  H    0.000000
    32  H    2.910723   0.000000
    33  H    2.338861   1.752812   0.000000
 Stoichiometry    C12H20O
 Framework group  C1[X(C12H20O)]
 Deg. of freedom    93
 Full point group                 C1      NOp   1
 Largest Abelian subgroup         C1      NOp   1
 Largest concise Abelian subgroup C1      NOp   1
                         Standard orientation:                         
 ---------------------------------------------------------------------
 Center     Atomic      Atomic             Coordinates (Angstroms)
 Number     Number       Type             X           Y           Z
 ---------------------------------------------------------------------
      1          8           0       -2.803352   -1.365979   -1.008815
      2          6           0       -1.727554   -1.121639   -0.498049
      3          6           0       -0.539876   -2.082137   -0.527973
      4          6           0        0.668907   -1.417105    0.154825
      5          6           0        1.012920   -0.106655   -0.606377
      6          6           0        2.362253    0.511664   -0.177969
      7          6           0        3.572252   -0.407685   -0.393132
      8          6           0       -0.239145    0.870519   -0.543115
      9          6           0        0.043213    2.294296   -0.012019
     10          6           0       -1.158440    3.245148   -0.091405
     11          6           0       -1.396949    0.169562    0.233998
     12          6           0       -0.951871   -0.196301    1.670719
     13          6           0        0.300819   -1.118316    1.622895
     14          1           0       -0.328043   -2.346942   -1.572277
     15          1           0       -0.829676   -3.013993   -0.023340
     16          1           0        1.523457   -2.100856    0.119005
     17          1           0        1.141092   -0.389835   -1.661703
     18          1           0        2.527926    1.426062   -0.759564
     19          1           0        2.331741    0.826758    0.872658
     20          1           0        3.616167   -0.770172   -1.427930
     21          1           0        4.505128    0.130842   -0.191458
     22          1           0        3.554322   -1.282999    0.264713
     23          1           0       -0.596140    1.006847   -1.573612
     24          1           0        0.409927    2.259923    1.021548
     25          1           0        0.857151    2.728301   -0.604126
     26          1           0       -1.572424    3.277086   -1.106899
     27          1           0       -0.859582    4.264629    0.177588
     28          1           0       -1.967224    2.953621    0.586756
     29          1           0       -2.294772    0.791905    0.245150
     30          1           0       -1.780798   -0.688421    2.192392
     31          1           0       -0.742973    0.721436    2.231121
     32          1           0        0.104941   -2.061772    2.146841
     33          1           0        1.147427   -0.652690    2.139277
 ---------------------------------------------------------------------
 Rotational constants (GHZ):           0.9138370           0.7540170           0.5270594
 Standard basis: 6-31G(d) (6D, 7F)
 There are   235 symmetry adapted cartesian basis functions of A   symmetry.
 There are   235 symmetry adapted basis functions of A   symmetry.
   235 basis functions,   444 primitive gaussians,   235 cartesian basis functions
    50 alpha electrons       50 beta electrons
       nuclear repulsion energy       876.0129519864 Hartrees.
 NAtoms=   33 NActive=   33 NUniq=   33 SFac= 1.00D+00 NAtFMM=   60 NAOKFM=F Big=F
 Integral buffers will be    131072 words long.
 Raffenetti 2 integral format.
 Two-electron integral symmetry is turned on.
 One-electron integrals computed using PRISM.
 NBasis=   235 RedAO= T EigKep=  1.22D-03  NBF=   235
 NBsUse=   235 1.00D-06 EigRej= -1.00D+00 NBFU=   235
 ExpMin= 1.61D-01 ExpMax= 5.48D+03 ExpMxC= 8.25D+02 IAcc=3 IRadAn=         5 AccDes= 0.00D+00
 Harris functional with IExCor=  402 and IRadAn=       5 diagonalized for initial guess.
 HarFok:  IExCor=  402 AccDes= 0.00D+00 IRadAn=         5 IDoV= 1 UseB2=F ITyADJ=14
 ICtDFT=  3500011 ScaDFX=  1.000000  1.000000  1.000000  1.000000
 FoFCou: FMM=F IPFlag=           0 FMFlag=      100000 FMFlg1=           0
         NFxFlg=           0 DoJE=T BraDBF=F KetDBF=T FulRan=T
         wScrn=  0.000000 ICntrl=       500 IOpCl=  0 I1Cent=   200000004 NGrid=           0
         NMat0=    1 NMatS0=      1 NMatT0=    0 NMatD0=    1 NMtDS0=    0 NMtDT0=    0
 Petite list used in FoFCou.
 Requested convergence on RMS density matrix=1.00D-08 within 128 cycles.
 Requested convergence on MAX density matrix=1.00D-06.
 Requested convergence on             energy=1.00D-06.
 No special actions if energy rises.
 Integral accuracy reduced to 1.0D-05 until final iterations.
 Initial convergence to 1.0D-05 achieved.  Increase integral accuracy.
 SCF Done:  E(RB3LYP) =  -544.549877291     A.U. after   13 cycles
            NFock= 13  Conv=0.99D-08     -V/T= 2.0098
 DoSCS=F DFT=T ScalE2(SS,OS)=  1.000000  1.000000
 Range of M.O.s used for correlation:     1   235
 NBasis=   235 NAE=    50 NBE=    50 NFC=     0 NFV=     0
 NROrb=    235 NOA=    50 NOB=    50 NVA=   185 NVB=   185
 Symmetrizing basis deriv contribution to polar:
 IMax=3 JMax=2 DiffMx= 0.00D+00
 G2DrvN: will do    34 centers at a time, making    1 passes.
 Calling FoFCou, ICntrl=  3107 FMM=F I1Cent=   0 AccDes= 0.00D+00.
 End of G2Drv F.D. properties file   721 does not exist.
 End of G2Drv F.D. properties file   722 does not exist.
 End of G2Drv F.D. properties file   788 does not exist.
          IDoAtm=111111111111111111111111111111111
          Differentiating once with respect to electric field.
                with respect to dipole field.
          Differentiating once with respect to nuclear coordinates.
 Keep R1 ints in memory in canonical form, NReq=395129338.
          There are   102 degrees of freedom in the 1st order CPHF.  IDoFFX=6 NUNeed=     3.
     99 vectors produced by pass  0 Test12= 9.25D-15 1.00D-09 XBig12= 8.43D+01 2.25D+00.
 AX will form    99 AO Fock derivatives at one time.
     99 vectors produced by pass  1 Test12= 9.25D-15 1.00D-09 XBig12= 1.21D+01 1.03D+00.
     99 vectors produced by pass  2 Test12= 9.25D-15 1.00D-09 XBig12= 1.13D-01 4.64D-02.
     99 vectors produced by pass  3 Test12= 9.25D-15 1.00D-09 XBig12= 3.39D-04 2.40D-03.
     99 vectors produced by pass  4 Test12= 9.25D-15 1.00D-09 XBig12= 3.78D-07 6.72D-05.
     47 vectors produced by pass  5 Test12= 9.25D-15 1.00D-09 XBig12= 2.20D-10 1.23D-06.
      5 vectors produced by pass  6 Test12= 9.25D-15 1.00D-09 XBig12= 1.30D-13 4.70D-08.
      1 vectors produced by pass  7 Test12= 9.25D-15 1.00D-09 XBig12= 7.49D-17 1.36D-09.
 InvSVY:  IOpt=1 It=  1 EMax= 1.42D-14
 Solved reduced A of dimension   548 with   102 vectors.
 Isotropic polarizability for W=    0.000000      119.82 Bohr**3.
 End of Minotr F.D. properties file   721 does not exist.
 End of Minotr F.D. properties file   722 does not exist.
 End of Minotr F.D. properties file   788 does not exist.

 **********************************************************************

            Population analysis using the SCF density.

 **********************************************************************

 Orbital symmetries:
       Occupied  (A) (A) (A) (A) (A) (A) (A) (A) (A) (A) (A) (A)
                 (A) (A) (A) (A) (A) (A) (A) (A) (A) (A) (A) (A)
                 (A) (A) (A) (A) (A) (A) (A) (A) (A) (A) (A) (A)
                 (A) (A) (A) (A) (A) (A) (A) (A) (A) (A) (A) (A)
                 (A) (A)
       Virtual   (A) (A) (A) (A) (A) (A) (A) (A) (A) (A) (A) (A)
                 (A) (A) (A) (A) (A) (A) (A) (A) (A) (A) (A) (A)
                 (A) (A) (A) (A) (A) (A) (A) (A) (A) (A) (A) (A)
                 (A) (A) (A) (A) (A) (A) (A) (A) (A) (A) (A) (A)
                 (A) (A) (A) (A) (A) (A) (A) (A) (A) (A) (A) (A)
                 (A) (A) (A) (A) (A) (A) (A) (A) (A) (A) (A) (A)
                 (A) (A) (A) (A) (A) (A) (A) (A) (A) (A) (A) (A)
                 (A) (A) (A) (A) (A) (A) (A) (A) (A) (A) (A) (A)
                 (A) (A) (A) (A) (A) (A) (A) (A) (A) (A) (A) (A)
                 (A) (A) (A) (A) (A) (A) (A) (A) (A) (A) (A) (A)
                 (A) (A) (A) (A) (A) (A) (A) (A) (A) (A) (A) (A)
                 (A) (A) (A) (A) (A) (A) (A) (A) (A) (A) (A) (A)
                 (A) (A) (A) (A) (A) (A) (A) (A) (A) (A) (A) (A)
                 (A) (A) (A) (A) (A) (A) (A) (A) (A) (A) (A) (A)
                 (A) (A) (A) (A) (A) (A) (A) (A) (A) (A) (A) (A)
                 (A) (A) (A) (A) (A)
 The electronic state is 1-A.
 Alpha  occ. eigenvalues --  -19.12698 -10.26140 -10.19576 -10.19194 -10.19100
 Alpha  occ. eigenvalues --  -10.18919 -10.18690 -10.18573 -10.18531 -10.18507
 Alpha  occ. eigenvalues --  -10.18444 -10.17821 -10.17657  -1.02614  -0.86135
 Alpha  occ. eigenvalues --   -0.78732  -0.78211  -0.74268  -0.72605  -0.70430
 Alpha  occ. eigenvalues --   -0.63611  -0.62933  -0.59633  -0.58010  -0.54748
 Alpha  occ. eigenvalues --   -0.50571  -0.49274  -0.47173  -0.45901  -0.44178
 Alpha  occ. eigenvalues --   -0.43612  -0.42900  -0.41423  -0.40505  -0.40202
 Alpha  occ. eigenvalues --   -0.39777  -0.38419  -0.38146  -0.37706  -0.36290
 Alpha  occ. eigenvalues --   -0.35443  -0.34859  -0.34436  -0.34057  -0.33623
 Alpha  occ. eigenvalues --   -0.32552  -0.29840  -0.29560  -0.28675  -0.22696
 Alpha virt. eigenvalues --   -0.00741   0.06259   0.08894   0.09866   0.10279
 Alpha virt. eigenvalues --    0.11549   0.13218   0.13316   0.13675   0.15505
 Alpha virt. eigenvalues --    0.16014   0.16395   0.16664   0.17189   0.17884
 Alpha virt. eigenvalues --    0.18473   0.18777   0.19003   0.20114   0.20659
 Alpha virt. eigenvalues --    0.20978   0.22006   0.23043   0.23220   0.24006
 Alpha virt. eigenvalues --    0.24585   0.24813   0.26326   0.27350   0.28712
 Alpha virt. eigenvalues --    0.30102   0.31403   0.35205   0.37149   0.38614
 Alpha virt. eigenvalues --    0.47823   0.48919   0.51079   0.52430   0.53859
 Alpha virt. eigenvalues --    0.54396   0.55509   0.57853   0.58712   0.59514
 Alpha virt. eigenvalues --    0.60082   0.61851   0.62694   0.64233   0.65601
 Alpha virt. eigenvalues --    0.66683   0.67060   0.67448   0.69266   0.69872
 Alpha virt. eigenvalues --    0.70936   0.72090   0.73720   0.75885   0.77043
 Alpha virt. eigenvalues --    0.78287   0.79865   0.83716   0.83975   0.84146
 Alpha virt. eigenvalues --    0.85311   0.85760   0.85855   0.87417   0.87658
 Alpha virt. eigenvalues --    0.88605   0.89398   0.90293   0.90878   0.91620
 Alpha virt. eigenvalues --    0.92335   0.92544   0.93609   0.94174   0.95586
 Alpha virt. eigenvalues --    0.95841   0.96670   0.96983   0.99008   0.99983
 Alpha virt. eigenvalues --    1.00748   1.02364   1.03898   1.04993   1.05198
 Alpha virt. eigenvalues --    1.08933   1.12034   1.13576   1.17187   1.21189
 Alpha virt. eigenvalues --    1.28404   1.28873   1.32662   1.36803   1.41163
 Alpha virt. eigenvalues --    1.44673   1.49496   1.49998   1.51066   1.57671
 Alpha virt. eigenvalues --    1.58221   1.58537   1.63124   1.63307   1.65934
 Alpha virt. eigenvalues --    1.67829   1.70339   1.73020   1.75045   1.75958
 Alpha virt. eigenvalues --    1.79268   1.81207   1.82252   1.84055   1.85144
 Alpha virt. eigenvalues --    1.86289   1.88811   1.89865   1.92049   1.94582
 Alpha virt. eigenvalues --    1.95744   1.98125   1.98804   1.99070   2.00361
 Alpha virt. eigenvalues --    2.00907   2.02352   2.04354   2.06524   2.08240
 Alpha virt. eigenvalues --    2.10192   2.11953   2.13289   2.16095   2.18172
 Alpha virt. eigenvalues --    2.18593   2.21518   2.26235   2.27861   2.29451
 Alpha virt. eigenvalues --    2.32206   2.33538   2.34083   2.36054   2.37292
 Alpha virt. eigenvalues --    2.39220   2.40158   2.42796   2.46009   2.49324
 Alpha virt. eigenvalues --    2.50491   2.56334   2.59314   2.60547   2.63166
 Alpha virt. eigenvalues --    2.63693   2.64997   2.67938   2.70341   2.75351
 Alpha virt. eigenvalues --    2.76419   2.77974   2.79908   2.85289   2.89521
 Alpha virt. eigenvalues --    3.01523   3.08007   4.07127   4.09939   4.18091
 Alpha virt. eigenvalues --    4.21206   4.30815   4.33884   4.38640   4.44443
 Alpha virt. eigenvalues --    4.55868   4.58348   4.67748   4.73315   4.96516
          Condensed to atoms (all electrons):
               1          2          3          4          5          6
     1  O    8.025874   0.567835  -0.078673   0.003434   0.000101   0.000000
     2  C    0.567835   4.507912   0.304938  -0.026189  -0.015856   0.000324
     3  C   -0.078673   0.304938   5.410865   0.294489  -0.036556   0.004371
     4  C    0.003434  -0.026189   0.294489   4.991039   0.384665  -0.041910
     5  C    0.000101  -0.015856  -0.036556   0.384665   4.995088   0.381890
     6  C    0.000000   0.000324   0.004371  -0.041910   0.381890   5.002181
     7  C   -0.000000  -0.000010   0.000098  -0.004208  -0.038847   0.363287
     8  C   -0.000618  -0.028801  -0.009056  -0.047106   0.343133  -0.034946
     9  C   -0.000045   0.003264  -0.000215   0.000913  -0.033888  -0.011643
    10  C   -0.000009   0.000114  -0.000019  -0.000058   0.004000   0.000349
    11  C   -0.064492   0.359131  -0.147771   0.029438  -0.043988   0.001141
    12  C    0.000495  -0.030207  -0.006533  -0.051536  -0.019048   0.000201
    13  C    0.000071  -0.018811  -0.041762   0.378166  -0.040551  -0.005089
    14  H   -0.000242  -0.022269   0.349315  -0.029525  -0.004659   0.000022
    15  H   -0.000366  -0.022264   0.346674  -0.029144   0.004491  -0.000158
    16  H   -0.000069   0.003495  -0.032488   0.366589  -0.040596  -0.007165
    17  H   -0.000037  -0.000095  -0.005082  -0.049754   0.364323  -0.048095
    18  H   -0.000000  -0.000018  -0.000133   0.005003  -0.032950   0.373159
    19  H    0.000000   0.000005   0.000049  -0.008823  -0.035324   0.371485
    20  H   -0.000000   0.000001  -0.000078  -0.000922  -0.004145  -0.035766
    21  H   -0.000000   0.000000  -0.000001   0.000216   0.003897  -0.028138
    22  H   -0.000000  -0.000004  -0.000031   0.001361  -0.005179  -0.031437
    23  H    0.001274  -0.002120   0.001557   0.002757  -0.034771   0.003123
    24  H   -0.000001  -0.000018   0.000006   0.000247  -0.003409   0.001568
    25  H    0.000001  -0.000079   0.000011   0.000063  -0.005912   0.000268
    26  H    0.000002  -0.000072   0.000002  -0.000002   0.000019   0.000012
    27  H   -0.000000  -0.000002   0.000000   0.000001  -0.000099   0.000004
    28  H   -0.000004   0.000051  -0.000002   0.000002  -0.000073  -0.000000
    29  H    0.005017  -0.032173   0.009211  -0.000754   0.004952  -0.000083
    30  H    0.000773  -0.003359   0.001918   0.001222   0.000028  -0.000004
    31  H   -0.000076   0.003696  -0.000528   0.002262   0.001077  -0.000046
    32  H   -0.000012   0.000542  -0.005694  -0.032975   0.005192   0.000075
    33  H    0.000002   0.000322   0.004968  -0.032625  -0.007976   0.002812
               7          8          9         10         11         12
     1  O   -0.000000  -0.000618  -0.000045  -0.000009  -0.064492   0.000495
     2  C   -0.000010  -0.028801   0.003264   0.000114   0.359131  -0.030207
     3  C    0.000098  -0.009056  -0.000215  -0.000019  -0.147771  -0.006533
     4  C   -0.004208  -0.047106   0.000913  -0.000058   0.029438  -0.051536
     5  C   -0.038847   0.343133  -0.033888   0.004000  -0.043988  -0.019048
     6  C    0.363287  -0.034946  -0.011643   0.000349   0.001141   0.000201
     7  C    5.088641   0.004010   0.000360  -0.000007  -0.000065   0.000022
     8  C    0.004010   5.024637   0.380163  -0.039661   0.355342  -0.033142
     9  C    0.000360   0.380163   4.999346   0.363672  -0.040377  -0.007451
    10  C   -0.000007  -0.039661   0.363672   5.087438  -0.003346  -0.001106
    11  C   -0.000065   0.355342  -0.040377  -0.003346   5.192327   0.342222
    12  C    0.000022  -0.033142  -0.007451  -0.001106   0.342222   5.102345
    13  C   -0.000813  -0.018640   0.000350   0.000038  -0.043722   0.343275
    14  H   -0.000013  -0.000089   0.000038  -0.000000   0.004179   0.000108
    15  H    0.000002   0.000195   0.000005  -0.000000   0.003719  -0.000153
    16  H    0.003674   0.005569  -0.000101   0.000002  -0.000443   0.005873
    17  H   -0.005860  -0.035979   0.003545  -0.000109   0.002812   0.000052
    18  H   -0.040084  -0.005261  -0.000533  -0.000045   0.000070  -0.000029
    19  H   -0.040405  -0.004142   0.002188  -0.000015   0.000233  -0.000092
    20  H    0.375678   0.000009   0.000013   0.000000  -0.000002  -0.000001
    21  H    0.371616  -0.000102   0.000004  -0.000000   0.000001   0.000001
    22  H    0.376158  -0.000073  -0.000002   0.000000   0.000003  -0.000008
    23  H   -0.000105   0.366358  -0.047757  -0.005742  -0.051652   0.006169
    24  H   -0.000023  -0.036419   0.372399  -0.040227  -0.008822   0.003132
    25  H   -0.000034  -0.033403   0.373916  -0.040037   0.004947   0.000125
    26  H    0.000000  -0.004075  -0.035645   0.376625  -0.001022   0.000095
    27  H   -0.000000   0.003978  -0.028277   0.371243   0.000194  -0.000016
    28  H    0.000000  -0.005546  -0.031555   0.377259   0.001838   0.000324
    29  H    0.000002  -0.033205  -0.007211   0.003361   0.343104  -0.035263
    30  H   -0.000000   0.005076   0.000097  -0.000020  -0.036607   0.371758
    31  H   -0.000000  -0.009772   0.003983   0.000222  -0.028696   0.367678
    32  H   -0.000018   0.000039  -0.000005  -0.000000   0.001965  -0.033163
    33  H    0.000118   0.001083  -0.000104  -0.000002   0.001285  -0.031255
              13         14         15         16         17         18
     1  O    0.000071  -0.000242  -0.000366  -0.000069  -0.000037  -0.000000
     2  C   -0.018811  -0.022269  -0.022264   0.003495  -0.000095  -0.000018
     3  C   -0.041762   0.349315   0.346674  -0.032488  -0.005082  -0.000133
     4  C    0.378166  -0.029525  -0.029144   0.366589  -0.049754   0.005003
     5  C   -0.040551  -0.004659   0.004491  -0.040596   0.364323  -0.032950
     6  C   -0.005089   0.000022  -0.000158  -0.007165  -0.048095   0.373159
     7  C   -0.000813  -0.000013   0.000002   0.003674  -0.005860  -0.040084
     8  C   -0.018640  -0.000089   0.000195   0.005569  -0.035979  -0.005261
     9  C    0.000350   0.000038   0.000005  -0.000101   0.003545  -0.000533
    10  C    0.000038  -0.000000  -0.000000   0.000002  -0.000109  -0.000045
    11  C   -0.043722   0.004179   0.003719  -0.000443   0.002812   0.000070
    12  C    0.343275   0.000108  -0.000153   0.005873   0.000052  -0.000029
    13  C    5.075342   0.004956  -0.004187  -0.041662   0.006156   0.000061
    14  H    0.004956   0.551327  -0.021986  -0.002907   0.005688  -0.000003
    15  H   -0.004187  -0.021986   0.556133  -0.002756   0.000089   0.000002
    16  H   -0.041662  -0.002907  -0.002756   0.621787  -0.002411   0.000027
    17  H    0.006156   0.005688   0.000089  -0.002411   0.649783  -0.004677
    18  H    0.000061  -0.000003   0.000002   0.000027  -0.004677   0.605751
    19  H    0.003151   0.000004   0.000002  -0.000122   0.006487  -0.039673
    20  H    0.000086   0.000013   0.000001   0.000507   0.006666  -0.003672
    21  H   -0.000015  -0.000000  -0.000000  -0.000111  -0.000039  -0.003970
    22  H    0.000367   0.000002   0.000006   0.003609  -0.000214   0.005000
    23  H   -0.000007  -0.000128  -0.000006  -0.000161  -0.013143   0.000508
    24  H   -0.000092   0.000000   0.000000  -0.000020  -0.000155   0.000164
    25  H   -0.000040  -0.000002   0.000000   0.000002   0.000398   0.004281
    26  H   -0.000002  -0.000000  -0.000000  -0.000000  -0.000017   0.000003
    27  H    0.000001   0.000000  -0.000000  -0.000000   0.000003   0.000005
    28  H   -0.000006  -0.000000   0.000000  -0.000000  -0.000000  -0.000000
    29  H    0.005072  -0.000177  -0.000202   0.000012  -0.000173  -0.000000
    30  H   -0.031975  -0.000011  -0.000119  -0.000125   0.000012   0.000000
    31  H   -0.030037   0.000008   0.000057  -0.000163   0.000005  -0.000004
    32  H    0.369040   0.000004   0.004635  -0.002835  -0.000193   0.000002
    33  H    0.369392  -0.000171  -0.000048  -0.002419   0.000009  -0.000077
              19         20         21         22         23         24
     1  O    0.000000  -0.000000  -0.000000  -0.000000   0.001274  -0.000001
     2  C    0.000005   0.000001   0.000000  -0.000004  -0.002120  -0.000018
     3  C    0.000049  -0.000078  -0.000001  -0.000031   0.001557   0.000006
     4  C   -0.008823  -0.000922   0.000216   0.001361   0.002757   0.000247
     5  C   -0.035324  -0.004145   0.003897  -0.005179  -0.034771  -0.003409
     6  C    0.371485  -0.035766  -0.028138  -0.031437   0.003123   0.001568
     7  C   -0.040405   0.375678   0.371616   0.376158  -0.000105  -0.000023
     8  C   -0.004142   0.000009  -0.000102  -0.000073   0.366358  -0.036419
     9  C    0.002188   0.000013   0.000004  -0.000002  -0.047757   0.372399
    10  C   -0.000015   0.000000  -0.000000   0.000000  -0.005742  -0.040227
    11  C    0.000233  -0.000002   0.000001   0.000003  -0.051652  -0.008822
    12  C   -0.000092  -0.000001   0.000001  -0.000008   0.006169   0.003132
    13  C    0.003151   0.000086  -0.000015   0.000367  -0.000007  -0.000092
    14  H    0.000004   0.000013  -0.000000   0.000002  -0.000128   0.000000
    15  H    0.000002   0.000001  -0.000000   0.000006  -0.000006   0.000000
    16  H   -0.000122   0.000507  -0.000111   0.003609  -0.000161  -0.000020
    17  H    0.006487   0.006666  -0.000039  -0.000214  -0.013143  -0.000155
    18  H   -0.039673  -0.003672  -0.003970   0.005000   0.000508   0.000164
    19  H    0.606974   0.005253  -0.001621  -0.005000  -0.000157   0.000875
    20  H    0.005253   0.576416  -0.030586  -0.032810  -0.000018  -0.000002
    21  H   -0.001621  -0.030586   0.575075  -0.030872   0.000003   0.000003
    22  H   -0.005000  -0.032810  -0.030872   0.570380   0.000000   0.000001
    23  H   -0.000157  -0.000018   0.000003   0.000000   0.634692   0.006318
    24  H    0.000875  -0.000002   0.000003   0.000001   0.006318   0.606783
    25  H    0.000104   0.000002   0.000007   0.000001  -0.004395  -0.039339
    26  H   -0.000002  -0.000000   0.000000   0.000000   0.006467   0.005202
    27  H    0.000003   0.000000   0.000000   0.000000  -0.000044  -0.001668
    28  H    0.000000   0.000000   0.000000  -0.000000  -0.000239  -0.004962
    29  H   -0.000011  -0.000000  -0.000000   0.000000  -0.001923  -0.000179
    30  H    0.000011   0.000000  -0.000000   0.000000  -0.000178  -0.000119
    31  H   -0.000069   0.000000  -0.000000  -0.000001  -0.000014   0.003774
    32  H   -0.000135   0.000000   0.000000  -0.000030   0.000011   0.000014
    33  H    0.004098  -0.000004  -0.000020   0.000403   0.000006   0.000053
              25         26         27         28         29         30
     1  O    0.000001   0.000002  -0.000000  -0.000004   0.005017   0.000773
     2  C   -0.000079  -0.000072  -0.000002   0.000051  -0.032173  -0.003359
     3  C    0.000011   0.000002   0.000000  -0.000002   0.009211   0.001918
     4  C    0.000063  -0.000002   0.000001   0.000002  -0.000754   0.001222
     5  C   -0.005912   0.000019  -0.000099  -0.000073   0.004952   0.000028
     6  C    0.000268   0.000012   0.000004  -0.000000  -0.000083  -0.000004
     7  C   -0.000034   0.000000  -0.000000   0.000000   0.000002  -0.000000
     8  C   -0.033403  -0.004075   0.003978  -0.005546  -0.033205   0.005076
     9  C    0.373916  -0.035645  -0.028277  -0.031555  -0.007211   0.000097
    10  C   -0.040037   0.376625   0.371243   0.377259   0.003361  -0.000020
    11  C    0.004947  -0.001022   0.000194   0.001838   0.343104  -0.036607
    12  C    0.000125   0.000095  -0.000016   0.000324  -0.035263   0.371758
    13  C   -0.000040  -0.000002   0.000001  -0.000006   0.005072  -0.031975
    14  H   -0.000002  -0.000000   0.000000  -0.000000  -0.000177  -0.000011
    15  H    0.000000  -0.000000  -0.000000   0.000000  -0.000202  -0.000119
    16  H    0.000002  -0.000000  -0.000000  -0.000000   0.000012  -0.000125
    17  H    0.000398  -0.000017   0.000003  -0.000000  -0.000173   0.000012
    18  H    0.004281   0.000003   0.000005  -0.000000  -0.000000   0.000000
    19  H    0.000104  -0.000002   0.000003   0.000000  -0.000011   0.000011
    20  H    0.000002  -0.000000   0.000000   0.000000  -0.000000   0.000000
    21  H    0.000007   0.000000   0.000000   0.000000  -0.000000  -0.000000
    22  H    0.000001   0.000000   0.000000  -0.000000   0.000000   0.000000
    23  H   -0.004395   0.006467  -0.000044  -0.000239  -0.001923  -0.000178
    24  H   -0.039339   0.005202  -0.001668  -0.004962  -0.000179  -0.000119
    25  H    0.603341  -0.003526  -0.003938   0.004903   0.000071   0.000001
    26  H   -0.003526   0.570383  -0.030403  -0.032139   0.000552   0.000001
    27  H   -0.003938  -0.030403   0.575810  -0.030773  -0.000099   0.000000
    28  H    0.004903  -0.032139  -0.030773   0.566078   0.003195  -0.000041
    29  H    0.000071   0.000552  -0.000099   0.003195   0.600328  -0.001626
    30  H    0.000001   0.000001   0.000000  -0.000041  -0.001626   0.586466
    31  H   -0.000127  -0.000008  -0.000019   0.000528  -0.003231  -0.036178
    32  H    0.000000   0.000000  -0.000000   0.000000  -0.000136  -0.010676
    33  H   -0.000006   0.000000  -0.000000  -0.000001  -0.000132   0.003928
              31         32         33
     1  O   -0.000076  -0.000012   0.000002
     2  C    0.003696   0.000542   0.000322
     3  C   -0.000528  -0.005694   0.004968
     4  C    0.002262  -0.032975  -0.032625
     5  C    0.001077   0.005192  -0.007976
     6  C   -0.000046   0.000075   0.002812
     7  C   -0.000000  -0.000018   0.000118
     8  C   -0.009772   0.000039   0.001083
     9  C    0.003983  -0.000005  -0.000104
    10  C    0.000222  -0.000000  -0.000002
    11  C   -0.028696   0.001965   0.001285
    12  C    0.367678  -0.033163  -0.031255
    13  C   -0.030037   0.369040   0.369392
    14  H    0.000008   0.000004  -0.000171
    15  H    0.000057   0.004635  -0.000048
    16  H   -0.000163  -0.002835  -0.002419
    17  H    0.000005  -0.000193   0.000009
    18  H   -0.000004   0.000002  -0.000077
    19  H   -0.000069  -0.000135   0.004098
    20  H    0.000000   0.000000  -0.000004
    21  H   -0.000000   0.000000  -0.000020
    22  H   -0.000001  -0.000030   0.000403
    23  H   -0.000014   0.000011   0.000006
    24  H    0.003774   0.000014   0.000053
    25  H   -0.000127   0.000000  -0.000006
    26  H   -0.000008   0.000000   0.000000
    27  H   -0.000019  -0.000000  -0.000000
    28  H    0.000528   0.000000  -0.000001
    29  H   -0.003231  -0.000136  -0.000132
    30  H   -0.036178  -0.010676   0.003928
    31  H    0.584563   0.003871  -0.010349
    32  H    0.003871   0.598879  -0.036135
    33  H   -0.010349  -0.036135   0.591979
 Mulliken charges:
               1
     1  O   -0.460235
     2  C    0.450719
     3  C   -0.363851
     4  C   -0.106337
     5  C   -0.089033
     6  C   -0.261789
     7  C   -0.453172
     8  C   -0.109554
     9  C   -0.259446
    10  C   -0.453920
    11  C   -0.172945
    12  C   -0.294870
    13  C   -0.278109
    14  H    0.166519
    15  H    0.165379
    16  H    0.125408
    17  H    0.120006
    18  H    0.137092
    19  H    0.134671
    20  H    0.143364
    21  H    0.144650
    22  H    0.148372
    23  H    0.133316
    24  H    0.134918
    25  H    0.138396
    26  H    0.147549
    27  H    0.144096
    28  H    0.151161
    29  H    0.141700
    30  H    0.149747
    31  H    0.147593
    32  H    0.137737
    33  H    0.140867
 Sum of Mulliken charges =  -0.00000
 Mulliken charges with hydrogens summed into heavy atoms:
               1
     1  O   -0.460235
     2  C    0.450719
     3  C   -0.031954
     4  C    0.019071
     5  C    0.030974
     6  C    0.009975
     7  C   -0.016786
     8  C    0.023762
     9  C    0.013867
    10  C   -0.011114
    11  C   -0.031245
    12  C    0.002471
    13  C    0.000495
 APT charges:
               1
     1  O   -0.669172
     2  C    0.752316
     3  C   -0.043355
     4  C    0.082245
     5  C    0.093812
     6  C    0.093821
     7  C    0.082743
     8  C    0.111021
     9  C    0.096891
    10  C    0.081846
    11  C   -0.101629
    12  C    0.101972
    13  C    0.086745
    14  H   -0.011059
    15  H   -0.018618
    16  H   -0.055517
    17  H   -0.078871
    18  H   -0.049016
    19  H   -0.039180
    20  H   -0.025000
    21  H   -0.038276
    22  H   -0.021815
    23  H   -0.068936
    24  H   -0.039325
    25  H   -0.050429
    26  H   -0.021779
    27  H   -0.037759
    28  H   -0.019594
    29  H   -0.036080
    30  H   -0.039211
    31  H   -0.032483
    32  H   -0.048830
    33  H   -0.037476
 Sum of APT charges =   0.00000
 APT charges with hydrogens summed into heavy atoms:
               1
     1  O   -0.669172
     2  C    0.752316
     3  C   -0.073032
     4  C    0.026728
     5  C    0.014940
     6  C    0.005625
     7  C   -0.002348
     8  C    0.042085
     9  C    0.007138
    10  C    0.002713
    11  C   -0.137709
    12  C    0.030278
    13  C    0.000438
 Electronic spatial extent (au):  <R**2>=           2484.7960
 Charge=             -0.0000 electrons
 Dipole moment (field-independent basis, Debye):
    X=              2.8970    Y=              0.8641    Z=              1.2251  Tot=              3.2619
 Quadrupole moment (field-independent basis, Debye-Ang):
   XX=            -91.6125   YY=            -80.2323   ZZ=            -80.9891
   XY=             -4.3105   XZ=             -4.9146   YZ=             -2.0704
 Traceless Quadrupole moment (field-independent basis, Debye-Ang):
   XX=             -7.3346   YY=              4.0457   ZZ=              3.2889
   XY=             -4.3105   XZ=             -4.9146   YZ=             -2.0704
 Octapole moment (field-independent basis, Debye-Ang**2):
  XXX=             24.9821  YYY=             -7.0924  ZZZ=             -4.4949  XYY=              2.8178
  XXY=             15.8283  XXZ=             14.6829  XZZ=              0.8044  YZZ=             -0.0804
  YYZ=              2.1628  XYZ=              7.2401
 Hexadecapole moment (field-independent basis, Debye-Ang**3):
 XXXX=          -1658.1010 YYYY=          -1287.3419 ZZZZ=           -473.3309 XXXY=            -28.9084
 XXXZ=            -34.1761 YYYX=             13.5255 YYYZ=             -1.8826 ZZZX=              5.1235
 ZZZY=              5.5698 XXYY=           -499.8391 XXZZ=           -348.7675 YYZZ=           -294.9622
 XXYZ=            -21.8234 YYXZ=             -8.7601 ZZXY=             -1.8640
 N-N= 8.760129519864D+02 E-N=-3.013981889159D+03  KE= 5.392648635265D+02
  Exact polarizability: 129.186  -0.215 124.665   1.130   0.926 105.609
 Approx polarizability: 177.536   4.528 167.524   6.768   2.754 164.170
 Calling FoFJK, ICntrl=    100127 FMM=F ISym2X=0 I1Cent= 0 IOpClX= 0 NMat=1 NMatS=1 NMatT=0.
 Full mass-weighted force constant matrix:
 Low frequencies ---  -27.3573   -7.2820   -5.9851    0.0004    0.0005    0.0008
 Low frequencies ---    7.0659   85.6821   88.4105
 ******    1 imaginary frequencies (negative Signs) ****** 
 Diagonal vibrational polarizability:
       11.4521574       8.1889288      41.4770625
 Harmonic frequencies (cm**-1), IR intensities (KM/Mole), Raman scattering
 activities (A**4/AMU), depolarization ratios for plane and unpolarized
 incident light, reduced masses (AMU), force constants (mDyne/A),
 and normal coordinates:
                      1                      2                      3
                      A                      A                      A
 Frequencies --    -27.3354                85.6790                88.4062
 Red. masses --      3.3858                 2.1762                 2.2121
 Frc consts  --      0.0015                 0.0094                 0.0102
 IR Inten    --      1.1215                 0.8921                 0.4355
  Atom  AN      X      Y      Z        X      Y      Z        X      Y      Z
     1   8    -0.09   0.04   0.16    -0.04  -0.07   0.08    -0.03  -0.06   0.06
     2   6    -0.03   0.03   0.04    -0.00  -0.01  -0.01    -0.01  -0.02  -0.01
     3   6    -0.02   0.04  -0.13     0.01   0.01  -0.03     0.01   0.00  -0.01
     4   6     0.00  -0.03  -0.11    -0.01   0.00   0.02     0.01   0.02  -0.05
     5   6     0.02   0.02  -0.01     0.04  -0.01   0.02    -0.01   0.01  -0.07
     6   6    -0.02   0.02   0.12     0.02  -0.02   0.09    -0.01   0.03  -0.11
     7   6     0.01   0.04   0.17     0.04   0.03  -0.04    -0.03  -0.07   0.20
     8   6    -0.00  -0.01  -0.01     0.04  -0.01  -0.07    -0.01   0.01  -0.05
     9   6    -0.02   0.03  -0.10     0.05   0.00  -0.10     0.02  -0.01  -0.00
    10   6    -0.04   0.01  -0.14    -0.02  -0.05   0.15     0.01  -0.01   0.13
    11   6     0.04   0.00   0.06     0.00   0.03  -0.08    -0.00   0.01  -0.05
    12   6     0.13  -0.03   0.02    -0.03   0.09  -0.06     0.01   0.02  -0.05
    13   6     0.04  -0.15  -0.08    -0.09   0.02   0.00     0.04   0.06  -0.05
    14   1    -0.07   0.18  -0.18     0.04   0.06  -0.03    -0.01  -0.01  -0.01
    15   1     0.01  -0.03  -0.24     0.01  -0.02  -0.07     0.03   0.00   0.00
    16   1    -0.01  -0.05  -0.19    -0.02  -0.01   0.07     0.01   0.03  -0.05
    17   1     0.09   0.10  -0.02     0.09  -0.03   0.03    -0.03  -0.01  -0.07
    18   1     0.02   0.05   0.18    -0.00   0.06   0.21     0.07  -0.10  -0.29
    19   1    -0.10  -0.04   0.14     0.02  -0.17   0.13    -0.07   0.26  -0.18
    20   1     0.08   0.08   0.15     0.08   0.24  -0.11    -0.02  -0.40   0.31
    21   1    -0.01   0.04   0.25     0.03   0.01   0.09    -0.02  -0.03   0.05
    22   1    -0.03   0.01   0.13     0.03  -0.10  -0.22    -0.07   0.15   0.48
    23   1    -0.04  -0.07  -0.01     0.07  -0.03  -0.08    -0.02   0.05  -0.04
    24   1    -0.00   0.10  -0.11     0.24   0.01  -0.17     0.08  -0.05  -0.03
    25   1    -0.04   0.01  -0.14    -0.08   0.05  -0.25    -0.02   0.02  -0.03
    26   1    -0.05  -0.06  -0.14    -0.28  -0.13   0.26    -0.08   0.03   0.17
    27   1    -0.05   0.03  -0.20     0.01  -0.03   0.02     0.03  -0.02   0.15
    28   1    -0.02   0.03  -0.11     0.17  -0.05   0.38     0.07  -0.03   0.19
    29   1     0.05   0.02   0.13     0.01   0.04  -0.13    -0.01  -0.00  -0.05
    30   1     0.13   0.06   0.10    -0.06   0.17  -0.03     0.03  -0.01  -0.05
    31   1     0.27  -0.04  -0.01     0.02   0.12  -0.12    -0.02   0.03  -0.04
    32   1    -0.06  -0.19  -0.19    -0.17   0.02  -0.02     0.09   0.07  -0.00
    33   1     0.08  -0.29  -0.02    -0.09  -0.04   0.06     0.04   0.11  -0.09
                      4                      5                      6
                      A                      A                      A
 Frequencies --     98.9192               174.3505               207.2647
 Red. masses --      3.0199                 2.4830                 2.2323
 Frc consts  --      0.0174                 0.0445                 0.0565
 IR Inten    --      2.2356                 0.1945                 0.2437
  Atom  AN      X      Y      Z        X      Y      Z        X      Y      Z
     1   8    -0.07  -0.17   0.19    -0.03   0.00  -0.03     0.07  -0.09  -0.05
     2   6    -0.01  -0.04  -0.01    -0.04  -0.03   0.01     0.04  -0.05   0.01
     3   6     0.04   0.03  -0.07    -0.06  -0.06   0.06     0.07  -0.01  -0.03
     4   6     0.00   0.03  -0.01    -0.02  -0.04  -0.01     0.01   0.01   0.02
     5   6     0.02   0.03   0.01    -0.04  -0.05  -0.05    -0.05   0.04   0.04
     6   6     0.03   0.01   0.01    -0.09   0.04  -0.01    -0.05   0.03   0.03
     7   6     0.02   0.01  -0.04     0.04   0.20   0.06    -0.10  -0.03  -0.03
     8   6     0.02   0.04   0.01    -0.04  -0.05  -0.04    -0.07   0.01   0.01
     9   6     0.02  -0.00   0.13     0.06  -0.07  -0.04     0.01   0.03  -0.08
    10   6     0.11   0.09  -0.07     0.17   0.06   0.04     0.09   0.14   0.03
    11   6    -0.02   0.01  -0.08    -0.02  -0.03   0.01    -0.03  -0.03   0.04
    12   6    -0.10  -0.03  -0.06     0.01  -0.02  -0.00     0.04   0.04   0.04
    13   6    -0.07   0.02  -0.02     0.02  -0.00  -0.01    -0.06  -0.09   0.02
    14   1     0.08   0.13  -0.10    -0.10  -0.16   0.08     0.09   0.07  -0.05
    15   1     0.08  -0.04  -0.17    -0.07  -0.01   0.15     0.09  -0.05  -0.09
    16   1     0.01   0.04   0.03    -0.03  -0.05  -0.03     0.05   0.06   0.02
    17   1     0.01   0.04   0.01    -0.02  -0.07  -0.04    -0.03   0.04   0.04
    18   1     0.03   0.02   0.02    -0.15   0.05  -0.00    -0.04   0.03   0.04
    19   1     0.05  -0.01   0.01    -0.17   0.04  -0.02    -0.01   0.01   0.04
    20   1     0.00   0.05  -0.06     0.27   0.38   0.00    -0.34  -0.24   0.03
    21   1     0.03  -0.01  -0.04    -0.06   0.29   0.32    -0.05  -0.00  -0.35
    22   1     0.02  -0.02  -0.08     0.02   0.09  -0.09     0.02   0.11   0.15
    23   1     0.08   0.11   0.00    -0.07  -0.04  -0.03    -0.09  -0.04   0.01
    24   1    -0.18  -0.08   0.20     0.10  -0.11  -0.05     0.12   0.05  -0.12
    25   1     0.17  -0.03   0.32     0.07  -0.12  -0.06    -0.03  -0.05  -0.19
    26   1     0.40   0.25  -0.18     0.22   0.25   0.02     0.05   0.25   0.05
    27   1     0.11   0.03   0.15     0.28  -0.01   0.19     0.21   0.09   0.08
    28   1    -0.10   0.06  -0.34     0.11   0.06  -0.04     0.09   0.17   0.05
    29   1    -0.03  -0.00  -0.11    -0.01  -0.02   0.02    -0.06  -0.06   0.05
    30   1    -0.12  -0.08  -0.14     0.03  -0.02   0.02     0.03   0.18   0.16
    31   1    -0.17  -0.05  -0.00     0.01  -0.01  -0.01     0.19   0.08  -0.08
    32   1    -0.05   0.01  -0.03     0.05   0.01   0.03    -0.20  -0.13  -0.10
    33   1    -0.10   0.05   0.01     0.03   0.02  -0.05    -0.04  -0.24   0.14
                      7                      8                      9
                      A                      A                      A
 Frequencies --    216.3832               225.1220               259.8625
 Red. masses --      1.6545                 1.5603                 1.3801
 Frc consts  --      0.0456                 0.0466                 0.0549
 IR Inten    --      0.0674                 0.0591                 0.1638
  Atom  AN      X      Y      Z        X      Y      Z        X      Y      Z
     1   8    -0.03   0.04   0.02    -0.00   0.04  -0.00     0.03  -0.04  -0.02
     2   6    -0.01   0.03  -0.01     0.00   0.00   0.01     0.02  -0.02   0.00
     3   6    -0.01   0.02  -0.03    -0.01  -0.01  -0.00     0.02  -0.00  -0.01
     4   6    -0.01  -0.02   0.04    -0.01  -0.03   0.02    -0.00   0.00   0.00
     5   6     0.02  -0.03   0.03     0.01  -0.04   0.00    -0.02  -0.00  -0.02
     6   6     0.01   0.04  -0.07     0.01   0.00  -0.04    -0.01   0.01  -0.09
     7   6     0.07   0.10  -0.02     0.04   0.04  -0.00    -0.01  -0.01   0.02
     8   6     0.03  -0.02   0.03     0.03  -0.01  -0.03    -0.01   0.02   0.03
     9   6     0.05  -0.02   0.01    -0.02  -0.03   0.05    -0.01  -0.00   0.09
    10   6     0.03  -0.04  -0.03    -0.05  -0.07   0.02     0.01   0.01  -0.02
    11   6     0.00   0.01   0.01     0.02   0.01  -0.02    -0.01  -0.00   0.01
    12   6    -0.07  -0.05   0.01     0.06   0.12  -0.01     0.03   0.07   0.01
    13   6    -0.07  -0.06   0.03    -0.06  -0.05   0.01    -0.04  -0.03   0.00
    14   1     0.02   0.09  -0.04    -0.01   0.00  -0.01     0.03   0.03  -0.02
    15   1    -0.03  -0.01  -0.10    -0.02  -0.02  -0.02     0.03  -0.02  -0.04
    16   1    -0.02  -0.04   0.06    -0.02  -0.03   0.04     0.00   0.01   0.02
    17   1    -0.01  -0.06   0.04     0.00  -0.07   0.01    -0.08  -0.02  -0.02
    18   1    -0.07  -0.01  -0.18    -0.03  -0.02  -0.10     0.01  -0.05  -0.18
    19   1     0.04   0.16  -0.11     0.01   0.06  -0.06    -0.02   0.11  -0.12
    20   1    -0.07  -0.20   0.08     0.01  -0.07   0.03     0.24   0.21  -0.05
    21   1     0.05   0.26  -0.34     0.02   0.11  -0.11    -0.04  -0.11   0.39
    22   1     0.26   0.29   0.24     0.11   0.11   0.09    -0.23  -0.15  -0.17
    23   1     0.04  -0.02   0.03     0.05   0.01  -0.03    -0.00   0.07   0.04
    24   1     0.05   0.01   0.01    -0.09  -0.07   0.07    -0.09  -0.01   0.11
    25   1     0.04  -0.04  -0.01     0.01   0.03   0.14     0.05  -0.02   0.15
    26   1    -0.14  -0.31   0.03     0.21   0.19  -0.08    -0.12  -0.27   0.03
    27   1     0.07   0.03  -0.34    -0.17  -0.13   0.38     0.07   0.08  -0.35
    28   1     0.15   0.12   0.18    -0.21  -0.29  -0.27     0.09   0.22   0.17
    29   1     0.02   0.04  -0.01     0.02   0.01  -0.05    -0.02  -0.01  -0.00
    30   1    -0.10  -0.06  -0.05     0.04   0.31   0.12     0.03   0.19   0.11
    31   1    -0.08  -0.07   0.06     0.23   0.17  -0.15     0.15   0.10  -0.09
    32   1    -0.10  -0.07  -0.00    -0.24  -0.06  -0.07    -0.15  -0.06  -0.07
    33   1    -0.09  -0.08   0.08    -0.03  -0.21   0.10    -0.03  -0.15   0.08
                     10                     11                     12
                      A                      A                      A
 Frequencies --    281.6222               314.0329               340.5724
 Red. masses --      1.7380                 2.7803                 3.3640
 Frc consts  --      0.0812                 0.1615                 0.2299
 IR Inten    --      0.0718                 0.0748                 0.7740
  Atom  AN      X      Y      Z        X      Y      Z        X      Y      Z
     1   8    -0.02  -0.03  -0.01     0.01  -0.02   0.03    -0.06  -0.06  -0.09
     2   6    -0.02  -0.02  -0.01     0.02  -0.01  -0.01    -0.11  -0.04   0.01
     3   6    -0.04  -0.05   0.05    -0.05  -0.10   0.13    -0.04   0.05  -0.06
     4   6    -0.01  -0.02  -0.05    -0.00  -0.04  -0.01    -0.03   0.01  -0.01
     5   6    -0.01   0.00  -0.02     0.01  -0.00  -0.01     0.05  -0.01   0.02
     6   6    -0.04  -0.02   0.11     0.05  -0.04  -0.04     0.15  -0.09  -0.01
     7   6    -0.03   0.03  -0.01     0.10  -0.01   0.01     0.25  -0.03   0.01
     8   6     0.01   0.02  -0.01     0.03   0.09  -0.00    -0.08  -0.05   0.03
     9   6    -0.00  -0.02   0.11    -0.05   0.16  -0.02    -0.12  -0.02  -0.01
    10   6     0.02  -0.01  -0.01    -0.09   0.16   0.02    -0.03   0.13   0.02
    11   6     0.00   0.00  -0.05     0.05   0.03  -0.06    -0.10  -0.06   0.06
    12   6     0.07   0.07  -0.06    -0.01  -0.08  -0.06     0.02   0.06   0.06
    13   6     0.05   0.04  -0.06    -0.04  -0.14  -0.02     0.03   0.08  -0.01
    14   1    -0.10  -0.19   0.07    -0.13  -0.41   0.19    -0.02   0.19  -0.10
    15   1    -0.05   0.02   0.18    -0.10   0.06   0.41     0.02  -0.04  -0.19
    16   1     0.00  -0.01  -0.08     0.02  -0.02  -0.05    -0.06  -0.03   0.01
    17   1     0.04   0.06  -0.02    -0.05  -0.00  -0.01     0.01   0.02   0.00
    18   1    -0.04   0.06   0.24     0.03  -0.05  -0.07     0.14  -0.08   0.00
    19   1    -0.07  -0.17   0.15     0.04  -0.01  -0.05     0.18  -0.09  -0.01
    20   1    -0.24  -0.13   0.04     0.16  -0.03   0.02     0.29  -0.10   0.03
    21   1    -0.01   0.12  -0.32     0.06   0.05   0.03     0.18   0.11  -0.05
    22   1     0.18   0.13   0.13     0.13   0.01   0.03     0.37   0.02   0.08
    23   1     0.05   0.09  -0.01     0.06   0.09  -0.01    -0.07  -0.11   0.02
    24   1    -0.13  -0.07   0.15    -0.03   0.20  -0.02    -0.11  -0.02  -0.01
    25   1     0.08  -0.01   0.23    -0.08   0.18  -0.04    -0.10  -0.08  -0.01
    26   1    -0.08  -0.26   0.02    -0.13   0.18   0.04    -0.08   0.18   0.04
    27   1     0.07   0.06  -0.31    -0.07   0.16   0.02     0.15   0.08  -0.01
    28   1     0.07   0.19   0.14    -0.06   0.16   0.05    -0.04   0.26   0.08
    29   1     0.01   0.01  -0.04     0.03   0.01  -0.03    -0.07  -0.01   0.08
    30   1     0.10   0.13   0.03    -0.06  -0.06  -0.13     0.09   0.11   0.21
    31   1     0.13   0.10  -0.13     0.01  -0.12   0.00     0.08   0.13  -0.07
    32   1     0.04   0.06  -0.01    -0.14  -0.17  -0.12     0.09   0.11   0.07
    33   1     0.08   0.03  -0.09    -0.07  -0.22   0.09     0.07   0.12  -0.10
                     13                     14                     15
                      A                      A                      A
 Frequencies --    394.3902               410.1756               430.6115
 Red. masses --      2.8647                 2.9471                 3.3495
 Frc consts  --      0.2625                 0.2921                 0.3659
 IR Inten    --      1.2380                 1.9749                 1.1002
  Atom  AN      X      Y      Z        X      Y      Z        X      Y      Z
     1   8    -0.05  -0.09  -0.07     0.07  -0.13  -0.04    -0.11  -0.12  -0.08
     2   6    -0.11   0.01   0.02     0.01   0.01   0.02    -0.10  -0.00  -0.12
     3   6    -0.06   0.08   0.12    -0.03   0.01  -0.03    -0.09   0.02  -0.03
     4   6     0.03   0.12  -0.06    -0.06   0.01  -0.07    -0.04  -0.10   0.09
     5   6     0.07   0.14   0.00    -0.08  -0.01  -0.06     0.02  -0.04   0.17
     6   6     0.13   0.13   0.01    -0.06  -0.12  -0.02     0.01   0.09  -0.01
     7   6     0.02  -0.03  -0.01     0.06   0.02   0.02    -0.07   0.03  -0.02
     8   6    -0.01  -0.01   0.01     0.01   0.09   0.12     0.08   0.03   0.07
     9   6     0.05  -0.06  -0.02     0.16   0.13   0.01     0.07   0.11   0.00
    10   6     0.05  -0.11  -0.02     0.01  -0.09  -0.03    -0.01   0.02  -0.00
    11   6    -0.07   0.00   0.03    -0.04   0.06   0.08     0.01  -0.01  -0.06
    12   6    -0.01  -0.03   0.01    -0.03   0.03   0.07     0.12  -0.02  -0.05
    13   6    -0.03  -0.06  -0.04    -0.03   0.04  -0.06     0.12  -0.02   0.08
    14   1    -0.20  -0.22   0.17    -0.08   0.03  -0.04     0.04   0.10  -0.03
    15   1     0.01   0.21   0.41    -0.04   0.01  -0.03    -0.17  -0.02  -0.16
    16   1    -0.01   0.08  -0.11    -0.03   0.04  -0.05    -0.10  -0.16  -0.02
    17   1     0.11   0.17  -0.00    -0.17   0.06  -0.09     0.02  -0.06   0.17
    18   1     0.19   0.10  -0.01    -0.06  -0.06   0.09    -0.09  -0.04  -0.23
    19   1     0.17   0.14   0.01    -0.13  -0.21   0.01     0.13   0.31  -0.07
    20   1    -0.05  -0.01  -0.01     0.14  -0.03   0.04    -0.11   0.08  -0.04
    21   1     0.10  -0.18  -0.00    -0.04   0.21  -0.00    -0.01  -0.10   0.03
    22   1    -0.11  -0.04  -0.03     0.22   0.05   0.07    -0.19  -0.02  -0.07
    23   1    -0.03  -0.02   0.01    -0.05   0.16   0.15     0.21   0.05   0.02
    24   1     0.09  -0.07  -0.03     0.30   0.29  -0.03     0.14   0.22  -0.02
    25   1     0.04  -0.09  -0.06     0.04   0.10  -0.18    -0.01   0.11  -0.10
    26   1     0.09  -0.12  -0.03     0.11  -0.16  -0.07     0.02   0.01  -0.02
    27   1    -0.02  -0.10   0.02    -0.29  -0.02   0.05    -0.13   0.04   0.05
    28   1     0.04  -0.17  -0.06     0.01  -0.33  -0.14    -0.01  -0.09  -0.04
    29   1    -0.02   0.07   0.07    -0.07   0.02   0.07     0.05   0.05   0.06
    30   1     0.01   0.01   0.09    -0.00   0.01   0.10     0.14   0.04   0.04
    31   1     0.06  -0.03  -0.02     0.00   0.02   0.08     0.14   0.04  -0.15
    32   1    -0.13  -0.16  -0.26     0.02   0.04  -0.04     0.18   0.07   0.28
    33   1    -0.06  -0.20   0.14     0.00   0.04  -0.11     0.17   0.10  -0.10
                     16                     17                     18
                      A                      A                      A
 Frequencies --    478.7114               540.6803               585.4376
 Red. masses --      3.6740                 3.5186                 2.9816
 Frc consts  --      0.4961                 0.6060                 0.6021
 IR Inten    --      9.0434                 2.1755                 0.7930
  Atom  AN      X      Y      Z        X      Y      Z        X      Y      Z
     1   8     0.08  -0.15  -0.03     0.16  -0.07  -0.01    -0.04  -0.00  -0.10
     2   6    -0.02   0.18   0.02     0.04   0.05   0.14    -0.12  -0.15   0.17
     3   6    -0.03   0.24   0.08    -0.11  -0.02  -0.03    -0.04  -0.06   0.04
     4   6     0.02   0.01   0.07    -0.04  -0.15  -0.11    -0.04   0.05   0.01
     5   6    -0.02  -0.07  -0.04     0.11  -0.08   0.03     0.06   0.02  -0.13
     6   6    -0.07  -0.09  -0.01     0.05   0.10   0.03     0.00   0.03  -0.00
     7   6     0.00   0.00   0.00    -0.06   0.03  -0.01    -0.03   0.01   0.00
     8   6    -0.00  -0.00  -0.14     0.08  -0.08   0.03     0.12   0.04  -0.12
     9   6    -0.06  -0.06  -0.01    -0.05  -0.02  -0.01     0.05   0.08   0.01
    10   6    -0.02   0.00   0.01    -0.04   0.04   0.01    -0.02   0.03   0.01
    11   6     0.00   0.15  -0.02     0.01   0.10   0.07     0.10  -0.03   0.00
    12   6     0.07  -0.06  -0.02    -0.07   0.06   0.03    -0.00  -0.01   0.07
    13   6     0.07  -0.08   0.07    -0.08   0.03  -0.15    -0.01   0.00   0.07
    14   1    -0.03   0.34   0.05    -0.36   0.02  -0.09    -0.08   0.42  -0.10
    15   1    -0.15   0.21  -0.06    -0.15  -0.01  -0.03     0.29  -0.35  -0.31
    16   1    -0.03  -0.04  -0.05    -0.11  -0.24   0.00    -0.05   0.04   0.03
    17   1    -0.03  -0.19  -0.01     0.19   0.04   0.01     0.11  -0.07  -0.10
    18   1    -0.07  -0.04   0.08    -0.04   0.01  -0.14     0.04   0.10   0.13
    19   1    -0.14  -0.18   0.01     0.09   0.26  -0.02    -0.11  -0.11   0.03
    20   1     0.05  -0.02   0.01    -0.19   0.05  -0.02    -0.07  -0.02   0.01
    21   1    -0.07   0.12  -0.00     0.06  -0.16  -0.04     0.01  -0.04  -0.03
    22   1     0.10   0.02   0.03    -0.20   0.00  -0.05    -0.07   0.03   0.02
    23   1     0.01  -0.02  -0.15     0.09  -0.16   0.02     0.05   0.07  -0.09
    24   1    -0.22  -0.24   0.04    -0.09  -0.00   0.01    -0.09  -0.02   0.06
    25   1     0.04   0.03   0.20    -0.04   0.02   0.04     0.10   0.19   0.17
    26   1    -0.06   0.05   0.03    -0.05   0.13   0.02    -0.04  -0.02   0.01
    27   1     0.07  -0.02   0.01     0.08   0.00   0.04    -0.10   0.06  -0.01
    28   1    -0.02   0.08   0.05    -0.05   0.12   0.03     0.02  -0.02   0.02
    29   1     0.08   0.26   0.14     0.06   0.17  -0.07     0.15   0.04  -0.02
    30   1     0.02  -0.14  -0.17    -0.07  -0.01  -0.04    -0.06  -0.08  -0.07
    31   1    -0.01  -0.15   0.14    -0.05  -0.03   0.17    -0.10  -0.05   0.18
    32   1    -0.01  -0.11  -0.02     0.01   0.12   0.03    -0.03  -0.05  -0.03
    33   1     0.04  -0.13   0.16    -0.02   0.12  -0.32    -0.01  -0.07   0.12
                     19                     20                     21
                      A                      A                      A
 Frequencies --    614.8418               631.3502               729.5945
 Red. masses --      3.2141                 3.6313                 2.7275
 Frc consts  --      0.7159                 0.8528                 0.8554
 IR Inten    --      0.2017                 1.5227                 1.4447
  Atom  AN      X      Y      Z        X      Y      Z        X      Y      Z
     1   8     0.08   0.06  -0.01    -0.05   0.05  -0.03     0.01  -0.01  -0.01
     2   6    -0.01  -0.04   0.19    -0.10  -0.00   0.11    -0.00  -0.05   0.03
     3   6    -0.01  -0.05   0.07     0.10   0.10   0.11    -0.02   0.04   0.01
     4   6    -0.01  -0.05   0.02     0.21  -0.02  -0.00    -0.11   0.18  -0.04
     5   6    -0.12   0.07   0.15     0.09  -0.12  -0.03    -0.06   0.05   0.14
     6   6     0.03   0.00   0.03    -0.06  -0.05  -0.03    -0.08  -0.11   0.01
     7   6     0.06  -0.03  -0.00    -0.06   0.01   0.00    -0.02  -0.01   0.00
     8   6    -0.14   0.09  -0.05     0.06  -0.11   0.17     0.12  -0.06   0.07
     9   6     0.02  -0.00  -0.01     0.00   0.03   0.04    -0.05  -0.06  -0.02
    10   6     0.04  -0.05  -0.00    -0.03   0.05   0.00    -0.01  -0.01  -0.00
    11   6    -0.09   0.06  -0.07    -0.11  -0.02  -0.03     0.15  -0.04  -0.03
    12   6     0.03  -0.02  -0.17    -0.04  -0.01  -0.15     0.03  -0.00  -0.01
    13   6     0.04  -0.05  -0.06     0.02   0.02  -0.10    -0.01   0.03  -0.07
    14   1    -0.11   0.42  -0.07     0.01   0.29   0.04    -0.03   0.04   0.01
    15   1     0.17  -0.29  -0.28     0.27  -0.03  -0.03     0.18   0.02   0.08
    16   1     0.06   0.04  -0.12     0.15  -0.10   0.03    -0.07   0.23  -0.10
    17   1    -0.09   0.09   0.15    -0.02  -0.07  -0.06    -0.04   0.07   0.13
    18   1     0.03  -0.11  -0.15    -0.10   0.01   0.05    -0.10  -0.30  -0.30
    19   1     0.22   0.20  -0.02    -0.17  -0.14  -0.01     0.07   0.25  -0.09
    20   1     0.09   0.03  -0.02    -0.03  -0.00   0.01     0.04   0.13  -0.04
    21   1     0.03   0.02   0.02    -0.08   0.03   0.03    -0.16   0.23   0.00
    22   1     0.12  -0.05  -0.04    -0.06   0.03   0.02     0.24  -0.07  -0.07
    23   1    -0.03   0.10  -0.09     0.15  -0.04   0.15     0.17  -0.10   0.05
    24   1     0.02  -0.10  -0.01     0.23   0.31  -0.03     0.02   0.06  -0.04
    25   1     0.06  -0.06   0.00    -0.16  -0.03  -0.23    -0.11  -0.06  -0.10
    26   1     0.04  -0.12  -0.01     0.04   0.06  -0.03    -0.01   0.11   0.00
    27   1    -0.07  -0.02  -0.02    -0.00   0.04   0.01     0.19  -0.07   0.03
    28   1     0.06  -0.13  -0.01    -0.10   0.09  -0.05    -0.05   0.13   0.01
    29   1    -0.18  -0.07  -0.02    -0.04   0.10  -0.08     0.23   0.06  -0.09
    30   1     0.03  -0.07  -0.22     0.04   0.02   0.01     0.00  -0.06  -0.11
    31   1     0.01  -0.08  -0.07     0.03   0.04  -0.26    -0.04  -0.02   0.04
    32   1     0.03   0.02   0.07    -0.11  -0.02  -0.23    -0.03  -0.04  -0.20
    33   1     0.03   0.03  -0.12    -0.11  -0.04   0.16     0.03  -0.07  -0.04
                     22                     23                     24
                      A                      A                      A
 Frequencies --    737.5064               779.5248               821.2969
 Red. masses --      1.9493                 2.1357                 1.3202
 Frc consts  --      0.6247                 0.7646                 0.5247
 IR Inten    --      0.3583                 2.8108                 1.7049
  Atom  AN      X      Y      Z        X      Y      Z        X      Y      Z
     1   8    -0.07   0.00  -0.02    -0.06  -0.03  -0.04     0.01   0.00   0.01
     2   6    -0.05  -0.01  -0.02    -0.06   0.01  -0.03     0.02  -0.00  -0.01
     3   6     0.11  -0.04  -0.02     0.05  -0.13  -0.03    -0.03   0.01  -0.01
     4   6     0.08  -0.00  -0.02     0.07  -0.05   0.00    -0.00  -0.00  -0.01
     5   6     0.02  -0.06   0.07    -0.04   0.03   0.02     0.03  -0.05  -0.06
     6   6    -0.03  -0.05   0.04     0.01   0.02  -0.02     0.01  -0.00   0.07
     7   6    -0.02  -0.00   0.01     0.01  -0.01  -0.01     0.01  -0.01   0.03
     8   6     0.01   0.02  -0.08    -0.02   0.02   0.05    -0.06   0.00  -0.04
     9   6     0.05   0.05  -0.04    -0.06  -0.07   0.01     0.01   0.01   0.06
    10   6    -0.00   0.01  -0.01    -0.00  -0.04   0.01    -0.01   0.02   0.03
    11   6    -0.08   0.07   0.06     0.06   0.17   0.02    -0.01  -0.03  -0.01
    12   6    -0.01   0.03   0.08     0.04   0.09   0.02     0.02   0.02   0.01
    13   6     0.00   0.01  -0.08     0.02   0.01   0.01     0.03   0.03   0.03
    14   1     0.12  -0.19   0.02     0.08  -0.09  -0.03    -0.01   0.01  -0.00
    15   1     0.15   0.03   0.13     0.05  -0.15  -0.06    -0.08   0.02  -0.02
    16   1     0.12   0.04   0.06     0.14   0.04   0.03    -0.04  -0.05   0.01
    17   1     0.10  -0.05   0.08    -0.11   0.09  -0.01     0.12  -0.04  -0.05
    18   1    -0.06  -0.23  -0.25     0.00   0.10   0.10     0.07  -0.20  -0.24
    19   1     0.02   0.26  -0.06     0.04  -0.12   0.02    -0.08   0.35  -0.05
    20   1    -0.08   0.14  -0.05     0.09  -0.08   0.02    -0.25   0.22  -0.06
    21   1    -0.06   0.08  -0.04     0.01  -0.02   0.05     0.06  -0.02  -0.15
    22   1     0.15  -0.09  -0.10    -0.06   0.04   0.06     0.20  -0.16  -0.17
    23   1     0.05  -0.09  -0.10    -0.01   0.04   0.05    -0.08   0.08  -0.02
    24   1    -0.31  -0.14   0.08     0.16   0.00  -0.06     0.28   0.02  -0.04
    25   1     0.27   0.10   0.30    -0.20  -0.06  -0.19    -0.15   0.01  -0.17
    26   1    -0.17   0.04   0.06     0.13  -0.00  -0.05     0.20  -0.15  -0.07
    27   1    -0.12   0.03   0.07     0.17  -0.07  -0.03    -0.08   0.07  -0.11
    28   1     0.15  -0.17   0.09    -0.13   0.16  -0.06    -0.16   0.10  -0.11
    29   1    -0.08   0.06   0.05     0.12   0.26   0.05    -0.05  -0.09   0.01
    30   1     0.03  -0.07   0.06     0.00  -0.21  -0.32     0.05  -0.15  -0.10
    31   1    -0.00  -0.05   0.20    -0.22  -0.07   0.39    -0.19   0.02   0.09
    32   1    -0.02  -0.01  -0.12    -0.20   0.03  -0.05    -0.17  -0.01  -0.12
    33   1     0.01  -0.04  -0.05     0.07  -0.18   0.11     0.05  -0.17   0.17
                     25                     26                     27
                      A                      A                      A
 Frequencies --    838.5431               846.4506               862.7416
 Red. masses --      1.3846                 2.2417                 1.8488
 Frc consts  --      0.5736                 0.9463                 0.8108
 IR Inten    --      7.3963                 0.8917                 3.0976
  Atom  AN      X      Y      Z        X      Y      Z        X      Y      Z
     1   8    -0.02   0.00  -0.01     0.01  -0.00  -0.00     0.02   0.02   0.01
     2   6    -0.03   0.01   0.02    -0.00   0.01   0.01     0.02  -0.05   0.03
     3   6     0.06  -0.01   0.01    -0.05  -0.02  -0.02    -0.02   0.05  -0.05
     4   6     0.01  -0.00  -0.01     0.12  -0.05  -0.09     0.00   0.01  -0.05
     5   6    -0.00   0.02  -0.00    -0.01   0.09  -0.04     0.02  -0.02   0.11
     6   6    -0.01  -0.01   0.01    -0.02  -0.03   0.01    -0.01  -0.02  -0.04
     7   6    -0.00  -0.01   0.01    -0.01  -0.02   0.02    -0.03   0.01  -0.04
     8   6     0.03   0.02  -0.07     0.03   0.00   0.06     0.02  -0.01  -0.08
     9   6    -0.02  -0.02   0.04    -0.02  -0.02  -0.04     0.02   0.02   0.02
    10   6    -0.01  -0.01   0.03     0.01  -0.02  -0.03    -0.01   0.02   0.02
    11   6    -0.01   0.05  -0.02    -0.01   0.01  -0.06    -0.09  -0.03  -0.07
    12   6    -0.05  -0.04   0.06    -0.11   0.05   0.04    -0.04   0.06   0.09
    13   6    -0.03  -0.08  -0.00     0.09  -0.06   0.17     0.09  -0.02   0.02
    14   1     0.03  -0.04   0.01    -0.25   0.02  -0.08    -0.13  -0.12  -0.03
    15   1     0.13  -0.00   0.06    -0.08  -0.03  -0.06     0.02   0.13   0.13
    16   1     0.07   0.07  -0.02     0.15  -0.01  -0.31    -0.04  -0.04  -0.18
    17   1     0.04  -0.03   0.01    -0.04   0.24  -0.09     0.05  -0.05   0.12
    18   1     0.01  -0.05  -0.05     0.14  -0.14  -0.12    -0.17   0.09   0.09
    19   1     0.00   0.06  -0.01    -0.08   0.15  -0.05     0.17  -0.21   0.02
    20   1    -0.02   0.05  -0.01    -0.06   0.15  -0.04     0.24  -0.19   0.05
    21   1    -0.03   0.04  -0.01    -0.09   0.13  -0.06    -0.09   0.05   0.15
    22   1     0.07  -0.04  -0.03     0.23  -0.11  -0.10    -0.18   0.16   0.15
    23   1     0.04   0.07  -0.07     0.04   0.02   0.06     0.19  -0.02  -0.13
    24   1     0.27  -0.04  -0.07    -0.18   0.06   0.02     0.16  -0.07  -0.03
    25   1    -0.22   0.09  -0.16     0.08  -0.08   0.06    -0.08   0.10  -0.05
    26   1     0.24  -0.11  -0.08    -0.16   0.14   0.05     0.14  -0.11  -0.04
    27   1     0.07   0.00  -0.12     0.10  -0.08   0.10    -0.06   0.07  -0.09
    28   1    -0.22   0.21  -0.12     0.12  -0.07   0.09    -0.10   0.07  -0.07
    29   1     0.04   0.13  -0.04     0.01   0.04  -0.24    -0.17  -0.15  -0.26
    30   1    -0.12   0.25   0.21    -0.16   0.17   0.08     0.03  -0.14   0.02
    31   1     0.29  -0.03  -0.07    -0.08   0.13  -0.09    -0.22   0.06   0.17
    32   1     0.35  -0.04   0.21     0.08  -0.05   0.18    -0.04  -0.06  -0.08
    33   1    -0.07   0.27  -0.25     0.01   0.02   0.23     0.16  -0.20   0.06
                     28                     29                     30
                      A                      A                      A
 Frequencies --    889.3568               938.9863               951.1027
 Red. masses --      2.1445                 1.9090                 2.0844
 Frc consts  --      0.9994                 0.9917                 1.1109
 IR Inten    --      0.9799                 4.9104                 1.0066
  Atom  AN      X      Y      Z        X      Y      Z        X      Y      Z
     1   8     0.01   0.01   0.03    -0.01   0.01  -0.01     0.02   0.01  -0.00
     2   6     0.05   0.02  -0.09    -0.02  -0.06   0.05    -0.01  -0.03   0.07
     3   6    -0.01  -0.06   0.12     0.09   0.09  -0.04     0.01  -0.01  -0.10
     4   6    -0.09   0.04   0.03    -0.07   0.02  -0.03    -0.03   0.03   0.02
     5   6    -0.02  -0.04  -0.04    -0.07  -0.08  -0.02     0.07  -0.02  -0.02
     6   6     0.02   0.03   0.02    -0.01   0.06   0.02     0.01  -0.03  -0.01
     7   6     0.03   0.01   0.01     0.10  -0.00   0.02    -0.02   0.02   0.02
     8   6     0.05   0.02   0.04    -0.03  -0.05   0.05     0.07   0.13   0.00
     9   6    -0.03  -0.03  -0.02     0.02   0.00   0.01    -0.08   0.01  -0.02
    10   6    -0.00  -0.03  -0.02    -0.00   0.02  -0.02     0.04  -0.11  -0.02
    11   6    -0.10   0.05  -0.09     0.03   0.03  -0.04    -0.12   0.01   0.02
    12   6    -0.03  -0.01   0.11    -0.00   0.07  -0.02     0.07  -0.04  -0.05
    13   6     0.08  -0.02  -0.08     0.02  -0.09   0.04    -0.03   0.02   0.06
    14   1     0.28   0.32   0.08     0.07  -0.18   0.03    -0.10  -0.24  -0.06
    15   1     0.01  -0.25  -0.24     0.28   0.18   0.25     0.04   0.12   0.15
    16   1    -0.10   0.03   0.01    -0.11  -0.02  -0.19    -0.05  -0.00   0.11
    17   1    -0.05  -0.05  -0.04    -0.16  -0.17  -0.01     0.00  -0.09  -0.01
    18   1    -0.01   0.03   0.01    -0.09   0.08   0.04     0.01  -0.02  -0.01
    19   1    -0.09   0.05   0.01    -0.21   0.05   0.02    -0.12  -0.02  -0.02
    20   1    -0.13   0.03  -0.00    -0.19   0.01  -0.00    -0.10   0.06  -0.00
    21   1     0.14  -0.15  -0.07     0.31  -0.32  -0.12     0.00  -0.00  -0.04
    22   1    -0.06  -0.03  -0.04    -0.10  -0.07  -0.07    -0.00  -0.02  -0.03
    23   1     0.14   0.10   0.02    -0.02   0.04   0.05     0.21   0.23  -0.03
    24   1    -0.08   0.11   0.00    -0.04   0.12   0.04    -0.10   0.23  -0.00
    25   1    -0.03  -0.01  -0.01     0.05  -0.10  -0.01    -0.16   0.14  -0.04
    26   1    -0.09   0.14   0.02    -0.11   0.06   0.03    -0.02   0.19   0.01
[...]
 7,0.00077705,0.00002178,-0.00175924,-0.00398505,-0.00066944,0.01227966
 ,0.00451284,-0.02168302,-0.00822682,-0.00388194,0.01621550,0.10719998,
 -0.00013478,0.00015294,0.00002354,0.00053565,-0.00011574,-0.00002729,-
 0.00011918,0.00017580,-0.00003090,-0.00002289,-0.00001267,0.00010501,-
 0.00019697,-0.00007736,-0.00026126,-0.00009546,-0.00000121,0.00021671,
 0.00010864,-0.00003673,-0.00011138,-0.00021081,0.00123564,0.00100954,-
 0.01137166,-0.00423952,0.02509477,-0.02183099,-0.05882504,0.04398348,-
 0.00034425,-0.00115014,-0.00028811,0.00008995,0.00008986,-0.00022520,-
 0.00006965,-0.00002471,0.00009483,0.00002004,0.00006097,-0.00000529,0.
 00004802,0.00003618,-0.00000363,0.00001394,0.00001993,-0.00004084,0.00
 005687,0.00005541,-0.00001117,0.00011691,-0.00003156,-0.00027242,0.000
 01595,0.00002793,0.00004438,-0.00000849,-0.00002610,0.00001545,0.00001
 034,0.00001214,-0.00000210,-0.00003986,-0.00007477,-0.00001000,-0.0000
 2434,-0.00010624,-0.00003451,0.00076484,0.00126356,-0.00045507,-0.0034
 3344,-0.00426691,-0.00050669,-0.00194128,-0.00173341,0.00425733,0.0109
 6876,0.00621589,-0.02459780,0.02589790,0.06267669,-0.00006701,-0.00007
 044,-0.00002271,-0.00035102,-0.00004153,0.00013663,0.00012601,-0.00014
 522,-0.00003518,0.00008879,0.00005496,-0.00006590,-0.00016954,0.000058
 34,0.00006121,0.00000270,-0.00005361,-0.00000402,-0.00002717,-0.000004
 58,0.00000043,0.00060985,0.00006327,-0.00032447,-0.00168579,0.00000440
 ,0.00390208,0.10105736,0.04488695,-0.25344509,0.00114878,-0.00025850,-
 0.00034337,0.00002008,-0.00015330,0.00024726,-0.00007331,0.00004927,-0
 .00001920,-0.00001458,-0.00004270,0.00000132,-0.00003850,-0.00004317,0
 .00000843,-0.00001620,0.00001440,0.00003457,0.00001167,0.00003256,0.00
 000499,-0.00001863,0.00002002,0.00004110,-0.00001961,-0.00000762,-0.00
 002502,0.00000423,0.00000691,-0.00000520,0.00000038,0.00000070,0.00000
 031,0.00000979,0.00001777,0.00001188,0.00005899,-0.00005572,0.00004004
 ,0.00034263,0.00051179,0.00089892,-0.00063112,-0.00086013,0.00160719,0
 .01052826,0.00328571,-0.01945329,0.00261835,0.00104503,-0.00704575,-0.
 11304042,-0.04697477,0.27383094,0.00208630,-0.00193242,0.00008565,0.01
 119794,0.01797224,-0.00081155,-0.00212471,0.00260018,0.00016064,-0.000
 15949,0.00075613,-0.00006812,-0.00027390,0.00104063,0.00281865,0.00011
 000,-0.00073541,0.00000644,-0.00025873,0.00015282,0.00003334,-0.010111
 62,-0.01299422,0.00051091,-0.00022667,-0.00099584,-0.00032435,-0.00002
 979,-0.00043777,0.00085326,-0.14731386,-0.13184388,0.00505927,-0.01114
 883,-0.01513623,0.00067963,-0.00063067,0.00091447,-0.00338289,0.000300
 90,0.00053520,0.00000121,0.00025201,0.00051858,-0.00000659,0.00003316,
 -0.00003017,0.00001117,-0.00033295,-0.00042369,0.00014432,0.00000978,0
 .00000894,0.00009293,-0.00003968,-0.00000199,-0.00007159,0.00002828,0.
 00002042,-0.00000115,-0.00009094,-0.00008099,0.00000675,0.00000941,0.0
 0000913,-0.00001456,0.00067477,0.00031026,0.00005174,-0.00007137,0.000
 09951,0.00009308,0.00017628,0.00009331,-0.00007399,0.00000144,0.000058
 76,-0.00004286,0.00036282,0.00011002,-0.00049450,0.00021096,0.00127408
 ,-0.00036686,0.15721382,0.00040826,0.00601497,-0.00020621,-0.02101940,
 -0.02723531,0.00096800,0.00363433,-0.00280439,-0.00001520,0.00101116,0
 .00039654,0.00001465,0.00086441,0.00066701,-0.00053630,0.00009961,0.00
 014100,0.00004726,0.00002818,0.00000821,-0.00002836,0.00096380,0.00198
 322,0.00087688,0.00006074,-0.00021180,0.00038155,0.00084825,-0.0014377
 7,-0.00068439,-0.12791180,-0.21759950,0.00754152,0.00164394,0.00194830
 ,-0.00048585,0.00064569,0.00094444,0.00060711,-0.00038516,-0.00089808,
 0.00002053,-0.00033006,-0.00084187,-0.00002863,-0.00006557,0.00009776,
 -0.00001591,0.00000926,-0.00000554,-0.00004081,-0.00004777,0.00000902,
 0.00001168,-0.00002661,0.00000548,0.00000135,0.00000784,-0.00000160,-0
 .00000652,0.00000669,0.00001137,0.00000121,0.00001476,-0.00000028,0.00
 001065,-0.00008390,0.00014443,0.00045913,0.00005491,-0.00003214,-0.000
 03267,-0.00018379,0.00009429,0.00003014,-0.00008553,0.00004124,0.00013
 628,0.00023684,0.00006848,-0.00019099,0.00111232,-0.00141686,-0.001420
 57,0.13863900,0.23913607,-0.00022747,-0.00001057,-0.00112530,0.0004144
 2,-0.00045611,-0.00041160,0.00009859,0.00000617,0.00212340,-0.00002304
 ,0.00005863,-0.00075974,0.00251628,-0.00202242,-0.00419447,-0.00012481
 ,0.00149953,-0.00006946,0.00048666,-0.00029424,-0.00011457,0.01641052,
 0.02254841,-0.00075457,-0.00032059,0.00047598,0.00098997,0.00033729,-0
 .00047244,0.00000653,0.00481590,0.00771410,-0.04973743,-0.01604821,-0.
 02245842,0.00077656,-0.00267243,0.00138316,-0.00409620,-0.00011870,-0.
 00032132,-0.00004108,0.00012354,0.00037657,-0.00004790,0.00004648,0.00
 000588,0.00017549,0.00033105,0.00070412,-0.00010800,-0.00003809,-0.000
 04213,-0.00001367,0.00013209,-0.00011337,0.00007015,-0.00003801,-0.000
 03590,0.00001983,0.00014891,0.00016773,0.00000485,0.00001894,0.0000646
 0,0.00003474,-0.00087107,0.00014738,0.00079521,0.00006461,-0.00017851,
 -0.00004917,-0.00022413,0.00012033,0.00002649,-0.00009022,-0.00007593,
 -0.00027485,-0.00023165,-0.00001032,0.00004731,0.00036427,-0.00089939,
 -0.00000563,-0.00544994,-0.00645030,0.05504949,0.00015250,-0.00035647,
 0.00022408,0.00165273,-0.00002466,-0.00054246,-0.00020299,0.00006961,0
 .00011924,-0.00158781,-0.00077403,-0.00087061,-0.00023240,-0.00019313,
 -0.00012915,-0.00005372,0.00016747,-0.00009335,0.00006251,-0.00002989,
 -0.00001574,-0.00337556,0.00044809,-0.00337008,-0.00046222,0.00028877,
 -0.00007376,0.00007325,-0.00006682,0.00007268,0.01246306,0.00009433,-0
 .01892601,-0.13240824,0.00327565,0.12305561,-0.01043815,-0.00013274,0.
 01304583,0.00008694,-0.00000015,-0.00000295,-0.00000455,-0.00002487,-0
 .00005302,0.00023186,-0.00023949,0.00047683,0.00003698,0.00003851,0.00
 009911,-0.00002281,-0.00001475,0.00007826,0.00012461,-0.00007560,-0.00
 001929,-0.00000412,-0.00002184,0.00001809,-0.00000489,0.00002479,0.000
 01874,0.00003533,0.00004953,0.00000078,0.00076648,-0.00007162,-0.00136
 553,0.00033983,-0.00022594,0.00018097,0.00014040,-0.00008480,0.0001096
 4,0.00005283,0.00007343,0.00001985,-0.00001007,-0.00001700,0.00000462,
 -0.00001998,-0.00000717,-0.00000235,0.00082020,-0.00011061,0.00092822,
 0.14229679,-0.00008788,0.00015130,-0.00018926,-0.00018089,-0.00016494,
 0.00110629,-0.00017343,0.00016848,0.00006198,-0.00262158,-0.00194963,-
 0.00063963,0.00013149,-0.00017010,-0.00044776,0.00004387,0.00005100,-0
 .00000425,-0.00000505,-0.00002347,-0.00006557,-0.00002436,0.00017299,-
 0.00026946,0.00032467,0.00009166,0.00010911,-0.00002905,0.00015202,-0.
 00009808,0.00075009,-0.00030342,-0.00004239,0.00361487,-0.04972764,-0.
 00185077,-0.01575462,-0.00194525,0.02131272,0.00014749,-0.00000399,-0.
 00003720,0.00008764,-0.00024115,0.00000498,0.00034803,-0.00057847,0.00
 078859,0.00007051,0.00008117,0.00006376,-0.00002307,-0.00000338,0.0000
 7304,-0.00001072,-0.00007168,-0.00003509,0.00000919,0.00001170,0.00000
 553,-0.00000229,0.00002436,0.00001974,0.00004892,0.00006386,0.00000714
 ,-0.00004937,0.00016917,-0.00006156,-0.00043752,0.00016534,-0.00000958
 ,-0.00014870,0.00003068,-0.00015747,-0.00005136,-0.00004871,-0.0000176
 9,0.00000414,-0.00000942,0.00000094,0.00004742,0.00001704,0.00001869,0
 .00027365,0.00009448,-0.00022073,-0.00017199,0.05456293,-0.00146600,0.
 00008329,0.00033801,0.00282528,-0.00112495,-0.00042250,0.00024277,0.00
 004294,-0.00031176,0.00007896,0.00026003,0.00031644,-0.00039553,-0.000
 60548,0.00048417,-0.00004249,0.00014033,0.00002732,0.00005271,-0.00004
 603,-0.00000617,-0.00519761,0.00007832,-0.00331872,-0.00047502,0.00048
 093,0.00033322,0.00011994,0.00004367,-0.00006411,0.01335749,0.00047487
 ,-0.02225760,0.12239066,-0.00130749,-0.22578947,-0.00136609,-0.0010450
 3,0.00149408,-0.00007080,0.00005997,0.00005709,-0.00000362,0.00018847,
 0.00006636,-0.00004118,0.00008194,-0.00007822,-0.00000123,0.00004814,0
 .00006387,-0.00002352,-0.00000624,0.00001791,0.00001562,-0.00001885,-0
 .00000956,-0.00000860,0.00000308,-0.00000011,0.00003344,0.00002241,-0.
 00000829,0.00000138,0.00002295,0.00000808,0.00109332,-0.00004751,-0.00
 168180,0.00006998,-0.00004266,0.00017370,0.00007775,-0.00006304,-0.000
 00194,0.00000263,0.00003279,0.00002124,-0.00001222,-0.00007853,0.00000
 043,-0.00001637,0.00000007,0.00002908,-0.00002205,-0.00048811,0.000795
 53,-0.12975839,0.00345891,0.24631626,-0.00123767,0.00144939,0.00076305
 ,-0.00088901,-0.00423964,-0.00394660,-0.00011086,0.00045279,0.00083351
 ,-0.00136979,-0.00195783,-0.00061405,0.00010387,-0.00006091,-0.0001041
 0,0.00005608,0.00000394,0.00005807,-0.00000696,-0.00002476,-0.00004855
 ,0.00040326,-0.00043679,0.00156093,0.00020097,0.00028863,0.00013275,0.
 00016793,-0.00007238,-0.00027586,-0.01290156,0.01786278,-0.00358838,-0
 .12871683,0.12356644,-0.00158727,0.00985549,-0.01862205,0.00091514,0.0
 0009213,-0.00012146,-0.00000030,0.00008898,0.00016330,-0.00007257,0.00
 019601,-0.00039578,0.00068293,-0.00001379,0.00002017,0.00007265,-0.000
 00790,0.00001221,-0.00002940,-0.00002867,0.00000575,-0.00000404,0.0000
 0296,0.00000914,-0.00000320,0.00000808,0.00001625,0.00001013,0.0000130
 7,0.00000584,0.00001935,-0.00005185,-0.00001721,0.00010690,0.00033774,
 0.00019950,0.00072117,0.00019171,-0.00028377,0.00012587,-0.00001952,0.
 00000016,0.00014991,-0.00002455,-0.00002813,0.00005475,-0.00030089,-0.
 00019373,-0.00005035,0.00022272,-0.00020495,0.00049707,-0.01086101,0.0
 1569363,-0.00018387,0.14346621,-0.00013325,0.00003597,0.00033108,0.000
 03082,0.00048227,-0.00083934,-0.00037300,0.00072482,-0.00029128,-0.002
 27387,-0.00230825,-0.00121482,0.00014528,-0.00033096,-0.00021661,0.000
 19519,-0.00007145,0.00017661,-0.00011227,-0.00000881,-0.00009327,0.000
 64414,-0.00032216,-0.00012047,0.00092043,-0.00023622,-0.00018382,-0.00
 003619,0.00027793,-0.00013561,-0.00128468,0.00266023,0.00064884,0.1220
 7588,-0.22808633,0.00565294,0.01219434,-0.01974468,-0.00007033,0.00006
 789,-0.00001108,0.00007086,-0.00004893,0.00011442,-0.00000751,0.000223
 45,-0.00053638,0.00103607,-0.00001780,0.00010195,0.00011428,-0.0000807
 8,0.00003710,0.00004555,-0.00014963,-0.00001398,-0.00004911,0.00002340
 ,0.00003955,-0.00002521,-0.00002194,0.00002324,0.00003951,0.00006752,0
 .00004833,0.00005064,-0.00014281,0.00006369,0.00019320,-0.00047530,0.0
 0014317,-0.00094808,-0.00025019,0.00010238,-0.00020970,-0.00009792,-0.
 00006305,0.00000956,0.00000837,0.00001377,0.00000383,0.00000321,-0.000
 00717,0.00010489,0.00028070,0.00047849,0.00046145,0.00066929,-0.000153
 49,-0.00076839,-0.13055424,0.24724352,-0.00247577,0.00171241,0.0013942
 9,-0.00089237,-0.00412096,-0.00541559,0.00028235,-0.00016543,0.0009112
 7,0.00040645,0.00072903,-0.00030911,0.00012581,0.00031883,-0.00004275,
 -0.00009309,0.00011655,-0.00013655,0.00008959,-0.00000455,0.00002917,0
 .00043294,0.00036459,0.00168807,-0.00027827,-0.00012492,-0.00108383,0.
 00009007,-0.00023854,0.00005035,-0.01820724,0.02541105,-0.00358589,-0.
 00089756,0.00545100,-0.04827179,-0.00088778,0.00103523,-0.00064283,0.0
 0001620,-0.00013110,0.00000890,0.00015302,0.00026095,0.00002257,0.0001
 3330,0.00009992,-0.00024421,-0.00001425,-0.00007513,0.00002065,0.00005
 082,-0.00001617,-0.00003134,0.00014071,-0.00000647,0.00005634,-0.00001
 519,-0.00003500,0.00001752,-0.00000078,-0.00000525,-0.00000821,-0.0000
 2510,-0.00003056,-0.00002569,0.00002291,-0.00024044,0.00049047,0.00108
 053,-0.00073958,-0.00122020,0.00026678,-0.00000030,0.00039659,0.000061
 33,0.00010747,0.00013103,-0.00000870,0.00002163,0.00002542,-0.00013683
 ,-0.00009702,-0.00005205,0.00057443,-0.00042864,0.00100792,0.01655088,
 -0.02406270,0.00145611,0.00397268,-0.00470477,0.05215427,-0.00010067,0
 .00032663,0.00007454,0.00000044,-0.00086175,-0.00008828,0.00069264,-0.
 00071970,-0.00100640,0.00032993,-0.00420172,-0.00679233,-0.00047555,0.
 00098967,-0.00118107,-0.00018507,0.00040626,-0.00008565,0.00017787,0.0
 0001663,0.00011781,-0.00009668,0.00017883,0.00036988,-0.00006214,0.000
 07469,-0.00006331,0.00000218,-0.00003376,0.00006890,-0.00121216,-0.002
 31979,0.00033138,0.00091724,-0.01205395,-0.01536888,-0.05580568,0.0227
 4592,0.03078468,0.00013001,-0.00001679,0.00017047,-0.00006356,0.000316
 29,0.00015528,0.00017764,0.00001576,0.00052331,0.00028507,-0.00026385,
 -0.00042783,0.00011118,-0.00013420,0.00017381,0.00043540,-0.00036588,0
 .00003573,-0.00004254,-0.00009151,0.00002386,-0.00000536,0.00000617,-0
 .00000028,-0.00000450,0.00003422,-0.00002028,0.00006141,0.00006144,-0.
 00001411,0.00000344,-0.00008387,0.00004949,0.00001744,-0.00002077,-0.0
 0003489,0.00001878,0.00002146,0.00000145,0.00001447,0.00000300,-0.0000
 1436,0.00002773,0.00005222,-0.00001161,-0.00052944,0.00008636,-0.00063
 378,0.00154790,-0.00002345,-0.00049476,-0.00075316,-0.00150546,-0.0004
 7789,0.05888340,-0.00029196,0.00033148,0.00010470,0.00049533,-0.000839
 08,-0.00015746,-0.00068292,0.00089012,0.00006709,-0.00264139,0.0110508
 8,0.01670926,0.00160756,-0.00221577,0.00308792,0.00035955,-0.00013792,
 0.00000893,-0.00002938,0.00004094,-0.00003369,-0.00005001,-0.00021791,
 0.00037528,0.00016350,0.00004397,0.00009872,-0.00005444,0.00003724,0.0
 0002895,-0.00088452,-0.00266637,0.00103103,0.00277283,-0.01505366,-0.0
 1905059,0.02223475,-0.12923827,-0.11977847,-0.00031628,0.00014222,0.00
 000706,-0.00006584,0.00016983,-0.00020041,-0.00033693,0.00091204,-0.00
 070898,-0.00018596,0.00060979,0.00117410,-0.00009030,0.00003941,-0.000
 03621,-0.00021400,0.00009108,-0.00013783,0.00003275,0.00004873,-0.0000
 1434,-0.00000761,-0.00001329,-0.00000621,-0.00000576,-0.00000166,-0.00
 000402,0.00004033,0.00006308,-0.00010075,-0.00012437,0.00007498,0.0000
 3600,-0.00000012,-0.00003987,-0.00009542,-0.00001460,-0.00001000,-0.00
 001699,0.00003226,-0.00000102,-0.00002717,0.00004043,0.00007490,-0.000
 00869,-0.00055498,0.00010713,-0.00085421,-0.00003997,0.00162424,0.0000
 1893,-0.00219780,-0.00248378,-0.00033967,-0.02083485,0.14168795,-0.000
 13431,0.00020505,0.00003228,-0.00005127,-0.00082999,-0.00014681,0.0014
 6936,-0.00109356,0.00105695,0.00441743,-0.01544251,-0.02425145,-0.0020
 2245,0.00516612,-0.00303778,-0.00065227,0.00015657,0.00023256,-0.00001
 777,-0.00014552,-0.00006273,0.00050723,0.00064893,0.00038487,-0.000160
 97,-0.00002712,0.00003455,0.00007242,-0.00003173,-0.00000911,-0.000190
 51,0.00018381,0.00034564,0.00041082,0.00312412,0.00294211,0.02927983,-
 0.11955227,-0.21954580,0.00023219,0.00018622,0.00042422,-0.00097944,0.
 00065757,0.00038726,0.00053570,0.00020979,0.00086402,0.00026863,-0.000
 96099,-0.00184113,0.00015038,-0.00006078,-0.00000891,0.00007577,-0.000
 02826,0.00016109,-0.00002748,-0.00000573,0.00002450,0.00007505,0.00004
 484,-0.00000609,-0.00000223,0.00002588,0.00003325,-0.00005389,-0.00004
 146,0.00007462,0.00002569,-0.00000670,-0.00001422,-0.00000419,0.000033
 58,0.00002154,-0.00000738,0.00000710,0.00000026,-0.00001101,-0.0000452
 7,-0.00000354,-0.00002529,-0.00001581,0.00001141,-0.00001630,0.0000268
 4,-0.00002007,-0.00017039,0.00037895,0.00187848,-0.00021449,0.00082700
 ,-0.00002735,-0.03375555,0.12655306,0.23993922,-0.00030271,-0.00003639
 ,-0.00002357,0.00100768,0.00011433,0.00032673,0.00086636,0.00120859,-0
 .00181565,-0.00609606,0.00191864,-0.00059119,-0.00056017,0.00046581,0.
 00047343,-0.00053127,0.00063797,0.00037432,0.00031492,0.00004182,0.000
 02872,-0.00032365,-0.00005714,0.00016792,-0.00016475,0.00015641,-0.000
 21647,0.00005114,-0.00009674,0.00009584,-0.00078028,-0.00166440,0.0010
 8026,-0.01474115,0.00360350,0.00117222,-0.29185913,0.06591086,0.005458
 40,-0.00058759,-0.00001985,0.00009815,0.00023029,-0.00015326,0.0000456
 8,0.00046981,0.00036431,-0.00026471,0.00011242,-0.00009100,-0.00008261
 ,0.00025302,-0.00023233,0.00031341,0.00054113,-0.00057942,0.00093924,-
 0.00002706,-0.00011332,0.00006609,0.00001650,0.00001793,0.00000526,-0.
 00000833,0.00011794,-0.00012905,0.00010645,0.00001413,-0.00007858,0.00
 005941,-0.00017708,0.00005831,0.00006813,-0.00007480,-0.00003899,0.000
 03184,0.00004382,0.00002189,0.00002134,-0.00001792,-0.00003098,0.00001
 762,0.00007082,-0.00004378,-0.00036812,0.00007878,-0.00062268,-0.00119
 565,-0.00180027,-0.00078261,0.00188683,0.00000837,-0.00004000,-0.00449
 766,0.00184471,0.00097671,0.31598871,0.00020212,0.00066470,-0.00002717
 ,-0.00009812,-0.00175204,0.00012300,0.00011554,-0.00158007,0.00419893,
 0.01828850,-0.00523154,-0.00161044,-0.00021229,0.00033219,-0.00092160,
 -0.00002949,0.00029283,-0.00019263,-0.00003080,0.00010890,0.00026894,-
 0.00010383,0.00005232,0.00016599,-0.00011060,0.00011969,-0.00016133,0.
 00000687,-0.00005244,0.00009301,-0.00181506,-0.00201075,0.00092439,-0.
 02707152,0.00459903,0.00106933,0.06670027,-0.06551710,-0.00295296,0.00
 144009,-0.00001504,0.00029909,-0.00052493,0.00023179,0.00007096,-0.000
 15786,0.00022762,-0.00068659,0.00005198,-0.00007176,-0.00011488,-0.000
 17950,0.00001687,-0.00006678,0.00006172,0.00028669,-0.00033328,-0.0000
 0907,-0.00004187,-0.00012574,-0.00001455,-0.00001603,-0.00003736,-0.00
 004996,-0.00027378,0.00003869,0.00006339,-0.00002427,-0.00008921,0.000
 05752,-0.00009093,0.00004059,0.00004530,-0.00002046,0.00002530,0.00001
 953,0.00002523,0.00000920,0.00001534,0.00000345,-0.00002131,0.00000332
 ,0.00003125,-0.00003513,-0.00050043,0.00009321,-0.00081776,-0.00251590
 ,-0.00223765,0.00010029,-0.00033852,0.00178696,-0.00006146,0.01819576,
 -0.00512142,-0.00014773,-0.07150481,0.07518445,-0.00026357,-0.00038154
 ,0.00006498,0.00068715,0.00077560,-0.00009530,-0.00014889,0.00268739,-
 0.00494811,-0.02820198,0.00742052,0.00138042,-0.00043068,-0.00041812,0
 .00139940,-0.00002568,0.00035537,-0.00118956,0.00024249,0.00002178,0.0
 0005433,-0.00022963,-0.00026767,-0.00002067,-0.00012794,0.00003529,-0.
 00014391,0.00003337,-0.00006645,0.00003266,-0.00029654,-0.00039077,-0.
 00036719,0.00105277,0.00026020,-0.00084368,0.00659360,-0.00363146,-0.0
 5021615,-0.00184518,0.00046857,0.00010480,-0.00001441,0.00027326,0.000
 15633,0.00061684,-0.00042476,0.00107661,0.00015514,0.00011208,0.000403
 50,0.00010455,-0.00018037,0.00031808,0.00089841,-0.00064616,-0.0011993
 7,-0.00005614,-0.00009436,0.00011762,-0.00002396,-0.00000969,0.0000174
 5,0.00003434,0.00011418,-0.00006792,0.00005813,0.00003469,0.00001325,0
 .00006329,-0.00014294,0.00006309,0.00003254,-0.00004577,-0.00002665,0.
 00002509,0.00002796,0.00001171,0.00000103,0.00000637,-0.00000189,0.000
 01724,0.00002554,-0.00002088,-0.00003613,-0.00007532,-0.00009977,0.000
 38967,0.00079881,0.00007286,0.00004617,0.00011202,0.00123644,0.0275906
 5,-0.00772990,0.00012616,-0.00694171,0.00097566,0.05259137\\0.00005225
 ,-0.00001142,0.00001748,-0.00018442,0.00002512,0.00001547,0.00012964,-
 0.00004046,-0.00001906,0.00003758,-0.00028168,-0.00001349,0.00004860,0
 .00010376,0.00004027,-0.00014337,-0.00001315,-0.00015228,-0.00007811,-
 0.00008363,0.00004120,-0.00002902,-0.00000936,-0.00020096,-0.00006760,
 0.00000354,0.00000279,0.00005426,0.00005494,0.00003652,0.00020134,0.00
 009453,-0.00006740,0.00005449,-0.00003015,0.00015828,-0.00003687,0.000
 12793,0.00001208,-0.00004698,0.00006188,0.00004797,-0.00002994,0.00003
 879,-0.00001718,0.00001246,0.00003434,0.00002763,-0.00001063,-0.000003
 88,0.00003935,0.00001318,-0.00005780,0.00003912,-0.00000857,-0.0000920
 2,0.00006587,-0.00003683,0.00004519,0.00000671,-0.00000161,-0.00004479
 ,-0.00002528,0.00001613,0.00008676,0.00002628,0.00005364,-0.00003115,0
 .00000014,0.00008831,0.00004239,0.00002810,0.00006333,0.00003052,0.000
 04378,-0.00004850,-0.00000363,0.00001565,0.00002304,0.00004748,-0.0000
 3006,-0.00005268,-0.00002618,0.00001222,-0.00004414,-0.00003471,-0.000
 03560,0.00000095,0.00001542,-0.00004417,-0.00006273,0.00000167,0.00000
 116,0.00002304,-0.00001682,-0.00002923,0.00000976,-0.00003342,-0.00004
 333\\\@


 THOSE WITH THE GOLD MAKE THE RULES.

             -- PETER'S GOLDEN RULE
 Job cpu time:       0 days  0 hours  4 minutes  1.0 seconds.
 Elapsed time:       0 days  0 hours  4 minutes 11.7 seconds.
 File lengths (MBytes):  RWF=    219 Int=      0 D2E=      0 Chk=     16 Scr=      1
 Normal termination of Gaussian 16 at Mon Feb 26 15:40:38 2024.
