 Entering Gaussian System, Link 0=g16
 Input=/Volumes/SSD-PMU3/b3lyp_6-31gd_freq/ZDCYWXYPRPCJOY-RNFRBKRXSA-N_calculating/gaussianinput0.gjf
 Output=/Volumes/SSD-PMU3/b3lyp_6-31gd_freq/ZDCYWXYPRPCJOY-RNFRBKRXSA-N_calculating/gaussianinput0.log
 Initial command:
 /Applications/g16/l1.exe "/Users/macmini_m1_2022/PycharmProjects/sphere_model/sphere_model_lib/Gau-50871.inp" -scrdir="/Users/macmini_m1_2022/PycharmProjects/sphere_model/sphere_model_lib/"
 Entering Link 1 = /Applications/g16/l1.exe PID=     50872.
  
 Copyright (c) 1988,1990,1992,1993,1995,1998,2003,2009,2016,
            Gaussian, Inc.  All Rights Reserved.
  
 This is part of the Gaussian(R) 16 program.  It is based on
 the Gaussian(R) 09 system (copyright 2009, Gaussian, Inc.),
 the Gaussian(R) 03 system (copyright 2003, Gaussian, Inc.),
 the Gaussian(R) 98 system (copyright 1998, Gaussian, Inc.),
 the Gaussian(R) 94 system (copyright 1995, Gaussian, Inc.),
 the Gaussian 92(TM) system (copyright 1992, Gaussian, Inc.),
 the Gaussian 90(TM) system (copyright 1990, Gaussian, Inc.),
 the Gaussian 88(TM) system (copyright 1988, Gaussian, Inc.),
 the Gaussian 86(TM) system (copyright 1986, Carnegie Mellon
 University), and the Gaussian 82(TM) system (copyright 1983,
 Carnegie Mellon University). Gaussian is a federally registered
 trademark of Gaussian, Inc.
  
 This software contains proprietary and confidential information,
 including trade secrets, belonging to Gaussian, Inc.
  
 This software is provided under written license and may be
 used, copied, transmitted, or stored only in accord with that
 written license.
  
 The following legend is applicable only to US Government
 contracts under FAR:
  
                    RESTRICTED RIGHTS LEGEND
  
 Use, reproduction and disclosure by the US Government is
 subject to restrictions as set forth in subparagraphs (a)
 and (c) of the Commercial Computer Software - Restricted
 Rights clause in FAR 52.227-19.
  
 Gaussian, Inc.
 340 Quinnipiac St., Bldg. 40, Wallingford CT 06492
  
  
 ---------------------------------------------------------------
 Warning -- This program may not be used in any manner that
 competes with the business of Gaussian, Inc. or will provide
 assistance to any competitor of Gaussian, Inc.  The licensee
 of this program is prohibited from giving any competitor of
 Gaussian, Inc. access to this program.  By using this program,
 the user acknowledges that Gaussian, Inc. is engaged in the
 business of creating and licensing software in the field of
 computational chemistry and represents and warrants to the
 licensee that it is not a competitor of Gaussian, Inc. and that
 it will not use this program in any manner prohibited above.
 ---------------------------------------------------------------
  

 Cite this work as:
 Gaussian 16, Revision A.03,
 M. J. Frisch, G. W. Trucks, H. B. Schlegel, G. E. Scuseria, 
 M. A. Robb, J. R. Cheeseman, G. Scalmani, V. Barone, 
 G. A. Petersson, H. Nakatsuji, X. Li, M. Caricato, A. V. Marenich, 
 J. Bloino, B. G. Janesko, R. Gomperts, B. Mennucci, H. P. Hratchian, 
 J. V. Ortiz, A. F. Izmaylov, J. L. Sonnenberg, D. Williams-Young, 
 F. Ding, F. Lipparini, F. Egidi, J. Goings, B. Peng, A. Petrone, 
 T. Henderson, D. Ranasinghe, V. G. Zakrzewski, J. Gao, N. Rega, 
 G. Zheng, W. Liang, M. Hada, M. Ehara, K. Toyota, R. Fukuda, 
 J. Hasegawa, M. Ishida, T. Nakajima, Y. Honda, O. Kitao, H. Nakai, 
 T. Vreven, K. Throssell, J. A. Montgomery, Jr., J. E. Peralta, 
 F. Ogliaro, M. J. Bearpark, J. J. Heyd, E. N. Brothers, K. N. Kudin, 
 V. N. Staroverov, T. A. Keith, R. Kobayashi, J. Normand, 
 K. Raghavachari, A. P. Rendell, J. C. Burant, S. S. Iyengar, 
 J. Tomasi, M. Cossi, J. M. Millam, M. Klene, C. Adamo, R. Cammi, 
 J. W. Ochterski, R. L. Martin, K. Morokuma, O. Farkas, 
 J. B. Foresman, and D. J. Fox, Gaussian, Inc., Wallingford CT, 2016.
 
 ******************************************
 Gaussian 16:  EM64M-G16RevA.03 25-Dec-2016
                21-Feb-2024 
 ******************************************
 %nprocshared=8
 Will use up to    8 processors via shared memory.
 %mem=4GB
 %chk= 0.chk
 ---------------------
 # freq b3lyp/6-31g(d)
 ---------------------
 1/10=4,30=1,38=1/1,3;
 2/12=2,17=6,18=5,40=1/2;
 3/5=1,6=6,7=1,11=2,25=1,30=1,71=2,74=-5,140=1/1,2,3;
 4//1;
 5/5=2,38=5,98=1/2;
 8/6=4,10=90,11=11/1;
 11/6=1,8=1,9=11,15=111,16=1/1,2,10;
 10/6=1/2;
 6/7=2,8=2,9=2,10=2,28=1/1;
 7/8=1,10=1,25=1/1,2,3,16;
 1/10=4,30=1/3;
 99//99;
 ---------
 good luck
 ---------
 Symbolic Z-matrix:
 Charge =  0 Multiplicity = 1
 O                     1.21665   0.        0. 
 C                     0.        0.        0. 
 C                    -0.81867  -1.28228  -0.00266 
 C                    -1.92041  -1.30065  -1.0908 
 C                    -2.72337  -2.60513  -0.99179 
 C                    -2.79747  -0.02673  -1.00518 
 C                    -3.89003   0.02106  -2.08318 
 C                    -1.91776   1.23612  -1.08565 
 C                    -0.8232    1.27867  -0.00266 
 H                    -0.13495  -2.12974  -0.11365 
 H                    -1.3012   -1.37431   0.98391 
 H                    -1.41816  -1.28509  -2.07145 
 H                    -3.42277  -2.72159  -1.8255 
 H                    -3.30116  -2.64038  -0.05878 
 H                    -2.05405  -3.47313  -0.99962 
 H                    -3.29168  -0.03195  -0.01896 
 H                    -4.45046   0.96138  -2.02445 
 H                    -4.60942  -0.79694  -1.97899 
 H                    -3.4533   -0.04148  -3.08844 
 H                    -1.44558   1.27823  -2.07807 
 H                    -2.54564   2.13229  -1.00533 
 H                    -0.1505    2.13191  -0.13021 
 H                    -1.29908   1.37308   0.98569 
 

 GradGradGradGradGradGradGradGradGradGradGradGradGradGradGradGradGradGrad
 Berny optimization.
 Initialization pass.
 Trust Radius=3.00D-01 FncErr=1.00D-07 GrdErr=1.00D-07 EigMax=2.50D+02 EigMin=1.00D-04
 Number of steps in this run=      2 maximum allowed number of steps=      2.
 GradGradGradGradGradGradGradGradGradGradGradGradGradGradGradGradGradGrad

                          Input orientation:                          
 ---------------------------------------------------------------------
 Center     Atomic      Atomic             Coordinates (Angstroms)
 Number     Number       Type             X           Y           Z
 ---------------------------------------------------------------------
      1          8           0        1.216654    0.000000    0.000000
      2          6           0        0.000000    0.000000    0.000000
      3          6           0       -0.818674   -1.282278   -0.002662
      4          6           0       -1.920414   -1.300653   -1.090797
      5          6           0       -2.723367   -2.605126   -0.991794
      6          6           0       -2.797465   -0.026725   -1.005181
      7          6           0       -3.890034    0.021055   -2.083179
      8          6           0       -1.917761    1.236117   -1.085651
      9          6           0       -0.823196    1.278672   -0.002662
     10          1           0       -0.134951   -2.129739   -0.113653
     11          1           0       -1.301199   -1.374313    0.983913
     12          1           0       -1.418163   -1.285086   -2.071450
     13          1           0       -3.422773   -2.721593   -1.825501
     14          1           0       -3.301161   -2.640377   -0.058775
     15          1           0       -2.054054   -3.473125   -0.999622
     16          1           0       -3.291680   -0.031950   -0.018957
     17          1           0       -4.450463    0.961384   -2.024447
     18          1           0       -4.609422   -0.796943   -1.978987
     19          1           0       -3.453302   -0.041484   -3.088444
     20          1           0       -1.445577    1.278232   -2.078065
     21          1           0       -2.545643    2.132286   -1.005329
     22          1           0       -0.150498    2.131911   -0.130212
     23          1           0       -1.299078    1.373078    0.985689
 ---------------------------------------------------------------------
                    Distance matrix (angstroms):
                    1          2          3          4          5
     1  O    0.000000
     2  C    1.216654   0.000000
     3  C    2.405578   1.521339   0.000000
     4  C    3.566894   2.563109   1.548614   0.000000
     5  C    4.826396   3.897058   2.521143   1.534987   0.000000
     6  C    4.138146   2.972695   2.548935   1.549013   2.579500
     7  C    5.515282   4.412759   3.931982   2.571213   3.073932
     8  C    3.539941   2.526743   2.953501   2.536777   3.925934
     9  C    2.407488   1.520744   2.560954   3.006799   4.435416
    10  H    2.524983   2.137035   1.094526   2.197743   2.774351
    11  H    3.032557   2.133059   1.102103   2.166397   2.727798
    12  H    3.589514   2.820202   2.153898   1.101898   2.147492
    13  H    5.680124   4.738660   3.489370   2.194526   1.094441
    14  H    5.233135   4.227613   2.830251   2.183207   1.098004
    15  H    4.874359   4.157040   2.705532   2.178487   1.096113
    16  H    4.508487   3.291890   2.771163   2.153792   2.809026
    17  H    6.094166   4.982897   4.723508   3.519895   4.095025
    18  H    6.204407   5.079201   4.302462   2.876347   2.793077
    19  H    5.598991   4.633088   4.242981   2.815288   3.391313
    20  H    3.611053   2.835829   3.355073   2.801931   4.230036
    21  H    4.439843   3.469529   3.955630   3.490456   4.740764
    22  H    2.535962   2.141179   3.481295   3.979676   5.459075
    23  H    3.030814   2.131790   2.873768   3.441902   4.665313
                    6          7          8          9         10
     6  C    0.000000
     7  C    1.535601   0.000000
     8  C    1.541144   2.522161   0.000000
     9  C    2.570378   3.913521   1.540373   0.000000
    10  H    3.508058   4.754534   3.930926   3.478975   0.000000
    11  H    2.830424   4.249255   3.387859   2.870566   1.770721
    12  H    2.150087   2.795763   2.752792   3.347645   2.488582
    13  H    2.885524   2.794074   4.298361   5.107119   3.753730
    14  H    2.824990   3.395321   4.242107   4.637069   3.207592
    15  H    3.525672   4.093191   4.711999   5.008844   2.504513
    16  H    1.103138   2.149849   2.152553   2.794890   3.791388
    17  H    2.178914   1.096243   2.715031   4.164775   5.641792
    18  H    2.196525   1.094302   3.489473   4.748636   5.027595
    19  H    2.184107   1.097818   2.828662   4.264073   4.921549
    20  H    2.163699   2.748798   1.099826   2.166715   4.146194
    21  H    2.173647   2.725150   1.097181   2.168138   4.977085
    22  H    3.525864   4.717406   2.199666   1.093987   4.261711
    23  H    2.858002   4.237802   2.166097   1.101006   3.851425
                   11         12         13         14         15
    11  H    0.000000
    12  H    3.058903   0.000000
    13  H    3.769489   2.478408   0.000000
    14  H    2.586497   3.071377   1.772768   0.000000
    15  H    2.984328   2.518072   1.766428   1.770293   0.000000
    16  H    2.601865   3.048466   3.242679   2.608748   3.786173
    17  H    4.942021   3.774080   3.828844   4.261155   5.143726
    18  H    4.478445   3.229701   2.266268   2.965975   3.827664
    19  H    4.795005   2.592800   2.962928   3.994532   4.254084
    20  H    4.053708   2.563473   4.468970   4.782909   4.910059
    21  H    4.219237   3.753166   5.000218   4.923930   5.626929
    22  H    3.854737   4.129316   6.094119   5.718961   5.982961
    23  H    2.747392   4.052915   5.401778   4.605113   5.291232
                   16         17         18         19         20
    16  H    0.000000
    17  H    2.520214   0.000000
    18  H    2.482615   1.766083   0.000000
    19  H    3.073754   1.769792   1.771504   0.000000
    20  H    3.060163   3.022020   3.784981   2.606430   0.000000
    21  H    2.492673   2.457224   3.713163   3.144597   1.757929
    22  H    3.815979   4.842309   5.646075   4.937945   2.490006
    23  H    2.637021   4.377401   4.945369   4.820812   3.068721
                   21         22         23
    21  H    0.000000
    22  H    2.550010   0.000000
    23  H    2.468699   1.772089   0.000000
 Stoichiometry    C8H14O
 Framework group  C1[X(C8H14O)]
 Deg. of freedom    63
 Full point group                 C1      NOp   1
 Largest Abelian subgroup         C1      NOp   1
 Largest concise Abelian subgroup C1      NOp   1
                         Standard orientation:                         
 ---------------------------------------------------------------------
 Center     Atomic      Atomic             Coordinates (Angstroms)
 Number     Number       Type             X           Y           Z
 ---------------------------------------------------------------------
      1          8           0       -2.851316    0.485444   -0.493132
      2          6           0       -1.783212    0.195612    0.012237
      3          6           0       -0.696336    1.226588    0.277302
      4          6           0        0.693781    0.798226   -0.254005
      5          6           0        1.734191    1.871318    0.095574
      6          6           0        1.066139   -0.614732    0.260135
      7          6           0        2.425373   -1.102475   -0.262034
      8          6           0       -0.036844   -1.626597   -0.106855
      9          6           0       -1.425611   -1.223940    0.424129
     10          1           0       -1.011336    2.181313   -0.155434
     11          1           0       -0.625030    1.366023    1.368221
     12          1           0        0.624780    0.737627   -1.352069
     13          1           0        2.701532    1.675523   -0.377413
     14          1           0        1.893431    1.924716    1.180657
     15          1           0        1.398127    2.859650   -0.238678
     16          1           0        1.122987   -0.561171    1.360504
     17          1           0        2.625601   -2.125466    0.077300
     18          1           0        3.251143   -0.473895    0.085079
     19          1           0        2.445700   -1.108126   -1.359649
     20          1           0       -0.082537   -1.721734   -1.201605
     21          1           0        0.226958   -2.619779    0.277599
     22          1           0       -2.211516   -1.901287    0.077198
     23          1           0       -1.414200   -1.260946    1.524453
 ---------------------------------------------------------------------
 Rotational constants (GHZ):           2.4444546           1.2861444           0.9112526
 Standard basis: 6-31G(d) (6D, 7F)
 There are   163 symmetry adapted cartesian basis functions of A   symmetry.
 There are   163 symmetry adapted basis functions of A   symmetry.
   163 basis functions,   308 primitive gaussians,   163 cartesian basis functions
    35 alpha electrons       35 beta electrons
       nuclear repulsion energy       472.4236022328 Hartrees.
 NAtoms=   23 NActive=   23 NUniq=   23 SFac= 1.00D+00 NAtFMM=   60 NAOKFM=F Big=F
 Integral buffers will be    131072 words long.
 Raffenetti 2 integral format.
 Two-electron integral symmetry is turned on.
 One-electron integrals computed using PRISM.
 NBasis=   163 RedAO= T EigKep=  2.98D-03  NBF=   163
 NBsUse=   163 1.00D-06 EigRej= -1.00D+00 NBFU=   163
 ExpMin= 1.61D-01 ExpMax= 5.48D+03 ExpMxC= 8.25D+02 IAcc=3 IRadAn=         5 AccDes= 0.00D+00
 Harris functional with IExCor=  402 and IRadAn=       5 diagonalized for initial guess.
 HarFok:  IExCor=  402 AccDes= 0.00D+00 IRadAn=         5 IDoV= 1 UseB2=F ITyADJ=14
 ICtDFT=  3500011 ScaDFX=  1.000000  1.000000  1.000000  1.000000
 FoFCou: FMM=F IPFlag=           0 FMFlag=      100000 FMFlg1=           0
         NFxFlg=           0 DoJE=T BraDBF=F KetDBF=T FulRan=T
         wScrn=  0.000000 ICntrl=       500 IOpCl=  0 I1Cent=   200000004 NGrid=           0
         NMat0=    1 NMatS0=      1 NMatT0=    0 NMatD0=    1 NMtDS0=    0 NMtDT0=    0
 Petite list used in FoFCou.
 Requested convergence on RMS density matrix=1.00D-08 within 128 cycles.
 Requested convergence on MAX density matrix=1.00D-06.
 Requested convergence on             energy=1.00D-06.
 No special actions if energy rises.
 Integral accuracy reduced to 1.0D-05 until final iterations.
 Initial convergence to 1.0D-05 achieved.  Increase integral accuracy.
 SCF Done:  E(RB3LYP) =  -388.519445257     A.U. after   13 cycles
            NFock= 13  Conv=0.93D-08     -V/T= 2.0097
 DoSCS=F DFT=T ScalE2(SS,OS)=  1.000000  1.000000
 Range of M.O.s used for correlation:     1   163
 NBasis=   163 NAE=    35 NBE=    35 NFC=     0 NFV=     0
 NROrb=    163 NOA=    35 NOB=    35 NVA=   128 NVB=   128
 Symmetrizing basis deriv contribution to polar:
 IMax=3 JMax=2 DiffMx= 0.00D+00
 G2DrvN: will do    24 centers at a time, making    1 passes.
 Calling FoFCou, ICntrl=  3107 FMM=F I1Cent=   0 AccDes= 0.00D+00.
 End of G2Drv F.D. properties file   721 does not exist.
 End of G2Drv F.D. properties file   722 does not exist.
 End of G2Drv F.D. properties file   788 does not exist.
          IDoAtm=11111111111111111111111
          Differentiating once with respect to electric field.
                with respect to dipole field.
          Differentiating once with respect to nuclear coordinates.
 Keep R1 ints in memory in canonical form, NReq=97235276.
          There are    72 degrees of freedom in the 1st order CPHF.  IDoFFX=6 NUNeed=     3.
     69 vectors produced by pass  0 Test12= 6.22D-15 1.39D-09 XBig12= 6.16D+01 2.99D+00.
 AX will form    69 AO Fock derivatives at one time.
     69 vectors produced by pass  1 Test12= 6.22D-15 1.39D-09 XBig12= 9.89D+00 9.16D-01.
     69 vectors produced by pass  2 Test12= 6.22D-15 1.39D-09 XBig12= 8.73D-02 3.69D-02.
     69 vectors produced by pass  3 Test12= 6.22D-15 1.39D-09 XBig12= 2.67D-04 1.86D-03.
     69 vectors produced by pass  4 Test12= 6.22D-15 1.39D-09 XBig12= 2.74D-07 4.70D-05.
     31 vectors produced by pass  5 Test12= 6.22D-15 1.39D-09 XBig12= 1.53D-10 1.01D-06.
      3 vectors produced by pass  6 Test12= 6.22D-15 1.39D-09 XBig12= 9.12D-14 2.86D-08.
 InvSVY:  IOpt=1 It=  1 EMax= 5.33D-15
 Solved reduced A of dimension   379 with    72 vectors.
 Isotropic polarizability for W=    0.000000       83.14 Bohr**3.
 End of Minotr F.D. properties file   721 does not exist.
 End of Minotr F.D. properties file   722 does not exist.
 End of Minotr F.D. properties file   788 does not exist.

 **********************************************************************

            Population analysis using the SCF density.

 **********************************************************************

 Orbital symmetries:
       Occupied  (A) (A) (A) (A) (A) (A) (A) (A) (A) (A) (A) (A)
                 (A) (A) (A) (A) (A) (A) (A) (A) (A) (A) (A) (A)
                 (A) (A) (A) (A) (A) (A) (A) (A) (A) (A) (A)
       Virtual   (A) (A) (A) (A) (A) (A) (A) (A) (A) (A) (A) (A)
                 (A) (A) (A) (A) (A) (A) (A) (A) (A) (A) (A) (A)
                 (A) (A) (A) (A) (A) (A) (A) (A) (A) (A) (A) (A)
                 (A) (A) (A) (A) (A) (A) (A) (A) (A) (A) (A) (A)
                 (A) (A) (A) (A) (A) (A) (A) (A) (A) (A) (A) (A)
                 (A) (A) (A) (A) (A) (A) (A) (A) (A) (A) (A) (A)
                 (A) (A) (A) (A) (A) (A) (A) (A) (A) (A) (A) (A)
                 (A) (A) (A) (A) (A) (A) (A) (A) (A) (A) (A) (A)
                 (A) (A) (A) (A) (A) (A) (A) (A) (A) (A) (A) (A)
                 (A) (A) (A) (A) (A) (A) (A) (A) (A) (A) (A) (A)
                 (A) (A) (A) (A) (A) (A) (A) (A)
 The electronic state is 1-A.
 Alpha  occ. eigenvalues --  -19.13108 -10.26692 -10.19968 -10.19640 -10.19200
 Alpha  occ. eigenvalues --  -10.18933 -10.18773 -10.18051 -10.18015  -1.02977
 Alpha  occ. eigenvalues --   -0.84213  -0.77082  -0.75428  -0.69622  -0.65816
 Alpha  occ. eigenvalues --   -0.60994  -0.56778  -0.53149  -0.46660  -0.45669
 Alpha  occ. eigenvalues --   -0.45298  -0.44675  -0.43665  -0.41199  -0.39791
 Alpha  occ. eigenvalues --   -0.38364  -0.37981  -0.37749  -0.37263  -0.34887
 Alpha  occ. eigenvalues --   -0.34554  -0.32464  -0.31533  -0.31253  -0.23359
 Alpha virt. eigenvalues --   -0.01085   0.08461   0.09644   0.10861   0.11621
 Alpha virt. eigenvalues --    0.14276   0.15119   0.15407   0.15602   0.16581
 Alpha virt. eigenvalues --    0.17193   0.17950   0.18198   0.19134   0.19518
 Alpha virt. eigenvalues --    0.20925   0.22915   0.24268   0.25960   0.26733
 Alpha virt. eigenvalues --    0.27318   0.27888   0.32619   0.35891   0.49700
 Alpha virt. eigenvalues --    0.50193   0.51773   0.52125   0.53585   0.55205
 Alpha virt. eigenvalues --    0.58562   0.59946   0.62417   0.63624   0.65454
 Alpha virt. eigenvalues --    0.67789   0.67984   0.69411   0.70997   0.73904
 Alpha virt. eigenvalues --    0.74780   0.77950   0.79142   0.82059   0.83156
 Alpha virt. eigenvalues --    0.84267   0.84692   0.86706   0.87602   0.88672
 Alpha virt. eigenvalues --    0.90110   0.90750   0.91083   0.91919   0.92874
 Alpha virt. eigenvalues --    0.93746   0.94414   0.95285   0.96860   0.97387
 Alpha virt. eigenvalues --    1.00398   1.02343   1.07400   1.11076   1.12510
 Alpha virt. eigenvalues --    1.18615   1.22770   1.33504   1.36029   1.40160
 Alpha virt. eigenvalues --    1.42732   1.49419   1.51075   1.52162   1.57396
 Alpha virt. eigenvalues --    1.67233   1.68654   1.71425   1.73445   1.74145
 Alpha virt. eigenvalues --    1.77598   1.79795   1.82183   1.85558   1.87136
 Alpha virt. eigenvalues --    1.90802   1.91374   1.91985   1.95294   1.97204
 Alpha virt. eigenvalues --    1.99786   2.01208   2.02327   2.04228   2.05807
 Alpha virt. eigenvalues --    2.08057   2.10967   2.15746   2.19876   2.22362
 Alpha virt. eigenvalues --    2.25238   2.29518   2.32469   2.35597   2.38179
 Alpha virt. eigenvalues --    2.41817   2.46391   2.47786   2.50230   2.54175
 Alpha virt. eigenvalues --    2.55634   2.62775   2.68721   2.71531   2.76929
 Alpha virt. eigenvalues --    2.79907   2.81789   2.98513   3.02432   4.00215
 Alpha virt. eigenvalues --    4.12738   4.22561   4.24880   4.29120   4.37658
 Alpha virt. eigenvalues --    4.57269   4.57546   4.65243
          Condensed to atoms (all electrons):
               1          2          3          4          5          6
     1  O    7.998110   0.592077  -0.078053   0.000883  -0.000056   0.000088
     2  C    0.592077   4.465470   0.322666  -0.017410   0.002552  -0.013655
     3  C   -0.078053   0.322666   5.352968   0.339216  -0.044073  -0.039354
     4  C    0.000883  -0.017410   0.339216   4.931660   0.366122   0.387682
     5  C   -0.000056   0.002552  -0.044073   0.366122   5.120321  -0.040204
     6  C    0.000088  -0.013655  -0.039354   0.387682  -0.040204   4.909502
     7  C    0.000001   0.000391   0.004313  -0.041528  -0.005442   0.368078
     8  C    0.001344  -0.024998  -0.002076  -0.041241   0.004732   0.380509
     9  C   -0.079183   0.327647  -0.141612  -0.003744  -0.000089  -0.036867
    10  H    0.004759  -0.022690   0.340100  -0.025740  -0.004400   0.004168
    11  H    0.001353  -0.027266   0.341224  -0.035382  -0.007161  -0.005941
    12  H    0.000441  -0.001555  -0.049867   0.372604  -0.046361  -0.047109
    13  H    0.000001  -0.000079   0.004404  -0.025939   0.369322  -0.005524
    14  H   -0.000000  -0.000005  -0.005469  -0.034424   0.371844  -0.006128
    15  H   -0.000002   0.000049  -0.004280  -0.029158   0.369670   0.004619
    16  H   -0.000007  -0.001680  -0.004037  -0.050655  -0.005772   0.370233
    17  H   -0.000000  -0.000006  -0.000142   0.004575   0.000117  -0.029448
    18  H   -0.000000  -0.000006  -0.000006  -0.005250   0.002325  -0.025955
    19  H   -0.000000  -0.000044   0.000096  -0.006062  -0.000659  -0.033698
    20  H    0.000425  -0.002881   0.000491  -0.008318   0.000021  -0.038354
    21  H   -0.000067   0.003179  -0.000299   0.005087  -0.000161  -0.030607
    22  H    0.004648  -0.023804   0.006830  -0.000070   0.000011   0.003694
    23  H    0.001345  -0.028100   0.003462  -0.001665  -0.000014  -0.003582
               7          8          9         10         11         12
     1  O    0.000001   0.001344  -0.079183   0.004759   0.001353   0.000441
     2  C    0.000391  -0.024998   0.327647  -0.022690  -0.027266  -0.001555
     3  C    0.004313  -0.002076  -0.141612   0.340100   0.341224  -0.049867
     4  C   -0.041528  -0.041241  -0.003744  -0.025740  -0.035382   0.372604
     5  C   -0.005442   0.004732  -0.000089  -0.004400  -0.007161  -0.046361
     6  C    0.368078   0.380509  -0.036867   0.004168  -0.005941  -0.047109
     7  C    5.117761  -0.046234   0.004087  -0.000125  -0.000010  -0.006025
     8  C   -0.046234   5.064762   0.327478  -0.000190  -0.001442  -0.006521
     9  C    0.004087   0.327478   5.318641   0.006903   0.003358   0.000419
    10  H   -0.000125  -0.000190   0.006903   0.565195  -0.027733  -0.003884
    11  H   -0.000010  -0.001442   0.003358  -0.027733   0.592402   0.006442
    12  H   -0.006025  -0.006521   0.000419  -0.003884   0.006442   0.634900
    13  H    0.002551  -0.000002   0.000009   0.000002   0.000042  -0.003233
    14  H   -0.000663   0.000068  -0.000004  -0.000197   0.005132   0.005682
    15  H    0.000127  -0.000143  -0.000009   0.004361  -0.000316  -0.002780
    16  H   -0.045166  -0.050331  -0.001976  -0.000058   0.005562   0.007146
    17  H    0.369459  -0.004967   0.000074   0.000002   0.000001  -0.000069
    18  H    0.369743   0.004569  -0.000151  -0.000000  -0.000004  -0.000095
    19  H    0.372417  -0.005536   0.000058   0.000001   0.000009   0.005572
    20  H   -0.004422   0.370278  -0.041943  -0.000046   0.000099   0.005578
    21  H   -0.004576   0.363850  -0.027992   0.000018  -0.000015  -0.000037
    22  H   -0.000135  -0.024689   0.343079  -0.000182  -0.000132  -0.000036
    23  H    0.000016  -0.035412   0.347246  -0.000145   0.001129   0.000099
              13         14         15         16         17         18
     1  O    0.000001  -0.000000  -0.000002  -0.000007  -0.000000  -0.000000
     2  C   -0.000079  -0.000005   0.000049  -0.001680  -0.000006  -0.000006
     3  C    0.004404  -0.005469  -0.004280  -0.004037  -0.000142  -0.000006
     4  C   -0.025939  -0.034424  -0.029158  -0.050655   0.004575  -0.005250
     5  C    0.369322   0.371844   0.369670  -0.005772   0.000117   0.002325
     6  C   -0.005524  -0.006128   0.004619   0.370233  -0.029448  -0.025955
     7  C    0.002551  -0.000663   0.000127  -0.045166   0.369459   0.369743
     8  C   -0.000002   0.000068  -0.000143  -0.050331  -0.004967   0.004569
     9  C    0.000009  -0.000004  -0.000009  -0.001976   0.000074  -0.000151
    10  H    0.000002  -0.000197   0.004361  -0.000058   0.000002  -0.000000
    11  H    0.000042   0.005132  -0.000316   0.005562   0.000001  -0.000004
    12  H   -0.003233   0.005682  -0.002780   0.007146  -0.000069  -0.000095
    13  H    0.565954  -0.030823  -0.029669  -0.000058  -0.000049   0.002170
    14  H   -0.030823   0.579319  -0.031256   0.005499  -0.000034   0.000539
    15  H   -0.029669  -0.031256   0.571323  -0.000069   0.000000  -0.000057
    16  H   -0.000058   0.005499  -0.000069   0.649176  -0.002813  -0.003714
    17  H   -0.000049  -0.000034   0.000000  -0.002813   0.575779  -0.029983
    18  H    0.002170   0.000539  -0.000057  -0.003714  -0.029983   0.567765
    19  H    0.000563   0.000108  -0.000034   0.005745  -0.031171  -0.031290
    20  H   -0.000008   0.000007   0.000001   0.006470  -0.000281  -0.000049
    21  H    0.000002   0.000001   0.000002  -0.004540   0.005150  -0.000040
    22  H   -0.000000  -0.000000  -0.000000  -0.000025  -0.000005   0.000002
    23  H   -0.000000  -0.000004   0.000000   0.004953  -0.000008   0.000001
              19         20         21         22         23
     1  O   -0.000000   0.000425  -0.000067   0.004648   0.001345
     2  C   -0.000044  -0.002881   0.003179  -0.023804  -0.028100
     3  C    0.000096   0.000491  -0.000299   0.006830   0.003462
     4  C   -0.006062  -0.008318   0.005087  -0.000070  -0.001665
     5  C   -0.000659   0.000021  -0.000161   0.000011  -0.000014
     6  C   -0.033698  -0.038354  -0.030607   0.003694  -0.003582
     7  C    0.372417  -0.004422  -0.004576  -0.000135   0.000016
     8  C   -0.005536   0.370278   0.363850  -0.024689  -0.035412
     9  C    0.000058  -0.041943  -0.027992   0.343079   0.347246
    10  H    0.000001  -0.000046   0.000018  -0.000182  -0.000145
    11  H    0.000009   0.000099  -0.000015  -0.000132   0.001129
    12  H    0.005572   0.005578  -0.000037  -0.000036   0.000099
    13  H    0.000563  -0.000008   0.000002  -0.000000  -0.000000
    14  H    0.000108   0.000007   0.000001  -0.000000  -0.000004
    15  H   -0.000034   0.000001   0.000002  -0.000000   0.000000
    16  H    0.005745   0.006470  -0.004540  -0.000025   0.004953
    17  H   -0.031171  -0.000281   0.005150  -0.000005  -0.000008
    18  H   -0.031290  -0.000049  -0.000040   0.000002   0.000001
    19  H    0.576443   0.004659  -0.000253   0.000002   0.000006
    20  H    0.004659   0.602056  -0.037519  -0.003310   0.005773
    21  H   -0.000253  -0.037519   0.597819  -0.002405  -0.006490
    22  H    0.000002  -0.003310  -0.002405   0.561332  -0.026913
    23  H    0.000006   0.005773  -0.006490  -0.026913   0.585744
 Mulliken charges:
               1
     1  O   -0.448105
     2  C    0.450148
     3  C   -0.346501
     4  C   -0.081242
     5  C   -0.452643
     6  C   -0.072146
     7  C   -0.454617
     8  C   -0.273812
     9  C   -0.345429
    10  H    0.159882
    11  H    0.148650
    12  H    0.128691
    13  H    0.150367
    14  H    0.140809
    15  H    0.147620
    16  H    0.116119
    17  H    0.143819
    18  H    0.149488
    19  H    0.143068
    20  H    0.141272
    21  H    0.139893
    22  H    0.162107
    23  H    0.152562
 Sum of Mulliken charges =  -0.00000
 Mulliken charges with hydrogens summed into heavy atoms:
               1
     1  O   -0.448105
     2  C    0.450148
     3  C   -0.037969
     4  C    0.047449
     5  C   -0.013847
     6  C    0.043973
     7  C   -0.018242
     8  C    0.007353
     9  C   -0.030759
 APT charges:
               1
     1  O   -0.653014
     2  C    0.740916
     3  C   -0.078038
     4  C    0.140890
     5  C    0.064793
     6  C    0.093823
     7  C    0.070331
     8  C    0.129876
     9  C   -0.052076
    10  H   -0.029119
    11  H   -0.008678
    12  H   -0.064500
    13  H   -0.025503
    14  H   -0.024624
    15  H   -0.024207
    16  H   -0.070673
    17  H   -0.028604
    18  H   -0.024745
    19  H   -0.021576
    20  H   -0.039381
    21  H   -0.055226
    22  H   -0.028660
    23  H   -0.012005
 Sum of APT charges =  -0.00000
 APT charges with hydrogens summed into heavy atoms:
               1
     1  O   -0.653014
     2  C    0.740916
     3  C   -0.115836
     4  C    0.076390
     5  C   -0.009540
     6  C    0.023150
     7  C   -0.004594
     8  C    0.035268
     9  C   -0.092741
 Electronic spatial extent (au):  <R**2>=           1345.5243
 Charge=             -0.0000 electrons
 Dipole moment (field-independent basis, Debye):
    X=              2.8517    Y=             -0.7253    Z=              1.0923  Tot=              3.1387
 Quadrupole moment (field-independent basis, Debye-Ang):
   XX=            -66.9872   YY=            -54.9968   ZZ=            -55.4417
   XY=              2.5698   XZ=             -3.1469   YZ=              0.2573
 Traceless Quadrupole moment (field-independent basis, Debye-Ang):
   XX=             -7.8453   YY=              4.1451   ZZ=              3.7002
   XY=              2.5698   XZ=             -3.1469   YZ=              0.2573
 Octapole moment (field-independent basis, Debye-Ang**2):
  XXX=             25.7579  YYY=              1.0353  ZZZ=             -0.8176  XYY=             -4.4042
  XXY=             -7.2253  XXZ=              8.4270  XZZ=             -3.2965  YZZ=              0.3300
  YYZ=             -0.2767  XYZ=             -1.8927
 Hexadecapole moment (field-independent basis, Debye-Ang**3):
 XXXX=          -1139.5202 YYYY=           -599.5168 ZZZZ=           -131.5548 XXXY=             21.7898
 XXXZ=            -20.1914 YYYX=             -7.3367 YYYZ=             -6.7138 ZZZX=              3.0196
 ZZZY=              0.6505 XXYY=           -275.6431 XXZZ=           -196.0142 YYZZ=           -124.7730
 XXYZ=              3.0943 YYXZ=              2.1176 ZZXY=             -0.5194
 N-N= 4.724236022328D+02 E-N=-1.846059819861D+03  KE= 3.847689522635D+02
  Exact polarizability:  94.015  -0.187  85.717   2.251  -1.000  69.679
 Approx polarizability: 125.453  -3.573 112.800   8.573  -2.825 111.787
 Calling FoFJK, ICntrl=    100127 FMM=F ISym2X=0 I1Cent= 0 IOpClX= 0 NMat=1 NMatS=1 NMatT=0.
 Full mass-weighted force constant matrix:
 Low frequencies ---   -2.6364   -0.0000    0.0002    0.0003    4.6942   12.4224
 Low frequencies ---   74.2069  117.2998  191.5199
 Diagonal vibrational polarizability:
        4.1941952       5.8036456      13.7469292
 Harmonic frequencies (cm**-1), IR intensities (KM/Mole), Raman scattering
 activities (A**4/AMU), depolarization ratios for plane and unpolarized
 incident light, reduced masses (AMU), force constants (mDyne/A),
 and normal coordinates:
                      1                      2                      3
                      A                      A                      A
 Frequencies --     74.2053               117.2983               191.5198
 Red. masses --      4.3893                 2.6993                 2.1171
 Frc consts  --      0.0142                 0.0219                 0.0458
 IR Inten    --      2.7397                 1.0662                 0.6671
  Atom  AN      X      Y      Z        X      Y      Z        X      Y      Z
     1   8    -0.15   0.08   0.29     0.09   0.07  -0.08    -0.04   0.08   0.04
     2   6    -0.02   0.00  -0.01     0.01   0.01   0.04    -0.01   0.01  -0.07
     3   6     0.02  -0.01  -0.11     0.01  -0.04   0.24     0.01  -0.03  -0.01
     4   6     0.03  -0.03  -0.06    -0.07  -0.01   0.03     0.02  -0.02   0.02
     5   6     0.02  -0.01  -0.09    -0.02   0.01  -0.21    -0.04   0.04   0.02
     6   6    -0.00  -0.00   0.02    -0.02   0.00   0.03     0.06   0.01   0.06
     7   6     0.08   0.00   0.24     0.01   0.04   0.07    -0.01  -0.01  -0.11
     8   6     0.05  -0.00  -0.12     0.01  -0.02  -0.00     0.07  -0.06   0.18
     9   6     0.01  -0.05  -0.21    -0.03  -0.04  -0.08    -0.04  -0.02  -0.13
    10   1     0.01  -0.03  -0.15    -0.00   0.04   0.44     0.03  -0.01   0.03
    11   1     0.01   0.06  -0.12     0.10  -0.27   0.26    -0.03  -0.08  -0.00
    12   1     0.06  -0.08  -0.06    -0.25  -0.06   0.04     0.04  -0.04   0.02
    13   1     0.02  -0.03  -0.06    -0.10  -0.01  -0.38     0.02   0.02   0.16
    14   1    -0.00   0.05  -0.09     0.19   0.08  -0.24    -0.17   0.15   0.04
    15   1     0.02  -0.02  -0.15    -0.09  -0.01  -0.20    -0.03  -0.00  -0.11
    16   1    -0.17   0.02   0.03    -0.04   0.00   0.03     0.18   0.06   0.05
    17   1     0.04   0.01   0.30     0.01   0.03   0.05     0.08   0.03  -0.04
    18   1     0.02   0.02   0.36    -0.02   0.05   0.12     0.04   0.04  -0.34
    19   1     0.26  -0.02   0.25     0.06   0.07   0.07    -0.21  -0.13  -0.12
    20   1     0.14   0.05  -0.13     0.07  -0.03  -0.00     0.22  -0.29   0.19
    21   1     0.03  -0.02  -0.15     0.00  -0.01   0.02     0.04   0.03   0.41
    22   1     0.03  -0.01  -0.33    -0.01  -0.00  -0.22     0.03  -0.01  -0.32
    23   1    -0.09  -0.18  -0.21    -0.13  -0.16  -0.08    -0.31  -0.06  -0.12
                      4                      5                      6
                      A                      A                      A
 Frequencies --    214.4954               223.7360               316.1607
 Red. masses --      1.0603                 1.3034                 2.5625
 Frc consts  --      0.0287                 0.0384                 0.1509
 IR Inten    --      0.0098                 0.0250                 0.8226
  Atom  AN      X      Y      Z        X      Y      Z        X      Y      Z
     1   8    -0.01  -0.00   0.00    -0.03   0.00   0.00    -0.05  -0.14  -0.00
     2   6    -0.00   0.00  -0.00    -0.01   0.01  -0.03    -0.02  -0.02  -0.01
     3   6    -0.00   0.00  -0.01    -0.01   0.01  -0.03    -0.06   0.07   0.03
     4   6    -0.00  -0.02   0.02    -0.02  -0.01  -0.01    -0.00   0.07   0.10
     5   6     0.01  -0.02  -0.02     0.06  -0.08   0.01     0.21  -0.07  -0.04
     6   6     0.00  -0.01   0.02    -0.01   0.01   0.01    -0.02   0.07   0.09
     7   6     0.01   0.04  -0.02     0.01   0.09  -0.01    -0.10   0.01  -0.03
     8   6     0.00  -0.01   0.02     0.01  -0.03   0.06     0.03   0.08  -0.01
     9   6    -0.00   0.00   0.00    -0.01   0.00  -0.02     0.01  -0.03  -0.07
    10   1     0.01  -0.00  -0.03    -0.01   0.00  -0.07    -0.08   0.03  -0.05
    11   1    -0.02   0.03  -0.01    -0.04   0.05  -0.03    -0.16   0.14   0.02
    12   1     0.00  -0.05   0.02    -0.01  -0.01  -0.01    -0.02   0.03   0.10
    13   1     0.07  -0.18   0.19    -0.10   0.10  -0.38     0.14  -0.38  -0.04
    14   1    -0.18   0.20  -0.00     0.41  -0.44  -0.03     0.26   0.07  -0.06
    15   1     0.13  -0.06  -0.29    -0.07   0.03   0.45     0.45  -0.04  -0.21
    16   1     0.01  -0.04   0.02     0.01   0.03   0.01     0.01   0.02   0.09
    17   1    -0.16  -0.14  -0.46     0.00   0.02  -0.20    -0.08   0.04   0.06
    18   1     0.04  -0.22   0.36    -0.01   0.03   0.15    -0.01   0.01  -0.25
    19   1     0.14   0.53  -0.02     0.07   0.30  -0.01    -0.29  -0.13  -0.03
    20   1     0.01  -0.02   0.02     0.05  -0.14   0.07     0.10   0.18  -0.02
    21   1    -0.01  -0.01   0.03     0.01   0.01   0.17     0.05   0.05  -0.10
    22   1    -0.00   0.00   0.01    -0.00   0.00  -0.04     0.05  -0.01  -0.19
    23   1    -0.01   0.01   0.00    -0.07   0.02  -0.01    -0.08  -0.12  -0.07
                      7                      8                      9
                      A                      A                      A
 Frequencies --    324.3912               346.9122               380.2828
 Red. masses --      1.8275                 2.0601                 3.1715
 Frc consts  --      0.1133                 0.1461                 0.2702
 IR Inten    --      0.0475                 0.0208                 1.7448
  Atom  AN      X      Y      Z        X      Y      Z        X      Y      Z
     1   8     0.01   0.03  -0.00    -0.02   0.04  -0.02     0.20   0.01   0.04
     2   6     0.00   0.02   0.01    -0.02   0.03  -0.01     0.14  -0.06   0.11
     3   6    -0.00   0.01   0.01    -0.01   0.00  -0.04     0.07   0.04  -0.10
     4   6    -0.05  -0.04  -0.04     0.02  -0.12   0.15     0.03   0.02  -0.02
     5   6     0.03  -0.15   0.02    -0.05   0.01  -0.05    -0.01   0.06   0.00
     6   6    -0.04  -0.02  -0.05     0.05  -0.11   0.14    -0.13   0.01   0.04
     7   6     0.05   0.18   0.00     0.04   0.06  -0.05    -0.16   0.09   0.00
     8   6    -0.02  -0.06  -0.00    -0.01   0.01  -0.06    -0.06  -0.07  -0.01
     9   6    -0.00   0.01   0.02     0.01   0.04   0.01    -0.06  -0.15  -0.01
    10   1     0.00   0.02   0.04     0.10  -0.06  -0.26    -0.06  -0.12  -0.36
    11   1     0.05  -0.02   0.01    -0.15   0.20  -0.06     0.09   0.36  -0.14
    12   1    -0.06  -0.01  -0.04     0.05  -0.24   0.16     0.10  -0.03  -0.02
    13   1     0.11  -0.35   0.28    -0.10   0.11  -0.19     0.02   0.16   0.02
    14   1    -0.23  -0.03   0.05     0.12   0.13  -0.08    -0.04   0.07   0.01
    15   1     0.26  -0.14  -0.19    -0.24  -0.07  -0.08    -0.10   0.04   0.01
    16   1    -0.06  -0.00  -0.05     0.07  -0.26   0.14    -0.17   0.01   0.05
    17   1     0.33   0.30   0.21     0.29   0.10  -0.07    -0.07   0.08  -0.07
    18   1    -0.10   0.46  -0.14    -0.01   0.22  -0.21    -0.18   0.13  -0.03
    19   1     0.02  -0.03   0.01    -0.15   0.05  -0.05    -0.24   0.15  -0.00
    20   1    -0.04  -0.13   0.00    -0.01   0.27  -0.08    -0.04  -0.02  -0.01
    21   1    -0.02  -0.04   0.06    -0.11  -0.10  -0.28     0.04  -0.06  -0.05
    22   1    -0.04   0.02   0.08    -0.01   0.02   0.08    -0.10   0.03  -0.26
    23   1     0.04   0.05   0.02     0.08   0.07   0.01    -0.19  -0.39  -0.02
                     10                     11                     12
                      A                      A                      A
 Frequencies --    420.3918               474.8543               490.4951
 Red. masses --      3.5636                 2.5867                 2.3039
 Frc consts  --      0.3711                 0.3436                 0.3266
 IR Inten    --      1.5460                 1.3498                 0.8662
  Atom  AN      X      Y      Z        X      Y      Z        X      Y      Z
     1   8     0.06  -0.05   0.02     0.05   0.07  -0.03     0.00  -0.05  -0.05
     2   6     0.09   0.12   0.03    -0.03  -0.01   0.09    -0.06   0.04   0.15
     3   6    -0.08   0.22   0.04    -0.02  -0.04  -0.03    -0.04   0.10   0.02
     4   6    -0.15  -0.02   0.04    -0.07  -0.07  -0.10    -0.00   0.02   0.02
     5   6    -0.14  -0.08   0.00    -0.11  -0.16   0.00     0.02   0.02   0.00
     6   6    -0.03  -0.04  -0.01     0.07   0.10   0.08     0.08  -0.04  -0.09
     7   6    -0.04  -0.09   0.01     0.01  -0.01  -0.01     0.18  -0.05  -0.03
     8   6     0.11  -0.12  -0.04     0.08   0.18   0.03    -0.05   0.00   0.03
     9   6     0.19   0.09  -0.10     0.01  -0.03   0.02    -0.12  -0.02   0.00
    10   1    -0.02   0.13  -0.19    -0.05  -0.08  -0.10    -0.04  -0.03  -0.26
    11   1    -0.11   0.44   0.01     0.10   0.06  -0.06    -0.03   0.41  -0.03
    12   1    -0.24  -0.02   0.04    -0.07  -0.16  -0.09    -0.04   0.08   0.02
    13   1    -0.15  -0.10  -0.00    -0.07  -0.18   0.09     0.01  -0.01   0.00
    14   1    -0.14  -0.10   0.00    -0.22  -0.34   0.03     0.03   0.05   0.00
    15   1    -0.12  -0.06   0.03     0.00  -0.09   0.12     0.04   0.02  -0.02
    16   1    -0.05  -0.08  -0.01     0.11   0.22   0.07     0.14  -0.06  -0.09
    17   1    -0.15  -0.10   0.04    -0.11  -0.05  -0.05     0.18  -0.02   0.06
    18   1     0.03  -0.17  -0.01     0.13  -0.14  -0.08     0.11  -0.00   0.07
    19   1    -0.04  -0.13   0.01    -0.10   0.00  -0.01     0.34  -0.10  -0.02
    20   1     0.21  -0.29  -0.03     0.09   0.46   0.00    -0.12  -0.05   0.03
    21   1     0.06  -0.05   0.16     0.09   0.08  -0.25    -0.09  -0.00   0.05
    22   1     0.09   0.18  -0.03     0.14  -0.07  -0.20    -0.08   0.11  -0.36
    23   1     0.25   0.08  -0.10    -0.12  -0.22   0.02    -0.35  -0.35  -0.01
                     13                     14                     15
                      A                      A                      A
 Frequencies --    524.8388               679.4051               745.8526
 Red. masses --      2.8166                 3.5075                 2.2083
 Frc consts  --      0.4571                 0.9539                 0.7238
 IR Inten    --      9.9213                 0.8770                 1.5229
  Atom  AN      X      Y      Z        X      Y      Z        X      Y      Z
     1   8     0.03   0.22  -0.02     0.12  -0.04   0.13    -0.02   0.02   0.01
     2   6    -0.06  -0.10  -0.01     0.23  -0.08  -0.20     0.03   0.04  -0.08
     3   6    -0.14  -0.03  -0.03    -0.05  -0.04  -0.03    -0.05   0.14  -0.02
     4   6    -0.06   0.08   0.08    -0.10   0.05   0.10    -0.05   0.08  -0.10
     5   6     0.05   0.02  -0.00    -0.07  -0.06  -0.01     0.02   0.05  -0.01
     6   6     0.01   0.03  -0.05     0.01   0.03  -0.05     0.02  -0.06   0.11
     7   6     0.03  -0.04  -0.00     0.09  -0.02  -0.03     0.07  -0.04  -0.00
     8   6     0.07  -0.06  -0.02    -0.12   0.09   0.06     0.00  -0.14   0.03
     9   6     0.03  -0.14   0.06    -0.07   0.07  -0.01     0.00  -0.09   0.07
    10   1    -0.27  -0.20  -0.30    -0.13  -0.07  -0.04    -0.12   0.27   0.31
    11   1    -0.31   0.25  -0.05    -0.36  -0.13   0.01     0.05  -0.23   0.02
    12   1    -0.08   0.14   0.08    -0.16   0.11   0.10    -0.03  -0.02  -0.09
    13   1    -0.02  -0.17  -0.08    -0.15  -0.24  -0.10     0.05   0.01   0.08
    14   1     0.17   0.09  -0.02     0.06  -0.01  -0.03    -0.08  -0.14   0.01
    15   1     0.17   0.04  -0.07     0.04  -0.04  -0.06     0.16   0.14   0.12
    16   1     0.02  -0.04  -0.05     0.13  -0.01  -0.05     0.01   0.04   0.10
    17   1    -0.07  -0.03   0.07     0.01   0.01   0.09     0.17  -0.06  -0.14
    18   1     0.07  -0.09   0.02     0.05  -0.03   0.06     0.10  -0.03  -0.10
    19   1     0.10  -0.11  -0.00     0.25  -0.10  -0.02    -0.11   0.06  -0.01
    20   1     0.03  -0.14  -0.01    -0.26   0.24   0.05    -0.09   0.33  -0.01
    21   1     0.17  -0.01   0.03    -0.11   0.02  -0.13     0.01  -0.31  -0.43
    22   1     0.06  -0.31   0.31    -0.09   0.15  -0.10    -0.04  -0.00  -0.03
    23   1     0.23   0.04   0.07    -0.32   0.25   0.00    -0.15  -0.10   0.07
                     16                     17                     18
                      A                      A                      A
 Frequencies --    806.3394               838.8950               875.8873
 Red. masses --      1.9668                 2.4034                 1.7902
 Frc consts  --      0.7534                 0.9966                 0.8092
 IR Inten    --      3.2100                 1.9707                 1.2294
  Atom  AN      X      Y      Z        X      Y      Z        X      Y      Z
     1   8     0.06  -0.02   0.02    -0.05  -0.02   0.01    -0.01   0.01   0.01
     2   6     0.01  -0.06   0.08     0.00  -0.04  -0.10    -0.00  -0.06  -0.04
     3   6    -0.06  -0.06   0.02     0.16   0.12   0.12    -0.04   0.02   0.11
     4   6    -0.02   0.04  -0.09     0.03   0.00   0.02     0.02  -0.04  -0.07
     5   6     0.03   0.05  -0.01    -0.05  -0.06  -0.03     0.07   0.04  -0.03
     6   6     0.03   0.00   0.12     0.02   0.10   0.02    -0.02  -0.10  -0.04
     7   6     0.07  -0.02   0.01     0.04   0.01  -0.01    -0.06  -0.03  -0.00
     8   6    -0.06  -0.01  -0.05    -0.03  -0.02  -0.01     0.00   0.07   0.09
     9   6    -0.07   0.09  -0.11    -0.13  -0.13  -0.03     0.07   0.01  -0.04
    10   1    -0.28  -0.18  -0.07     0.27   0.02  -0.18    -0.13  -0.14  -0.17
    11   1     0.05   0.10  -0.01     0.08   0.43   0.08    -0.10   0.32   0.07
    12   1    -0.05  -0.08  -0.07    -0.16  -0.02   0.03    -0.20  -0.05  -0.06
    13   1     0.07  -0.02   0.10     0.02   0.07   0.07     0.23   0.28   0.19
    14   1    -0.09  -0.17   0.01    -0.18  -0.12  -0.00    -0.20  -0.11   0.02
    15   1     0.20   0.15   0.13    -0.13  -0.06   0.04    -0.02   0.05   0.11
    16   1    -0.07   0.07   0.12     0.05   0.14   0.01     0.09  -0.01  -0.05
    17   1     0.17  -0.06  -0.16    -0.11  -0.01   0.02     0.20   0.02   0.00
    18   1     0.16  -0.03  -0.17     0.16  -0.11  -0.06    -0.32   0.21   0.17
    19   1    -0.21   0.08   0.00     0.00  -0.05  -0.01     0.13   0.08   0.00
    20   1     0.18  -0.15  -0.04     0.04   0.01  -0.02    -0.06   0.24   0.07
    21   1    -0.28   0.02   0.17     0.11   0.01  -0.04    -0.06  -0.02  -0.11
    22   1    -0.21   0.07   0.26    -0.21  -0.26   0.39     0.23  -0.18  -0.03
    23   1     0.29   0.27  -0.10     0.14   0.28  -0.02    -0.08   0.20  -0.03
                     19                     20                     21
                      A                      A                      A
 Frequencies --    938.9234               959.5482               971.8525
 Red. masses --      1.8728                 1.7507                 1.3143
 Frc consts  --      0.9727                 0.9497                 0.7314
 IR Inten    --      1.3988                 0.2727                 3.1181
  Atom  AN      X      Y      Z        X      Y      Z        X      Y      Z
     1   8     0.02   0.01   0.01    -0.03  -0.00  -0.02     0.03  -0.01   0.00
     2   6     0.01  -0.03  -0.02    -0.03   0.00   0.01    -0.01  -0.00   0.06
     3   6    -0.02   0.12  -0.04     0.15  -0.06  -0.02    -0.03   0.04  -0.04
     4   6     0.03   0.03   0.01    -0.09   0.09   0.01     0.00  -0.00  -0.00
     5   6    -0.03  -0.05  -0.00    -0.08   0.06   0.02    -0.01  -0.02   0.03
     6   6    -0.07  -0.04   0.03    -0.02  -0.06   0.01     0.02  -0.01   0.02
     7   6     0.05  -0.08  -0.01    -0.01  -0.05  -0.00    -0.05   0.01  -0.06
     8   6    -0.05   0.16  -0.01    -0.00   0.01   0.04     0.01  -0.02   0.05
     9   6     0.02  -0.09  -0.01     0.04  -0.00  -0.03    -0.05  -0.02  -0.08
    10   1    -0.10   0.23   0.25     0.27  -0.07  -0.14    -0.15   0.09   0.15
    11   1     0.09  -0.18  -0.01     0.25   0.13  -0.05     0.22  -0.10  -0.04
    12   1     0.17  -0.03   0.01    -0.07   0.18   0.00     0.22  -0.02  -0.02
    13   1    -0.04   0.00  -0.05    -0.26  -0.46  -0.12    -0.07  -0.03  -0.09
    14   1    -0.00   0.03  -0.01     0.18  -0.06  -0.01     0.12   0.13   0.00
    15   1    -0.11  -0.09  -0.05     0.40   0.22   0.02    -0.06  -0.07  -0.08
    16   1    -0.16  -0.16   0.04     0.01  -0.03   0.01     0.39   0.03  -0.00
    17   1     0.37  -0.05  -0.13     0.25  -0.01  -0.06    -0.11   0.08   0.21
    18   1    -0.12   0.15  -0.01    -0.18   0.14   0.06    -0.21   0.05   0.24
    19   1     0.03   0.10  -0.02     0.04   0.08  -0.00     0.37  -0.11  -0.04
    20   1     0.07  -0.23   0.02     0.02   0.10   0.03     0.23   0.22   0.02
    21   1     0.00   0.32   0.36    -0.07  -0.04  -0.04    -0.06  -0.11  -0.13
    22   1     0.13  -0.27   0.07     0.12  -0.12   0.00    -0.16  -0.04   0.22
    23   1     0.21  -0.14  -0.01     0.03   0.04  -0.02     0.21   0.17  -0.07
                     22                     23                     24
                      A                      A                      A
 Frequencies --    991.1520              1023.1249              1062.3503
 Red. masses --      1.2771                 1.8458                 2.6806
 Frc consts  --      0.7392                 1.1384                 1.7824
 IR Inten    --      1.7323                 5.6759                 3.0673
  Atom  AN      X      Y      Z        X      Y      Z        X      Y      Z
     1   8    -0.00   0.00  -0.00     0.01  -0.01   0.01    -0.01   0.01  -0.00
     2   6    -0.01  -0.02   0.01     0.03   0.03  -0.01    -0.01  -0.06  -0.01
     3   6    -0.01  -0.00   0.04    -0.02  -0.01   0.01    -0.02   0.05   0.04
     4   6     0.04   0.02  -0.04     0.02   0.02  -0.01     0.17   0.14  -0.00
     5   6    -0.01  -0.07   0.06    -0.01  -0.02  -0.00    -0.13  -0.07  -0.06
     6   6    -0.03   0.01  -0.02     0.01  -0.03  -0.03     0.20  -0.06  -0.02
     7   6     0.04  -0.02   0.04    -0.05  -0.08   0.03    -0.12   0.05   0.07
     8   6    -0.00  -0.03   0.05     0.17   0.01  -0.05    -0.02  -0.02  -0.04
     9   6     0.03   0.02  -0.04    -0.15   0.03   0.06     0.00   0.02   0.02
    10   1    -0.12  -0.07  -0.04    -0.01  -0.03  -0.03    -0.31  -0.03   0.06
    11   1     0.10   0.13   0.01    -0.17  -0.01   0.02     0.04   0.10   0.03
    12   1     0.19   0.37  -0.07    -0.05   0.14  -0.01     0.33   0.11  -0.01
    13   1    -0.11   0.02  -0.18    -0.02  -0.02  -0.01    -0.15  -0.24  -0.04
    14   1     0.21   0.32   0.00    -0.01  -0.00  -0.01    -0.13  -0.26  -0.05
    15   1    -0.26  -0.25  -0.23    -0.01  -0.02  -0.02     0.07   0.02   0.02
    16   1    -0.19   0.29  -0.03    -0.05   0.02  -0.03     0.25  -0.31  -0.01
    17   1     0.15  -0.07  -0.17     0.37  -0.05  -0.13    -0.13   0.04   0.04
    18   1     0.09   0.00  -0.14    -0.29   0.22   0.05    -0.09   0.03   0.03
    19   1    -0.22   0.11   0.03    -0.07   0.18   0.02    -0.23   0.07   0.07
    20   1    -0.09   0.16   0.03     0.31   0.01  -0.05    -0.23  -0.19  -0.02
    21   1    -0.05  -0.12  -0.14     0.45   0.10  -0.03    -0.19  -0.04   0.05
    22   1     0.07  -0.04  -0.00    -0.36   0.24   0.09     0.12  -0.06  -0.09
    23   1    -0.07   0.16  -0.03    -0.12   0.08   0.06    -0.18   0.05   0.02
                     25                     26                     27
                      A                      A                      A
 Frequencies --   1079.5919              1116.8889              1142.5559
 Red. masses --      1.2840                 2.6786                 2.0256
 Frc consts  --      0.8817                 1.9687                 1.5579
 IR Inten    --      4.7381                 0.0880                14.4302
  Atom  AN      X      Y      Z        X      Y      Z        X      Y      Z
     1   8     0.01  -0.00   0.01     0.03  -0.01   0.02    -0.01  -0.00   0.00
     2   6    -0.01  -0.05   0.00     0.04   0.02  -0.04     0.04   0.09  -0.02
     3   6    -0.00   0.04   0.01    -0.05   0.07  -0.00    -0.10  -0.01   0.08
     4   6    -0.04  -0.05  -0.01    -0.10  -0.16  -0.07     0.12  -0.12  -0.03
     5   6     0.01   0.04   0.02     0.03   0.08   0.10    -0.07   0.07   0.02
     6   6    -0.04  -0.04  -0.01     0.18  -0.07  -0.09    -0.02   0.10  -0.00
     7   6     0.03   0.04  -0.00    -0.06   0.04   0.11     0.00  -0.04  -0.02
     8   6     0.08   0.03  -0.01    -0.02   0.07  -0.01    -0.08  -0.02   0.01
     9   6    -0.04   0.03  -0.00    -0.06  -0.06  -0.00     0.06  -0.06  -0.02
    10   1    -0.18   0.00   0.06     0.25   0.17   0.01     0.00  -0.05  -0.07
    11   1     0.42   0.09  -0.03    -0.04  -0.04   0.01    -0.08   0.11   0.06
    12   1     0.17  -0.24  -0.01    -0.16   0.02  -0.08     0.35  -0.32  -0.03
    13   1    -0.04  -0.06  -0.03    -0.09  -0.08  -0.11    -0.18  -0.34  -0.06
    14   1     0.11   0.05   0.01     0.35   0.28   0.04     0.18  -0.10  -0.01
    15   1     0.09   0.06  -0.00     0.16   0.06  -0.10     0.32   0.18  -0.00
    16   1    -0.21  -0.35   0.01     0.19   0.15  -0.11    -0.04   0.20  -0.00
    17   1    -0.17   0.01   0.03    -0.12  -0.03  -0.08     0.16  -0.00  -0.02
    18   1     0.16  -0.11  -0.06     0.04   0.01  -0.11    -0.10   0.08   0.03
    19   1    -0.03  -0.09  -0.01    -0.42   0.13   0.10     0.10   0.05  -0.02
    20   1    -0.16  -0.03   0.01     0.04  -0.08  -0.00    -0.21  -0.01   0.02
    21   1     0.26   0.07  -0.02    -0.22   0.06   0.10     0.37   0.07  -0.05
    22   1     0.07  -0.10  -0.00     0.01  -0.20   0.10    -0.11   0.10   0.03
    23   1    -0.34   0.39   0.02     0.15  -0.08  -0.01     0.05   0.03  -0.02
                     28                     29                     30
                      A                      A                      A
 Frequencies --   1160.5950              1192.6349              1241.5239
 Red. masses --      1.9990                 1.8801                 1.7378
 Frc consts  --      1.5865                 1.5756                 1.5782
 IR Inten    --      1.7788                 2.4422                28.2611
  Atom  AN      X      Y      Z        X      Y      Z        X      Y      Z
     1   8     0.04  -0.02  -0.00     0.00   0.01  -0.00    -0.04  -0.01  -0.01
     2   6    -0.04   0.05   0.12    -0.03  -0.09   0.01     0.04   0.15  -0.02
     3   6    -0.02   0.00  -0.10     0.00   0.02  -0.04     0.02  -0.08   0.00
     4   6     0.03   0.01   0.11    -0.10  -0.01   0.05    -0.07   0.07  -0.04
     5   6    -0.00   0.00  -0.07     0.05  -0.02   0.01     0.04  -0.04   0.02
     6   6     0.01   0.01  -0.11     0.10   0.15   0.02     0.05  -0.03   0.03
     7   6     0.00  -0.01   0.06    -0.04  -0.09   0.01    -0.00   0.01   0.03
     8   6    -0.01  -0.01   0.09    -0.04  -0.05  -0.07    -0.06   0.03   0.03
     9   6    -0.00  -0.04  -0.12     0.05   0.02   0.01     0.03  -0.07  -0.03
    10   1     0.20   0.17   0.12     0.08   0.09   0.05    -0.32  -0.23  -0.08
    11   1    -0.21  -0.27  -0.04     0.38   0.00  -0.06     0.21   0.08  -0.04
    12   1    -0.11   0.01   0.11    -0.08  -0.25   0.06    -0.12   0.05  -0.03
    13   1     0.09   0.03   0.12     0.08   0.15   0.02     0.05   0.14  -0.03
    14   1    -0.20  -0.21  -0.02    -0.01   0.10   0.02    -0.02   0.13   0.02
    15   1     0.03   0.07   0.12    -0.10  -0.07   0.00    -0.16  -0.12  -0.04
    16   1    -0.09  -0.04  -0.10     0.22   0.15   0.01     0.21  -0.41   0.04
    17   1     0.06  -0.05  -0.13     0.33  -0.03  -0.05    -0.02  -0.01  -0.01
    18   1     0.05   0.02  -0.12    -0.28   0.20   0.06     0.03  -0.01  -0.01
    19   1    -0.26   0.11   0.05     0.03   0.19   0.01    -0.09   0.01   0.03
    20   1    -0.29   0.15   0.08    -0.35  -0.21  -0.05    -0.26  -0.04   0.05
    21   1     0.23  -0.04  -0.16     0.03   0.00   0.01     0.46   0.15  -0.01
    22   1     0.00  -0.20   0.18    -0.01   0.14  -0.09    -0.18   0.12   0.07
    23   1    -0.00   0.37  -0.10    -0.24   0.17   0.01     0.18  -0.07  -0.03
                     31                     32                     33
                      A                      A                      A
 Frequencies --   1259.1827              1283.8197              1315.2654
 Red. masses --      1.5138                 1.4710                 1.4713
 Frc consts  --      1.4142                 1.4285                 1.4996
 IR Inten    --      4.8741                 9.1632                 8.4711
  Atom  AN      X      Y      Z        X      Y      Z        X      Y      Z
     1   8    -0.03   0.02  -0.01     0.01   0.03  -0.00     0.02  -0.01   0.02
     2   6     0.00  -0.08  -0.05    -0.05  -0.13   0.02     0.03   0.07  -0.03
     3   6    -0.01   0.02   0.01    -0.03   0.02   0.01    -0.14  -0.07   0.02
     4   6    -0.01  -0.02   0.09     0.01   0.01  -0.07    -0.03   0.01   0.04
     5   6    -0.00   0.02  -0.04    -0.01  -0.01   0.01     0.02  -0.01  -0.06
     6   6    -0.03  -0.01  -0.12     0.01  -0.04   0.04    -0.00  -0.01   0.02
     7   6     0.02   0.00   0.05     0.00   0.03  -0.01    -0.00   0.00  -0.00
     8   6    -0.01   0.01   0.07    -0.02   0.03   0.02    -0.02   0.01  -0.03
     9   6     0.02   0.02   0.01     0.07  -0.02  -0.03    -0.01  -0.03   0.02
    10   1    -0.18  -0.03   0.03     0.54   0.19  -0.03     0.48   0.07  -0.12
    11   1     0.45   0.09  -0.04    -0.15  -0.00   0.02     0.48   0.13  -0.06
    12   1     0.15  -0.12   0.08    -0.01   0.21  -0.08     0.34   0.41  -0.01
    13   1     0.04  -0.02   0.08    -0.02   0.02  -0.04     0.12   0.10   0.10
    14   1    -0.08  -0.11  -0.02     0.03   0.04   0.00    -0.14  -0.08  -0.03
    15   1     0.04   0.07   0.08     0.02  -0.01  -0.04    -0.01   0.04   0.10
    16   1     0.08   0.04  -0.12    -0.02  -0.22   0.05     0.03   0.03   0.02
    17   1     0.00  -0.05  -0.11    -0.09   0.02   0.04    -0.01   0.01   0.01
    18   1     0.08   0.01  -0.12     0.05  -0.06   0.03     0.01  -0.01   0.01
    19   1    -0.20   0.06   0.04     0.02  -0.07  -0.01     0.02  -0.01  -0.00
    20   1     0.21   0.20   0.04    -0.11   0.01   0.03     0.18  -0.02  -0.03
    21   1    -0.03  -0.03  -0.04     0.21   0.10   0.03    -0.06   0.02   0.04
    22   1    -0.28   0.39  -0.04    -0.39   0.50  -0.00     0.10  -0.14   0.01
    23   1     0.32  -0.32  -0.01    -0.01   0.09  -0.02    -0.13   0.09   0.03
                     34                     35                     36
                      A                      A                      A
 Frequencies --   1328.9218              1347.9520              1366.2407
 Red. masses --      1.3795                 1.2809                 1.3527
 Frc consts  --      1.4354                 1.3713                 1.4876
 IR Inten    --      1.9351                 7.6846                10.5520
  Atom  AN      X      Y      Z        X      Y      Z        X      Y      Z
     1   8    -0.01   0.00  -0.01     0.01  -0.00   0.00     0.01   0.00   0.01
     2   6    -0.01  -0.00   0.02    -0.02  -0.01   0.01    -0.01  -0.06  -0.01
     3   6     0.03   0.02  -0.04     0.01  -0.01   0.02     0.01   0.02   0.00
     4   6     0.03  -0.06   0.04    -0.02   0.04  -0.04    -0.02  -0.03   0.00
     5   6    -0.01   0.02  -0.02     0.01  -0.01   0.02    -0.00   0.00  -0.02
     6   6    -0.02  -0.08   0.03    -0.09   0.02  -0.03    -0.02  -0.04   0.05
     7   6     0.01   0.03   0.00     0.02   0.00   0.07     0.00   0.01  -0.00
     8   6    -0.08   0.02  -0.06    -0.05  -0.02  -0.02     0.01  -0.03  -0.01
     9   6     0.06  -0.03   0.02     0.01   0.02   0.02    -0.08   0.11  -0.02
    10   1    -0.33  -0.04   0.08     0.17   0.02  -0.04     0.05   0.03   0.00
    11   1     0.09  -0.04  -0.03    -0.22  -0.01   0.04    -0.02  -0.01   0.01
    12   1    -0.28   0.34   0.04     0.20  -0.27  -0.04     0.16   0.26  -0.02
    13   1     0.01  -0.06   0.06    -0.03   0.01  -0.06     0.04   0.03   0.05
    14   1     0.01  -0.06  -0.01    -0.01   0.04   0.01    -0.01  -0.01  -0.02
    15   1     0.05   0.06   0.04    -0.03  -0.03  -0.03     0.04   0.05   0.06
    16   1     0.26   0.45  -0.02     0.67  -0.21  -0.06     0.26   0.23   0.02
    17   1    -0.06   0.01   0.01     0.08  -0.06  -0.16     0.01   0.01   0.00
    18   1     0.06  -0.06   0.01     0.13  -0.02  -0.16     0.03  -0.05   0.04
    19   1    -0.03  -0.05   0.00    -0.10   0.02   0.05    -0.01  -0.05   0.00
    20   1     0.25  -0.06  -0.06     0.32   0.04  -0.05    -0.44  -0.07   0.02
    21   1     0.27   0.16   0.07     0.13   0.04   0.00     0.47   0.09  -0.03
    22   1    -0.03   0.10  -0.04     0.15  -0.10  -0.05     0.22  -0.19  -0.08
    23   1    -0.30   0.26   0.03    -0.14   0.09   0.02     0.36  -0.29  -0.05
                     37                     38                     39
                      A                      A                      A
 Frequencies --   1373.5224              1402.5075              1407.6780
 Red. masses --      1.3955                 1.5641                 1.4973
 Frc consts  --      1.5511                 1.8127                 1.7481
 IR Inten    --      3.2239                 4.1112                 1.3212
  Atom  AN      X      Y      Z        X      Y      Z        X      Y      Z
     1   8    -0.01  -0.00  -0.01    -0.00  -0.00   0.00    -0.01  -0.00  -0.00
     2   6    -0.01   0.02   0.01     0.02   0.03  -0.00     0.01   0.02  -0.00
     3   6     0.08   0.00   0.02    -0.05  -0.04  -0.00     0.01   0.02  -0.00
     4   6    -0.13  -0.01   0.01     0.05   0.10   0.01     0.03  -0.10  -0.01
     5   6     0.02  -0.00  -0.04    -0.00  -0.01   0.02    -0.00   0.04  -0.01
     6   6     0.02  -0.04  -0.00    -0.08  -0.10   0.00    -0.10   0.09   0.02
     7   6     0.00   0.00  -0.00     0.01   0.03   0.01     0.03  -0.03   0.02
     8   6     0.03   0.04  -0.01     0.10   0.05  -0.02     0.10   0.02  -0.01
     9   6     0.03  -0.05  -0.00    -0.01  -0.05  -0.00    -0.00  -0.04  -0.00
    10   1    -0.15  -0.07   0.02     0.17   0.03  -0.00    -0.14  -0.05  -0.04
    11   1    -0.36  -0.00   0.06     0.14   0.08  -0.03     0.01  -0.08   0.01
    12   1     0.76   0.01  -0.04    -0.19  -0.43   0.06    -0.09   0.49  -0.03
    13   1     0.08   0.08   0.05    -0.05  -0.02  -0.06     0.00  -0.09   0.05
    14   1    -0.09   0.01  -0.02    -0.01   0.05   0.02     0.03  -0.13  -0.01
    15   1     0.01   0.05   0.11    -0.04  -0.04  -0.02     0.01   0.03  -0.03
    16   1    -0.02   0.24  -0.02     0.28   0.49  -0.04     0.42  -0.36   0.02
    17   1    -0.04  -0.01  -0.00    -0.04  -0.01  -0.07     0.01  -0.03  -0.00
    18   1    -0.03   0.02   0.03     0.05  -0.05   0.03    -0.01   0.07  -0.05
    19   1    -0.03  -0.02  -0.00    -0.04  -0.12   0.00    -0.08   0.10   0.02
    20   1    -0.14  -0.08   0.00    -0.42  -0.19   0.02    -0.34  -0.05   0.02
    21   1    -0.14   0.01   0.04    -0.24  -0.02   0.01    -0.41  -0.08   0.07
    22   1    -0.16   0.14   0.04    -0.13   0.10  -0.01    -0.12   0.08   0.03
    23   1    -0.09   0.12   0.01     0.04   0.08  -0.00    -0.00   0.04   0.00
                     40                     41                     42
                      A                      A                      A
 Frequencies --   1436.5528              1444.0591              1490.3431
 Red. masses --      1.2479                 1.2187                 1.0960
 Frc consts  --      1.5172                 1.4974                 1.4343
 IR Inten    --      4.4642                 2.5133                 6.1810
  Atom  AN      X      Y      Z        X      Y      Z        X      Y      Z
     1   8    -0.00  -0.00  -0.00    -0.00  -0.00  -0.00     0.00  -0.00   0.00
     2   6    -0.00   0.00   0.00     0.00   0.01   0.00     0.00   0.01  -0.00
     3   6     0.00  -0.00   0.00     0.00   0.00  -0.00     0.01  -0.06  -0.03
     4   6     0.02   0.02  -0.00     0.01  -0.01   0.00    -0.00  -0.01  -0.00
     5   6    -0.08  -0.08  -0.02    -0.06  -0.06  -0.02    -0.01   0.00   0.00
     6   6    -0.02   0.01  -0.00     0.00   0.01  -0.00     0.00   0.01   0.00
     7   6     0.08  -0.03  -0.02    -0.09   0.03   0.04    -0.00  -0.01   0.00
     8   6    -0.00  -0.01   0.00     0.02   0.00   0.00    -0.00  -0.00   0.01
     9   6     0.00   0.00   0.00     0.00  -0.01  -0.00    -0.03  -0.03   0.03
    10   1     0.01  -0.01  -0.02    -0.05  -0.02  -0.02    -0.02   0.19   0.50
    11   1    -0.00  -0.02   0.00     0.01  -0.04   0.00    -0.13   0.50  -0.08
    12   1    -0.04  -0.05   0.00    -0.04   0.04   0.01    -0.01   0.04  -0.00
    13   1     0.12   0.38   0.16     0.12   0.26   0.19     0.03   0.04   0.04
    14   1     0.28   0.34  -0.08     0.26   0.27  -0.08     0.06  -0.05  -0.01
    15   1     0.40   0.16   0.16     0.27   0.13   0.17     0.02  -0.01  -0.05
    16   1     0.04  -0.03  -0.00    -0.01  -0.04  -0.00    -0.01  -0.05   0.00
    17   1    -0.33  -0.04   0.17     0.35   0.01  -0.25    -0.00   0.00   0.02
    18   1    -0.21   0.23   0.14     0.25  -0.23  -0.25     0.01   0.01  -0.05
    19   1    -0.32   0.14  -0.02     0.44  -0.15   0.04     0.03   0.05   0.00
    20   1     0.04  -0.00  -0.00    -0.05   0.02   0.01     0.03  -0.03   0.01
    21   1     0.00  -0.01  -0.02    -0.08  -0.01   0.02    -0.02  -0.02  -0.04
    22   1     0.02  -0.01  -0.01    -0.04   0.02   0.02     0.09   0.09  -0.44
    23   1    -0.01   0.01   0.00    -0.00   0.00  -0.00     0.32   0.30   0.03
                     43                     44                     45
                      A                      A                      A
 Frequencies --   1500.5839              1520.7403              1525.6687
 Red. masses --      1.0871                 1.0759                 1.0485
 Frc consts  --      1.4423                 1.4660                 1.4379
 IR Inten    --      7.4144                 1.1038                 8.8751
  Atom  AN      X      Y      Z        X      Y      Z        X      Y      Z
     1   8     0.01  -0.00   0.00    -0.00  -0.00  -0.00     0.00   0.00   0.00
     2   6     0.00  -0.00  -0.01     0.00   0.00   0.00     0.00  -0.00  -0.00
     3   6     0.00  -0.05  -0.02    -0.00  -0.00  -0.00    -0.00  -0.01  -0.00
     4   6    -0.00  -0.01   0.00     0.01  -0.01   0.00     0.02  -0.01  -0.01
     5   6    -0.01   0.00   0.00     0.01  -0.01   0.01     0.03  -0.02  -0.03
     6   6    -0.01  -0.00   0.00     0.01   0.01   0.00    -0.01   0.01  -0.01
     7   6     0.00   0.00   0.00     0.01   0.02   0.01    -0.00   0.01  -0.02
     8   6     0.01  -0.00  -0.01     0.01  -0.06  -0.03     0.00   0.00   0.00
     9   6     0.03   0.04  -0.04    -0.01  -0.01   0.01     0.00   0.00   0.00
    10   1    -0.01   0.16   0.41    -0.02   0.00   0.02    -0.01   0.04   0.09
    11   1    -0.08   0.43  -0.07     0.00   0.01  -0.00    -0.03   0.09  -0.01
    12   1    -0.01   0.02  -0.00    -0.02   0.02   0.00    -0.04  -0.00  -0.01
    13   1     0.02   0.04   0.03    -0.09   0.04  -0.21    -0.06  -0.34  -0.03
    14   1     0.05  -0.05  -0.00    -0.22   0.11   0.03    -0.17   0.48  -0.01
    15   1     0.02  -0.01  -0.06     0.11   0.05   0.07    -0.17   0.12   0.55
    16   1     0.04  -0.00  -0.01    -0.03  -0.01   0.01     0.03  -0.06  -0.01
    17   1    -0.01  -0.01  -0.03    -0.06  -0.11  -0.33     0.23   0.11   0.16
    18   1    -0.01   0.01  -0.00    -0.14   0.13   0.14     0.07  -0.22   0.23
    19   1    -0.00  -0.02   0.00    -0.04  -0.37   0.01    -0.21   0.02  -0.02
    20   1    -0.05   0.09  -0.01    -0.11   0.50  -0.06     0.03  -0.02   0.00
    21   1    -0.00   0.04   0.09    -0.03   0.15   0.48    -0.03  -0.02  -0.03
    22   1    -0.10  -0.10   0.51     0.02   0.00  -0.09    -0.01  -0.00   0.02
    23   1    -0.36  -0.38  -0.03     0.05   0.07   0.01    -0.01  -0.01   0.00
                     46                     47                     48
                      A                      A                      A
 Frequencies --   1528.3006              1530.6350              1543.2525
 Red. masses --      1.0614                 1.0562                 1.0455
 Frc consts  --      1.4607                 1.4579                 1.4670
 IR Inten    --      6.5626                 5.2277                 2.7308
  Atom  AN      X      Y      Z        X      Y      Z        X      Y      Z
     1   8    -0.00  -0.00  -0.00    -0.00   0.00  -0.00     0.00  -0.00   0.00
     2   6     0.00   0.01   0.00     0.00   0.00   0.00    -0.00  -0.00   0.00
     3   6     0.00   0.00   0.00    -0.00  -0.00   0.00    -0.00  -0.00   0.00
     4   6    -0.01   0.03  -0.01     0.01   0.01   0.00     0.00   0.01  -0.02
     5   6    -0.02   0.02  -0.02     0.01  -0.01   0.01     0.01   0.01  -0.03
     6   6     0.00  -0.01  -0.01    -0.01  -0.03  -0.00     0.01  -0.01   0.02
     7   6    -0.00   0.00  -0.02    -0.02  -0.04   0.00     0.02  -0.01   0.03
     8   6     0.00  -0.03  -0.02     0.01  -0.02  -0.02    -0.00   0.00  -0.00
     9   6    -0.00  -0.01   0.00    -0.00  -0.01  -0.00    -0.00   0.00  -0.00
    10   1     0.03  -0.02  -0.06     0.01  -0.00  -0.01     0.02   0.01   0.00
    11   1    -0.01  -0.05   0.01     0.01  -0.01   0.00    -0.01   0.01  -0.00
    12   1     0.02  -0.09  -0.01    -0.00  -0.02   0.00    -0.03  -0.02  -0.01
    13   1     0.17  -0.12   0.44    -0.08   0.02  -0.18     0.07  -0.36   0.28
    14   1     0.44  -0.16  -0.07    -0.19   0.10   0.03     0.17   0.15  -0.05
    15   1    -0.26  -0.10  -0.09     0.08   0.04   0.07    -0.33  -0.01   0.28
    16   1     0.01   0.02  -0.01     0.01   0.07  -0.01    -0.03   0.01   0.02
    17   1     0.16   0.10   0.19    -0.13   0.08   0.38    -0.36  -0.16  -0.23
    18   1     0.06  -0.18   0.16     0.14   0.00  -0.41    -0.14   0.37  -0.32
    19   1    -0.17   0.08  -0.02     0.23   0.56   0.00     0.26  -0.03   0.02
    20   1    -0.07   0.35  -0.04    -0.09   0.27  -0.03    -0.01  -0.02   0.00
    21   1    -0.01   0.11   0.33     0.01   0.10   0.28     0.03   0.00  -0.01
    22   1     0.01   0.00  -0.04    -0.01   0.00  -0.00     0.00  -0.00   0.00
    23   1     0.02   0.04   0.00     0.00   0.01  -0.00     0.00  -0.01  -0.00
                     49                     50                     51
                      A                      A                      A
 Frequencies --   1818.6050              2984.6928              3000.1989
 Red. masses --     10.9716                 1.0808                 1.0798
 Frc consts  --     21.3796                 5.6730                 5.7265
 IR Inten    --    199.3860                 6.2890                 9.5960
  Atom  AN      X      Y      Z        X      Y      Z        X      Y      Z
     1   8    -0.43   0.12  -0.20    -0.00  -0.00  -0.00     0.00   0.00   0.00
     2   6     0.66  -0.18   0.32     0.00   0.00   0.00    -0.00  -0.00   0.00
     3   6    -0.05   0.00  -0.02    -0.00   0.00  -0.00     0.00   0.01   0.04
     4   6    -0.02  -0.00  -0.01     0.00   0.00   0.03    -0.00  -0.00  -0.06
     5   6     0.00   0.00  -0.00     0.00   0.00  -0.00    -0.00  -0.00   0.01
     6   6     0.00  -0.00  -0.00    -0.00  -0.00  -0.07    -0.00  -0.00  -0.03
     7   6     0.00   0.00   0.00     0.00  -0.00   0.01     0.00   0.00   0.00
     8   6    -0.01   0.01  -0.00     0.00  -0.00   0.01     0.00   0.00   0.01
     9   6    -0.04   0.02  -0.02    -0.00  -0.00   0.00     0.00   0.00  -0.01
    10   1     0.24   0.11   0.07     0.00  -0.01   0.01     0.03  -0.07   0.04
    11   1    -0.12  -0.04   0.00    -0.00   0.00   0.01    -0.04  -0.06  -0.50
    12   1     0.05  -0.01  -0.00    -0.02  -0.02  -0.38     0.05   0.04   0.77
    13   1     0.01  -0.00   0.01    -0.01   0.00   0.01     0.02  -0.01  -0.01
    14   1     0.00  -0.00  -0.00     0.00   0.00   0.00    -0.01  -0.00  -0.07
    15   1    -0.01  -0.00   0.00     0.01  -0.02   0.01    -0.01   0.02  -0.00
    16   1    -0.00   0.00  -0.00     0.05   0.04   0.91     0.02   0.02   0.31
    17   1     0.00   0.00  -0.00    -0.00   0.03  -0.01     0.00  -0.00   0.00
    18   1     0.00  -0.00  -0.00    -0.02  -0.02  -0.01    -0.00  -0.00  -0.00
    19   1     0.00   0.00   0.00     0.00  -0.00  -0.05    -0.00   0.00  -0.05
    20   1     0.05  -0.02  -0.00    -0.00  -0.01  -0.10    -0.00  -0.01  -0.15
    21   1     0.02   0.02  -0.03    -0.01   0.02  -0.01     0.00  -0.02   0.01
    22   1     0.14  -0.21   0.09     0.01   0.01   0.01    -0.01  -0.01  -0.01
    23   1    -0.07   0.09  -0.00    -0.00   0.00  -0.03     0.00  -0.00   0.07
                     52                     53                     54
                      A                      A                      A
 Frequencies --   3014.4466              3021.9156              3031.1116
 Red. masses --      1.0720                 1.0699                 1.0617
 Frc consts  --      5.7396                 5.7567                 5.7471
 IR Inten    --     15.5487                 8.3509                41.8117
  Atom  AN      X      Y      Z        X      Y      Z        X      Y      Z
     1   8     0.00  -0.00   0.00     0.00   0.00  -0.00     0.00  -0.00   0.00
     2   6     0.00   0.00  -0.00    -0.00  -0.00  -0.00    -0.00   0.00  -0.00
     3   6     0.00  -0.02  -0.05    -0.00  -0.01  -0.02     0.00  -0.01  -0.01
     4   6    -0.00  -0.00  -0.04    -0.00  -0.00  -0.00    -0.00  -0.00  -0.01
     5   6     0.00   0.00   0.01     0.00   0.00   0.00     0.00   0.00   0.00
     6   6    -0.00  -0.00  -0.01    -0.00  -0.00   0.00    -0.00  -0.00  -0.01
     7   6    -0.00  -0.00   0.00     0.00  -0.00  -0.00    -0.01   0.01   0.01
     8   6    -0.00   0.00   0.00    -0.00   0.01   0.03     0.01  -0.04  -0.04
     9   6    -0.00  -0.01   0.02     0.01   0.01  -0.06     0.01   0.01  -0.02
    10   1    -0.06   0.19  -0.10    -0.02   0.07  -0.04    -0.01   0.04  -0.02
    11   1     0.06   0.09   0.75     0.02   0.03   0.29     0.01   0.02   0.13
    12   1     0.03   0.02   0.45     0.00   0.00   0.03     0.01   0.01   0.13
    13   1    -0.01   0.00   0.01    -0.01   0.00   0.01    -0.02   0.00   0.01
    14   1    -0.01  -0.00  -0.11    -0.00  -0.00  -0.04    -0.01  -0.00  -0.06
    15   1     0.01  -0.02   0.01     0.01  -0.02   0.01     0.01  -0.02   0.01
    16   1     0.01   0.00   0.16     0.00   0.00  -0.00     0.01   0.01   0.13
    17   1     0.00   0.00   0.00    -0.00   0.02  -0.01     0.02  -0.11   0.04
    18   1     0.00   0.00   0.00    -0.01  -0.01  -0.01     0.06   0.05   0.03
    19   1    -0.00   0.00  -0.03     0.00   0.00   0.04    -0.00   0.00  -0.17
    20   1    -0.00  -0.00  -0.07    -0.02  -0.03  -0.44     0.03   0.05   0.72
    21   1     0.01  -0.04   0.02     0.02  -0.08   0.04    -0.11   0.42  -0.18
    22   1     0.06   0.05   0.04    -0.13  -0.11  -0.07    -0.11  -0.10  -0.06
    23   1    -0.01   0.01  -0.34     0.02  -0.03   0.81     0.01  -0.01   0.35
                     55                     56                     57
                      A                      A                      A
 Frequencies --   3042.2303              3044.4652              3074.3879
 Red. masses --      1.0386                 1.0398                 1.1004
 Frc consts  --      5.6635                 5.6783                 6.1280
 IR Inten    --     38.4988                32.0798                31.3499
  Atom  AN      X      Y      Z        X      Y      Z        X      Y      Z
     1   8     0.00  -0.00  -0.00     0.00  -0.00   0.00    -0.00  -0.00  -0.00
     2   6    -0.00   0.00  -0.00    -0.00   0.00  -0.00    -0.00   0.00   0.00
     3   6     0.00  -0.00  -0.01     0.00  -0.00   0.00     0.00   0.00   0.00
     4   6     0.00   0.00  -0.01    -0.00   0.00  -0.00    -0.00   0.00   0.00
     5   6    -0.02  -0.03  -0.03     0.01   0.01   0.01     0.00   0.00  -0.00
     6   6    -0.00   0.00  -0.01    -0.00  -0.00  -0.00     0.00  -0.00   0.01
     7   6     0.01  -0.01  -0.01     0.03  -0.02  -0.03    -0.00   0.01  -0.01
     8   6     0.00  -0.01  -0.00     0.00  -0.01  -0.01     0.02  -0.06   0.06
     9   6     0.00   0.00  -0.00     0.00   0.00  -0.00    -0.00  -0.00   0.01
    10   1    -0.01   0.02  -0.01    -0.00   0.01  -0.01     0.00  -0.00   0.00
    11   1     0.00   0.01   0.08    -0.00  -0.00  -0.01    -0.00  -0.00  -0.02
    12   1     0.00   0.00   0.09     0.00   0.00   0.04    -0.00   0.00  -0.03
    13   1     0.36  -0.09  -0.19    -0.10   0.02   0.05    -0.01   0.00   0.00
    14   1     0.09   0.02   0.67    -0.04  -0.01  -0.26    -0.00  -0.00  -0.01
    15   1    -0.16   0.44  -0.16     0.05  -0.15   0.06     0.01  -0.02   0.01
    16   1     0.00   0.00   0.06     0.00   0.00   0.03    -0.01  -0.00  -0.08
    17   1    -0.03   0.16  -0.06    -0.08   0.47  -0.17     0.01  -0.08   0.03
    18   1    -0.12  -0.09  -0.05    -0.28  -0.23  -0.13     0.00   0.01  -0.00
    19   1    -0.00  -0.00   0.21    -0.00  -0.00   0.66     0.00   0.00   0.09
    20   1     0.00   0.00   0.06     0.01   0.01   0.17    -0.02  -0.05  -0.44
    21   1    -0.02   0.06  -0.03    -0.02   0.07  -0.03    -0.21   0.78  -0.31
    22   1    -0.01  -0.01  -0.01    -0.02  -0.02  -0.01     0.04   0.04   0.02
    23   1     0.00  -0.00   0.03    -0.00  -0.00   0.02    -0.00   0.00  -0.13
                     58                     59                     60
                      A                      A                      A
 Frequencies --   3103.6748              3104.8561              3110.6850
 Red. masses --      1.0995                 1.1005                 1.0945
 Frc consts  --      6.2402                 6.2508                 6.2399
 IR Inten    --      4.8456                47.9627                39.5516
  Atom  AN      X      Y      Z        X      Y      Z        X      Y      Z
     1   8     0.00  -0.00   0.00     0.00  -0.00   0.00    -0.00   0.00  -0.00
     2   6    -0.00   0.00  -0.00    -0.00   0.00  -0.00     0.00  -0.00   0.00
     3   6    -0.01   0.03  -0.02    -0.00   0.01  -0.01     0.02  -0.06   0.05
     4   6     0.00  -0.00   0.01     0.00   0.00   0.00     0.00  -0.00   0.01
     5   6     0.01  -0.04   0.07     0.00  -0.01   0.02     0.00  -0.02   0.03
     6   6     0.00   0.00  -0.00     0.00  -0.00   0.01    -0.00   0.00   0.00
     7   6    -0.00   0.02  -0.02     0.02  -0.05   0.07     0.00   0.00   0.00
     8   6    -0.00   0.00  -0.00     0.00  -0.01   0.01     0.00   0.00   0.00
     9   6     0.00   0.00   0.00    -0.00  -0.00   0.00    -0.01  -0.01  -0.00
    10   1     0.10  -0.32   0.15     0.04  -0.13   0.06    -0.25   0.76  -0.35
    11   1     0.01   0.01   0.08     0.00   0.00   0.03    -0.01  -0.04  -0.21
    12   1    -0.00  -0.00  -0.05    -0.00   0.00  -0.03    -0.00  -0.00  -0.08
    13   1     0.14  -0.04  -0.05     0.04  -0.01  -0.01     0.09  -0.02  -0.04
    14   1    -0.07  -0.03  -0.54    -0.02  -0.01  -0.16    -0.04  -0.01  -0.25
    15   1    -0.21   0.60  -0.19    -0.05   0.15  -0.05    -0.09   0.26  -0.09
    16   1     0.00   0.00   0.01    -0.00  -0.00  -0.08    -0.00   0.00  -0.02
    17   1     0.04  -0.21   0.07    -0.12   0.67  -0.22    -0.00   0.01  -0.00
[...]
 9,0.00003866,0.00113681,0.00084317,0.00089964,-0.01595900,-0.00165829,
 0.02618893,-0.00210928,-0.04882779,0.00370682,-0.00070892,0.00201741,0
 .00150458,0.00008550,-0.00008790,0.00000786,-0.00015540,-0.00004302,-0
 .00013326,0.00002699,0.00004391,0.00005974,-0.00002737,-0.00002376,-0.
 00016129,0.00005466,0.00027060,-0.00071858,-0.00350457,-0.00489199,0.0
 0030910,0.00193631,-0.00092830,-0.00197873,0.00547681,0.05190967,0.000
 05708,0.00006676,-0.00009403,-0.00009700,-0.00016971,0.00031665,-0.000
 48032,-0.00006461,0.00108378,0.00109319,0.00103899,-0.00317759,0.11371
 216,0.00374163,-0.23691195,0.00024763,-0.00057287,0.00024364,0.0000244
 7,0.00033890,-0.00002154,-0.00028520,0.00011357,0.00029675,0.00001497,
 0.00002139,-0.00008243,-0.00006152,0.00000566,-0.00000287,0.00044540,0
 .00004641,0.00041714,0.00016993,0.00064530,0.00142355,0.01404596,-0.00
 003714,-0.02051060,-0.12738248,-0.00503784,0.25610642,0.00015097,0.000
 17568,-0.00004206,0.00013085,-0.00024745,0.00019712,0.00109797,-0.0008
 4522,0.00019384,0.01158584,-0.01548480,-0.00099802,-0.15042172,0.12915
 458,0.00176296,-0.00245802,-0.00255731,-0.00004270,-0.00062595,-0.0000
 4098,-0.00001222,0.00067595,-0.00086798,-0.00018011,0.00015694,0.00000
 459,0.00006830,-0.00008973,0.00006687,0.00007153,-0.00011216,0.0001473
 4,-0.00005631,0.00068086,0.00084678,-0.00010367,-0.01288289,0.01580533
 ,0.00138988,-0.01073704,0.01260002,-0.00095373,0.16225563,-0.00001168,
 0.00026026,0.00003922,-0.00026380,-0.00038397,0.00023744,0.00192049,0.
 00099424,0.00041918,0.01827367,-0.02315529,-0.00126211,0.12805834,-0.2
 0950338,-0.00197540,-0.00549015,-0.00289087,0.00108346,-0.00059365,0.0
 0017711,-0.00041206,0.00179105,-0.00105511,-0.00007836,0.00020400,0.00
 035230,0.00006499,-0.00111808,0.00034508,-0.00045116,-0.00008267,-0.00
 004767,-0.00009988,0.00000555,0.00093790,0.00042149,-0.00233893,0.0033
 5069,0.00080366,-0.00113127,0.00133608,-0.00057721,-0.13879088,0.22947
 677,0.00010075,0.00005226,-0.00002686,-0.00013642,-0.00000693,-0.00011
 789,0.00031246,-0.00073160,0.00008880,-0.00195025,0.00223453,-0.001177
 13,0.00148370,-0.00169018,-0.04966205,0.00010644,-0.00014655,0.0000053
 1,-0.00035360,0.00011743,0.00021252,-0.00011221,0.00006904,0.00042121,
 0.00008711,0.00005472,0.00003454,-0.00023486,-0.00013793,0.00022520,0.
 00014624,-0.00010988,-0.00006419,-0.00046434,0.00003573,0.00002585,-0.
 01592880,0.02132712,0.00093749,0.01788125,-0.02349643,0.00064649,-0.00
 120258,0.00185531,0.04822479,0.00014857,-0.00000114,0.00006663,-0.0003
 7291,0.00000900,-0.00001653,0.00062359,-0.00055708,0.00126405,-0.01077
 255,0.00171412,0.01803514,0.00030171,-0.00106077,-0.00050553,-0.097382
 76,-0.00015557,0.09634895,0.00959284,-0.00018000,-0.02378384,-0.010246
 24,-0.00131459,0.01768364,0.00058706,0.00067415,0.00106331,0.00029498,
 0.00000799,-0.00029260,-0.00014526,0.00024034,-0.00080708,-0.00195142,
 0.00331803,0.00009263,0.00005680,0.00001532,-0.00005123,0.00052068,0.0
 0042013,-0.00029448,0.00001121,-0.00005448,-0.00024509,0.11045034,0.00
 000711,0.00016954,0.00000702,-0.00001473,-0.00043419,-0.00002443,-0.00
 091942,0.00094797,-0.00065331,0.01434385,-0.00258319,-0.02534371,0.000
 61310,0.00179944,-0.00118060,0.00006956,-0.04915177,0.00066874,-0.0003
 9957,-0.00000370,0.00039914,-0.01473888,-0.00218536,0.02586195,0.00094
 128,0.00109736,0.00056966,-0.00037368,-0.00002000,0.00011007,-0.000044
 50,0.00005107,0.00068111,0.00345919,-0.00433548,-0.00060694,0.00002081
 ,-0.00009605,-0.00000134,-0.00052832,-0.00020953,0.00072000,-0.0001206
 2,0.00024532,0.00037394,0.00026838,0.05700024,0.00001394,-0.00002190,-
 0.00012879,-0.00002038,0.00003740,0.00018092,-0.00047311,0.00031111,0.
 00051942,0.00224678,-0.00040461,-0.00440819,-0.00006965,0.00046296,0.0
 0010647,0.09607846,0.00093187,-0.23941865,0.00929162,-0.00020199,-0.02
 304903,0.00124353,0.00040890,-0.00289723,-0.00033450,-0.00025289,0.000
 61144,0.00000545,-0.00008463,0.00032550,0.00035810,-0.00007225,0.00065
 239,0.00019074,-0.00067031,0.00102115,0.00002475,0.00006308,0.00006360
 ,-0.00032200,-0.00078438,0.00031716,-0.00017906,-0.00014805,0.00032186
 ,-0.10426195,-0.00108942,0.26441458,-0.00004523,-0.00043317,-0.0000284
 2,0.00027728,0.00108698,0.00020275,-0.00061478,0.00135758,0.00028564,-
 0.00243258,-0.00183037,-0.00441421,-0.00011113,-0.00078040,-0.00028044
 ,-0.01340702,0.02017067,0.00258606,-0.11509278,0.11331522,0.00934638,0
 .00035330,0.00174379,0.00068288,0.00039303,-0.00051042,-0.00000220,-0.
 00041641,-0.00003809,-0.00041762,0.00002320,-0.00001747,-0.00007715,0.
 00031646,-0.00032604,-0.00000932,0.00018130,0.00014382,0.00038714,0.00
 000890,0.00008632,-0.00006752,0.00017757,0.00012373,0.00013936,0.00087
 493,-0.00041657,0.00002483,0.12426232,0.00014419,0.00014666,-0.0000148
 1,-0.00031145,-0.00030801,-0.00001728,0.00010070,0.00004895,-0.0001967
 1,-0.00086012,0.00073995,0.00053809,0.00004820,-0.00016133,-0.00044540
 ,-0.00019449,-0.00084316,0.00009811,0.11421956,-0.24379694,-0.01450132
 ,-0.00119150,0.00055495,-0.00056446,0.00004518,0.00035219,0.00016957,0
 .00006255,0.00002964,0.00008836,-0.00002082,0.00000104,0.00001731,-0.0
 0004215,0.00002147,-0.00009316,0.00021875,0.00028883,0.00038332,-0.000
 00980,0.00002705,0.00005193,0.00017141,0.00001085,0.00015574,0.0000523
 7,0.00007916,0.00051078,-0.12508097,0.26361067,-0.00006861,-0.00023638
 ,0.00000919,0.00015661,0.00057850,0.00004149,-0.00094303,0.00116285,0.
 00059293,-0.00245925,-0.00143575,-0.00359100,-0.00029029,-0.00039450,-
 0.00003666,-0.01310584,0.02177331,0.00145921,0.00965444,-0.01478100,-0
 .05010765,0.00046660,0.00087444,0.00070377,0.00031373,0.00004662,-0.00
 008160,-0.00039300,-0.00004543,-0.00040428,0.00013680,-0.00000366,0.00
 003996,-0.00038360,0.00007353,0.00026961,0.00017191,0.00010309,-0.0000
 0108,0.00006484,-0.00000898,0.00004528,0.00002304,0.00005244,0.0000301
 5,0.00087208,0.00018313,0.00070239,-0.00674094,0.01643962,0.05159640,-
 0.00014696,0.00039422,0.00000944,0.00036208,-0.00094434,0.00011432,0.0
 0021350,0.00034586,-0.00010282,0.00005913,-0.00122357,0.00046063,-0.00
 028981,-0.00032774,-0.00077606,-0.01451091,-0.01730634,0.00440950,-0.1
 6198307,-0.12982989,0.01864966,-0.00259805,0.00196309,-0.00423479,-0.0
 0045560,-0.00128582,0.00041010,-0.00003453,0.00008855,0.00000880,-0.00
 003119,-0.00002697,-0.00001896,-0.00000325,0.00006116,-0.00009395,0.00
 012877,0.00130499,0.00061586,-0.00001364,0.00012095,-0.00007714,0.0005
 1187,0.00009926,0.00035239,0.00116226,0.00037354,0.00003594,0.01264543
 ,0.01285168,-0.00222276,0.17371513,-0.00019313,0.00011219,0.00004221,0
 .00009345,-0.00022306,-0.00014064,-0.00008893,0.00011983,0.00014065,-0
 .00006631,-0.00004849,-0.00055125,0.00074901,-0.00129969,0.00001368,0.
 00205554,0.00177647,-0.00099748,-0.13107209,-0.19939859,0.02145398,0.0
 0007112,0.00037274,-0.00068985,0.00002589,0.00029061,0.00039100,-0.000
 07529,0.00004187,-0.00005011,0.00001056,-0.00000747,-0.00000113,0.0000
 5833,-0.00001219,0.00002453,0.00139255,-0.00142592,0.00080021,-0.00010
 051,0.00001681,-0.00005794,0.00020667,0.00012244,0.00014399,-0.0001414
 6,0.00023796,-0.00052767,-0.01901381,-0.02082207,0.00380418,0.14293661
 ,0.21718983,-0.00016580,0.00021819,0.00004171,0.00026340,-0.00052909,-
 0.00000030,0.00011563,-0.00011393,-0.00003132,0.00067748,-0.00015438,0
 .00044378,-0.00007862,0.00045594,0.00056677,-0.01530688,-0.02010260,0.
 00294726,0.01937297,0.02165410,-0.05257691,-0.00306534,0.00143840,-0.0
 0370498,-0.00114476,-0.00116027,0.00062780,0.00005122,0.00006412,0.000
 03128,-0.00000343,0.00000151,-0.00000659,-0.00000893,0.00008387,0.0000
 3779,-0.00021565,0.00020296,0.00009391,-0.00000492,0.00011797,-0.00030
 328,0.00006701,-0.00000770,-0.00016156,0.00083439,-0.00032835,0.000954
 38,-0.00193524,-0.00224124,-0.00055479,-0.01814387,-0.02404928,0.05392
 849,0.00004364,-0.00000511,-0.00002261,-0.00001066,0.00001008,0.000029
 44,0.00004511,-0.00018466,-0.00009281,0.00177139,-0.00042197,-0.000560
 46,0.00009423,0.00002595,0.00014172,0.01029703,-0.00155756,-0.02269105
 ,-0.09314778,0.00574244,0.09665617,0.00150569,0.00068107,-0.00049264,0
 .00002241,0.00007370,-0.00005410,-0.00000243,0.00000645,0.00010373,-0.
 00007862,0.00001515,0.00016195,-0.00011922,-0.00006091,0.00053127,-0.0
 0008561,0.00001043,0.00006393,-0.00009013,-0.00008077,-0.00006980,0.00
 005920,0.00001422,0.00001229,-0.00298036,0.00008808,-0.00395918,-0.007
 23863,-0.00033937,0.01462493,-0.00885239,0.00303190,0.01914767,0.09907
 838,-0.00001940,-0.00009666,0.00000596,0.00000999,0.00024520,-0.000006
 65,0.00002516,-0.00009234,-0.00001052,-0.00060698,0.00039362,0.0010807
 1,0.00003945,0.00001871,0.00013525,-0.00041807,-0.00100866,0.00176611,
 0.00566027,-0.05106311,-0.01384681,0.00059017,0.00006383,-0.00087836,-
 0.00009758,-0.00010654,0.00008681,0.00000119,-0.00001409,-0.00002776,0
 .00003334,-0.00002690,-0.00006944,0.00015917,0.00017126,-0.00011934,-0
 .00021168,-0.00009394,0.00001757,-0.00000546,0.00008079,-0.00020277,0.
 00003096,-0.00001700,-0.00008974,0.00029958,0.00068364,0.00039377,0.01
 161142,-0.00058634,-0.02739555,-0.00986713,0.00246370,0.02421474,-0.00
 689524,0.04886283,-0.00011920,0.00002430,0.00001754,0.00019854,-0.0000
 6109,-0.00003220,-0.00024131,0.00004678,0.00039201,0.00155942,-0.00100
 563,0.00041923,-0.00026890,0.00024859,-0.00004575,0.00959854,-0.000932
 36,-0.02345281,0.09669691,-0.01378531,-0.26212410,0.00140792,0.0008228
 5,0.00027771,-0.00036209,-0.00004148,0.00035144,-0.00010557,0.00002004
 ,0.00000576,0.00017157,-0.00005542,0.00027281,-0.00099435,0.00068022,0
 .00053804,0.00015811,0.00017987,-0.00012222,0.00000174,-0.00019101,0.0
 0018640,-0.00000522,0.00008524,0.00003674,-0.00436385,-0.00002649,-0.0
 0248007,0.00059066,-0.00037799,-0.00088130,0.00118105,0.00004201,-0.00
 213643,-0.10421646,0.01495410,0.28796724,-0.00016704,-0.00025257,0.000
 33931,0.00174990,-0.00075680,-0.00054025,0.00001408,0.00003429,-0.0001
 8820,0.00011894,0.00131583,-0.00023109,0.00007507,-0.00003559,-0.00018
 457,-0.01031239,-0.00140269,0.01810289,0.00072588,0.00058857,0.0013013
 4,-0.09729375,-0.00129117,0.09889318,0.00972323,0.00085685,-0.02373592
 ,0.00006092,0.00003755,0.00004264,-0.00010614,0.00000563,-0.00001355,0
 .00065643,-0.00035873,-0.00036086,-0.00001850,-0.00002375,-0.00000823,
 0.00005297,0.00017954,-0.00006549,0.00001370,-0.00005756,-0.00005826,-
 0.00169327,-0.00380384,-0.00023067,-0.00010721,0.00002220,0.00007642,0
 .00028114,0.00008174,-0.00037106,-0.00013353,-0.00035454,-0.00086634,0
 .10698774,-0.00015507,0.00014308,-0.00014160,-0.00026557,-0.00028149,0
 .00075240,0.00022362,-0.00011930,-0.00013960,-0.00084403,0.00184234,0.
 00144745,-0.00010243,-0.00009459,-0.00013391,-0.01372622,-0.00244371,0
 .02579582,0.00099193,0.00086901,0.00083444,-0.00096287,-0.05177562,0.0
 0676167,0.00009841,-0.00008456,-0.00078494,0.00005908,-0.00000594,0.00
 003377,-0.00004958,0.00009397,-0.00017238,0.00034203,-0.00037307,-0.00
 065374,0.00000848,-0.00000169,0.00000031,0.00017303,0.00010151,-0.0001
 9064,0.00006211,0.00000045,-0.00009255,-0.00339989,-0.00433036,0.00050
 451,-0.00004457,-0.00001937,-0.00021512,0.00037057,-0.00004254,-0.0000
 4721,-0.00004216,0.00014462,-0.00067399,0.00573164,0.05382947,-0.00130
 582,0.00039859,0.00038562,0.00216813,-0.00167170,-0.00056816,-0.000068
 03,0.00039757,-0.00027384,-0.00004257,-0.00059937,-0.00018763,-0.00023
 637,0.00010265,0.00042657,0.00182997,0.00075014,-0.00305947,-0.0005557
 5,-0.00029357,0.00069711,0.09846617,0.00639974,-0.25101669,0.00776109,
 0.00121088,-0.02131871,0.00001132,0.00012254,-0.00001193,0.00000266,-0
 .00006422,0.00015799,-0.00039883,0.00063087,0.00046789,0.00003034,0.00
 001696,-0.00000033,-0.00006447,-0.00021142,-0.00000505,0.00002049,0.00
 005429,-0.00001741,-0.00000581,0.00046631,0.00107731,0.00003376,0.0000
 6530,0.00000676,-0.00001817,0.00010678,0.00031430,0.00040361,0.0000155
 5,0.00055794,-0.10572385,-0.00728622,0.27621020,-0.00182603,0.00180597
 ,0.00079867,-0.00079661,-0.00488681,-0.00397030,-0.00004095,0.00007836
 ,0.00063779,-0.00253187,-0.00238202,-0.00008311,0.00106130,-0.00098961
 ,0.00002974,0.01083488,-0.01659507,-0.00261473,0.00112361,-0.00093454,
 0.00027696,-0.13394075,0.12225315,0.01505391,-0.01473617,0.02015755,-0
 .00084301,0.00004985,0.00008540,0.00009290,-0.00001274,-0.00004638,0.0
 0000735,0.00002088,-0.00006982,-0.00019804,0.00007961,0.00013785,-0.00
 002101,0.00000914,0.00008328,0.00002064,-0.00017621,-0.00045063,0.0000
 6733,0.00079814,0.00078966,-0.00011198,-0.00005587,0.00006755,0.000006
 95,0.00023057,0.00005326,0.00016051,-0.00009147,0.00003444,-0.00007835
 ,-0.00860518,0.01179265,0.00153538,0.14688119,-0.00008218,0.00013795,0
 .00017656,-0.00048378,0.00048402,-0.00041626,-0.00039817,0.00065934,-0
 .00020536,-0.00570669,-0.00321941,0.00082216,0.00175441,-0.00092293,-0
 .00007843,0.01614465,-0.02340587,-0.00338584,0.00177401,0.00041626,0.0
 0049332,0.12074554,-0.21871698,-0.01788798,-0.00125103,0.00251263,-0.0
 0007084,0.00011062,0.00001246,0.00006153,0.00000842,-0.00002714,0.0000
 4726,-0.00007967,0.00032668,-0.00011848,-0.00007489,-0.00002607,-0.000
 10299,-0.00004932,0.00000431,0.00009442,-0.00033696,-0.00065652,0.0000
 3882,0.00008830,0.00106618,0.00048686,-0.00114164,0.00061385,-0.000557
 09,-0.00016714,0.00051244,0.00026937,-0.00010109,0.00004245,0.00001108
 ,-0.00087961,0.00137115,-0.00056502,-0.13020212,0.23827997,-0.00231981
 ,0.00183683,0.00096693,-0.00184558,-0.00373832,-0.00393702,0.00030398,
 -0.00006081,0.00037261,0.00029840,0.00015198,0.00001180,-0.00001592,0.
 00009587,0.00059550,-0.00135445,0.00357276,-0.00071140,0.00030287,-0.0
 0096113,-0.00004914,0.01484211,-0.01842154,-0.05140703,-0.01616576,0.0
 2216968,-0.00081581,0.00002760,0.00008814,0.00004972,-0.00002322,-0.00
 001649,0.00001707,-0.00031418,0.00033107,0.00038335,0.00006568,0.00007
 455,-0.00001459,-0.00005499,-0.00010948,0.00000385,-0.00000630,-0.0000
 0010,-0.00000228,-0.00057407,0.00003469,0.00022097,-0.00037210,-0.0001
 1517,0.00015357,-0.00006763,0.00016152,-0.00015080,0.00005367,-0.00009
 968,0.00000405,0.01743282,-0.02502620,-0.00229966,-0.01170906,0.020047
 08,0.05455084,0.00185509,-0.00145953,0.00012970,0.01179301,0.01606517,
 -0.00291592,-0.00213352,0.00275576,0.00043588,-0.00037253,0.00023526,-
 0.00010858,0.00015800,-0.00007130,0.00005327,-0.00196275,0.00208038,-0
 .00413643,-0.00040846,-0.00151288,0.00031355,-0.01281217,-0.01745249,0
 .00426388,-0.15102968,-0.13089072,0.02151475,0.00058145,0.00092147,0.0
 0008937,-0.00008585,-0.00008624,-0.00004348,0.00006219,-0.00006444,0.0
 0001149,0.00003735,0.00005682,0.00002173,-0.00001148,0.00001738,-0.000
 00759,-0.00000721,-0.00011962,-0.00000461,0.00031659,0.00041323,0.0000
 1084,0.00003309,0.00003300,0.00007640,-0.00040949,-0.00002843,-0.00041
 094,-0.00002087,-0.00000912,-0.00012370,0.00121142,0.00026546,0.000037
 79,0.00014314,0.00033280,0.00057724,0.16133045,0.00007578,0.00601631,-
 0.00081095,-0.02209526,-0.02648382,0.00451111,0.00503511,-0.00321375,-
 0.00068775,0.00047600,0.00023056,0.00045695,-0.00012181,0.00008111,-0.
 00017381,0.00058616,0.00087274,0.00020708,0.00006313,0.00013109,0.0001
 7270,0.00146231,0.00201467,-0.00102793,-0.12649187,-0.21092088,0.02727
 004,-0.00089388,-0.00151469,-0.00008917,0.00008424,0.00043211,0.000176
 98,-0.00004272,-0.00001284,-0.00011861,-0.00008856,-0.00005165,-0.0000
 2438,0.00000568,-0.00000019,0.00001989,0.00003340,0.00008818,0.0000303
 4,-0.00002720,-0.00005431,0.00005960,-0.00002994,0.00002909,-0.0000288
 6,0.00005320,0.00002393,0.00000587,-0.00000291,-0.00001869,-0.00000919
 ,-0.00005449,0.00014796,-0.00038616,-0.00024996,0.00035725,-0.00042006
 ,0.13921723,0.22816423,-0.00071755,0.00020458,-0.00116040,0.00085929,-
 0.00237027,-0.00070114,-0.00001478,0.00032588,0.00124689,-0.00024638,0
 .00057032,-0.00009001,0.00016673,-0.00004514,0.00005217,-0.00253472,0.
 00162229,-0.00371856,-0.00077658,-0.00129378,0.00052956,-0.01450871,-0
 .02064344,0.00356343,0.02118606,0.02761984,-0.05487610,0.00007683,0.00
 007673,0.00039132,-0.00034525,-0.00041250,0.00023218,0.00004287,-0.000
 02819,-0.00001689,0.00003049,0.00006336,0.00002022,-0.00001554,0.00000
 634,0.00000097,-0.00000135,-0.00007873,0.00001556,-0.00026311,-0.00008
 625,0.00030860,0.00003372,0.00003462,0.00004918,-0.00041454,-0.0000259
 6,-0.00042327,0.00008646,-0.00000709,-0.00002376,0.00089369,-0.0003426
 9,0.00085416,0.00055737,0.00040290,0.00067483,-0.02125250,-0.02923313,
 0.05613340,-0.00121810,0.00387122,-0.00330950,-0.01162483,-0.00038572,
 0.01802259,0.00031168,-0.00021084,-0.00115229,-0.00006682,-0.00032025,
 -0.00005725,-0.00003448,0.00000438,-0.00003257,0.00158244,0.00046590,-
 0.00022661,0.00008125,0.00030687,-0.00017618,0.00977441,-0.00283268,-0
 .02486292,-0.09329253,0.00789517,0.10557786,-0.00008161,-0.00008622,-0
 .00033832,0.00058552,0.00038414,-0.00027351,-0.00011515,0.00005884,0.0
 0001358,-0.00000501,-0.00000789,0.00000624,0.00000882,-0.00001324,0.00
 001083,0.00000237,0.00001307,0.00000170,-0.00019492,-0.00002768,0.0004
 3748,-0.00002518,0.00001333,-0.00003744,0.00001901,0.00001336,0.000165
 17,-0.00006535,-0.00000991,0.00018086,-0.00323444,-0.00052663,-0.00388
 104,0.00158155,-0.00000444,0.00091870,-0.00826776,0.00300635,0.0171575
 0,0.10427913,0.00257128,-0.00271748,0.00353419,0.01238447,0.00157983,-
 0.02859355,-0.00138829,-0.00041013,0.00332367,0.00039723,0.00019723,0.
 00016994,0.00005419,0.00001104,0.00000364,0.00052086,0.00011191,-0.000
 99894,-0.00008231,0.00004773,0.00003450,-0.00072948,0.00036796,0.00087
 637,0.00921025,-0.05392082,-0.02453775,0.00006518,0.00041505,0.0004184
 7,-0.00038401,-0.00161194,-0.00002738,-0.00000196,0.00009714,0.0000533
 3,0.00000310,0.00000155,-0.00000645,-0.00000193,-0.00002269,0.00000588
 ,-0.00001354,0.00001213,0.00001284,-0.00021552,0.00002602,0.00008726,0
 .00002393,-0.00001713,0.00001060,0.00001528,-0.00000081,0.00000703,-0.
 00000772,-0.00004636,0.00004487,0.00041750,0.00102868,0.00033951,-0.00
 053219,0.00017799,0.00040479,-0.01069918,0.00368158,0.02364033,-0.0116
 0715,0.05099149,-0.00070421,-0.00061100,-0.00082094,0.00073660,0.00007
 583,0.00091111,0.00060550,0.00017442,-0.00065366,-0.00036410,-0.000054
 96,-0.00008895,0.00005560,-0.00002428,0.00000345,0.00149210,0.00059237
 ,0.00044640,-0.00027232,0.00008405,0.00026234,0.00919971,-0.00203182,-
 0.02496419,0.10111631,-0.01902273,-0.24298482,-0.00003554,-0.00017073,
 0.00023670,-0.00027839,0.00003348,0.00053222,-0.00001285,0.00016577,0.
 00016351,-0.00000091,0.00001291,0.00000701,-0.00003138,-0.00003057,0.0
 0002126,-0.00001082,-0.00002596,0.00000284,-0.00079565,-0.00073491,0.0
 0058383,0.00003198,0.00001479,-0.00004153,-0.00007699,-0.00003343,0.00
 006277,0.00014226,0.00008315,0.00027172,-0.00450395,-0.00022959,-0.002
 39697,0.00038409,0.00043693,0.00138264,0.00146787,0.00009943,-0.003062
 35,-0.10814489,0.02119685,0.27012562\\0.00001016,0.00000121,0.00000559
 ,0.00005939,0.00000007,0.00007269,-0.00004152,-0.00001446,-0.00005264,
 -0.00001683,0.00004507,-0.00002455,-0.00001140,-0.00001839,0.00001161,
 0.00001171,-0.00003009,-0.00000507,-0.00002082,0.00003433,0.00000454,0
 .00006187,0.00000746,0.00003344,-0.00006746,-0.00001354,-0.00006431,0.
 00000431,-0.00000875,0.00001577,0.00002135,0.00000380,0.00000549,-0.00
 001171,-0.00000420,0.00000443,-0.00000485,0.00000018,0.00001114,0.0000
 0547,-0.00000930,-0.00000952,-0.00001197,0.00000762,-0.00001486,0.0000
 0281,-0.00000681,0.00000247,0.00001135,-0.00001395,-0.00000520,0.00001
 069,0.00001238,0.00000250,-0.00001494,0.00000208,0.00001112,-0.0000086
 2,-0.00000418,-0.00000025,-0.00000604,0.00000192,-0.00001226,-0.000000
 87,0.00001522,0.00000758,0.00001792,-0.00000767,0.00000029\\\@


 In the race for quality, there is no finish line.
                               -- David T. Kearns
 Job cpu time:       0 days  0 hours  1 minutes 33.2 seconds.
 Elapsed time:       0 days  0 hours  1 minutes 33.7 seconds.
 File lengths (MBytes):  RWF=     78 Int=      0 D2E=      0 Chk=      5 Scr=      1
 Normal termination of Gaussian 16 at Wed Feb 21 18:51:24 2024.
