 Entering Gaussian System, Link 0=g16
 Input=/Volumes/SSD-PMU3/b3lyp_6-31gd_freq/OEGDFYLATZHZRR-FSDSQADBSA-N_calculating/gaussianinput1.gjf
 Output=/Volumes/SSD-PMU3/b3lyp_6-31gd_freq/OEGDFYLATZHZRR-FSDSQADBSA-N_calculating/gaussianinput1.log
 Initial command:
 /Applications/g16/l1.exe "/Users/macmini_m1_2022/PycharmProjects/sphere_model/sphere_model_lib/Gau-49623.inp" -scrdir="/Users/macmini_m1_2022/PycharmProjects/sphere_model/sphere_model_lib/"
 Entering Link 1 = /Applications/g16/l1.exe PID=     49624.
  
 Copyright (c) 1988,1990,1992,1993,1995,1998,2003,2009,2016,
            Gaussian, Inc.  All Rights Reserved.
  
 This is part of the Gaussian(R) 16 program.  It is based on
 the Gaussian(R) 09 system (copyright 2009, Gaussian, Inc.),
 the Gaussian(R) 03 system (copyright 2003, Gaussian, Inc.),
 the Gaussian(R) 98 system (copyright 1998, Gaussian, Inc.),
 the Gaussian(R) 94 system (copyright 1995, Gaussian, Inc.),
 the Gaussian 92(TM) system (copyright 1992, Gaussian, Inc.),
 the Gaussian 90(TM) system (copyright 1990, Gaussian, Inc.),
 the Gaussian 88(TM) system (copyright 1988, Gaussian, Inc.),
 the Gaussian 86(TM) system (copyright 1986, Carnegie Mellon
 University), and the Gaussian 82(TM) system (copyright 1983,
 Carnegie Mellon University). Gaussian is a federally registered
 trademark of Gaussian, Inc.
  
 This software contains proprietary and confidential information,
 including trade secrets, belonging to Gaussian, Inc.
  
 This software is provided under written license and may be
 used, copied, transmitted, or stored only in accord with that
 written license.
  
 The following legend is applicable only to US Government
 contracts under FAR:
  
                    RESTRICTED RIGHTS LEGEND
  
 Use, reproduction and disclosure by the US Government is
 subject to restrictions as set forth in subparagraphs (a)
 and (c) of the Commercial Computer Software - Restricted
 Rights clause in FAR 52.227-19.
  
 Gaussian, Inc.
 340 Quinnipiac St., Bldg. 40, Wallingford CT 06492
  
  
 ---------------------------------------------------------------
 Warning -- This program may not be used in any manner that
 competes with the business of Gaussian, Inc. or will provide
 assistance to any competitor of Gaussian, Inc.  The licensee
 of this program is prohibited from giving any competitor of
 Gaussian, Inc. access to this program.  By using this program,
 the user acknowledges that Gaussian, Inc. is engaged in the
 business of creating and licensing software in the field of
 computational chemistry and represents and warrants to the
 licensee that it is not a competitor of Gaussian, Inc. and that
 it will not use this program in any manner prohibited above.
 ---------------------------------------------------------------
  

 Cite this work as:
 Gaussian 16, Revision A.03,
 M. J. Frisch, G. W. Trucks, H. B. Schlegel, G. E. Scuseria, 
 M. A. Robb, J. R. Cheeseman, G. Scalmani, V. Barone, 
 G. A. Petersson, H. Nakatsuji, X. Li, M. Caricato, A. V. Marenich, 
 J. Bloino, B. G. Janesko, R. Gomperts, B. Mennucci, H. P. Hratchian, 
 J. V. Ortiz, A. F. Izmaylov, J. L. Sonnenberg, D. Williams-Young, 
 F. Ding, F. Lipparini, F. Egidi, J. Goings, B. Peng, A. Petrone, 
 T. Henderson, D. Ranasinghe, V. G. Zakrzewski, J. Gao, N. Rega, 
 G. Zheng, W. Liang, M. Hada, M. Ehara, K. Toyota, R. Fukuda, 
 J. Hasegawa, M. Ishida, T. Nakajima, Y. Honda, O. Kitao, H. Nakai, 
 T. Vreven, K. Throssell, J. A. Montgomery, Jr., J. E. Peralta, 
 F. Ogliaro, M. J. Bearpark, J. J. Heyd, E. N. Brothers, K. N. Kudin, 
 V. N. Staroverov, T. A. Keith, R. Kobayashi, J. Normand, 
 K. Raghavachari, A. P. Rendell, J. C. Burant, S. S. Iyengar, 
 J. Tomasi, M. Cossi, J. M. Millam, M. Klene, C. Adamo, R. Cammi, 
 J. W. Ochterski, R. L. Martin, K. Morokuma, O. Farkas, 
 J. B. Foresman, and D. J. Fox, Gaussian, Inc., Wallingford CT, 2016.
 
 ******************************************
 Gaussian 16:  EM64M-G16RevA.03 25-Dec-2016
                21-Feb-2024 
 ******************************************
 %nprocshared=8
 Will use up to    8 processors via shared memory.
 %mem=4GB
 %chk= 1.chk
 ---------------------
 # freq b3lyp/6-31g(d)
 ---------------------
 1/10=4,30=1,38=1/1,3;
 2/12=2,17=6,18=5,40=1/2;
 3/5=1,6=6,7=1,11=2,25=1,30=1,71=2,74=-5,140=1/1,2,3;
 4//1;
 5/5=2,38=5,98=1/2;
 8/6=4,10=90,11=11/1;
 11/6=1,8=1,9=11,15=111,16=1/1,2,10;
 10/6=1/2;
 6/7=2,8=2,9=2,10=2,28=1/1;
 7/8=1,10=1,25=1/1,2,3,16;
 1/10=4,30=1/3;
 99//99;
 ---------
 good luck
 ---------
 Symbolic Z-matrix:
 Charge =  0 Multiplicity = 1
 C                    -4.15515  -0.96415   2.4003 
 C                    -3.10013  -1.63294   1.50935 
 C                    -1.98346  -0.67038   1.10261 
 C                    -0.96724  -1.17407   0.00544 
 C                    -2.00651  -0.67109  -1.0524 
 C                    -2.28738   0.41996   0.01987 
 C                    -0.96402   1.21232   0.00544 
 C                     0.        0.        0. 
 O                     1.20916   0.        0. 
 H                    -4.65841  -0.14225   1.87779 
 H                    -3.70193  -0.55106   3.3096 
 H                    -4.92318  -1.68248   2.70768 
 H                    -3.58991  -2.06854   0.63044 
 H                    -2.64765  -2.47401   2.05233 
 H                    -1.51118  -0.28213   2.0169 
 H                    -0.53628  -2.17606   0.00246 
 H                    -2.83039  -1.37112  -1.19992 
 H                    -1.62493  -0.34584  -2.027 
 H                    -3.21713   0.99399   0.02535 
 H                    -0.80547   1.83989   0.89014 
 H                    -0.82579   1.83488  -0.8863 
 

 GradGradGradGradGradGradGradGradGradGradGradGradGradGradGradGradGradGrad
 Berny optimization.
 Initialization pass.
 Trust Radius=3.00D-01 FncErr=1.00D-07 GrdErr=1.00D-07 EigMax=2.50D+02 EigMin=1.00D-04
 Number of steps in this run=      2 maximum allowed number of steps=      2.
 GradGradGradGradGradGradGradGradGradGradGradGradGradGradGradGradGradGrad

                          Input orientation:                          
 ---------------------------------------------------------------------
 Center     Atomic      Atomic             Coordinates (Angstroms)
 Number     Number       Type             X           Y           Z
 ---------------------------------------------------------------------
      1          6           0       -4.155151   -0.964145    2.400295
      2          6           0       -3.100125   -1.632942    1.509345
      3          6           0       -1.983464   -0.670377    1.102609
      4          6           0       -0.967243   -1.174072    0.005439
      5          6           0       -2.006513   -0.671085   -1.052402
      6          6           0       -2.287377    0.419964    0.019872
      7          6           0       -0.964015    1.212320    0.005439
      8          6           0        0.000000    0.000000    0.000000
      9          8           0        1.209164    0.000000    0.000000
     10          1           0       -4.658405   -0.142253    1.877793
     11          1           0       -3.701930   -0.551061    3.309603
     12          1           0       -4.923180   -1.682483    2.707680
     13          1           0       -3.589906   -2.068543    0.630443
     14          1           0       -2.647650   -2.474011    2.052330
     15          1           0       -1.511181   -0.282132    2.016901
     16          1           0       -0.536279   -2.176063    0.002462
     17          1           0       -2.830387   -1.371117   -1.199915
     18          1           0       -1.624927   -0.345835   -2.027002
     19          1           0       -3.217132    0.993988    0.025353
     20          1           0       -0.805473    1.839890    0.890142
     21          1           0       -0.825792    1.834882   -0.886302
 ---------------------------------------------------------------------
                    Distance matrix (angstroms):
                    1          2          3          4          5
     1  C    0.000000
     2  C    1.534328   0.000000
     3  C    2.546863   1.529345   0.000000
     4  C    3.992764   2.649808   1.578035   0.000000
     5  C    4.077211   2.946812   2.155134   1.565920   0.000000
     6  C    3.327274   2.663365   1.566374   2.069762   1.555328
     7  C    4.544852   3.862669   2.405744   2.386394   2.398550
     8  C    4.894514   3.815154   2.366280   1.521195   2.363049
     9  O    5.955407   4.849185   3.443548   2.472898   3.449418
    10  H    1.096257   2.187726   2.834631   4.265564   3.987259
    11  H    1.096763   2.184849   2.799676   4.334069   4.681446
    12  H    1.095611   2.182199   3.498934   4.817678   4.864986
    13  H    2.161382   1.096404   2.181391   2.840611   2.700368
    14  H    2.161790   1.098619   2.143877   2.950148   3.647048
    15  H    2.757301   2.146403   1.099871   2.266584   3.133251
    16  H    4.507170   3.023075   2.360457   1.090745   2.353569
    17  H    3.857737   2.735215   2.551457   2.227782   1.091134
    18  H    5.136662   4.042104   3.166756   2.291144   1.096011
    19  H    3.217843   3.019385   2.335065   3.124561   2.323709
    20  H    4.622068   4.208254   2.781051   3.145288   3.394255
    21  H    5.451688   4.789313   3.401807   3.141499   2.775169
                    6          7          8          9         10
     6  C    0.000000
     7  C    1.542506   0.000000
     8  C    2.325695   1.548895   0.000000
     9  O    3.521727   2.488465   1.209164   0.000000
    10  H    3.064267   4.357648   5.024647   6.162362   0.000000
    11  H    3.710280   4.639309   4.996141   5.947771   1.769759
    12  H    4.311850   5.599730   5.865150   6.911434   1.769499
    13  H    2.874377   4.248529   4.190913   5.263782   2.531435
    14  H    3.554683   4.540201   4.164473   5.020737   3.083941
    15  H    2.254672   2.564909   2.535972   3.398200   3.153401
    16  H    3.131454   3.415275   2.241172   2.789593   4.964390
    17  H    2.233990   3.407399   3.366133   4.431448   3.784712
    18  H    2.283633   2.644895   2.620826   3.501487   4.948824
    19  H    1.092693   2.263758   3.367283   4.536601   2.607651
    20  H    2.229260   1.096211   2.196892   2.869897   4.444033
    21  H    2.226965   1.096308   2.198694   2.879821   5.122324
                   11         12         13         14         15
    11  H    0.000000
    12  H    1.770276   0.000000
    13  H    3.081104   2.498315   0.000000
    14  H    2.527841   2.496805   1.753286   0.000000
    15  H    2.557886   3.752319   3.071584   2.469241   0.000000
    16  H    4.857897   5.177521   3.119384   2.957807   2.931787
    17  H    4.665601   4.443651   2.100829   3.439021   3.643364
    18  H    5.730219   5.923033   3.727047   4.713390   4.046004
    19  H    3.661762   4.155596   3.143913   4.057088   2.916336
    20  H    4.467651   5.715424   4.805867   4.832602   2.504114
    21  H    5.618764   6.486690   5.017725   5.524607   3.657881
                   16         17         18         19         20
    16  H    0.000000
    17  H    2.712302   0.000000
    18  H    2.941702   1.785612   0.000000
    19  H    4.151713   2.691575   2.922739   0.000000
    20  H    4.121689   4.333495   3.736125   2.698057   0.000000
    21  H    4.118422   3.794099   2.587535   2.693831   1.776567
                   21
    21  H    0.000000
 Stoichiometry    C8H12O
 Framework group  C1[X(C8H12O)]
 Deg. of freedom    57
 Full point group                 C1      NOp   1
 Largest Abelian subgroup         C1      NOp   1
 Largest concise Abelian subgroup C1      NOp   1
                         Standard orientation:                         
 ---------------------------------------------------------------------
 Center     Atomic      Atomic             Coordinates (Angstroms)
 Number     Number       Type             X           Y           Z
 ---------------------------------------------------------------------
      1          6           0        3.121647    0.014265   -0.603894
      2          6           0        2.020434   -0.674266    0.213062
      3          6           0        0.616989   -0.300288   -0.265873
      4          6           0       -0.594140   -0.760428    0.635034
      5          6           0       -0.352670    0.547063    1.462236
      6          6           0        0.059251    1.122631    0.077286
      7          6           0       -1.288385    1.110858   -0.673090
      8          6           0       -1.749181   -0.304107   -0.243420
      9          8           0       -2.764674   -0.888165   -0.542967
     10          1           0        3.066280    1.105256   -0.511958
     11          1           0        3.038716   -0.233541   -1.669072
     12          1           0        4.115923   -0.297865   -0.265730
     13          1           0        2.154552   -0.438278    1.275336
     14          1           0        2.133407   -1.763733    0.127844
     15          1           0        0.527535   -0.578730   -1.326148
     16          1           0       -0.667083   -1.753804    1.079566
     17          1           0        0.474388    0.452908    2.167703
     18          1           0       -1.214763    0.996433    1.968303
     19          1           0        0.676261    2.020094   -0.011230
     20          1           0       -1.197284    1.183273   -1.763106
     21          1           0       -1.994214    1.878936   -0.335820
 ---------------------------------------------------------------------
 Rotational constants (GHZ):           3.4679294           1.0653040           1.0376358
 Standard basis: 6-31G(d) (6D, 7F)
 There are   159 symmetry adapted cartesian basis functions of A   symmetry.
 There are   159 symmetry adapted basis functions of A   symmetry.
   159 basis functions,   300 primitive gaussians,   159 cartesian basis functions
    34 alpha electrons       34 beta electrons
       nuclear repulsion energy       457.6407231981 Hartrees.
 NAtoms=   21 NActive=   21 NUniq=   21 SFac= 1.00D+00 NAtFMM=   60 NAOKFM=F Big=F
 Integral buffers will be    131072 words long.
 Raffenetti 2 integral format.
 Two-electron integral symmetry is turned on.
 One-electron integrals computed using PRISM.
 NBasis=   159 RedAO= T EigKep=  1.74D-03  NBF=   159
 NBsUse=   159 1.00D-06 EigRej= -1.00D+00 NBFU=   159
 ExpMin= 1.61D-01 ExpMax= 5.48D+03 ExpMxC= 8.25D+02 IAcc=3 IRadAn=         5 AccDes= 0.00D+00
 Harris functional with IExCor=  402 and IRadAn=       5 diagonalized for initial guess.
 HarFok:  IExCor=  402 AccDes= 0.00D+00 IRadAn=         5 IDoV= 1 UseB2=F ITyADJ=14
 ICtDFT=  3500011 ScaDFX=  1.000000  1.000000  1.000000  1.000000
 FoFCou: FMM=F IPFlag=           0 FMFlag=      100000 FMFlg1=           0
         NFxFlg=           0 DoJE=T BraDBF=F KetDBF=T FulRan=T
         wScrn=  0.000000 ICntrl=       500 IOpCl=  0 I1Cent=   200000004 NGrid=           0
         NMat0=    1 NMatS0=      1 NMatT0=    0 NMatD0=    1 NMtDS0=    0 NMtDT0=    0
 Petite list used in FoFCou.
 Requested convergence on RMS density matrix=1.00D-08 within 128 cycles.
 Requested convergence on MAX density matrix=1.00D-06.
 Requested convergence on             energy=1.00D-06.
 No special actions if energy rises.
 Integral accuracy reduced to 1.0D-05 until final iterations.
 Initial convergence to 1.0D-05 achieved.  Increase integral accuracy.
 SCF Done:  E(RB3LYP) =  -387.259145651     A.U. after   13 cycles
            NFock= 13  Conv=0.95D-08     -V/T= 2.0095
 DoSCS=F DFT=T ScalE2(SS,OS)=  1.000000  1.000000
 Range of M.O.s used for correlation:     1   159
 NBasis=   159 NAE=    34 NBE=    34 NFC=     0 NFV=     0
 NROrb=    159 NOA=    34 NOB=    34 NVA=   125 NVB=   125
 Symmetrizing basis deriv contribution to polar:
 IMax=3 JMax=2 DiffMx= 0.00D+00
 G2DrvN: will do    22 centers at a time, making    1 passes.
 Calling FoFCou, ICntrl=  3107 FMM=F I1Cent=   0 AccDes= 0.00D+00.
 End of G2Drv F.D. properties file   721 does not exist.
 End of G2Drv F.D. properties file   722 does not exist.
 End of G2Drv F.D. properties file   788 does not exist.
          IDoAtm=111111111111111111111
          Differentiating once with respect to electric field.
                with respect to dipole field.
          Differentiating once with respect to nuclear coordinates.
 Keep R1 ints in memory in canonical form, NReq=88772361.
          There are    66 degrees of freedom in the 1st order CPHF.  IDoFFX=6 NUNeed=     3.
     63 vectors produced by pass  0 Test12= 6.44D-15 1.52D-09 XBig12= 6.24D+01 2.19D+00.
 AX will form    63 AO Fock derivatives at one time.
     63 vectors produced by pass  1 Test12= 6.44D-15 1.52D-09 XBig12= 1.04D+01 7.45D-01.
     63 vectors produced by pass  2 Test12= 6.44D-15 1.52D-09 XBig12= 1.38D-01 4.99D-02.
     63 vectors produced by pass  3 Test12= 6.44D-15 1.52D-09 XBig12= 5.53D-04 2.81D-03.
     63 vectors produced by pass  4 Test12= 6.44D-15 1.52D-09 XBig12= 5.78D-07 8.53D-05.
     31 vectors produced by pass  5 Test12= 6.44D-15 1.52D-09 XBig12= 3.25D-10 1.60D-06.
      3 vectors produced by pass  6 Test12= 6.44D-15 1.52D-09 XBig12= 1.91D-13 4.28D-08.
 InvSVY:  IOpt=1 It=  1 EMax= 3.55D-15
 Solved reduced A of dimension   349 with    66 vectors.
 Isotropic polarizability for W=    0.000000       80.11 Bohr**3.
 End of Minotr F.D. properties file   721 does not exist.
 End of Minotr F.D. properties file   722 does not exist.
 End of Minotr F.D. properties file   788 does not exist.

 **********************************************************************

            Population analysis using the SCF density.

 **********************************************************************

 Orbital symmetries:
       Occupied  (A) (A) (A) (A) (A) (A) (A) (A) (A) (A) (A) (A)
                 (A) (A) (A) (A) (A) (A) (A) (A) (A) (A) (A) (A)
                 (A) (A) (A) (A) (A) (A) (A) (A) (A) (A)
       Virtual   (A) (A) (A) (A) (A) (A) (A) (A) (A) (A) (A) (A)
                 (A) (A) (A) (A) (A) (A) (A) (A) (A) (A) (A) (A)
                 (A) (A) (A) (A) (A) (A) (A) (A) (A) (A) (A) (A)
                 (A) (A) (A) (A) (A) (A) (A) (A) (A) (A) (A) (A)
                 (A) (A) (A) (A) (A) (A) (A) (A) (A) (A) (A) (A)
                 (A) (A) (A) (A) (A) (A) (A) (A) (A) (A) (A) (A)
                 (A) (A) (A) (A) (A) (A) (A) (A) (A) (A) (A) (A)
                 (A) (A) (A) (A) (A) (A) (A) (A) (A) (A) (A) (A)
                 (A) (A) (A) (A) (A) (A) (A) (A) (A) (A) (A) (A)
                 (A) (A) (A) (A) (A) (A) (A) (A) (A) (A) (A) (A)
                 (A) (A) (A) (A) (A)
 The electronic state is 1-A.
 Alpha  occ. eigenvalues --  -19.13369 -10.26895 -10.20435 -10.20381 -10.19976
 Alpha  occ. eigenvalues --  -10.19842 -10.19188 -10.19133 -10.18208  -1.03332
 Alpha  occ. eigenvalues --   -0.89920  -0.77805  -0.71940  -0.67526  -0.66978
 Alpha  occ. eigenvalues --   -0.61205  -0.54108  -0.52675  -0.50119  -0.47400
 Alpha  occ. eigenvalues --   -0.45480  -0.43818  -0.41423  -0.40237  -0.39138
 Alpha  occ. eigenvalues --   -0.38416  -0.37132  -0.36667  -0.35590  -0.33680
 Alpha  occ. eigenvalues --   -0.32275  -0.31350  -0.30732  -0.23059
 Alpha virt. eigenvalues --   -0.00440   0.08230   0.10233   0.10984   0.11867
 Alpha virt. eigenvalues --    0.13338   0.13797   0.14812   0.15786   0.16031
 Alpha virt. eigenvalues --    0.17188   0.18050   0.19333   0.20062   0.21752
 Alpha virt. eigenvalues --    0.22429   0.23543   0.24042   0.24872   0.27364
 Alpha virt. eigenvalues --    0.28438   0.30934   0.36040   0.49641   0.50763
 Alpha virt. eigenvalues --    0.51257   0.53604   0.55215   0.55335   0.57860
 Alpha virt. eigenvalues --    0.59864   0.60559   0.62934   0.64306   0.64921
 Alpha virt. eigenvalues --    0.66572   0.68320   0.69119   0.72664   0.75545
 Alpha virt. eigenvalues --    0.76405   0.78889   0.79703   0.81386   0.82387
 Alpha virt. eigenvalues --    0.85301   0.85775   0.87531   0.87844   0.89902
 Alpha virt. eigenvalues --    0.90682   0.91621   0.92948   0.93696   0.94229
 Alpha virt. eigenvalues --    0.97250   0.99090   1.00061   1.04228   1.08103
 Alpha virt. eigenvalues --    1.09092   1.11655   1.18894   1.23016   1.26060
 Alpha virt. eigenvalues --    1.33958   1.40898   1.46041   1.48295   1.51298
 Alpha virt. eigenvalues --    1.56054   1.60403   1.63112   1.65544   1.66879
 Alpha virt. eigenvalues --    1.72628   1.73553   1.76286   1.77773   1.78818
 Alpha virt. eigenvalues --    1.82153   1.85439   1.86772   1.90900   1.93019
 Alpha virt. eigenvalues --    1.95560   1.97845   2.00597   2.00973   2.03952
 Alpha virt. eigenvalues --    2.06695   2.16111   2.16819   2.21751   2.24178
 Alpha virt. eigenvalues --    2.26194   2.28397   2.29579   2.32180   2.33771
 Alpha virt. eigenvalues --    2.35229   2.38146   2.40849   2.45734   2.48312
 Alpha virt. eigenvalues --    2.49141   2.59575   2.59997   2.67161   2.67916
 Alpha virt. eigenvalues --    2.70950   2.78214   2.81372   2.84624   3.03437
 Alpha virt. eigenvalues --    3.05350   4.07029   4.15606   4.30961   4.34094
 Alpha virt. eigenvalues --    4.38176   4.48343   4.55454   4.75430   4.77576
          Condensed to atoms (all electrons):
               1          2          3          4          5          6
     1  C    5.073134   0.367181  -0.042995   0.003979  -0.000415  -0.003591
     2  C    0.367181   4.974492   0.384156  -0.026348  -0.008756  -0.035308
     3  C   -0.042995   0.384156   5.119715   0.299625  -0.139021   0.323463
     4  C    0.003979  -0.026348   0.299625   5.304530   0.293237  -0.071869
     5  C   -0.000415  -0.008756  -0.139021   0.293237   5.224415   0.315856
     6  C   -0.003591  -0.035308   0.323463  -0.071869   0.315856   5.109250
     7  C    0.000085   0.003471  -0.042391  -0.195866  -0.045849   0.338298
     8  C   -0.000071   0.002538  -0.044304   0.370053  -0.045129  -0.058377
     9  O    0.000000  -0.000037  -0.000136  -0.062788   0.000508   0.003477
    10  H    0.378115  -0.034676  -0.005164   0.000024  -0.000114   0.003377
    11  H    0.377709  -0.035289  -0.004301  -0.000004   0.000043  -0.000388
    12  H    0.372542  -0.027172   0.004128  -0.000124   0.000005   0.000075
    13  H   -0.037704   0.374111  -0.039339  -0.004095   0.005333  -0.007591
    14  H   -0.038729   0.372151  -0.034884  -0.003484  -0.000613   0.005306
    15  H   -0.004352  -0.044128   0.365053  -0.044898   0.015203  -0.047285
    16  H   -0.000004  -0.001340  -0.028846   0.349139  -0.027843   0.008769
    17  H   -0.000251   0.003248  -0.007691  -0.025191   0.368900  -0.026231
    18  H   -0.000000   0.000248   0.012075  -0.031530   0.362639  -0.032413
    19  H    0.001649  -0.002539  -0.030294   0.008910  -0.029287   0.359870
    20  H   -0.000026   0.000135  -0.005151   0.003649   0.006305  -0.031936
    21  H   -0.000001  -0.000139   0.005569   0.003634  -0.005093  -0.029952
               7          8          9         10         11         12
     1  C    0.000085  -0.000071   0.000000   0.378115   0.377709   0.372542
     2  C    0.003471   0.002538  -0.000037  -0.034676  -0.035289  -0.027172
     3  C   -0.042391  -0.044304  -0.000136  -0.005164  -0.004301   0.004128
     4  C   -0.195866   0.370053  -0.062788   0.000024  -0.000004  -0.000124
     5  C   -0.045849  -0.045129   0.000508  -0.000114   0.000043   0.000005
     6  C    0.338298  -0.058377   0.003477   0.003377  -0.000388   0.000075
     7  C    5.374537   0.298025  -0.073113  -0.000094  -0.000024   0.000001
     8  C    0.298025   4.496747   0.597975  -0.000006  -0.000004   0.000001
     9  O   -0.073113   0.597975   7.988020  -0.000000  -0.000000  -0.000000
    10  H   -0.000094  -0.000006  -0.000000   0.571617  -0.032178  -0.030540
    11  H   -0.000024  -0.000004  -0.000000  -0.032178   0.572304  -0.030259
    12  H    0.000001   0.000001  -0.000000  -0.030540  -0.030259   0.568694
    13  H    0.000081   0.000074   0.000000  -0.004269   0.005103  -0.002485
    14  H   -0.000147  -0.000090  -0.000002   0.005129  -0.004399  -0.002843
    15  H   -0.000986  -0.003601   0.000429  -0.000257   0.005379  -0.000032
    16  H    0.009885  -0.029766   0.000632   0.000003   0.000001  -0.000000
    17  H    0.003715   0.003388  -0.000048   0.000024  -0.000001   0.000009
    18  H   -0.001606  -0.004358   0.000265  -0.000003   0.000000  -0.000000
    19  H   -0.030074   0.004508  -0.000052   0.002154   0.000018  -0.000077
    20  H    0.355460  -0.019747   0.000069  -0.000002   0.000008   0.000000
    21  H    0.352968  -0.019104   0.000151   0.000003   0.000000  -0.000000
              13         14         15         16         17         18
     1  C   -0.037704  -0.038729  -0.004352  -0.000004  -0.000251  -0.000000
     2  C    0.374111   0.372151  -0.044128  -0.001340   0.003248   0.000248
     3  C   -0.039339  -0.034884   0.365053  -0.028846  -0.007691   0.012075
     4  C   -0.004095  -0.003484  -0.044898   0.349139  -0.025191  -0.031530
     5  C    0.005333  -0.000613   0.015203  -0.027843   0.368900   0.362639
     6  C   -0.007591   0.005306  -0.047285   0.008769  -0.026231  -0.032413
     7  C    0.000081  -0.000147  -0.000986   0.009885   0.003715  -0.001606
     8  C    0.000074  -0.000090  -0.003601  -0.029766   0.003388  -0.004358
     9  O    0.000000  -0.000002   0.000429   0.000632  -0.000048   0.000265
    10  H   -0.004269   0.005129  -0.000257   0.000003   0.000024  -0.000003
    11  H    0.005103  -0.004399   0.005379   0.000001  -0.000001   0.000000
    12  H   -0.002485  -0.002843  -0.000032  -0.000000   0.000009  -0.000000
    13  H    0.601314  -0.037827   0.005916  -0.000108   0.005224  -0.000227
    14  H   -0.037827   0.600634  -0.004143   0.002020  -0.000011   0.000000
    15  H    0.005916  -0.004143   0.624853   0.000633  -0.000156  -0.000512
    16  H   -0.000108   0.002020   0.000633   0.586200  -0.001689   0.000684
    17  H    0.005224  -0.000011  -0.000156  -0.001689   0.558824  -0.033836
    18  H   -0.000227   0.000000  -0.000512   0.000684  -0.033836   0.579246
    19  H    0.000003  -0.000039   0.000963  -0.000386  -0.002495   0.000818
    20  H    0.000005  -0.000006   0.004349  -0.000121  -0.000157  -0.000045
    21  H    0.000002   0.000003   0.000003  -0.000107   0.000113   0.003343
              19         20         21
     1  C    0.001649  -0.000026  -0.000001
     2  C   -0.002539   0.000135  -0.000139
     3  C   -0.030294  -0.005151   0.005569
     4  C    0.008910   0.003649   0.003634
     5  C   -0.029287   0.006305  -0.005093
     6  C    0.359870  -0.031936  -0.029952
     7  C   -0.030074   0.355460   0.352968
     8  C    0.004508  -0.019747  -0.019104
     9  O   -0.000052   0.000069   0.000151
    10  H    0.002154  -0.000002   0.000003
    11  H    0.000018   0.000008   0.000000
    12  H   -0.000077   0.000000  -0.000000
    13  H    0.000003   0.000005   0.000002
    14  H   -0.000039  -0.000006   0.000003
    15  H    0.000963   0.004349   0.000003
    16  H   -0.000386  -0.000121  -0.000107
    17  H   -0.002495  -0.000157   0.000113
    18  H    0.000818  -0.000045   0.003343
    19  H    0.591646  -0.000878  -0.000902
    20  H   -0.000878   0.549052  -0.026380
    21  H   -0.000902  -0.026380   0.551083
 Mulliken charges:
               1
     1  C   -0.446254
     2  C   -0.265999
     3  C   -0.089266
     4  C   -0.170584
     5  C   -0.290324
     6  C   -0.122801
     7  C   -0.346376
     8  C    0.451248
     9  O   -0.455352
    10  H    0.146857
    11  H    0.146281
    12  H    0.148077
    13  H    0.136479
    14  H    0.141972
    15  H    0.127567
    16  H    0.132246
    17  H    0.154312
    18  H    0.145214
    19  H    0.126482
    20  H    0.165415
    21  H    0.164803
 Sum of Mulliken charges =  -0.00000
 Mulliken charges with hydrogens summed into heavy atoms:
               1
     1  C   -0.005038
     2  C    0.012453
     3  C    0.038301
     4  C   -0.038338
     5  C    0.009202
     6  C    0.003681
     7  C   -0.016157
     8  C    0.451248
     9  O   -0.455352
 APT charges:
               1
     1  C    0.072733
     2  C    0.134419
     3  C    0.104659
     4  C   -0.131244
     5  C    0.070102
     6  C    0.069935
     7  C   -0.043360
     8  C    0.799359
     9  O   -0.685398
    10  H   -0.019109
    11  H   -0.022056
    12  H   -0.036282
    13  H   -0.039144
    14  H   -0.058452
    15  H   -0.063937
    16  H   -0.032450
    17  H   -0.012987
    18  H   -0.034965
    19  H   -0.046802
    20  H   -0.008926
    21  H   -0.016094
 Sum of APT charges =   0.00000
 APT charges with hydrogens summed into heavy atoms:
               1
     1  C   -0.004715
     2  C    0.036823
     3  C    0.040722
     4  C   -0.163694
     5  C    0.022149
     6  C    0.023134
     7  C   -0.068380
     8  C    0.799359
     9  O   -0.685398
 Electronic spatial extent (au):  <R**2>=           1279.3651
 Charge=             -0.0000 electrons
 Dipole moment (field-independent basis, Debye):
    X=              2.9052    Y=              1.3817    Z=              0.7718  Tot=              3.3083
 Quadrupole moment (field-independent basis, Debye-Ang):
   XX=            -63.7521   YY=            -54.8138   ZZ=            -53.7055
   XY=             -4.9959   XZ=             -2.1821   YZ=             -0.8798
 Traceless Quadrupole moment (field-independent basis, Debye-Ang):
   XX=             -6.3283   YY=              2.6100   ZZ=              3.7183
   XY=             -4.9959   XZ=             -2.1821   YZ=             -0.8798
 Octapole moment (field-independent basis, Debye-Ang**2):
  XXX=             23.6637  YYY=             -1.9515  ZZZ=             -2.7760  XYY=             -0.2099
  XXY=             12.1259  XXZ=              8.6301  XZZ=             -2.6286  YZZ=             -0.6751
  YYZ=              0.3447  XYZ=              2.7717
 Hexadecapole moment (field-independent basis, Debye-Ang**3):
 XXXX=          -1226.2114 YYYY=           -277.8486 ZZZZ=           -252.4729 XXXY=            -36.4322
 XXXZ=            -14.1935 YYYX=              3.9895 YYYZ=             -1.2537 ZZZX=              7.3229
 ZZZY=              1.9482 XXYY=           -243.5042 XXZZ=           -235.4750 YYZZ=            -90.8601
 XXYZ=             -4.6320 YYXZ=             -1.0968 ZZXY=              0.2842
 N-N= 4.576407231981D+02 E-N=-1.813962378035D+03  KE= 3.836073092069D+02
  Exact polarizability:  93.602   0.010  74.308   1.813  -0.680  72.408
 Approx polarizability: 124.674   5.577 111.443   5.358   1.465 108.177
 Calling FoFJK, ICntrl=    100127 FMM=F ISym2X=0 I1Cent= 0 IOpClX= 0 NMat=1 NMatS=1 NMatT=0.
 Full mass-weighted force constant matrix:
 Low frequencies ---  -10.2724   -5.8587   -0.0006    0.0002    0.0003    4.8883
 Low frequencies ---   77.7311  136.4887  159.4906
 Diagonal vibrational polarizability:
        5.5996324       4.5976156       7.5796832
 Harmonic frequencies (cm**-1), IR intensities (KM/Mole), Raman scattering
 activities (A**4/AMU), depolarization ratios for plane and unpolarized
 incident light, reduced masses (AMU), force constants (mDyne/A),
 and normal coordinates:
                      1                      2                      3
                      A                      A                      A
 Frequencies --     77.7307               136.4886               159.4901
 Red. masses --      2.6565                 3.1590                 2.9362
 Frc consts  --      0.0095                 0.0347                 0.0440
 IR Inten    --      1.3140                 2.2553                 0.3332
  Atom  AN      X      Y      Z        X      Y      Z        X      Y      Z
     1   6     0.01   0.17   0.19     0.08  -0.01  -0.02     0.17  -0.16   0.11
     2   6    -0.01  -0.09  -0.07     0.07   0.12   0.08    -0.04   0.01  -0.05
     3   6    -0.00  -0.07  -0.07     0.07   0.02  -0.02     0.00   0.15  -0.10
     4   6     0.00  -0.02  -0.03     0.03  -0.09  -0.14     0.06   0.03  -0.08
     5   6     0.06  -0.00  -0.07    -0.08  -0.13  -0.03     0.01   0.01  -0.03
     6   6     0.04  -0.05  -0.09    -0.02  -0.03   0.02    -0.08   0.10  -0.02
     7   6     0.02  -0.03  -0.06     0.03  -0.03  -0.06    -0.13   0.03   0.05
     8   6    -0.02   0.01   0.02    -0.01  -0.01  -0.05    -0.01  -0.02   0.01
     9   8    -0.09   0.06   0.13    -0.16   0.13   0.17     0.01  -0.09   0.06
    10   1    -0.01   0.14   0.50    -0.03   0.01  -0.35     0.40  -0.16   0.19
    11   1     0.07   0.48   0.11     0.21  -0.34   0.05     0.25  -0.07   0.09
    12   1     0.00   0.08   0.14     0.08   0.19   0.18     0.07  -0.40   0.21
    13   1    -0.10  -0.34  -0.00     0.04   0.33   0.04    -0.10  -0.07  -0.02
    14   1     0.05  -0.07  -0.32     0.10   0.11   0.29    -0.20  -0.01  -0.08
    15   1    -0.02  -0.08  -0.06     0.17   0.06  -0.04     0.01   0.20  -0.12
    16   1    -0.01  -0.00  -0.00     0.04  -0.12  -0.20     0.17   0.01  -0.12
    17   1     0.08  -0.00  -0.08    -0.13  -0.13   0.02     0.04   0.04  -0.06
    18   1     0.08   0.03  -0.05    -0.14  -0.20  -0.07     0.00  -0.07   0.02
    19   1     0.05  -0.06  -0.13    -0.04   0.00   0.11    -0.16   0.16  -0.01
    20   1    -0.00  -0.09  -0.06     0.12  -0.07  -0.06    -0.21   0.10   0.05
    21   1     0.05   0.01  -0.08     0.01  -0.02  -0.15    -0.16  -0.03   0.14
                      4                      5                      6
                      A                      A                      A
 Frequencies --    217.5499               301.8638               360.2375
 Red. masses --      1.2558                 1.9549                 3.7990
 Frc consts  --      0.0350                 0.1050                 0.2905
 IR Inten    --      0.4040                 0.4776                 0.7420
  Atom  AN      X      Y      Z        X      Y      Z        X      Y      Z
     1   6    -0.01   0.01   0.05     0.00   0.01   0.02     0.29   0.04  -0.05
     2   6    -0.03  -0.01  -0.01     0.01   0.11   0.12     0.15   0.04  -0.13
     3   6    -0.02  -0.03  -0.05    -0.00  -0.08  -0.04    -0.01  -0.07   0.07
     4   6    -0.00   0.00   0.00    -0.01  -0.03  -0.02    -0.10  -0.01   0.16
     5   6     0.07   0.00  -0.02     0.10  -0.02  -0.06    -0.06   0.06   0.05
     6   6     0.02  -0.02  -0.04     0.03  -0.07  -0.10    -0.05  -0.06   0.01
     7   6    -0.03   0.03   0.06    -0.07   0.03   0.09    -0.05  -0.07   0.03
     8   6    -0.01   0.01   0.02    -0.04   0.01   0.02    -0.10  -0.02   0.04
     9   8     0.02  -0.01  -0.03    -0.03   0.02  -0.05    -0.11   0.07  -0.13
    10   1    -0.34   0.03  -0.35     0.25   0.01   0.17     0.37   0.04  -0.06
    11   1     0.36  -0.38   0.11    -0.24   0.17  -0.00     0.47   0.03  -0.07
    12   1    -0.01   0.42   0.43    -0.00  -0.25  -0.21     0.20  -0.05   0.13
    13   1    -0.08   0.01  -0.01    -0.04   0.36   0.06     0.21  -0.03  -0.12
    14   1     0.01  -0.01   0.02     0.11   0.10   0.37     0.20   0.05  -0.19
    15   1    -0.04  -0.05  -0.04     0.07  -0.18  -0.01    -0.13  -0.13   0.09
    16   1    -0.01   0.01   0.01    -0.03  -0.02  -0.00    -0.14   0.04   0.26
    17   1     0.10  -0.01  -0.05     0.13  -0.05  -0.09    -0.05   0.08   0.04
    18   1     0.11   0.03   0.02     0.15   0.03  -0.02    -0.04   0.13   0.02
    19   1     0.04  -0.03  -0.07     0.07  -0.10  -0.16    -0.05  -0.07  -0.05
    20   1    -0.13   0.08   0.05    -0.28   0.16   0.08    -0.09  -0.10   0.03
    21   1     0.01   0.02   0.16     0.02   0.01   0.32    -0.03  -0.04   0.03
                      7                      8                      9
                      A                      A                      A
 Frequencies --    423.9941               467.0463               506.5988
 Red. masses --      2.0688                 3.0403                 3.0183
 Frc consts  --      0.2191                 0.3907                 0.4564
 IR Inten    --      0.8777                 3.0406                 4.5281
  Atom  AN      X      Y      Z        X      Y      Z        X      Y      Z
     1   6    -0.01  -0.01   0.02    -0.07  -0.02   0.00    -0.04  -0.01   0.02
     2   6    -0.09   0.09  -0.01     0.08  -0.11   0.09    -0.14   0.08  -0.08
     3   6    -0.06   0.06  -0.03     0.12   0.09   0.07    -0.06  -0.01  -0.09
     4   6    -0.01  -0.01   0.05     0.11  -0.01  -0.01     0.14  -0.08   0.06
     5   6     0.17  -0.06   0.08     0.07   0.06  -0.02    -0.10   0.04  -0.02
     6   6    -0.04   0.02   0.04    -0.05   0.08  -0.02     0.02  -0.04  -0.02
     7   6     0.04  -0.09  -0.08    -0.10  -0.14   0.04     0.05  -0.10   0.08
     8   6    -0.03  -0.01   0.04     0.01  -0.10  -0.01     0.13  -0.07   0.09
     9   8    -0.02   0.03  -0.06    -0.11   0.13  -0.10     0.06   0.16  -0.04
    10   1     0.10   0.00   0.01    -0.28  -0.03  -0.03     0.08  -0.01   0.04
    11   1     0.03  -0.01   0.02    -0.20  -0.06   0.02     0.06   0.02   0.01
    12   1    -0.06  -0.11   0.08     0.04   0.18  -0.14    -0.12  -0.13   0.13
    13   1    -0.10   0.15  -0.03     0.17  -0.31   0.12    -0.27   0.19  -0.09
    14   1    -0.10   0.08   0.07    -0.05  -0.11  -0.13    -0.11   0.07   0.06
    15   1    -0.08   0.08  -0.04     0.20   0.10   0.06    -0.16  -0.02  -0.08
    16   1     0.06  -0.03   0.01     0.32   0.00   0.06     0.29  -0.08   0.10
    17   1     0.34  -0.14  -0.14     0.14   0.10  -0.11    -0.29   0.26   0.24
    18   1     0.32  -0.08   0.34     0.09   0.01   0.06    -0.31  -0.01  -0.33
    19   1    -0.06   0.03   0.00    -0.22   0.19  -0.07     0.05  -0.06  -0.05
    20   1     0.28  -0.37  -0.08    -0.22  -0.08   0.04    -0.06  -0.14   0.07
    21   1    -0.04  -0.01  -0.44    -0.19  -0.26   0.13    -0.01  -0.18   0.12
                     10                     11                     12
                      A                      A                      A
 Frequencies --    593.4314               617.7979               749.9138
 Red. masses --      4.4704                 2.3573                 1.6848
 Frc consts  --      0.9276                 0.5301                 0.5583
 IR Inten    --      3.0738                 1.1146                 5.6310
  Atom  AN      X      Y      Z        X      Y      Z        X      Y      Z
     1   6    -0.02   0.00   0.00     0.00  -0.00  -0.00     0.01  -0.02  -0.00
     2   6    -0.06   0.04  -0.02     0.05  -0.04   0.04     0.04  -0.10  -0.03
     3   6     0.04   0.13  -0.06     0.05   0.02  -0.06     0.01  -0.09  -0.09
     4   6    -0.06   0.03  -0.05     0.04  -0.01  -0.06     0.09   0.05   0.01
     5   6     0.04   0.13  -0.01    -0.04  -0.03  -0.04     0.02   0.04   0.08
     6   6     0.24  -0.01   0.09     0.02  -0.00  -0.02    -0.04   0.03   0.07
     7   6     0.19  -0.06   0.12    -0.03   0.02   0.04    -0.02   0.04  -0.02
     8   6    -0.15  -0.16  -0.03    -0.14   0.11   0.24    -0.02  -0.01  -0.05
     9   8    -0.21  -0.14  -0.05     0.03  -0.03  -0.07    -0.04  -0.01  -0.01
    10   1     0.03   0.01  -0.01    -0.09  -0.01   0.01    -0.25  -0.06   0.27
    11   1    -0.01  -0.00   0.00    -0.08   0.01   0.00     0.11   0.25  -0.07
    12   1    -0.04  -0.04   0.03     0.06   0.08  -0.10     0.06   0.16  -0.01
    13   1    -0.10   0.09  -0.03     0.02  -0.03   0.04    -0.08   0.45  -0.14
    14   1    -0.07   0.04   0.02     0.04  -0.05   0.04     0.12  -0.13   0.52
    15   1     0.06   0.31  -0.11     0.11   0.05  -0.07    -0.12  -0.08  -0.08
    16   1     0.21   0.07   0.07     0.10  -0.04  -0.11     0.13   0.04   0.01
    17   1    -0.18  -0.09   0.21    -0.16   0.08   0.11    -0.01   0.15   0.12
    18   1     0.02   0.36  -0.24    -0.17  -0.08  -0.20    -0.05  -0.03   0.03
    19   1     0.22   0.01  -0.01    -0.02   0.02   0.00    -0.09   0.07   0.08
    20   1     0.25   0.07   0.14     0.03  -0.59   0.00     0.14   0.08  -0.00
    21   1     0.28   0.02   0.16     0.17   0.39  -0.39    -0.09   0.01  -0.10
                     13                     14                     15
                      A                      A                      A
 Frequencies --    773.2148               821.5669               840.7453
 Red. masses --      2.4746                 2.6390                 3.0344
 Frc consts  --      0.8717                 1.0495                 1.2637
 IR Inten    --      6.5648                 9.5795                 2.2154
  Atom  AN      X      Y      Z        X      Y      Z        X      Y      Z
     1   6    -0.02   0.01   0.01     0.00   0.02   0.01     0.01   0.02  -0.01
     2   6    -0.02   0.06   0.01    -0.01   0.03   0.02    -0.01   0.00   0.01
     3   6    -0.03  -0.04   0.07    -0.02  -0.05  -0.01    -0.09  -0.13   0.08
     4   6     0.21  -0.06   0.06     0.04   0.05  -0.15    -0.02  -0.15  -0.14
     5   6     0.02  -0.01   0.05     0.05   0.11   0.23     0.05   0.17  -0.16
     6   6    -0.04  -0.02  -0.04     0.03  -0.11   0.03    -0.10   0.07   0.12
     7   6     0.02   0.18  -0.07    -0.10  -0.10   0.01     0.02   0.04   0.13
     8   6    -0.08  -0.04  -0.03    -0.00   0.09  -0.08     0.04  -0.04  -0.01
     9   8    -0.09  -0.05  -0.03     0.02   0.00   0.01     0.02   0.01   0.01
    10   1     0.16   0.03  -0.15     0.15   0.04  -0.17     0.12   0.03  -0.05
    11   1    -0.07  -0.15   0.05    -0.10  -0.15   0.05     0.07  -0.02  -0.01
    12   1    -0.06  -0.12   0.03    -0.01  -0.08  -0.05    -0.04  -0.08   0.06
    13   1     0.01  -0.26   0.07    -0.08  -0.19   0.07     0.05  -0.04   0.01
    14   1    -0.02   0.08  -0.30     0.08   0.05  -0.19     0.12   0.01  -0.02
    15   1    -0.04  -0.20   0.11     0.03  -0.03  -0.02    -0.05  -0.12   0.07
    16   1     0.43  -0.10   0.02    -0.07  -0.09  -0.48    -0.04  -0.18  -0.20
    17   1     0.06   0.33   0.06    -0.11   0.09   0.41     0.14   0.17  -0.27
    18   1    -0.10  -0.19  -0.00    -0.06   0.19  -0.02     0.17   0.34  -0.10
    19   1     0.11  -0.12  -0.02     0.05  -0.16  -0.32    -0.09   0.07   0.22
    20   1     0.11   0.23  -0.06    -0.00  -0.14   0.02     0.40  -0.21   0.14
    21   1     0.13   0.29  -0.07    -0.14  -0.09  -0.10    -0.14   0.08  -0.29
                     16                     17                     18
                      A                      A                      A
 Frequencies --    866.3145               901.8492               936.1278
 Red. masses --      1.6921                 2.0085                 2.2542
 Frc consts  --      0.7482                 0.9625                 1.1639
 IR Inten    --      0.8444                 2.8385                 4.5977
  Atom  AN      X      Y      Z        X      Y      Z        X      Y      Z
     1   6    -0.03  -0.03  -0.04    -0.01   0.03   0.00     0.15   0.03  -0.03
     2   6    -0.03  -0.00  -0.05    -0.01   0.01  -0.00    -0.02  -0.07   0.09
     3   6    -0.03   0.04   0.19    -0.04  -0.11   0.04    -0.15   0.06  -0.02
     4   6     0.02  -0.04  -0.07     0.03   0.11  -0.02    -0.06  -0.09   0.00
     5   6    -0.01   0.01   0.02     0.00  -0.08  -0.04    -0.01   0.01   0.06
     6   6     0.06   0.01  -0.06     0.12   0.17   0.01     0.04   0.08  -0.07
     7   6    -0.02  -0.01  -0.01    -0.07   0.00   0.03     0.00   0.07  -0.02
     8   6    -0.01   0.01   0.01     0.01  -0.03  -0.02     0.05  -0.10   0.03
     9   8     0.00  -0.00  -0.00    -0.02  -0.00  -0.01     0.00   0.01   0.00
    10   1    -0.11  -0.06   0.30     0.17   0.04  -0.10    -0.14   0.02  -0.07
    11   1     0.38   0.27  -0.14     0.01  -0.09   0.02    -0.15   0.06  -0.02
    12   1    -0.13   0.00   0.29    -0.09  -0.13   0.07     0.37   0.33  -0.38
    13   1     0.31   0.23  -0.14    -0.01  -0.05   0.01    -0.15  -0.08   0.11
    14   1    -0.19  -0.04   0.17     0.18   0.03  -0.08    -0.18  -0.09   0.12
    15   1     0.01   0.00   0.19    -0.11  -0.31   0.10    -0.17   0.06  -0.02
    16   1     0.11  -0.12  -0.23     0.12   0.21   0.19     0.13  -0.17  -0.14
    17   1     0.01  -0.11  -0.01    -0.21  -0.45   0.16    -0.06  -0.14   0.11
    18   1     0.02   0.01   0.08    -0.07  -0.17  -0.08     0.01   0.04   0.07
    19   1     0.15  -0.06  -0.20     0.19   0.13  -0.01     0.32  -0.13  -0.25
    20   1    -0.19  -0.10  -0.04    -0.03  -0.22   0.02     0.01  -0.02  -0.03
    21   1     0.07   0.05   0.03    -0.31  -0.11  -0.21    -0.14  -0.03  -0.09
                     19                     20                     21
                      A                      A                      A
 Frequencies --    950.1076               982.3645              1000.8125
 Red. masses --      2.0719                 1.7277                 3.0706
 Frc consts  --      1.1020                 0.9823                 1.8121
 IR Inten    --      0.3350                 1.3289                12.1130
  Atom  AN      X      Y      Z        X      Y      Z        X      Y      Z
     1   6     0.03   0.02  -0.01    -0.00  -0.03  -0.00    -0.14  -0.05   0.08
     2   6    -0.01  -0.02   0.02     0.01   0.03   0.00     0.14   0.04  -0.09
     3   6    -0.05  -0.05   0.01     0.03   0.06   0.00     0.08  -0.01  -0.09
     4   6     0.02   0.11  -0.07    -0.00   0.03   0.05    -0.10  -0.14   0.02
     5   6    -0.08  -0.00   0.04     0.03  -0.04  -0.02    -0.05   0.06   0.15
     6   6    -0.10   0.04  -0.09    -0.05  -0.09  -0.05    -0.01   0.13  -0.11
     7   6     0.17  -0.08   0.11    -0.05   0.05   0.13     0.02   0.10   0.01
     8   6    -0.01   0.01   0.01     0.05  -0.02  -0.11     0.05  -0.12   0.04
     9   8    -0.00  -0.01  -0.00    -0.00   0.01   0.02    -0.01   0.01  -0.00
    10   1     0.04   0.02  -0.05    -0.16  -0.05   0.12     0.03  -0.04   0.03
    11   1    -0.01  -0.02   0.00     0.04   0.10  -0.04    -0.09  -0.16   0.11
    12   1     0.05   0.01  -0.05     0.03   0.10   0.01    -0.23  -0.22   0.18
    13   1    -0.02  -0.04   0.03     0.13  -0.02  -0.00     0.13   0.10  -0.10
    14   1     0.04  -0.01   0.01    -0.24   0.01  -0.05     0.41   0.06  -0.08
    15   1    -0.13  -0.23   0.06     0.09  -0.05   0.02     0.10   0.02  -0.10
    16   1     0.18   0.09  -0.10    -0.07   0.13   0.26    -0.27  -0.17  -0.07
    17   1     0.08  -0.15  -0.18    -0.12  -0.15   0.13    -0.03  -0.16   0.10
    18   1    -0.02  -0.23   0.34    -0.03   0.03  -0.20     0.02   0.06   0.28
    19   1    -0.35   0.19  -0.39    -0.07  -0.11  -0.38    -0.00   0.11  -0.35
    20   1     0.19   0.05   0.12     0.46  -0.16   0.16     0.03  -0.05  -0.00
    21   1     0.36   0.06   0.19    -0.05   0.25  -0.32    -0.01   0.13  -0.11
                     22                     23                     24
                      A                      A                      A
 Frequencies --   1014.0991              1075.5652              1081.2674
 Red. masses --      1.5582                 1.7168                 1.7117
 Frc consts  --      0.9441                 1.1702                 1.1791
 IR Inten    --      4.3831                 0.6287                 8.2490
  Atom  AN      X      Y      Z        X      Y      Z        X      Y      Z
     1   6     0.01   0.01  -0.03    -0.03  -0.06   0.07    -0.00  -0.07   0.10
     2   6    -0.02  -0.00   0.02     0.12   0.05  -0.03     0.08   0.07  -0.09
     3   6    -0.00  -0.01   0.02    -0.11   0.03   0.01    -0.06   0.02   0.04
     4   6    -0.04  -0.06   0.04    -0.00   0.01  -0.02     0.02   0.02   0.02
     5   6     0.12  -0.06   0.01     0.04  -0.02  -0.05    -0.02  -0.02  -0.03
     6   6    -0.01   0.12  -0.03    -0.05  -0.03   0.04     0.05   0.03  -0.01
     7   6     0.05  -0.04   0.00     0.02  -0.03  -0.07     0.02  -0.04   0.07
     8   6    -0.03   0.05  -0.01    -0.04   0.04   0.08    -0.01   0.04  -0.08
     9   8    -0.01  -0.02  -0.00     0.03   0.01  -0.01    -0.02  -0.02   0.01
    10   1     0.01   0.00   0.03    -0.17  -0.07   0.08    -0.27  -0.08   0.04
    11   1     0.08   0.05  -0.04    -0.14  -0.04   0.07    -0.32  -0.06   0.12
    12   1    -0.01   0.01   0.03     0.03   0.04  -0.03     0.16   0.14  -0.19
    13   1     0.02  -0.03   0.02     0.26   0.02  -0.04    -0.00   0.07  -0.08
    14   1    -0.07  -0.01  -0.02     0.14   0.05  -0.08     0.04   0.06  -0.03
    15   1     0.07  -0.09   0.03    -0.21  -0.02   0.03    -0.27   0.01   0.05
    16   1    -0.35  -0.12  -0.14     0.35  -0.02  -0.04    -0.18  -0.05  -0.16
    17   1    -0.12   0.38   0.36    -0.18  -0.33   0.17     0.16   0.41  -0.19
    18   1    -0.21  -0.22  -0.40     0.04   0.24  -0.28    -0.08  -0.27   0.08
    19   1    -0.24   0.27  -0.15    -0.07  -0.03  -0.15     0.26  -0.11   0.07
    20   1     0.10   0.16   0.02     0.22   0.38  -0.01    -0.12  -0.27   0.04
    21   1    -0.04  -0.15   0.07    -0.11  -0.21   0.10    -0.03  -0.05  -0.03
                     25                     26                     27
                      A                      A                      A
 Frequencies --   1096.0810              1113.5103              1123.1950
 Red. masses --      1.2416                 1.4414                 1.5561
 Frc consts  --      0.8789                 1.0530                 1.1567
 IR Inten    --      2.8409                 6.2321                 2.5892
  Atom  AN      X      Y      Z        X      Y      Z        X      Y      Z
     1   6    -0.04   0.04  -0.03     0.01   0.05   0.04     0.03  -0.02   0.02
     2   6     0.04  -0.06   0.05    -0.01  -0.08  -0.06    -0.04   0.04  -0.05
     3   6    -0.07   0.02  -0.01    -0.01   0.03   0.09     0.05  -0.06   0.05
     4   6    -0.01   0.03  -0.01     0.00  -0.06   0.04     0.07  -0.08  -0.08
     5   6     0.01   0.00  -0.03     0.02  -0.02  -0.03     0.00   0.07  -0.01
     6   6    -0.02  -0.02   0.01     0.02  -0.01   0.00    -0.02   0.03   0.06
     7   6     0.01  -0.00   0.01    -0.04  -0.01  -0.00     0.00  -0.01  -0.04
     8   6    -0.00  -0.01   0.02     0.00   0.04  -0.07    -0.04   0.04   0.04
     9   8     0.00   0.00  -0.00     0.01   0.00   0.02     0.01  -0.01  -0.01
    10   1     0.21   0.05  -0.03     0.17   0.08  -0.20    -0.14  -0.03   0.00
    11   1     0.15  -0.03  -0.02    -0.15  -0.18   0.10    -0.13   0.01   0.03
    12   1    -0.15  -0.14   0.14    -0.00  -0.11  -0.09     0.13   0.12  -0.13
    13   1     0.15   0.01   0.02    -0.29   0.18  -0.08    -0.19   0.02  -0.03
    14   1     0.26  -0.04   0.08     0.30  -0.07   0.20    -0.17   0.03  -0.02
    15   1     0.06   0.44  -0.13    -0.20   0.37   0.01     0.12   0.20  -0.02
    16   1    -0.00   0.09   0.11     0.17  -0.05   0.07    -0.35   0.21   0.52
    17   1     0.07   0.23  -0.07    -0.06  -0.10   0.06    -0.05  -0.23   0.02
    18   1    -0.15  -0.38   0.03     0.04   0.10  -0.10    -0.05  -0.22   0.16
    19   1     0.29  -0.26  -0.26    -0.27   0.18  -0.21     0.09  -0.08  -0.36
    20   1     0.14   0.07   0.03    -0.11  -0.09  -0.02     0.02   0.16  -0.02
    21   1    -0.14  -0.12  -0.02     0.25   0.25   0.00    -0.02  -0.07   0.06
                     28                     29                     30
                      A                      A                      A
 Frequencies --   1172.7220              1182.6485              1226.0749
 Red. masses --      1.8073                 1.6652                 1.5822
 Frc consts  --      1.4644                 1.3723                 1.4013
 IR Inten    --     12.4495                 5.0029                 2.1986
  Atom  AN      X      Y      Z        X      Y      Z        X      Y      Z
     1   6    -0.00   0.02  -0.01    -0.01  -0.05  -0.03    -0.02   0.02  -0.01
     2   6    -0.02  -0.02  -0.00     0.03   0.06   0.07     0.04  -0.04   0.04
     3   6     0.07   0.00  -0.02    -0.09  -0.06  -0.07    -0.05   0.07  -0.04
     4   6     0.00  -0.09   0.07    -0.04  -0.08   0.01     0.12  -0.03  -0.04
     5   6    -0.10  -0.03  -0.00     0.01   0.03   0.03    -0.03  -0.08   0.04
     6   6     0.06   0.03  -0.02     0.02   0.03   0.04    -0.05   0.04   0.01
     7   6     0.02  -0.01   0.04     0.03  -0.01   0.00     0.06  -0.01   0.01
     8   6    -0.08   0.16  -0.04    -0.01   0.07  -0.10    -0.01   0.03  -0.02
     9   8     0.01  -0.03   0.01     0.02  -0.01   0.02    -0.02  -0.01  -0.00
    10   1     0.05   0.02  -0.02    -0.11  -0.06   0.15     0.12   0.03  -0.02
    11   1     0.03  -0.01  -0.01     0.12   0.13  -0.08     0.08  -0.02  -0.01
    12   1    -0.03  -0.03   0.02    -0.00   0.08   0.07    -0.07  -0.06   0.06
    13   1    -0.11   0.01   0.00     0.24  -0.16   0.09     0.10  -0.01   0.03
    14   1    -0.05  -0.02   0.03     0.01   0.07  -0.16     0.01  -0.04   0.05
    15   1     0.09  -0.10  -0.00     0.16   0.17  -0.16    -0.25  -0.15   0.04
    16   1     0.36  -0.15   0.02     0.41   0.06   0.39    -0.46   0.15   0.28
    17   1     0.10   0.09  -0.22    -0.02   0.00   0.06     0.03   0.06  -0.02
    18   1     0.15   0.24   0.19    -0.04  -0.06   0.04     0.20   0.56  -0.14
    19   1     0.06   0.01  -0.25    -0.14   0.15   0.01     0.16  -0.11  -0.08
    20   1     0.25   0.13   0.07    -0.39  -0.29  -0.06    -0.22  -0.15  -0.02
    21   1    -0.48  -0.40  -0.11     0.16   0.09   0.05     0.07  -0.03   0.06
                     31                     32                     33
                      A                      A                      A
 Frequencies --   1247.8008              1257.9590              1277.0339
 Red. masses --      1.9425                 1.5157                 1.6549
 Frc consts  --      1.7819                 1.4132                 1.5901
 IR Inten    --      2.3921                 0.4998                 1.4618
  Atom  AN      X      Y      Z        X      Y      Z        X      Y      Z
     1   6    -0.02  -0.02  -0.04     0.02  -0.04  -0.02    -0.00   0.02   0.01
     2   6     0.03   0.02   0.08    -0.02   0.05   0.01     0.02  -0.02   0.01
     3   6    -0.05   0.01  -0.07    -0.02  -0.12   0.04    -0.08   0.02   0.02
     4   6     0.10  -0.04   0.10     0.07   0.07   0.06     0.04  -0.04  -0.06
     5   6    -0.05   0.05  -0.06    -0.03  -0.06  -0.00    -0.01   0.03   0.06
     6   6     0.12   0.02   0.05    -0.02   0.02  -0.05     0.09  -0.08  -0.15
     7   6    -0.12  -0.08  -0.02     0.04   0.03   0.02    -0.00   0.02   0.03
     8   6    -0.00   0.02  -0.01    -0.00  -0.02   0.02    -0.01   0.01   0.02
     9   8    -0.00   0.00  -0.00    -0.02  -0.00  -0.01     0.00  -0.00  -0.00
    10   1    -0.00  -0.03   0.11    -0.12  -0.05   0.09     0.04   0.02  -0.03
    11   1     0.14   0.09  -0.08     0.03   0.10  -0.05    -0.02  -0.05   0.03
    12   1    -0.04   0.03   0.09     0.05   0.08   0.00    -0.01  -0.04  -0.01
    13   1     0.04  -0.14   0.11    -0.10  -0.09   0.05     0.14   0.03  -0.02
    14   1     0.05   0.04  -0.09     0.13   0.07  -0.08    -0.06  -0.02   0.04
    15   1    -0.26   0.01  -0.05     0.23   0.68  -0.19    -0.12   0.19  -0.02
    16   1    -0.37  -0.18  -0.26    -0.17  -0.07  -0.30    -0.19   0.15   0.31
    17   1    -0.01  -0.21  -0.14    -0.01  -0.09  -0.03     0.02  -0.02   0.03
    18   1     0.02  -0.13   0.21     0.13   0.33  -0.08    -0.04  -0.08   0.10
    19   1    -0.09   0.16  -0.12    -0.08   0.06  -0.02    -0.36   0.30   0.55
    20   1     0.27   0.30   0.03    -0.06  -0.05   0.00     0.21   0.07   0.04
    21   1     0.28   0.28  -0.02    -0.14  -0.10  -0.04    -0.26  -0.17  -0.10
                     34                     35                     36
                      A                      A                      A
 Frequencies --   1285.8508              1311.0768              1318.5018
 Red. masses --      1.6826                 1.3688                 1.3961
 Frc consts  --      1.6391                 1.3862                 1.4300
 IR Inten    --      1.4142                 5.5433                 4.5329
  Atom  AN      X      Y      Z        X      Y      Z        X      Y      Z
     1   6     0.01  -0.03  -0.01     0.01   0.04   0.06     0.00   0.05   0.04
     2   6    -0.02   0.03  -0.00    -0.03  -0.03  -0.04    -0.00  -0.01  -0.01
     3   6    -0.01  -0.02   0.03    -0.04  -0.05  -0.02    -0.02  -0.03  -0.03
     4   6    -0.06   0.02  -0.10     0.01  -0.00   0.02     0.01   0.03   0.01
     5   6    -0.04  -0.11   0.05    -0.02  -0.02   0.02    -0.02  -0.01  -0.02
     6   6     0.09   0.02   0.03    -0.02   0.08  -0.04     0.07  -0.05   0.10
     7   6    -0.08  -0.02  -0.03    -0.05  -0.08   0.01     0.02   0.07  -0.03
     8   6     0.03  -0.07   0.05    -0.01   0.02  -0.02     0.02  -0.04   0.02
     9   8     0.02   0.03  -0.00     0.01   0.00   0.00    -0.01   0.00  -0.01
    10   1    -0.11  -0.05   0.07     0.06   0.06  -0.17     0.07   0.06  -0.13
    11   1    -0.00   0.07  -0.03    -0.12  -0.11   0.10    -0.09  -0.12   0.09
    12   1     0.04   0.06  -0.00     0.05  -0.04  -0.12     0.00  -0.07  -0.07
    13   1    -0.10  -0.04   0.02     0.48   0.13  -0.14     0.45   0.08  -0.09
    14   1     0.19   0.06  -0.08    -0.24  -0.06   0.09    -0.40  -0.06   0.08
    15   1     0.00   0.01   0.02     0.46   0.07  -0.10     0.02  -0.01  -0.04
    16   1     0.13   0.18   0.26     0.04  -0.01   0.01    -0.10  -0.02  -0.12
    17   1     0.21   0.60  -0.15     0.01  -0.01  -0.00     0.09   0.09  -0.14
    18   1     0.10   0.27  -0.05     0.03   0.14  -0.03    -0.02  -0.02  -0.01
    19   1    -0.11   0.14  -0.19     0.25  -0.08   0.21    -0.37   0.20  -0.42
    20   1     0.22   0.24   0.01     0.19   0.19   0.05    -0.20  -0.12  -0.06
    21   1     0.13   0.18  -0.04     0.25   0.19   0.02    -0.16  -0.08  -0.04
                     37                     38                     39
                      A                      A                      A
 Frequencies --   1370.5280              1434.1284              1441.6235
 Red. masses --      1.3891                 1.3988                 1.2338
 Frc consts  --      1.5373                 1.6950                 1.5108
 IR Inten    --      8.3396                 0.6006                 2.7097
  Atom  AN      X      Y      Z        X      Y      Z        X      Y      Z
     1   6     0.03  -0.04   0.03    -0.05  -0.01   0.01    -0.10  -0.06   0.07
     2   6    -0.15  -0.02   0.00     0.09  -0.01  -0.04    -0.00   0.01   0.00
     3   6    -0.01   0.07  -0.01    -0.13   0.05   0.02     0.04  -0.02   0.00
     4   6     0.03  -0.01   0.01     0.03   0.01   0.01    -0.01   0.00  -0.01
     5   6    -0.00   0.02  -0.00    -0.01   0.00  -0.01     0.00  -0.00   0.00
     6   6     0.01  -0.03   0.01     0.03  -0.02   0.03    -0.01   0.00  -0.01
     7   6     0.01   0.02  -0.00     0.00   0.01  -0.01     0.00  -0.00   0.00
     8   6    -0.00   0.01  -0.00     0.00  -0.01   0.00    -0.00  -0.00   0.00
     9   8    -0.01  -0.00  -0.00    -0.00   0.00  -0.00     0.00   0.00   0.00
    10   1    -0.07  -0.03  -0.08     0.13  -0.00  -0.03     0.45   0.02  -0.32
    11   1    -0.03   0.13  -0.02     0.20   0.03  -0.03     0.45   0.30  -0.07
    12   1     0.14   0.12  -0.13     0.02   0.06  -0.12     0.20   0.34  -0.39
    13   1     0.36   0.11  -0.09    -0.49  -0.00   0.03     0.07   0.00  -0.01
    14   1     0.75   0.08  -0.13    -0.03  -0.03   0.06    -0.07   0.01  -0.02
    15   1     0.25  -0.22   0.05     0.73  -0.27   0.02    -0.22   0.09  -0.00
    16   1    -0.13  -0.00  -0.00    -0.08   0.01  -0.01     0.04   0.00   0.00
    17   1     0.02  -0.07  -0.04     0.02  -0.02  -0.05    -0.01   0.02   0.03
    18   1    -0.03  -0.04  -0.01     0.01  -0.00   0.01     0.01   0.00   0.01
    19   1    -0.08   0.02  -0.04    -0.10   0.06  -0.04     0.01  -0.01   0.01
    20   1    -0.03  -0.06  -0.01     0.01  -0.06  -0.01    -0.00   0.02   0.00
    21   1    -0.07  -0.06   0.01     0.00  -0.02   0.07    -0.00   0.01  -0.02
                     40                     41                     42
                      A                      A                      A
 Frequencies --   1491.9236              1516.5440              1529.7786
 Red. masses --      1.0959                 1.0683                 1.0415
 Frc consts  --      1.4372                 1.4476                 1.4361
 IR Inten    --      5.0205                 0.3239                 6.2846
  Atom  AN      X      Y      Z        X      Y      Z        X      Y      Z
     1   6     0.00   0.00   0.00     0.01  -0.01   0.01     0.00  -0.04  -0.03
     2   6    -0.00   0.00   0.01    -0.01   0.04  -0.05     0.00  -0.02  -0.01
     3   6     0.01  -0.01  -0.00     0.00   0.01  -0.01    -0.01   0.00   0.00
     4   6     0.00  -0.00   0.00    -0.00  -0.00   0.00     0.00   0.00   0.00
     5   6    -0.00  -0.01  -0.01    -0.00   0.01   0.02    -0.00   0.00   0.00
     6   6     0.01   0.01  -0.00     0.00   0.00  -0.00     0.00  -0.00   0.00
     7   6    -0.05   0.05  -0.05    -0.01   0.00  -0.00    -0.00   0.00  -0.00
     8   6    -0.00   0.01  -0.00    -0.00   0.00  -0.00     0.00  -0.00   0.00
     9   8    -0.00  -0.00  -0.00    -0.00  -0.00  -0.00     0.00   0.00  -0.00
    10   1    -0.00   0.00   0.00    -0.07   0.01  -0.27     0.48  -0.00   0.04
    11   1     0.00  -0.01   0.00    -0.08   0.27  -0.05    -0.49   0.11  -0.01
    12   1     0.00  -0.00  -0.01    -0.06  -0.08   0.12     0.01   0.52   0.47
    13   1     0.04   0.02  -0.01     0.07  -0.59   0.10     0.00   0.06  -0.03
    14   1    -0.03   0.00  -0.03     0.08  -0.02   0.61    -0.04  -0.02  -0.01
    15   1    -0.05   0.04  -0.01    -0.01  -0.02   0.00     0.04  -0.01  -0.00
    16   1    -0.00  -0.00  -0.00    -0.00  -0.00   0.01    -0.00   0.00  -0.00
    17   1    -0.06   0.06   0.07     0.11  -0.08  -0.12     0.02  -0.01  -0.02
    18   1     0.07   0.02   0.09    -0.11  -0.01  -0.16    -0.02   0.00  -0.02
    19   1     0.01   0.01  -0.00     0.00   0.00  -0.00    -0.01   0.01   0.00
    20   1     0.47  -0.51  -0.03     0.04  -0.04  -0.00     0.01  -0.01  -0.00
    21   1     0.09  -0.17   0.66     0.00  -0.01   0.05     0.00  -0.00   0.01
                     43                     44                     45
                      A                      A                      A
 Frequencies --   1535.1732              1550.2042              1864.7760
 Red. masses --      1.0693                 1.0995                12.3184
 Frc consts  --      1.4848                 1.5567                25.2381
 IR Inten    --      3.3959                 4.3101               292.6951
  Atom  AN      X      Y      Z        X      Y      Z        X      Y      Z
     1   6    -0.03   0.02  -0.03    -0.01   0.01  -0.01     0.00  -0.00   0.00
     2   6    -0.03   0.02  -0.03    -0.02   0.02  -0.03     0.00   0.00  -0.00
     3   6     0.01  -0.00   0.00    -0.01   0.01  -0.00    -0.02  -0.01   0.00
     4   6    -0.00  -0.00   0.00     0.00   0.01  -0.01    -0.04  -0.02  -0.02
     5   6    -0.00   0.01   0.03     0.00  -0.02  -0.07    -0.01  -0.01  -0.01
     6   6     0.00   0.00  -0.00    -0.00  -0.01   0.00    -0.02  -0.02  -0.00
     7   6    -0.00   0.00  -0.00     0.01  -0.00   0.01    -0.04  -0.02  -0.01
     8   6    -0.00   0.00  -0.00    -0.00  -0.01   0.00     0.68   0.38   0.20
     9   8    -0.00  -0.00  -0.00     0.00   0.00   0.00    -0.44  -0.25  -0.13
    10   1     0.21  -0.02   0.55     0.08  -0.00   0.14     0.00  -0.00  -0.00
    11   1     0.15  -0.53   0.10    -0.01  -0.14   0.03    -0.00   0.00   0.00
    12   1     0.12   0.23  -0.22     0.03   0.09  -0.03     0.00   0.01  -0.00
    13   1     0.07  -0.20   0.02     0.12  -0.26   0.02    -0.00  -0.00  -0.00
    14   1     0.08   0.01   0.20     0.07  -0.01   0.27     0.00   0.00   0.01
    15   1    -0.02   0.00   0.00     0.05  -0.03   0.01     0.03   0.02  -0.00
    16   1     0.01  -0.00   0.00    -0.01   0.01  -0.01     0.18   0.05   0.08
    17   1     0.15  -0.10  -0.17    -0.37   0.25   0.43    -0.03   0.03   0.01
    18   1    -0.14  -0.01  -0.21     0.34   0.02   0.50     0.03   0.03   0.02
    19   1     0.01   0.00   0.00    -0.02  -0.01  -0.00    -0.04  -0.02  -0.01
    20   1     0.03  -0.03  -0.00    -0.07   0.05   0.00     0.04   0.09   0.01
    21   1     0.00  -0.01   0.04    -0.01   0.01  -0.08     0.06   0.07  -0.03
                     46                     47                     48
                      A                      A                      A
 Frequencies --   3023.7065              3040.0207              3046.2596
 Red. masses --      1.0844                 1.0642                 1.0360
 Frc consts  --      5.8412                 5.7947                 5.6645
 IR Inten    --     27.5109                25.3087                29.0192
  Atom  AN      X      Y      Z        X      Y      Z        X      Y      Z
     1   6    -0.00  -0.00   0.00    -0.00   0.01  -0.00     0.03   0.02  -0.03
     2   6     0.00   0.01   0.01     0.01  -0.06   0.03    -0.00   0.01   0.00
     3   6    -0.01  -0.02  -0.08    -0.00  -0.00  -0.00    -0.00  -0.00  -0.01
     4   6     0.00   0.00  -0.00     0.00   0.00  -0.00     0.00  -0.00   0.00
     5   6     0.00  -0.00  -0.00    -0.00  -0.00  -0.00     0.00  -0.00   0.00
     6   6    -0.00  -0.00  -0.00    -0.00  -0.00   0.00    -0.00  -0.00   0.00
     7   6     0.00  -0.00   0.00     0.00  -0.00   0.00     0.00  -0.00   0.00
     8   6    -0.00   0.00  -0.00     0.00   0.00  -0.00    -0.00   0.00  -0.00
     9   8     0.00   0.00   0.00     0.00   0.00   0.00     0.00   0.00   0.00
    10   1    -0.00   0.05   0.01     0.01  -0.11  -0.01     0.04  -0.56  -0.06
    11   1    -0.01  -0.01  -0.05     0.00   0.01   0.04     0.06   0.15   0.61
    12   1     0.03  -0.01   0.01     0.03  -0.01   0.01    -0.47   0.16  -0.17
    13   1    -0.01  -0.02  -0.11    -0.05  -0.12  -0.43     0.00   0.00   0.00
    14   1     0.01  -0.12  -0.01    -0.09   0.87   0.09     0.01  -0.08  -0.01
    15   1     0.09   0.25   0.94     0.01   0.01   0.06     0.01   0.02   0.06
    16   1     0.00  -0.02   0.01     0.00  -0.01   0.00    -0.00  -0.00   0.00
    17   1     0.01  -0.00   0.01     0.04  -0.00   0.03    -0.00   0.00  -0.00
    18   1    -0.02   0.01   0.01    -0.03   0.02   0.02     0.00  -0.00   0.00
    19   1     0.01   0.02  -0.00     0.01   0.01  -0.00     0.01   0.02  -0.00
    20   1     0.01   0.00  -0.05     0.00  -0.00  -0.00     0.00   0.00  -0.01
    21   1    -0.01   0.01   0.01    -0.00   0.00   0.00    -0.00   0.00   0.00
                     49                     50                     51
                      A                      A                      A
 Frequencies --   3065.3414              3073.9188              3080.0242
 Red. masses --      1.0595                 1.0741                 1.0885
 Frc consts  --      5.8654                 5.9795                 6.0842
 IR Inten    --     17.8000                 8.3137                40.9686
  Atom  AN      X      Y      Z        X      Y      Z        X      Y      Z
     1   6    -0.00  -0.00  -0.00     0.00   0.01   0.01     0.01   0.02   0.02
     2   6     0.00   0.00   0.00    -0.00  -0.03  -0.04    -0.00  -0.04  -0.06
     3   6    -0.00  -0.00  -0.00    -0.00  -0.00  -0.01    -0.00  -0.00  -0.01
     4   6     0.00   0.00   0.00     0.00   0.00  -0.00    -0.00  -0.00   0.00
     5   6     0.01  -0.00  -0.01    -0.03   0.02   0.05     0.03  -0.02  -0.03
     6   6    -0.00  -0.01   0.00    -0.00  -0.01  -0.00     0.00   0.00   0.00
     7   6    -0.03   0.05  -0.04    -0.00   0.01  -0.01    -0.00   0.00   0.01
     8   6    -0.00  -0.00   0.00    -0.00   0.00  -0.00     0.00  -0.00   0.00
     9   8     0.00   0.00  -0.00     0.00   0.00   0.00    -0.00  -0.00  -0.00
    10   1    -0.00   0.00   0.00     0.01  -0.13  -0.01     0.02  -0.20  -0.01
    11   1     0.00   0.00   0.01    -0.01  -0.03  -0.12    -0.02  -0.05  -0.21
    12   1     0.00  -0.00   0.00    -0.03   0.01  -0.01    -0.07   0.03  -0.02
    13   1    -0.01  -0.01  -0.05     0.05   0.10   0.43     0.08   0.15   0.67
    14   1     0.00  -0.03  -0.00    -0.03   0.25   0.01    -0.03   0.29   0.01
    15   1     0.00   0.01   0.03     0.01   0.03   0.10     0.01   0.03   0.10
    16   1    -0.00  -0.00   0.00    -0.00  -0.04   0.02     0.00   0.02  -0.01
    17   1     0.04  -0.00   0.03    -0.28   0.04  -0.21     0.11  -0.02   0.08
    18   1    -0.12   0.06   0.06     0.58  -0.30  -0.32    -0.44   0.22   0.25
    19   1     0.04   0.06  -0.01     0.05   0.08  -0.01    -0.02  -0.03   0.00
    20   1    -0.07  -0.03   0.67    -0.01  -0.01   0.12     0.01   0.00  -0.06
    21   1     0.45  -0.49  -0.24     0.06  -0.06  -0.03     0.00  -0.01  -0.00
                     52                     53                     54
                      A                      A                      A
 Frequencies --   3109.9003              3112.7497              3116.5183
 Red. masses --      1.1053                 1.1022                 1.1012
 Frc consts  --      6.2983                 6.2921                 6.3016
 IR Inten    --     10.9578                48.0884                33.1580
  Atom  AN      X      Y      Z        X      Y      Z        X      Y      Z
     1   6     0.00   0.01   0.01    -0.01  -0.06  -0.06    -0.06   0.05  -0.04
     2   6    -0.00   0.00   0.00    -0.00  -0.02  -0.02    -0.00   0.00  -0.01
     3   6    -0.00  -0.00  -0.00    -0.00  -0.00  -0.01     0.00   0.00  -0.00
     4   6     0.00  -0.00  -0.00    -0.00   0.00  -0.00     0.00  -0.00   0.00
     5   6     0.00  -0.00  -0.00     0.00  -0.00   0.00     0.00  -0.00  -0.00
     6   6    -0.00  -0.00  -0.00     0.01   0.02  -0.00    -0.01  -0.02   0.00
     7   6     0.04  -0.04  -0.08     0.01  -0.00  -0.01     0.00  -0.00  -0.00
     8   6     0.00  -0.00  -0.00    -0.00  -0.00  -0.00     0.00   0.00   0.00
     9   8    -0.00   0.00   0.00     0.00   0.00   0.00    -0.00  -0.00  -0.00
    10   1     0.01  -0.09  -0.01    -0.04   0.60   0.04     0.01  -0.40  -0.05
    11   1    -0.01  -0.03  -0.11     0.05   0.14   0.63     0.01   0.08   0.28
    12   1    -0.04   0.02  -0.01     0.09  -0.04   0.02     0.74  -0.23   0.26
    13   1    -0.00  -0.01  -0.02     0.03   0.06   0.27     0.01   0.02   0.07
    14   1     0.00  -0.02  -0.00    -0.02   0.18   0.01     0.01  -0.07  -0.01
    15   1    -0.00   0.01   0.02     0.01   0.02   0.06     0.00   0.00   0.01
    16   1     0.00   0.00  -0.00     0.00  -0.00   0.00    -0.00   0.01  -0.00
    17   1     0.02  -0.00   0.02    -0.03   0.00  -0.03    -0.02   0.00  -0.01
    18   1    -0.03   0.01   0.02    -0.02   0.01   0.01    -0.04   0.02   0.02
    19   1     0.01   0.01  -0.00    -0.12  -0.18   0.02     0.14   0.19  -0.02
    20   1    -0.06  -0.06   0.70    -0.01  -0.01   0.12    -0.00  -0.00   0.01
    21   1    -0.44   0.48   0.20    -0.05   0.06   0.02    -0.03   0.03   0.01
                     55                     56                     57
                      A                      A                      A
 Frequencies --   3121.6652              3148.8215              3153.4910
 Red. masses --      1.0915                 1.0972                 1.0935
 Frc consts  --      6.2670                 6.4098                 6.4072
 IR Inten    --     49.3441                25.8764                27.8733
  Atom  AN      X      Y      Z        X      Y      Z        X      Y      Z
     1   6     0.01  -0.03  -0.00    -0.00  -0.00  -0.00     0.00   0.00   0.00
     2   6    -0.00  -0.00  -0.00    -0.00  -0.00  -0.01     0.00   0.00   0.01
     3   6    -0.00   0.00   0.00     0.00  -0.00  -0.00     0.00  -0.00  -0.00
     4   6     0.00   0.00  -0.00    -0.00  -0.05   0.02    -0.00  -0.06   0.03
     5   6     0.01  -0.00  -0.00    -0.07   0.02  -0.03     0.05  -0.01   0.03
     6   6    -0.05  -0.07   0.01    -0.00  -0.00   0.00     0.00   0.00  -0.00
     7   6     0.00  -0.00   0.00    -0.00   0.00  -0.00    -0.00   0.00  -0.00
     8   6     0.00   0.00   0.00    -0.00   0.00  -0.00    -0.00  -0.00  -0.00
     9   8    -0.00  -0.00  -0.00     0.00   0.00   0.00     0.00   0.00   0.00
    10   1    -0.01   0.26   0.02    -0.00   0.02   0.00     0.00  -0.00  -0.00
    11   1     0.01   0.01   0.06     0.00   0.01   0.03    -0.00  -0.00  -0.02
    12   1    -0.16   0.05  -0.06     0.00  -0.00   0.00    -0.01   0.00  -0.00
    13   1     0.00   0.01   0.03     0.01   0.02   0.09    -0.01  -0.02  -0.07
    14   1    -0.00   0.04   0.00    -0.00   0.03   0.00    -0.00  -0.00   0.00
    15   1    -0.00  -0.01  -0.02     0.00   0.00   0.02    -0.00   0.00   0.01
    16   1    -0.00  -0.01   0.00     0.04   0.55  -0.25     0.05   0.72  -0.32
    17   1    -0.04   0.00  -0.03     0.55  -0.07   0.46    -0.44   0.05  -0.37
    18   1    -0.09   0.04   0.05     0.23  -0.12  -0.14    -0.13   0.07   0.08
    19   1     0.53   0.76  -0.07     0.04   0.06  -0.01    -0.02  -0.03   0.00
    20   1     0.00   0.00  -0.06    -0.00  -0.00   0.01     0.00  -0.00   0.00
    21   1    -0.04   0.04   0.02     0.01  -0.01  -0.00     0.00  -0.00  -0.00

 -------------------
 - Thermochemistry -
 -------------------
 Temperature   298.150 Kelvin.  Pressure   1.00000 Atm.
 Atom     1 has atomic number  6 and mass  12.00000
 Atom     2 has atomic number  6 and mass  12.00000
 Atom     3 has atomic number  6 and mass  12.00000
 Atom     4 has atomic number  6 and mass  12.00000
 Atom     5 has atomic number  6 and mass  12.00000
 Atom     6 has atomic number  6 and mass  12.00000
 Atom     7 has atomic number  6 and mass  12.00000
 Atom     8 has atomic number  6 and mass  12.00000
 Atom     9 has atomic number  8 and mass  15.99491
 Atom    10 has atomic number  1 and mass   1.00783
 Atom    11 has atomic number  1 and mass   1.00783
 Atom    12 has atomic number  1 and mass   1.00783
 Atom    13 has atomic number  1 and mass   1.00783
 Atom    14 has atomic number  1 and mass   1.00783
 Atom    15 has atomic number  1 and mass   1.00783
 Atom    16 has atomic number  1 and mass   1.00783
 Atom    17 has atomic number  1 and mass   1.00783
 Atom    18 has atomic number  1 and mass   1.00783
 Atom    19 has atomic number  1 and mass   1.00783
 Atom    20 has atomic number  1 and mass   1.00783
 Atom    21 has atomic number  1 and mass   1.00783
 Molecular mass:   124.08882 amu.
 Principal axes and moments of inertia in atomic units:
                           1         2         3
     Eigenvalues --   520.408861694.109021739.28194
           X            0.99969  -0.02265  -0.01070
           Y            0.02102   0.99077  -0.13389
           Z            0.01364   0.13363   0.99094
 This molecule is an asymmetric top.
 Rotational symmetry number  1.
 Warning -- assumption of classical behavior for rotation
           may cause significant error
 Rotational temperatures (Kelvin)      0.16643     0.05113     0.04980
 Rotational constants (GHZ):           3.46793     1.06530     1.03764
 Zero-point vibrational energy     486256.4 (Joules/Mol)
                                  116.21808 (Kcal/Mol)
 Warning -- explicit consideration of  11 degrees of freedom as
           vibrations may cause significant error
 Vibrational temperatures:    111.84   196.38   229.47   313.01   434.31
          (Kelvin)            518.30   610.03   671.98   728.88   853.82
                              888.87  1078.96  1112.48  1182.05  1209.64
                             1246.43  1297.56  1346.88  1366.99  1413.40
                             1439.95  1459.06  1547.50  1555.70  1577.02
                             1602.09  1616.03  1687.29  1701.57  1764.05
                             1795.31  1809.92  1837.37  1850.05  1886.35
                             1897.03  1971.88  2063.39  2074.17  2146.55
                             2181.97  2201.01  2208.77  2230.40  2683.00
                             4350.44  4373.91  4382.89  4410.34  4422.68
                             4431.47  4474.45  4478.55  4483.97  4491.38
                             4530.45  4537.17
 
 Zero-point correction=                           0.185205 (Hartree/Particle)
 Thermal correction to Energy=                    0.193414
 Thermal correction to Enthalpy=                  0.194358
 Thermal correction to Gibbs Free Energy=         0.152271
 Sum of electronic and zero-point Energies=           -387.073940
 Sum of electronic and thermal Energies=              -387.065732
 Sum of electronic and thermal Enthalpies=            -387.064787
 Sum of electronic and thermal Free Energies=         -387.106875
 
                     E (Thermal)             CV                S
                      KCal/Mol        Cal/Mol-Kelvin    Cal/Mol-Kelvin
 Total                  121.369             32.142             88.581
 Electronic               0.000              0.000              0.000
 Translational            0.889              2.981             40.361
 Rotational               0.889              2.981             28.818
 Vibrational            119.592             26.181             19.402
 Vibration     1          0.599              1.964              3.947
 Vibration     2          0.614              1.917              2.853
 Vibration     3          0.621              1.892              2.556
 Vibration     4          0.646              1.814              1.979
 Vibration     5          0.694              1.670              1.407
 Vibration     6          0.735              1.554              1.121
 Vibration     7          0.786              1.418              0.879
 Vibration     8          0.824              1.323              0.746
 Vibration     9          0.862              1.235              0.642
 Vibration    10          0.951              1.046              0.461
 Vibration    11          0.978              0.994              0.420
                       Q            Log10(Q)             Ln(Q)
 Total Bot       0.913020D-70        -70.039520       -161.271954
 Total V=0       0.140906D+16         15.148928         34.881696
 Vib (Bot)       0.379100D-83        -83.421246       -192.084518
 Vib (Bot)    1  0.265036D+01          0.423305          0.974697
 Vib (Bot)    2  0.149116D+01          0.173523          0.399552
 Vib (Bot)    3  0.126777D+01          0.103041          0.237260
 Vib (Bot)    4  0.910162D+00         -0.040881         -0.094133
 Vib (Bot)    5  0.629345D+00         -0.201111         -0.463075
 Vib (Bot)    6  0.508724D+00         -0.293518         -0.675850
 Vib (Bot)    7  0.412864D+00         -0.384193         -0.884638
 Vib (Bot)    8  0.362048D+00         -0.441234         -1.015979
 Vib (Bot)    9  0.322519D+00         -0.491444         -1.131593
 Vib (Bot)   10  0.253319D+00         -0.596333         -1.373106
 Vib (Bot)   11  0.237262D+00         -0.624771         -1.438589
 Vib (V=0)       0.585062D+02          1.767202          4.069132
 Vib (V=0)    1  0.319711D+01          0.504758          1.162249
 Vib (V=0)    2  0.207275D+01          0.316547          0.728877
 Vib (V=0)    3  0.186281D+01          0.270168          0.622085
 Vib (V=0)    4  0.153846D+01          0.187086          0.430781
 Vib (V=0)    5  0.130379D+01          0.115207          0.265274
 Vib (V=0)    6  0.121330D+01          0.083969          0.193346
 Vib (V=0)    7  0.114843D+01          0.060103          0.138392
 Vib (V=0)    8  0.111732D+01          0.048176          0.110929
 Vib (V=0)    9  0.109499D+01          0.039412          0.090749
 Vib (V=0)   10  0.106051D+01          0.025514          0.058749
 Vib (V=0)   11  0.105344D+01          0.022609          0.052059
 Electronic      0.100000D+01          0.000000          0.000000
 Translational   0.543316D+08          7.735053         17.810617
 Rotational      0.443275D+06          5.646674         13.001946
 ***** Axes restored to original set *****
 -------------------------------------------------------------------
 Center     Atomic                   Forces (Hartrees/Bohr)
 Number     Number              X              Y              Z
 -------------------------------------------------------------------
      1        6          -0.000004005   -0.000013841    0.000002806
      2        6          -0.000000158   -0.000004358    0.000041745
      3        6          -0.000016688   -0.000034546   -0.000061924
[...]
 0.00019709,-0.00006220,0.00025208,-0.00011164,-0.00022596,-0.00020855,
 -0.00004829,0.00007529,0.00008710,0.00001522,-0.09895218,0.21080494,-0
 .05860903,0.09567057,-0.11268363,0.00961987,-0.01663986,0.01128027,-0.
 00060359,-0.00002850,0.00079937,-0.00022519,-0.00014725,0.00006324,0.0
 0003879,0.00001294,0.00001621,-0.00003990,0.00018974,-0.00032270,0.000
 03376,0.00005925,0.00009158,-0.00002029,0.00011609,0.00006085,-0.00006
 144,-0.00003324,-0.00002485,0.06167840,-0.10443970,0.11975832,-0.09698
 041,-0.04143234,-0.09239670,0.01066442,0.00885056,0.02108078,0.0017818
 1,0.00070691,0.00069822,0.00022272,0.00019637,-0.00018727,0.00002458,0
 .00003986,0.00015523,-0.00014138,-0.00001821,-0.00003564,-0.00001941,-
 0.00008577,0.00000880,-0.00007908,-0.00010523,-0.00002117,0.00008466,0
 .00001917,0.00001339,-0.00686662,-0.00630134,-0.01110470,0.10338067,-0
 .04119486,-0.08579677,-0.07869241,-0.00653268,-0.00655786,-0.01303682,
 -0.00071444,0.00033335,0.00096077,0.00012346,0.00000489,0.00003177,-0.
 00010805,-0.00011925,-0.00001205,0.00018109,-0.00013409,0.00009763,-0.
 00002476,0.00009514,-0.00000329,-0.00015768,-0.00006332,-0.00003240,0.
 00011557,0.00002461,0.00001986,0.01088302,0.01108112,0.02143729,0.0437
 6636,0.08911551,-0.09196023,-0.07875768,-0.22702335,-0.00774812,-0.007
 08747,-0.01663823,-0.00191344,-0.00053527,-0.00000806,0.00031064,0.000
 16044,0.00024569,-0.00024688,-0.00016267,0.00012938,0.00013275,0.00028
 680,-0.00001883,-0.00002436,-0.00000362,-0.00010679,-0.00003066,-0.000
 08194,-0.00008636,0.00010479,0.00003949,0.00003414,-0.00670030,-0.0060
 7829,-0.01302182,0.09926113,0.08966328,0.24640925,-0.17650305,-0.12241
 172,0.04964993,-0.01572795,-0.01552930,0.00514216,-0.00205104,0.003759
 79,0.00310626,-0.00091870,-0.00146223,0.00022720,-0.00004911,0.0000582
 5,-0.00015527,-0.00004330,0.00035534,-0.00027252,0.00007139,-0.0001151
 9,-0.00002139,0.00042031,0.00081923,0.00044616,-0.00047779,-0.00027348
 ,-0.00013786,0.01236625,0.01051879,-0.00401257,-0.00979102,-0.00893026
 ,0.00389801,0.19075321,-0.12309097,-0.16636722,0.04882041,0.01285392,0
 .01161595,-0.00481236,0.00166789,-0.00141414,-0.00184015,0.00081977,0.
 00079743,-0.00039246,-0.00009484,-0.00008551,0.00016398,0.00021776,-0.
 00012362,0.00001078,-0.00003959,0.00017553,-0.00001560,-0.00004874,-0.
 00038270,-0.00023681,0.00009108,0.00013709,0.00009288,-0.01745546,-0.0
 1614104,0.00543122,-0.00696553,-0.00816040,0.00349940,0.13321637,0.178
 22887,0.04956394,0.04843649,-0.06897717,0.01335803,0.01393356,-0.00601
 277,0.00155207,-0.00295201,-0.00228806,0.00109587,0.00104333,-0.000063
 58,0.00011039,-0.00000232,0.00031497,-0.00011335,-0.00037228,0.0003201
 1,-0.00005414,-0.00004478,-0.00000919,-0.00013388,-0.00057807,-0.00044
 097,0.00036312,0.00019616,0.00014345,0.01199693,0.01076918,-0.00499928
 ,-0.01954983,-0.01911041,0.00934573,-0.05717959,-0.05183620,0.07133518
 ,0.01055227,0.00984698,0.02132031,-0.10133147,-0.04447268,-0.09366298,
 -0.01223957,-0.00877215,-0.02093511,0.00067847,0.00047265,-0.00067302,
 -0.00037855,-0.00070814,-0.00001295,0.00088000,0.00054642,-0.00016616,
 0.00006041,0.00019198,0.00008200,-0.00002365,-0.00018635,-0.00034815,0
 .00015135,0.00009612,0.00001587,0.00101012,-0.00047237,-0.00081859,-0.
 00304063,0.00266711,0.00344811,0.00101425,-0.00057336,-0.00058812,0.11
 140275,-0.00619890,-0.00616976,-0.01295161,-0.04438844,-0.08922613,-0.
 07777614,-0.00972010,-0.00907385,-0.01836144,0.00043296,0.00062336,0.0
 0023746,-0.00086956,-0.00002847,-0.00014899,0.00049055,0.00045121,-0.0
 0121245,-0.00007101,-0.00006158,0.00000016,0.00012008,0.00002452,-0.00
 014776,0.00011379,-0.00000222,-0.00003164,-0.00068243,0.00013511,0.000
 30430,0.00226062,-0.00053417,-0.00185816,0.00010189,0.00060973,0.00053
 232,0.04981084,0.09367438,-0.00783482,-0.00732740,-0.01643269,-0.09423
 604,-0.07886686,-0.21526346,0.00339399,0.00273384,0.00870344,-0.000128
 33,-0.00072892,0.00006030,0.00083963,0.00088739,-0.00184763,-0.0006296
 3,-0.00004935,-0.00013236,0.00009566,-0.00023004,0.00011514,-0.0000822
 4,0.00023681,0.00018256,-0.00014224,-0.00008744,-0.00003032,0.00005677
 ,-0.00001478,0.00115248,0.00350589,-0.00171019,-0.00090993,-0.00002475
 ,0.00061544,0.00019000,0.09914474,0.08746196,0.23916559,-0.01138284,0.
 01854135,-0.01147834,-0.09222880,0.07924743,-0.05517270,0.00926449,-0.
 02070217,0.01561422,0.00199178,0.00028699,-0.00095137,0.00006651,-0.00
 040867,-0.00043628,-0.00385551,-0.00243843,0.00006223,0.00024672,-0.00
 065127,0.00138549,0.00027658,-0.00069593,-0.00017673,-0.00004210,0.000
 23881,0.00002786,-0.00263924,0.00196431,0.00385187,0.00110097,-0.00057
 854,0.00017958,0.00035458,-0.00057104,-0.00060399,-0.00661294,0.011360
 19,-0.00752917,0.10308930,0.00720955,-0.01156133,0.00664849,0.07936801
 ,-0.19467389,0.09562571,0.00754137,-0.01808061,0.01371047,0.00063489,0
 .00119294,-0.00051315,-0.00001927,-0.00013929,-0.00074554,-0.00367827,
 -0.00091270,-0.00166659,0.00031232,-0.00040002,0.00131181,0.00036499,-
 0.00054468,-0.00000459,-0.00029858,0.00021155,-0.00006390,0.00196874,-
 0.00013225,-0.00219010,-0.00054030,0.00006006,0.00011210,-0.00010911,0
 .00084100,-0.00015069,-0.00533131,0.01093957,-0.00603620,-0.08669666,0
 .21239084,0.01001643,-0.01692856,0.01028512,-0.05537150,0.09612170,-0.
 11455759,-0.00280109,0.00655228,-0.00625436,-0.00105068,0.00034160,0.0
 0069325,-0.00046848,0.00009858,-0.00029765,0.00204022,0.00052990,0.000
 94503,-0.00022104,0.00026586,-0.00075228,-0.00005596,0.00019455,0.0000
 6605,0.00017043,-0.00010718,-0.00000940,0.00347750,-0.00245042,-0.0018
 2055,-0.00071320,0.00024924,0.00102842,-0.00083321,0.00052392,0.000792
 28,-0.01120871,0.02064808,-0.01384010,0.05545906,-0.10597266,0.1228803
 1,0.00096139,-0.00020689,-0.00178397,-0.01269729,-0.01056589,-0.020171
 43,-0.09937787,-0.03713205,-0.09118452,0.00942737,0.00523709,0.0155439
 6,-0.00127101,0.00084629,0.00253421,-0.00433467,-0.00458276,-0.0054278
 6,-0.00032972,-0.00100479,0.00159207,0.00144412,0.00115028,0.00149369,
 0.00021257,0.00005294,-0.00016143,-0.00007697,0.00005827,0.00004793,-0
 .00020883,0.00040134,0.00106347,0.00040324,0.00018513,0.00027649,-0.00
 300007,-0.00346834,0.00176518,0.00089785,0.00020559,0.00045232,0.10645
 126,0.00108030,0.00040778,-0.00038870,-0.01210536,-0.00871518,-0.01810
 023,-0.03801957,-0.08438029,-0.07373665,-0.00549248,-0.00362453,-0.006
 54893,0.00049072,-0.00073889,0.00190522,0.00778354,0.00880415,0.016797
 49,0.00147057,0.00177333,0.00052765,-0.00189706,-0.00035492,0.00038196
 ,0.00078743,0.00007710,0.00016386,-0.00001961,0.00005968,0.00008137,-0
 .00020294,0.00049857,0.00065282,0.00025229,-0.00002778,0.00019166,-0.0
 0361632,-0.00206681,0.00143604,0.00076543,0.00046834,-0.00029366,0.048
 69214,0.08715698,0.00018889,0.00054384,0.00088892,0.00446725,0.0031477
 0,0.00576355,-0.09022906,-0.07287531,-0.21696047,-0.00521347,-0.001575
 52,-0.01174337,0.00244937,0.00271911,-0.00704633,-0.00410922,-0.006396
 52,-0.01261921,-0.00136316,-0.00093470,0.00062262,-0.00180226,-0.00278
 642,-0.00145251,0.00155127,0.00056450,0.00025064,0.00002533,-0.0000610
 8,-0.00003855,-0.00047763,0.00003140,0.00029412,-0.00008417,0.00013468
 ,0.00028623,0.00199094,0.00113420,0.00060050,-0.00037012,-0.00062411,0
 .00065985,0.09318362,0.07650030,0.24227205,-0.00003039,-0.00011110,0.0
 0006436,0.00138164,0.00024409,-0.00084645,-0.00412998,0.01191331,-0.00
 453325,-0.09120577,0.10216077,0.00005349,-0.00386820,0.01245667,0.0047
 8721,-0.00678308,0.00360244,-0.00015032,-0.00220553,-0.00470186,0.0000
 4488,0.01358633,-0.01929899,-0.00014957,0.00079443,0.00357112,0.000017
 65,0.00016355,-0.00007741,-0.00007060,0.00005123,-0.00003718,-0.000073
 09,-0.00002885,-0.00004097,0.00002644,-0.00027834,-0.00003006,-0.00007
 574,-0.00009412,-0.00056091,0.00044252,-0.00007714,0.00011361,0.000307
 87,0.09090631,0.00009048,0.00007778,-0.00004477,-0.00001155,0.00038968
 ,-0.00024412,-0.00156124,-0.00051039,0.00130483,0.09759595,-0.28623178
 ,-0.00063284,-0.00157890,0.00030516,-0.00110250,0.00104002,-0.00186852
 ,-0.00020317,-0.00117021,-0.00303893,-0.00002999,0.01552869,-0.0152841
 2,-0.00019738,-0.00195924,0.00353154,0.00001595,-0.00006925,0.00002871
 ,0.00001462,-0.00002263,-0.00000653,0.00001456,0.00003297,-0.00000253,
 -0.00002806,0.00011141,0.00002914,-0.00000422,0.00042890,0.00017859,-0
 .00027580,0.00020312,-0.00025807,-0.00017447,-0.10971006,0.30382004,-0
 .00010715,0.00011301,-0.00012078,-0.00133567,-0.00017191,0.00143615,0.
 00102977,-0.01662812,0.00479110,0.00041410,-0.00105440,-0.05369712,-0.
 00066710,0.01656743,0.00481840,-0.00018137,0.00006937,-0.00219431,0.00
 000711,0.00005381,0.00249472,-0.00007762,0.00022748,-0.00167685,0.0000
 1311,-0.00003400,-0.00088465,-0.00007273,0.00002321,0.00003326,-0.0000
 2091,-0.00000393,0.00006825,0.00004752,0.00003067,-0.00000472,0.000197
 83,0.00028062,0.00000429,-0.00001127,0.00050021,-0.00024059,0.00036936
 ,-0.00081112,-0.00049379,0.00002723,0.00102991,0.04323102,0.00041760,0
 .00014498,0.00020708,-0.00058867,-0.00098097,0.00087813,-0.00088389,0.
 00096307,0.00095998,-0.01665732,-0.01588552,-0.00576279,-0.20299942,-0
 .13830973,-0.02406008,0.00966401,0.00706926,0.00124431,0.00052906,0.00
 100882,0.00245494,-0.00138817,0.00482537,-0.00344436,-0.00128232,-0.00
 165101,0.00074789,-0.00006974,0.00004787,0.00000505,-0.00013186,0.0001
 0644,0.00011873,0.00004376,-0.00002425,-0.00004465,0.00063615,0.000061
 53,0.00185837,0.00003122,0.00008150,0.00019685,0.00005946,0.00007621,-
 0.00010845,0.00066282,0.00039251,0.00062294,0.21831530,0.00006592,0.00
 003956,-0.00002229,-0.00063250,-0.00048040,0.00065300,0.00029792,-0.00
 157655,-0.00023788,0.01357869,0.01212494,0.00488263,-0.13741707,-0.157
 31129,-0.02252632,-0.01956580,-0.01349330,-0.00185163,0.00101607,-0.00
 290730,-0.00572348,0.00092607,-0.00389273,0.00298853,0.00131727,0.0014
 5869,-0.00095871,-0.00001146,-0.00008898,-0.00005011,-0.00000039,0.000
 02728,0.00010090,-0.00000181,0.00001318,-0.00000894,-0.00009431,0.0005
 4508,0.00164878,0.00023619,0.00017126,0.00033931,0.00005918,0.00003328
 ,-0.00012114,-0.00065260,0.00023165,-0.00102596,0.14877481,0.16984034,
 0.00044143,0.00008212,0.00020848,-0.00025314,-0.00006790,-0.00198927,-
 0.00088654,-0.00106432,0.00134886,-0.01150688,-0.01245051,-0.00304329,
 -0.02240040,-0.01991697,-0.05570611,-0.01413802,-0.00848097,-0.0017521
 8,0.00076239,-0.00147300,-0.00304800,-0.00019065,0.00178840,-0.0034803
 1,-0.00144311,-0.00069503,0.00076684,-0.00005480,0.00000573,-0.0000434
 1,-0.00013593,0.00009469,0.00016001,-0.00001255,-0.00001437,-0.0000160
 7,0.00150546,0.00132644,-0.00196036,0.00014643,0.00010055,0.00024866,0
 .00032316,0.00034269,0.00032683,0.00033587,0.00032451,0.00085377,0.026
 30766,0.02213326,0.06030524,0.00026632,0.00012706,0.00009061,-0.000182
 30,-0.00046235,-0.00023862,-0.00173962,0.00034828,-0.00296383,0.009656
 20,0.00409525,-0.01603932,-0.08711661,-0.02972807,0.08419648,-0.003854
 62,-0.00446669,0.00379951,-0.00019709,-0.00071004,-0.00134851,0.001881
 53,0.00143234,-0.00104638,0.00002365,-0.00002139,0.00016223,0.00002994
 ,-0.00004053,-0.00002575,-0.00008812,0.00006635,0.00011755,0.00004126,
 -0.00002443,0.00000604,0.00042199,0.00046008,0.00013280,0.00002472,-0.
 00001361,0.00021656,0.00135641,-0.00061436,-0.00090148,-0.00009321,0.0
 0021612,-0.00032462,-0.00768844,-0.00673296,0.02178118,0.08705052,0.00
 018520,0.00000092,0.00017994,-0.00036063,-0.00012527,-0.00022972,0.000
 25188,-0.00099350,-0.00208875,-0.00589358,-0.00325443,0.00563997,-0.03
 035497,-0.07823511,0.07076555,0.00664237,0.01010384,-0.01685579,0.0014
 3985,0.00203486,0.00014488,-0.00165601,-0.00025869,-0.00055300,0.00072
 711,0.00006243,-0.00007321,-0.00008070,0.00003652,-0.00001271,-0.00010
 924,0.00004739,0.00007489,-0.00003121,0.00001726,-0.00001070,0.0004481
 0,0.00029715,0.00013891,0.00012068,0.00015627,0.00015010,-0.00067452,0
 .00132143,-0.00078410,0.00013971,-0.00021434,0.00081373,-0.00683378,-0
 .00535072,0.01840197,0.03567052,0.07488259,0.00011408,0.00003857,0.000
 04065,-0.00071595,-0.00059636,0.00027253,-0.00236665,-0.00261762,-0.00
 688454,0.00482744,0.00052340,-0.01014267,0.08314495,0.07027161,-0.2511
 0964,0.00271794,0.00659546,-0.01135634,0.00121896,0.00105495,0.0008161
 3,0.00179294,0.00236196,-0.00081748,-0.00132168,-0.00046078,0.00015019
 ,-0.00002185,-0.00000600,0.00000082,-0.00003644,0.00003304,0.00007026,
 0.00007428,0.00002203,-0.00003218,0.00020006,0.00014841,0.00022580,0.0
 0003190,0.00005774,0.00005974,0.00075455,0.00072474,-0.00175798,-0.000
 27919,0.00014963,-0.00039411,-0.00128943,-0.00125710,0.00515393,-0.088
 41336,-0.07566069,0.27555232,-0.00022821,0.00045244,0.00000002,-0.0000
 0574,-0.00012099,-0.00014692,0.00042269,-0.00071780,0.00045999,0.00055
 535,0.00173673,-0.00007492,0.00125904,-0.00121247,-0.00048620,-0.24765
 715,0.11949344,0.00105926,-0.01509863,0.01483583,-0.00005629,-0.002672
 08,-0.00508845,-0.00002851,-0.00167810,0.00212636,0.00001812,0.0001799
 4,-0.00031640,0.00037855,0.00002621,-0.00003698,-0.00002184,0.00014111
 ,-0.00013591,-0.00010907,0.00003179,0.00007076,-0.00002698,0.00008339,
 0.00006643,-0.00008911,-0.00026328,0.00024100,-0.00016495,0.00015605,-
 0.00040876,0.00007316,0.00045660,0.00039068,0.00040947,-0.00015934,0.0
 0023339,0.00013687,0.26353798,0.00018574,-0.00049025,0.00024264,0.0004
 6051,0.00114619,-0.00061652,0.01177536,-0.00603509,-0.00425419,0.00359
 950,-0.00720751,-0.00020294,0.01219580,-0.00635440,0.00396193,0.120965
 95,-0.12172210,-0.00078086,-0.01521694,0.01375248,0.00008170,-0.004403
 49,-0.00535052,0.00013342,-0.00131427,0.00244834,-0.00002821,-0.000639
 44,0.00035620,0.00024666,-0.00004495,0.00008109,-0.00013376,-0.0002233
 3,0.00023934,-0.00006802,-0.00013749,-0.00030581,-0.00003699,-0.000133
 52,0.00004430,-0.00008307,0.00022827,-0.00030894,0.00036434,0.00233878
 ,0.00010533,0.00001153,-0.00051705,0.00083700,0.00037454,0.00021648,-0
 .00032706,-0.00032684,-0.13122990,0.12852709,-0.00014394,0.00015019,-0
 .00008682,0.00018126,-0.00111924,0.00124312,-0.01788232,0.00421714,0.0
 0504902,-0.00001469,-0.00022945,-0.00248951,0.01812922,-0.00490635,0.0
 0440875,0.00065635,-0.00016478,-0.05414447,0.00020085,-0.00015185,-0.0
 0056698,0.00007978,0.00004002,0.00055975,0.00004811,-0.00000663,-0.000
 01955,0.00060154,0.00004345,-0.00028955,-0.00003679,-0.00000416,-0.000
 00891,0.00013153,-0.00021284,0.00011098,0.00034555,0.00018494,-0.00001
 782,0.00000066,-0.00008531,0.00003313,-0.00082092,0.00062060,-0.000661
 81,0.00006134,0.00007536,0.00201270,-0.00097557,0.00096957,0.00111377,
 0.00078884,-0.00054877,-0.00053972,-0.00133500,0.00114263,0.04418512,0
 .00007823,0.00008922,-0.00001666,-0.00003642,-0.00012514,-0.00018515,0
 .00136331,0.00269350,-0.00174415,-0.00116929,0.00252385,-0.00176414,-0
 .00694902,-0.00373137,0.00002762,-0.00006904,-0.01701940,-0.02385988,-
 0.05219401,-0.01986327,-0.02461366,0.00538123,0.00910898,0.02162052,-0
 .00090351,-0.00089894,-0.00340118,-0.00002115,-0.00002909,-0.00002977,
 0.00000212,-0.00001376,0.00005652,0.00002484,-0.00000067,-0.00000487,0
 .00010133,0.00012319,0.00000147,-0.00002559,0.00003808,0.00003385,0.00
 061246,0.00010380,0.00063690,0.00055317,0.00043477,-0.00017086,0.00073
 665,-0.00177973,-0.00124489,-0.00012834,0.00015887,0.00005802,0.000440
 34,0.00093286,0.00002023,0.05141355,-0.00006099,-0.00004594,-0.0000384
 9,0.00005238,0.00026103,0.00043817,-0.00064634,0.00056557,-0.00208705,
 0.00184774,-0.00247719,0.00143012,-0.00223658,-0.00114660,0.00047485,0
 .00023534,-0.00739110,-0.00807639,-0.02138893,-0.13089397,-0.12496990,
 -0.00582528,-0.01409920,-0.01900031,0.00023876,0.00199323,0.00221687,-
 0.00000031,-0.00000823,-0.00001225,-0.00001632,-0.00000394,0.00007045,
 -0.00000374,0.00002197,0.00003512,0.00019662,0.00015571,-0.00002359,0.
 00000172,-0.00000769,-0.00002089,0.00013001,-0.00028495,0.00106098,-0.
 00065017,-0.00066009,0.00028344,0.00058112,-0.00050966,-0.00045357,0.0
 0013551,0.00009871,-0.00013422,-0.00019636,0.00027971,0.00024219,0.025
 12966,0.14214193,0.00002368,-0.00003930,-0.00000381,0.00001930,-0.0000
 8825,0.00028039,0.00077804,0.00039108,0.00105064,-0.00068116,0.0004284
 7,-0.00083682,-0.00063458,0.00041228,0.00043360,-0.00030318,0.00145172
 ,0.00085162,-0.02845408,-0.12195766,-0.22207134,-0.00007414,0.00213524
 ,0.00059125,0.00059198,-0.00029367,0.00076128,0.00000190,0.00000295,-0
 .00001591,0.00000319,0.00000363,0.00001867,-0.00001551,0.00000166,0.00
 001016,0.00003794,0.00010556,0.00007183,-0.00004995,-0.00004476,0.0000
 4586,0.00010719,-0.00022923,0.00036038,0.00006126,0.00012620,-0.000005
 03,0.00015127,0.00000048,0.00029412,0.00005276,0.00023972,0.00035467,-
 0.00046696,-0.00025348,0.00006821,0.03197404,0.13319611,0.23876226,0.0
 0014063,-0.00009492,-0.00013333,0.00155393,-0.00126045,0.00108711,-0.0
 0720242,-0.00321146,0.00014197,-0.00104475,0.00236969,0.00160697,0.001
 59476,0.00261096,0.00140641,0.00007750,-0.01719180,0.02419242,-0.05073
 689,-0.01682577,0.02073892,0.00497684,0.00879332,-0.02182686,-0.000994
 73,-0.00080747,0.00350287,0.00001132,0.00005773,-0.00003280,0.00000797
 ,0.00001843,0.00002765,-0.00004337,0.00001384,0.00003218,-0.00003566,0
 .00002233,-0.00008452,-0.00054695,-0.00054345,0.00030724,-0.00018928,0
 .00011065,0.00002252,0.00053908,0.00041692,0.00016718,0.00013721,0.000
 22585,0.00025384,0.00049515,-0.00002305,-0.00062742,0.00047205,0.00096
 115,-0.00003604,0.00078912,0.00247618,-0.00312300,0.04999847,0.0000223
 8,-0.00003447,-0.00006894,0.00105253,-0.00029108,0.00035845,-0.0024425
 2,-0.00091374,-0.00048078,0.00206717,-0.00247172,-0.00159256,-0.000559
 25,0.00065431,0.00181311,0.00005696,-0.00755290,0.00824506,-0.01806791
 ,-0.12944876,0.12494267,-0.00560477,-0.01389152,0.01918638,0.00037356,
 0.00192149,-0.00221077,0.00000498,0.00002991,-0.00001032,0.00000535,0.
 00000733,0.00002372,-0.00002352,0.00000759,0.00002465,-0.00002374,-0.0
 0001616,-0.00004318,-0.00031576,-0.00020226,0.00011712,0.00018561,0.00
 015971,0.00013231,-0.00066920,-0.00062231,-0.00027497,0.00006882,0.000
 28867,-0.00035825,0.00004644,-0.00030026,-0.00092190,-0.00018303,0.000
 28460,-0.00025671,0.00212458,0.01201070,-0.01558874,0.02188132,0.14038
 088,-0.00002421,0.00000691,-0.00000829,-0.00023434,-0.00009528,0.00047
 782,0.00066483,-0.00040169,0.00024926,0.00054687,-0.00037191,-0.000867
 31,-0.00072705,-0.00031918,0.00117001,0.00020648,-0.00128187,0.0004362
 7,0.02469118,0.12154028,-0.22458943,-0.00006989,-0.00209592,0.00093761
 ,-0.00053731,0.00032144,0.00071769,-0.00001259,-0.00001008,0.00000386,
 -0.00001042,-0.00001691,0.00001835,0.00002635,0.00001371,-0.00000509,0
 .00012497,0.00012376,-0.00003724,0.00002061,0.00003051,0.00003484,0.00
 004293,-0.00021789,0.00044836,-0.00005190,-0.00011824,-0.00003171,-0.0
 0006789,0.00006709,0.00025847,-0.00004268,0.00026778,0.00033762,0.0004
 7132,0.00022550,0.00004061,0.00260605,0.01536836,-0.02102201,-0.027623
 31,-0.13303636,0.24143033\\0.00000400,0.00001384,-0.00000281,0.0000001
 6,0.00000436,-0.00004174,0.00001669,0.00003455,0.00006192,0.00007808,0
 .00002178,-0.00006396,-0.00004810,-0.00001828,-0.00001685,-0.00000880,
 0.00001074,-0.00002643,-0.00002592,0.00002340,0.00004357,-0.00001546,-
 0.00005591,0.00009244,0.00000016,-0.00001830,-0.00001196,0.00000313,-0
 .00000408,0.00000461,0.00000270,0.00000307,-0.00000308,0.00000621,-0.0
 0000171,-0.00000012,0.00000436,-0.00001465,-0.00001181,0.00000954,0.00
 001888,-0.00000529,0.00000749,0.00000297,-0.00000227,-0.00001707,-0.00
 000438,-0.00000310,0.00000746,-0.00001705,0.00000860,-0.00000258,0.000
 00489,0.00000431,0.00000760,-0.00000094,-0.00000742,0.00000670,0.00000
 015,-0.00000616,-0.00003634,-0.00000332,-0.00001244\\\@


 A MAN BEGINS CUTTING HIS WISDOM TEETH THE 1ST
 TIME HE BITES OFF MORE THAN HE CAN CHEW.
 Job cpu time:       0 days  0 hours  1 minutes 20.5 seconds.
 Elapsed time:       0 days  0 hours  1 minutes 20.5 seconds.
 File lengths (MBytes):  RWF=     67 Int=      0 D2E=      0 Chk=      4 Scr=      1
 Normal termination of Gaussian 16 at Wed Feb 21 18:37:53 2024.
