 Entering Gaussian System, Link 0=g16
 Input=/Volumes/SSD-PMU3/b3lyp_6-31gd_freq/ZALGHXJCZDONDI-XNRSKRNUSA-N_calculating/gaussianinput0.gjf
 Output=/Volumes/SSD-PMU3/b3lyp_6-31gd_freq/ZALGHXJCZDONDI-XNRSKRNUSA-N_calculating/gaussianinput0.log
 Initial command:
 /Applications/g16/l1.exe "/Users/macmini_m1_2022/PycharmProjects/sphere_model/sphere_model_lib/Gau-28258.inp" -scrdir="/Users/macmini_m1_2022/PycharmProjects/sphere_model/sphere_model_lib/"
 Entering Link 1 = /Applications/g16/l1.exe PID=     28259.
  
 Copyright (c) 1988,1990,1992,1993,1995,1998,2003,2009,2016,
            Gaussian, Inc.  All Rights Reserved.
  
 This is part of the Gaussian(R) 16 program.  It is based on
 the Gaussian(R) 09 system (copyright 2009, Gaussian, Inc.),
 the Gaussian(R) 03 system (copyright 2003, Gaussian, Inc.),
 the Gaussian(R) 98 system (copyright 1998, Gaussian, Inc.),
 the Gaussian(R) 94 system (copyright 1995, Gaussian, Inc.),
 the Gaussian 92(TM) system (copyright 1992, Gaussian, Inc.),
 the Gaussian 90(TM) system (copyright 1990, Gaussian, Inc.),
 the Gaussian 88(TM) system (copyright 1988, Gaussian, Inc.),
 the Gaussian 86(TM) system (copyright 1986, Carnegie Mellon
 University), and the Gaussian 82(TM) system (copyright 1983,
 Carnegie Mellon University). Gaussian is a federally registered
 trademark of Gaussian, Inc.
  
 This software contains proprietary and confidential information,
 including trade secrets, belonging to Gaussian, Inc.
  
 This software is provided under written license and may be
 used, copied, transmitted, or stored only in accord with that
 written license.
  
 The following legend is applicable only to US Government
 contracts under FAR:
  
                    RESTRICTED RIGHTS LEGEND
  
 Use, reproduction and disclosure by the US Government is
 subject to restrictions as set forth in subparagraphs (a)
 and (c) of the Commercial Computer Software - Restricted
 Rights clause in FAR 52.227-19.
  
 Gaussian, Inc.
 340 Quinnipiac St., Bldg. 40, Wallingford CT 06492
  
  
 ---------------------------------------------------------------
 Warning -- This program may not be used in any manner that
 competes with the business of Gaussian, Inc. or will provide
 assistance to any competitor of Gaussian, Inc.  The licensee
 of this program is prohibited from giving any competitor of
 Gaussian, Inc. access to this program.  By using this program,
 the user acknowledges that Gaussian, Inc. is engaged in the
 business of creating and licensing software in the field of
 computational chemistry and represents and warrants to the
 licensee that it is not a competitor of Gaussian, Inc. and that
 it will not use this program in any manner prohibited above.
 ---------------------------------------------------------------
  

 Cite this work as:
 Gaussian 16, Revision A.03,
 M. J. Frisch, G. W. Trucks, H. B. Schlegel, G. E. Scuseria, 
 M. A. Robb, J. R. Cheeseman, G. Scalmani, V. Barone, 
 G. A. Petersson, H. Nakatsuji, X. Li, M. Caricato, A. V. Marenich, 
 J. Bloino, B. G. Janesko, R. Gomperts, B. Mennucci, H. P. Hratchian, 
 J. V. Ortiz, A. F. Izmaylov, J. L. Sonnenberg, D. Williams-Young, 
 F. Ding, F. Lipparini, F. Egidi, J. Goings, B. Peng, A. Petrone, 
 T. Henderson, D. Ranasinghe, V. G. Zakrzewski, J. Gao, N. Rega, 
 G. Zheng, W. Liang, M. Hada, M. Ehara, K. Toyota, R. Fukuda, 
 J. Hasegawa, M. Ishida, T. Nakajima, Y. Honda, O. Kitao, H. Nakai, 
 T. Vreven, K. Throssell, J. A. Montgomery, Jr., J. E. Peralta, 
 F. Ogliaro, M. J. Bearpark, J. J. Heyd, E. N. Brothers, K. N. Kudin, 
 V. N. Staroverov, T. A. Keith, R. Kobayashi, J. Normand, 
 K. Raghavachari, A. P. Rendell, J. C. Burant, S. S. Iyengar, 
 J. Tomasi, M. Cossi, J. M. Millam, M. Klene, C. Adamo, R. Cammi, 
 J. W. Ochterski, R. L. Martin, K. Morokuma, O. Farkas, 
 J. B. Foresman, and D. J. Fox, Gaussian, Inc., Wallingford CT, 2016.
 
 ******************************************
 Gaussian 16:  EM64M-G16RevA.03 25-Dec-2016
                26-Feb-2024 
 ******************************************
 %nprocshared=10
 Will use up to   10 processors via shared memory.
 %mem=12GB
 %chk= 0.chk
 ---------------------
 # freq b3lyp/6-31g(d)
 ---------------------
 1/10=4,30=1,38=1/1,3;
 2/12=2,17=6,18=5,40=1/2;
 3/5=1,6=6,7=1,11=2,25=1,30=1,71=2,74=-5,140=1/1,2,3;
 4//1;
 5/5=2,38=5,98=1/2;
 8/6=4,10=90,11=11/1;
 11/6=1,8=1,9=11,15=111,16=1/1,2,10;
 10/6=1/2;
 6/7=2,8=2,9=2,10=2,28=1/1;
 7/8=1,10=1,25=1/1,2,3,16;
 1/10=4,30=1/3;
 99//99;
 ---------
 good luck
 ---------
 Symbolic Z-matrix:
 Charge =  0 Multiplicity = 1
 O                     1.21673   0.        0. 
 C                     0.        0.        0. 
 C                    -0.85109  -1.26329   0.00328 
 C                    -1.75132  -1.25886   1.26508 
 C                    -1.74368  -1.25573  -1.26085 
 C                    -2.63334   0.00047  -1.24672 
 C                    -1.74428   1.25749  -1.25991 
 C                    -0.85156   1.2635    0.00328 
 C                    -1.73567   1.2466    1.27647 
 C                    -2.66508  -0.00063   1.31845 
 C                    -3.5789   -0.00103   2.6211 
 C                    -2.74407   0.23398   3.90232 
 C                    -4.31938  -1.34836   2.79427 
 C                    -4.65325   1.11054   2.56101 
 C                    -3.51813   0.01      0.01746 
 H                    -0.18459  -2.132     0.01145 
 H                    -1.11932  -1.31399   2.15979 
 H                    -2.35813  -2.1716    1.2487 
 H                    -2.36113  -2.16433  -1.27456 
 H                    -1.1221   -1.27638  -2.16569 
 H                    -3.27912   0.00065  -2.13471 
 H                    -1.12187   1.28016  -2.16415 
 H                    -2.36318   2.1651   -1.27321 
 H                    -0.18474   2.13196   0.01247 
 H                    -2.32741   2.17051   1.30199 
 H                    -1.08241   1.26471   2.15582 
 H                    -2.34148   1.25066   3.95434 
 H                    -3.37866   0.09293   4.78524 
 H                    -1.90648  -0.46635   3.99105 
 H                    -5.03904  -1.26923   3.61767 
 H                    -3.63645  -2.16768   3.04104 
 H                    -4.88225  -1.63432   1.89904 
 H                    -5.4096    0.91521   1.79403 
 H                    -5.17628   1.16828   3.52292 
 H                    -4.22222   2.0989    2.3675 
 H                    -4.15458   0.90212  -0.00828 
 H                    -4.18918  -0.8582   -0.00416 
 

 GradGradGradGradGradGradGradGradGradGradGradGradGradGradGradGradGradGrad
 Berny optimization.
 Initialization pass.
 Trust Radius=3.00D-01 FncErr=1.00D-07 GrdErr=1.00D-07 EigMax=2.50D+02 EigMin=1.00D-04
 Number of steps in this run=      2 maximum allowed number of steps=      2.
 GradGradGradGradGradGradGradGradGradGradGradGradGradGradGradGradGradGrad

                          Input orientation:                          
 ---------------------------------------------------------------------
 Center     Atomic      Atomic             Coordinates (Angstroms)
 Number     Number       Type             X           Y           Z
 ---------------------------------------------------------------------
      1          8           0        1.216726    0.000000    0.000000
      2          6           0        0.000000    0.000000    0.000000
      3          6           0       -0.851089   -1.263288    0.003283
      4          6           0       -1.751317   -1.258862    1.265078
      5          6           0       -1.743676   -1.255733   -1.260854
      6          6           0       -2.633338    0.000468   -1.246716
      7          6           0       -1.744275    1.257489   -1.259914
      8          6           0       -0.851562    1.263499    0.003283
      9          6           0       -1.735673    1.246600    1.276468
     10          6           0       -2.665083   -0.000633    1.318449
     11          6           0       -3.578903   -0.001027    2.621098
     12          6           0       -2.744066    0.233981    3.902323
     13          6           0       -4.319376   -1.348361    2.794265
     14          6           0       -4.653251    1.110543    2.561006
     15          6           0       -3.518126    0.009996    0.017461
     16          1           0       -0.184593   -2.131996    0.011451
     17          1           0       -1.119321   -1.313994    2.159786
     18          1           0       -2.358129   -2.171596    1.248699
     19          1           0       -2.361126   -2.164331   -1.274564
     20          1           0       -1.122095   -1.276377   -2.165688
     21          1           0       -3.279122    0.000654   -2.134710
     22          1           0       -1.121865    1.280157   -2.164151
     23          1           0       -2.363178    2.165099   -1.273210
     24          1           0       -0.184743    2.131963    0.012473
     25          1           0       -2.327408    2.170506    1.301986
     26          1           0       -1.082410    1.264706    2.155818
     27          1           0       -2.341477    1.250664    3.954340
     28          1           0       -3.378656    0.092932    4.785244
     29          1           0       -1.906481   -0.466351    3.991046
     30          1           0       -5.039044   -1.269230    3.617674
     31          1           0       -3.636445   -2.167678    3.041041
     32          1           0       -4.882251   -1.634318    1.899044
     33          1           0       -5.409599    0.915211    1.794028
     34          1           0       -5.176278    1.168279    3.522922
     35          1           0       -4.222221    2.098896    2.367497
     36          1           0       -4.154575    0.902123   -0.008282
     37          1           0       -4.189184   -0.858196   -0.004161
 ---------------------------------------------------------------------
                    Distance matrix (angstroms):
                    1          2          3          4          5
     1  O    0.000000
     2  C    1.216726   0.000000
     3  C    2.423173   1.523240   0.000000
     4  C    3.463298   2.500453   1.550018   0.000000
     5  C    3.454070   2.491390   1.547518   2.525945   0.000000
     6  C    4.046887   2.913549   2.517139   2.944993   1.539396
     7  C    3.454879   2.492219   2.957662   3.564780   2.513222
     8  C    2.423686   1.523679   2.526787   2.960404   2.956423
     9  C    3.449644   2.489165   2.950089   2.505537   3.563669
    10  C    4.099604   2.973378   2.571874   1.555942   3.012818
    11  C    5.465182   4.436068   3.985879   2.600194   4.473466
    12  C    5.565137   4.776272   4.585596   3.188917   5.466116
    13  C    6.346213   5.318177   4.452621   2.990209   4.804873
    14  C    6.499899   5.426307   5.160761   3.964181   5.354578
    15  C    4.734895   3.518184   2.955425   2.507621   2.526822
    16  H    2.551320   2.140003   1.094960   2.188280   2.194843
    17  H    3.442146   2.764803   2.173712   1.096796   3.477642
    18  H    4.365165   3.440327   2.155749   1.096163   2.741207
    19  H    4.371483   3.447283   2.173703   2.764330   1.098628
    20  H    3.433573   2.752897   2.185875   3.488034   1.097959
    21  H    4.976910   3.912752   3.473314   3.934352   2.167885
    22  H    3.433855   2.753349   3.352641   4.313054   2.762849
    23  H    4.373149   3.448670   3.958495   4.305902   3.476496
    24  H    2.551379   2.139989   3.460033   3.939653   3.940573
    25  H    4.355129   3.438472   3.956904   3.477615   4.318334
    26  H    3.396036   2.723719   3.328313   2.758487   4.296921
    27  H    5.464593   4.762718   4.914475   3.725338   5.817013
    28  H    6.635114   5.858542   5.576296   4.106963   6.406821
    29  H    5.089239   4.447539   4.201335   2.843071   5.313387
    30  H    7.337109   6.331704   5.531982   4.042767   5.887246
    31  H    6.123727   5.212532   4.219491   2.744758   4.787538
    32  H    6.593549   5.487599   4.470105   3.216462   4.469780
    33  H    6.925629   5.772340   5.360283   4.288287   5.242546
    34  H    7.392317   6.369436   6.083390   4.766469   6.367347
    35  H    6.292261   5.276131   5.315856   4.312219   5.528259
    36  H    5.446537   4.251398   3.949957   3.473752   3.469541
    37  H    5.473608   4.276188   3.362593   2.777534   2.778097
                    6          7          8          9         10
     6  C    0.000000
     7  C    1.539711   0.000000
     8  C    2.516440   1.546816   0.000000
     9  C    2.953829   2.536420   1.550141   0.000000
    10  C    2.565362   3.013090   2.572265   1.556006   0.000000
    11  C    3.981718   4.473475   3.986273   2.600404   1.591214
    12  C    5.155521   5.356850   4.454660   2.989543   2.595705
    13  C    4.581658   5.464244   5.161117   3.963969   2.594434
    14  C    4.450962   4.804494   4.584559   3.190738   2.594508
    15  C    1.543076   2.516838   2.946529   2.508272   1.555752
    16  H    3.482347   3.941774   3.460390   3.926962   3.521900
    17  H    3.952760   4.324054   3.371301   2.777910   2.195938
    18  H    3.319744   4.292852   3.952301   3.474520   2.193665
    19  H    2.182024   3.477006   3.957486   4.305044   3.390825
    20  H    2.181444   2.761885   3.350909   4.311650   4.018401
    21  H    1.097985   2.168100   3.472584   3.945979   3.507328
    22  H    2.182623   1.097977   2.184287   3.495103   4.018762
    23  H    2.181586   1.098624   2.174235   2.781773   3.390905
    24  H    3.482017   2.194496   1.094971   2.187907   3.522162
    25  H    3.361330   2.781542   2.165043   1.097453   2.197303
    26  H    3.947267   3.479273   2.164879   1.095599   2.192515
    27  H    5.357159   5.248347   4.222661   2.745544   2.935709
    28  H    6.078535   6.369563   5.533858   4.042506   3.540707
    29  H    5.308521   5.529061   4.472973   3.214391   2.816939
    30  H    5.573315   6.405519   6.083876   4.766855   3.539981
    31  H    4.908354   5.814662   5.362511   4.287650   2.933761
    32  H    4.198326   5.309280   5.313916   4.311408   2.814578
    33  H    4.217879   4.783128   4.909559   3.724972   2.932118
    34  H    5.529898   5.887455   5.576746   4.109800   3.540079
    35  H    4.471072   4.472839   4.201040   2.845993   2.816594
    36  H    2.158903   2.739053   3.322743   2.760495   2.189468
    37  H    2.168387   3.468518   3.954917   3.477052   2.192623
                   11         12         13         14         15
    11  C    0.000000
    12  C    1.547165   0.000000
    13  C    1.547125   2.492629   0.000000
    14  C    1.547069   2.492485   2.492407   0.000000
    15  C    2.604370   3.967555   3.193396   2.994885   0.000000
    16  H    4.782534   5.223757   5.045252   6.081381   3.962399
    17  H    2.825993   2.841207   3.262529   4.304418   3.478041
    18  H    2.843438   3.602425   2.629255   4.214519   2.760595
    19  H    4.619421   5.718278   4.588673   5.539877   2.781308
    20  H    5.529534   6.460087   5.901603   6.364596   3.487386
    21  H    4.765247   6.065187   5.215052   5.016955   2.165421
    22  H    5.529654   6.366171   6.459030   5.901404   3.480633
    23  H    4.619061   5.537186   5.719743   4.588871   2.764816
    24  H    4.782770   5.028260   6.078340   5.244605   3.951482
    25  H    2.832287   3.268866   4.310134   2.849245   2.781298
    26  H    2.837436   2.621788   4.208763   3.597061   3.475569
    27  H    2.208051   1.094727   3.465947   2.702834   4.292176
    28  H    2.175421   1.096425   2.631782   2.758144   4.770543
    29  H    2.211398   1.095393   2.834129   3.475105   4.314358
    30  H    2.175664   2.758186   1.096442   2.632243   4.112316
    31  H    2.207723   2.702982   1.094794   3.465698   3.728042
    32  H    2.210818   3.474982   1.095454   2.832825   2.846921
    33  H    2.207937   3.466129   2.704222   1.094748   2.748322
    34  H    2.175355   2.632967   2.756574   1.096437   4.047140
    35  H    2.210848   2.831703   3.474932   1.095479   3.222099
    36  H    2.839140   4.210556   3.598070   2.625520   1.096185
    37  H    2.828280   4.306023   2.844011   3.266707   1.097517
                   16         17         18         19         20
    16  H    0.000000
    17  H    2.481569   0.000000
    18  H    2.501322   1.760740   0.000000
    19  H    2.528275   3.749655   2.523275   0.000000
    20  H    2.520105   4.325638   3.739951   1.765719   0.000000
    21  H    4.327853   4.983546   4.124846   2.503942   2.506897
    22  H    4.153855   5.042426   5.009041   3.767178   2.556534
    23  H    4.986142   5.043484   5.016670   4.329431   3.765709
    24  H    4.263959   4.166414   4.977196   4.985103   4.152083
    25  H    4.976812   3.786428   4.342538   5.042872   5.035727
    26  H    4.116062   2.578967   3.776042   5.016067   5.013391
    27  H    5.625025   3.360292   4.362641   6.245319   6.732575
    28  H    6.159663   3.738591   4.321656   6.546134   7.435222
    29  H    4.645046   2.166018   3.260723   5.551260   6.259135
    30  H    6.108593   4.182304   3.689663   5.648579   6.984971
    31  H    4.592926   2.800232   2.201499   4.500100   5.850333
    32  H    5.087109   3.785530   2.661355   4.087637   5.548778
    33  H    6.305850   4.848672   4.374612   5.309710   6.234188
    34  H    6.938239   4.947597   4.926339   6.484384   7.400880
    35  H    6.305065   4.617245   4.792040   5.907909   6.446163
    36  H    4.996701   4.338716   3.775575   3.771349   4.312331
    37  H    4.202328   3.783448   2.578263   2.581029   3.775461
                   21         22         23         24         25
    21  H    0.000000
    22  H    2.508337   0.000000
    23  H    2.503190   1.765717   0.000000
    24  H    4.327592   2.518226   2.529754   0.000000
    25  H    4.174314   3.776263   2.575450   2.501068   0.000000
    26  H    4.983172   4.320177   3.769523   2.480296   1.760546
    27  H    6.286353   6.238931   5.306971   4.578920   2.807363
    28  H    6.921285   7.402479   6.483050   6.094101   4.189812
    29  H    6.295008   6.446112   5.903007   5.054173   3.789622
    30  H    6.148158   7.434593   6.547948   6.937566   4.954510
    31  H    5.622966   6.730877   6.245553   6.290738   4.853631
    32  H    4.638354   6.256534   5.553782   6.309564   4.621730
    33  H    4.561834   5.846797   4.500094   5.652747   3.364190
    34  H    6.080407   6.985240   5.648899   6.177974   3.748743
    35  H    5.055880   5.551430   4.088419   4.674234   2.175031
    36  H    2.469972   3.740055   2.530663   4.156020   2.581499
    37  H    2.470845   4.318166   3.753012   4.997687   3.787514
                   26         27         28         29         30
    26  H    0.000000
    27  H    2.195479   0.000000
    28  H    3.682347   1.762522   0.000000
    29  H    2.653999   1.771640   1.763759   0.000000
    30  H    4.920651   3.706761   2.444503   3.255299   0.000000
    31  H    4.368979   3.767774   2.866890   2.605724   1.762668
    32  H    4.786341   4.359231   3.684337   3.820448   1.763962
    33  H    4.356329   3.767340   3.707863   4.359752   2.869630
    34  H    4.317178   2.868624   2.445664   3.685475   2.443207
    35  H    3.255625   2.602838   3.252844   3.818253   3.684347
    36  H    3.775314   4.371633   4.922878   4.787617   4.317941
    37  H    4.338694   4.850881   4.949748   4.618003   3.742846
                   31         32         33         34         35
    31  H    0.000000
    32  H    1.772191   0.000000
    33  H    3.768729   2.605614   0.000000
    34  H    3.705658   3.252381   1.762826   0.000000
    35  H    4.358950   3.819944   1.771960   1.763882   0.000000
    36  H    4.357810   3.255908   2.196265   3.685664   2.661046
    37  H    3.360583   2.169077   2.804972   4.185842   3.790811
                   36         37
    36  H    0.000000
    37  H    1.760664   0.000000
 Stoichiometry    C14H22O
 Framework group  C1[X(C14H22O)]
 Deg. of freedom   105
 Full point group                 C1      NOp   1
 Largest Abelian subgroup         C1      NOp   1
 Largest concise Abelian subgroup C1      NOp   1
                         Standard orientation:                         
 ---------------------------------------------------------------------
 Center     Atomic      Atomic             Coordinates (Angstroms)
 Number     Number       Type             X           Y           Z
 ---------------------------------------------------------------------
      1          8           0       -2.955365   -1.890552   -0.000332
      2          6           0       -2.124170   -1.001993   -0.000163
      3          6           0       -1.539912   -0.383354    1.263241
      4          6           0       -0.003459   -0.587911    1.258164
      5          6           0       -1.853334    1.132077    1.256586
      6          6           0       -1.235690    1.772782    0.000500
      7          6           0       -1.853129    1.133182   -1.256636
      8          6           0       -1.540484   -0.381693   -1.263546
      9          6           0       -0.006715   -0.605811   -1.247307
     10          6           0        0.659302    0.043596    0.000029
     11          6           0        2.234877   -0.178946   -0.000251
     12          6           0        2.600145   -1.663751   -0.236162
     13          6           0        2.867663    0.242812    1.347079
     14          6           0        2.924530    0.647267   -1.111635
     15          6           0        0.291953    1.555325   -0.009683
     16          1           0       -1.988950   -0.876120    2.131851
     17          1           0        0.218212   -1.660689    1.312658
     18          1           0        0.399441   -0.134050    2.170992
     19          1           0       -1.441220    1.591885    2.165278
     20          1           0       -2.938743    1.296263    1.277700
     21          1           0       -1.443019    2.851014    0.000949
     22          1           0       -2.938683    1.296377   -1.278835
     23          1           0       -1.440362    1.594714   -2.164152
     24          1           0       -1.989611   -0.874487   -2.132108
     25          1           0        0.415831   -0.190626   -2.171146
     26          1           0        0.189185   -1.683591   -1.266044
     27          1           0        2.362747   -1.992761   -1.252933
     28          1           0        3.678494   -1.803551   -0.095568
     29          1           0        2.092997   -2.336403    0.463999
     30          1           0        3.960594    0.205914    1.267542
     31          1           0        2.581633   -0.424933    2.166149
     32          1           0        2.598519    1.265285    1.633664
     33          1           0        2.881178    1.723470   -0.915727
     34          1           0        3.984285    0.372133   -1.169890
     35          1           0        2.488409    0.465200   -2.099929
     36          1           0        0.707621    2.038166   -0.901705
     37          1           0        0.734897    2.059708    0.858616
 ---------------------------------------------------------------------
 Rotational constants (GHZ):           1.0685809           0.4948649           0.4661143
 Standard basis: 6-31G(d) (6D, 7F)
 There are   269 symmetry adapted cartesian basis functions of A   symmetry.
 There are   269 symmetry adapted basis functions of A   symmetry.
   269 basis functions,   508 primitive gaussians,   269 cartesian basis functions
    57 alpha electrons       57 beta electrons
       nuclear repulsion energy      1127.0926550555 Hartrees.
 NAtoms=   37 NActive=   37 NUniq=   37 SFac= 1.00D+00 NAtFMM=   60 NAOKFM=F Big=F
 Integral buffers will be    131072 words long.
 Raffenetti 2 integral format.
 Two-electron integral symmetry is turned on.
 One-electron integrals computed using PRISM.
 NBasis=   269 RedAO= T EigKep=  2.14D-03  NBF=   269
 NBsUse=   269 1.00D-06 EigRej= -1.00D+00 NBFU=   269
 ExpMin= 1.61D-01 ExpMax= 5.48D+03 ExpMxC= 8.25D+02 IAcc=3 IRadAn=         5 AccDes= 0.00D+00
 Harris functional with IExCor=  402 and IRadAn=       5 diagonalized for initial guess.
 HarFok:  IExCor=  402 AccDes= 0.00D+00 IRadAn=         5 IDoV= 1 UseB2=F ITyADJ=14
 ICtDFT=  3500011 ScaDFX=  1.000000  1.000000  1.000000  1.000000
 FoFCou: FMM=F IPFlag=           0 FMFlag=      100000 FMFlg1=           0
         NFxFlg=           0 DoJE=T BraDBF=F KetDBF=T FulRan=T
         wScrn=  0.000000 ICntrl=       500 IOpCl=  0 I1Cent=   200000004 NGrid=           0
         NMat0=    1 NMatS0=      1 NMatT0=    0 NMatD0=    1 NMtDS0=    0 NMtDT0=    0
 Petite list used in FoFCou.
 Requested convergence on RMS density matrix=1.00D-08 within 128 cycles.
 Requested convergence on MAX density matrix=1.00D-06.
 Requested convergence on             energy=1.00D-06.
 No special actions if energy rises.
 Integral accuracy reduced to 1.0D-05 until final iterations.
 Initial convergence to 1.0D-05 achieved.  Increase integral accuracy.
 SCF Done:  E(RB3LYP) =  -621.980097438     A.U. after   14 cycles
            NFock= 14  Conv=0.31D-08     -V/T= 2.0097
 DoSCS=F DFT=T ScalE2(SS,OS)=  1.000000  1.000000
 Range of M.O.s used for correlation:     1   269
 NBasis=   269 NAE=    57 NBE=    57 NFC=     0 NFV=     0
 NROrb=    269 NOA=    57 NOB=    57 NVA=   212 NVB=   212
 Symmetrizing basis deriv contribution to polar:
 IMax=3 JMax=2 DiffMx= 0.00D+00
 G2DrvN: will do    38 centers at a time, making    1 passes.
 Calling FoFCou, ICntrl=  3107 FMM=F I1Cent=   0 AccDes= 0.00D+00.
 End of G2Drv F.D. properties file   721 does not exist.
 End of G2Drv F.D. properties file   722 does not exist.
 End of G2Drv F.D. properties file   788 does not exist.
          IDoAtm=1111111111111111111111111111111111111
          Differentiating once with respect to electric field.
                with respect to dipole field.
          Differentiating once with respect to nuclear coordinates.
 Keep R1 ints in memory in canonical form, NReq=670428025.
          There are   114 degrees of freedom in the 1st order CPHF.  IDoFFX=6 NUNeed=     3.
    111 vectors produced by pass  0 Test12= 1.21D-14 1.00D-09 XBig12= 9.81D+01 1.96D+00.
 AX will form   111 AO Fock derivatives at one time.
    111 vectors produced by pass  1 Test12= 1.21D-14 1.00D-09 XBig12= 8.49D+00 7.15D-01.
    111 vectors produced by pass  2 Test12= 1.21D-14 1.00D-09 XBig12= 7.35D-02 2.89D-02.
    111 vectors produced by pass  3 Test12= 1.21D-14 1.00D-09 XBig12= 2.87D-04 4.02D-03.
    111 vectors produced by pass  4 Test12= 1.21D-14 1.00D-09 XBig12= 3.04D-07 6.30D-05.
     54 vectors produced by pass  5 Test12= 1.21D-14 1.00D-09 XBig12= 2.17D-10 2.12D-06.
      4 vectors produced by pass  6 Test12= 1.21D-14 1.00D-09 XBig12= 1.75D-13 4.35D-08.
      1 vectors produced by pass  7 Test12= 1.21D-14 1.00D-09 XBig12= 1.54D-16 1.02D-09.
 InvSVY:  IOpt=1 It=  1 EMax= 5.33D-15
 Solved reduced A of dimension   614 with   114 vectors.
 Isotropic polarizability for W=    0.000000      136.91 Bohr**3.
 End of Minotr F.D. properties file   721 does not exist.
 End of Minotr F.D. properties file   722 does not exist.
 End of Minotr F.D. properties file   788 does not exist.

 **********************************************************************

            Population analysis using the SCF density.

 **********************************************************************

 Orbital symmetries:
       Occupied  (A) (A) (A) (A) (A) (A) (A) (A) (A) (A) (A) (A)
                 (A) (A) (A) (A) (A) (A) (A) (A) (A) (A) (A) (A)
                 (A) (A) (A) (A) (A) (A) (A) (A) (A) (A) (A) (A)
                 (A) (A) (A) (A) (A) (A) (A) (A) (A) (A) (A) (A)
                 (A) (A) (A) (A) (A) (A) (A) (A) (A)
       Virtual   (A) (A) (A) (A) (A) (A) (A) (A) (A) (A) (A) (A)
                 (A) (A) (A) (A) (A) (A) (A) (A) (A) (A) (A) (A)
                 (A) (A) (A) (A) (A) (A) (A) (A) (A) (A) (A) (A)
                 (A) (A) (A) (A) (A) (A) (A) (A) (A) (A) (A) (A)
                 (A) (A) (A) (A) (A) (A) (A) (A) (A) (A) (A) (A)
                 (A) (A) (A) (A) (A) (A) (A) (A) (A) (A) (A) (A)
                 (A) (A) (A) (A) (A) (A) (A) (A) (A) (A) (A) (A)
                 (A) (A) (A) (A) (A) (A) (A) (A) (A) (A) (A) (A)
                 (A) (A) (A) (A) (A) (A) (A) (A) (A) (A) (A) (A)
                 (A) (A) (A) (A) (A) (A) (A) (A) (A) (A) (A) (A)
                 (A) (A) (A) (A) (A) (A) (A) (A) (A) (A) (A) (A)
                 (A) (A) (A) (A) (A) (A) (A) (A) (A) (A) (A) (A)
                 (A) (A) (A) (A) (A) (A) (A) (A) (A) (A) (A) (A)
                 (A) (A) (A) (A) (A) (A) (A) (A) (A) (A) (A) (A)
                 (A) (A) (A) (A) (A) (A) (A) (A) (A) (A) (A) (A)
                 (A) (A) (A) (A) (A) (A) (A) (A) (A) (A) (A) (A)
                 (A) (A) (A) (A) (A) (A) (A) (A) (A) (A) (A) (A)
                 (A) (A) (A) (A) (A) (A) (A) (A)
 The electronic state is 1-A.
 Alpha  occ. eigenvalues --  -19.12829 -10.25891 -10.20251 -10.20132 -10.19236
 Alpha  occ. eigenvalues --  -10.18990 -10.18982 -10.18821 -10.18808 -10.18640
 Alpha  occ. eigenvalues --  -10.18639 -10.18136 -10.17429 -10.17426 -10.17362
 Alpha  occ. eigenvalues --   -1.02631  -0.87403  -0.81805  -0.77705  -0.76572
 Alpha  occ. eigenvalues --   -0.74678  -0.68929  -0.68569  -0.66932  -0.64265
 Alpha  occ. eigenvalues --   -0.59944  -0.59839  -0.57188  -0.53358  -0.50321
 Alpha  occ. eigenvalues --   -0.46093  -0.46015  -0.45394  -0.44508  -0.44138
 Alpha  occ. eigenvalues --   -0.43649  -0.43064  -0.42751  -0.41426  -0.41121
 Alpha  occ. eigenvalues --   -0.40112  -0.39384  -0.37479  -0.37176  -0.37109
 Alpha  occ. eigenvalues --   -0.36175  -0.35534  -0.34620  -0.34613  -0.33709
 Alpha  occ. eigenvalues --   -0.33225  -0.32265  -0.32074  -0.29348  -0.28689
 Alpha  occ. eigenvalues --   -0.28457  -0.22571
 Alpha virt. eigenvalues --   -0.00557   0.06334   0.09688   0.10896   0.11185
 Alpha virt. eigenvalues --    0.12021   0.12440   0.12599   0.13370   0.13865
 Alpha virt. eigenvalues --    0.14077   0.14881   0.16135   0.16533   0.17762
 Alpha virt. eigenvalues --    0.17899   0.18037   0.18214   0.19815   0.20044
 Alpha virt. eigenvalues --    0.20360   0.20862   0.21308   0.21983   0.22098
 Alpha virt. eigenvalues --    0.22443   0.22615   0.24221   0.24801   0.25714
 Alpha virt. eigenvalues --    0.26373   0.26955   0.28501   0.29132   0.29614
 Alpha virt. eigenvalues --    0.30492   0.31210   0.31909   0.34529   0.37766
 Alpha virt. eigenvalues --    0.49324   0.49569   0.50738   0.50902   0.53560
 Alpha virt. eigenvalues --    0.53735   0.55028   0.55982   0.56787   0.59069
 Alpha virt. eigenvalues --    0.60232   0.61008   0.63488   0.64309   0.64686
 Alpha virt. eigenvalues --    0.64930   0.65108   0.67452   0.68221   0.68680
 Alpha virt. eigenvalues --    0.69455   0.69781   0.71616   0.72953   0.73643
 Alpha virt. eigenvalues --    0.73988   0.76739   0.77637   0.79591   0.80242
 Alpha virt. eigenvalues --    0.82113   0.84134   0.85033   0.85735   0.85850
 Alpha virt. eigenvalues --    0.86392   0.86829   0.87114   0.87576   0.88366
 Alpha virt. eigenvalues --    0.89510   0.90929   0.91638   0.92555   0.92821
 Alpha virt. eigenvalues --    0.93394   0.93565   0.93887   0.95474   0.96528
 Alpha virt. eigenvalues --    0.97323   0.97605   0.98256   0.99297   0.99824
 Alpha virt. eigenvalues --    1.00770   1.02186   1.03875   1.05284   1.06261
 Alpha virt. eigenvalues --    1.08890   1.10981   1.11735   1.16912   1.17832
 Alpha virt. eigenvalues --    1.19179   1.22221   1.22849   1.23552   1.28580
 Alpha virt. eigenvalues --    1.31047   1.34690   1.41193   1.41651   1.43844
 Alpha virt. eigenvalues --    1.48049   1.49720   1.55194   1.56008   1.57760
 Alpha virt. eigenvalues --    1.60713   1.62518   1.64551   1.66436   1.67524
 Alpha virt. eigenvalues --    1.69465   1.72412   1.73884   1.75010   1.75385
 Alpha virt. eigenvalues --    1.77554   1.79860   1.80467   1.81743   1.83454
 Alpha virt. eigenvalues --    1.85029   1.86459   1.86836   1.88055   1.89156
 Alpha virt. eigenvalues --    1.91023   1.91428   1.92664   1.95045   1.96820
 Alpha virt. eigenvalues --    1.98033   2.02395   2.06368   2.06925   2.07648
 Alpha virt. eigenvalues --    2.08228   2.08965   2.09577   2.12494   2.13843
 Alpha virt. eigenvalues --    2.14223   2.15894   2.17343   2.18896   2.20992
 Alpha virt. eigenvalues --    2.24763   2.25614   2.26575   2.28366   2.29209
 Alpha virt. eigenvalues --    2.30134   2.30880   2.32333   2.33525   2.36156
 Alpha virt. eigenvalues --    2.36661   2.39537   2.41487   2.42608   2.45939
 Alpha virt. eigenvalues --    2.47906   2.48248   2.52015   2.52503   2.55861
 Alpha virt. eigenvalues --    2.57699   2.58902   2.63447   2.66653   2.68993
 Alpha virt. eigenvalues --    2.69673   2.72800   2.74962   2.76718   2.77356
 Alpha virt. eigenvalues --    2.79127   2.79850   2.84644   2.85361   2.90644
 Alpha virt. eigenvalues --    3.01800   3.04232   4.09743   4.11477   4.21700
 Alpha virt. eigenvalues --    4.29256   4.29973   4.31986   4.32113   4.33921
 Alpha virt. eigenvalues --    4.51013   4.57954   4.63384   4.73339   4.81155
 Alpha virt. eigenvalues --    4.83951   4.85024
          Condensed to atoms (all electrons):
               1          2          3          4          5          6
     1  O    8.016534   0.579180  -0.074099   0.000942   0.000977   0.000065
     2  C    0.579180   4.515418   0.331587  -0.029271  -0.028490  -0.020999
     3  C   -0.074099   0.331587   5.225844   0.328098   0.338403  -0.027291
     4  C    0.000942  -0.029271   0.328098   5.173137  -0.039873  -0.014518
     5  C    0.000977  -0.028490   0.338403  -0.039873   5.098349   0.375014
     6  C    0.000065  -0.020999  -0.027291  -0.014518   0.375014   4.932981
     7  C    0.000979  -0.028757  -0.008790  -0.002829  -0.048882   0.375301
     8  C   -0.074000   0.332345  -0.124679  -0.007103  -0.008782  -0.027187
     9  C    0.000737  -0.030099  -0.006644  -0.058059  -0.002893  -0.014794
    10  C    0.000096  -0.019354  -0.017959   0.374004  -0.016167  -0.018979
    11  C    0.000000   0.000248   0.003360  -0.038990   0.000117   0.003577
    12  C   -0.000000  -0.000037   0.000138  -0.007648  -0.000010  -0.000110
    13  C   -0.000000  -0.000012   0.000297  -0.008875  -0.000028   0.000129
    14  C    0.000000  -0.000010  -0.000105   0.004330  -0.000006   0.000294
    15  C   -0.000032  -0.003154  -0.013021  -0.057262  -0.046707   0.366317
    16  H    0.004249  -0.032259   0.344467  -0.031393  -0.032048   0.004242
    17  H    0.000765  -0.000945  -0.038946   0.362463   0.005167   0.000026
    18  H   -0.000084   0.003551  -0.031940   0.357569  -0.006554  -0.000923
    19  H   -0.000084   0.003558  -0.031200  -0.006319   0.360325  -0.033586
    20  H    0.000722  -0.000902  -0.039478   0.005168   0.366959  -0.034933
    21  H   -0.000000   0.000317   0.004706   0.000124  -0.038700   0.368419
    22  H    0.000731  -0.000960  -0.000000   0.000041  -0.004367  -0.035133
    23  H   -0.000083   0.003580  -0.000323   0.000116   0.005316  -0.033492
    24  H    0.004285  -0.032380   0.007214  -0.000066  -0.000043   0.004245
    25  H   -0.000083   0.003603  -0.000305   0.005811   0.000098  -0.000737
    26  H    0.000866  -0.001115   0.000341  -0.006015  -0.000001   0.000037
    27  H   -0.000000  -0.000003  -0.000006   0.000167   0.000000  -0.000001
    28  H   -0.000000   0.000000   0.000000   0.000039   0.000000   0.000001
    29  H   -0.000000  -0.000009  -0.000123   0.001481  -0.000000  -0.000000
    30  H   -0.000000   0.000000  -0.000004   0.000299   0.000000   0.000000
    31  H    0.000000  -0.000004   0.000014   0.001344   0.000004  -0.000004
    32  H    0.000000  -0.000002  -0.000033  -0.001108   0.000004  -0.000131
    33  H   -0.000000   0.000000  -0.000001  -0.000005  -0.000002   0.000007
    34  H   -0.000000   0.000000   0.000001  -0.000099   0.000000  -0.000004
    35  H   -0.000000  -0.000004  -0.000001   0.000021  -0.000001  -0.000036
    36  H    0.000000   0.000146  -0.000053   0.005701   0.005183  -0.036403
    37  H    0.000000   0.000139  -0.001106  -0.005248  -0.003622  -0.035125
               7          8          9         10         11         12
     1  O    0.000979  -0.074000   0.000737   0.000096   0.000000  -0.000000
     2  C   -0.028757   0.332345  -0.030099  -0.019354   0.000248  -0.000037
     3  C   -0.008790  -0.124679  -0.006644  -0.017959   0.003360   0.000138
     4  C   -0.002829  -0.007103  -0.058059   0.374004  -0.038990  -0.007648
     5  C   -0.048882  -0.008782  -0.002893  -0.016167   0.000117  -0.000010
     6  C    0.375301  -0.027187  -0.014794  -0.018979   0.003577  -0.000110
     7  C    5.097710   0.338669  -0.039474  -0.016254   0.000097  -0.000006
     8  C    0.338669   5.225234   0.327703  -0.017855   0.003464   0.000284
     9  C   -0.039474   0.327703   5.174835   0.373961  -0.039307  -0.008640
    10  C   -0.016254  -0.017855   0.373961   4.844730   0.375045  -0.043947
    11  C    0.000097   0.003464  -0.039307   0.375045   4.790134   0.376049
    12  C   -0.000006   0.000284  -0.008640  -0.043947   0.376049   5.180259
    13  C   -0.000009  -0.000104   0.004353  -0.044088   0.376775  -0.064431
    14  C   -0.000024   0.000118  -0.007677  -0.044190   0.377156  -0.064564
    15  C   -0.047095  -0.012948  -0.057096   0.380393  -0.041636   0.004380
    16  H   -0.000045   0.007208  -0.000041   0.003496  -0.000093  -0.000002
    17  H   -0.000010   0.000372  -0.006020  -0.034494  -0.004488   0.001321
    18  H    0.000118  -0.000296   0.005729  -0.030653  -0.008395   0.000111
    19  H    0.005317  -0.000317   0.000115  -0.001117  -0.000078   0.000001
    20  H   -0.004423  -0.000041   0.000047   0.000168   0.000010  -0.000000
    21  H   -0.038776   0.004713   0.000105   0.004069  -0.000089   0.000002
    22  H    0.367010  -0.039430   0.005107   0.000165   0.000010  -0.000000
    23  H    0.360377  -0.031339  -0.005842  -0.001097  -0.000075  -0.000000
    24  H   -0.031937   0.344440  -0.031392   0.003492  -0.000095   0.000001
    25  H   -0.005884  -0.030754   0.356196  -0.033379  -0.004213  -0.000976
    26  H    0.005165  -0.040485   0.364193  -0.031849  -0.008712   0.003607
    27  H   -0.000003   0.000024   0.001372  -0.005982  -0.027696   0.367472
    28  H    0.000000  -0.000004   0.000296   0.004700  -0.028214   0.364615
    29  H   -0.000001  -0.000033  -0.001144  -0.005330  -0.028962   0.365182
    30  H    0.000000   0.000001  -0.000101   0.004718  -0.028298  -0.005181
    31  H    0.000000  -0.000001  -0.000004  -0.005981  -0.027594  -0.005394
    32  H   -0.000000   0.000001   0.000021  -0.005354  -0.028990   0.005843
    33  H    0.000003  -0.000003   0.000158  -0.005971  -0.027526   0.005736
    34  H    0.000000   0.000000   0.000049   0.004711  -0.028371  -0.006332
    35  H    0.000004  -0.000123   0.001498  -0.005373  -0.028916  -0.003862
    36  H   -0.004171  -0.001274  -0.005174  -0.032974  -0.008563   0.000070
    37  H    0.005197  -0.000068   0.005776  -0.035774  -0.004349   0.000014
              13         14         15         16         17         18
     1  O   -0.000000   0.000000  -0.000032   0.004249   0.000765  -0.000084
     2  C   -0.000012  -0.000010  -0.003154  -0.032259  -0.000945   0.003551
     3  C    0.000297  -0.000105  -0.013021   0.344467  -0.038946  -0.031940
     4  C   -0.008875   0.004330  -0.057262  -0.031393   0.362463   0.357569
     5  C   -0.000028  -0.000006  -0.046707  -0.032048   0.005167  -0.006554
     6  C    0.000129   0.000294   0.366317   0.004242   0.000026  -0.000923
     7  C   -0.000009  -0.000024  -0.047095  -0.000045  -0.000010   0.000118
     8  C   -0.000104   0.000118  -0.012948   0.007208   0.000372  -0.000296
     9  C    0.004353  -0.007677  -0.057096  -0.000041  -0.006020   0.005729
    10  C   -0.044088  -0.044190   0.380393   0.003496  -0.034494  -0.030653
    11  C    0.376775   0.377156  -0.041636  -0.000093  -0.004488  -0.008395
    12  C   -0.064431  -0.064564   0.004380  -0.000002   0.001321   0.000111
    13  C    5.180225  -0.064489  -0.007647   0.000002  -0.000982   0.003500
    14  C   -0.064489   5.179545  -0.008827   0.000001   0.000015   0.000057
    15  C   -0.007647  -0.008827   5.147495   0.000152   0.005660  -0.005016
    16  H    0.000002   0.000001   0.000152   0.605472  -0.002770  -0.003768
    17  H   -0.000982   0.000015   0.005660  -0.002770   0.595593  -0.036358
    18  H    0.003500   0.000057  -0.005016  -0.003768  -0.036358   0.599782
    19  H   -0.000015   0.000000  -0.003552  -0.004132  -0.000058   0.006285
    20  H    0.000000  -0.000000   0.004985  -0.002436  -0.000163  -0.000046
    21  H   -0.000003  -0.000000  -0.038945  -0.000149   0.000018  -0.000101
    22  H   -0.000000   0.000000   0.005070  -0.000083  -0.000004   0.000001
    23  H    0.000001  -0.000017  -0.004009   0.000024   0.000001  -0.000005
    24  H    0.000001  -0.000001   0.000175  -0.000188  -0.000077   0.000024
    25  H    0.000007   0.001211  -0.005084   0.000024  -0.000003  -0.000197
    26  H    0.000072   0.000116   0.005568  -0.000093   0.003885   0.000013
    27  H    0.005727  -0.005403  -0.000005   0.000000  -0.000042  -0.000010
    28  H   -0.006421  -0.005193  -0.000100  -0.000000  -0.000152  -0.000023
    29  H   -0.003810   0.005816   0.000025   0.000008   0.005685  -0.000003
    30  H    0.364774  -0.006425   0.000046  -0.000000  -0.000048  -0.000011
    31  H    0.367290   0.005734   0.000166   0.000004   0.000623   0.001726
    32  H    0.364328  -0.003850   0.001515  -0.000000   0.000142   0.000735
    33  H   -0.005422   0.367001   0.001391   0.000000   0.000000  -0.000013
    34  H   -0.005220   0.364813   0.000298  -0.000000  -0.000001  -0.000003
    35  H    0.005846   0.364488  -0.001084   0.000000  -0.000003  -0.000002
    36  H    0.000111   0.003437   0.361568   0.000017  -0.000164  -0.000046
    37  H    0.001189  -0.000989   0.359811  -0.000064  -0.000044   0.004276
              19         20         21         22         23         24
     1  O   -0.000084   0.000722  -0.000000   0.000731  -0.000083   0.004285
     2  C    0.003558  -0.000902   0.000317  -0.000960   0.003580  -0.032380
     3  C   -0.031200  -0.039478   0.004706  -0.000000  -0.000323   0.007214
     4  C   -0.006319   0.005168   0.000124   0.000041   0.000116  -0.000066
     5  C    0.360325   0.366959  -0.038700  -0.004367   0.005316  -0.000043
     6  C   -0.033586  -0.034933   0.368419  -0.035133  -0.033492   0.004245
     7  C    0.005317  -0.004423  -0.038776   0.367010   0.360377  -0.031937
     8  C   -0.000317  -0.000041   0.004713  -0.039430  -0.031339   0.344440
     9  C    0.000115   0.000047   0.000105   0.005107  -0.005842  -0.031392
    10  C   -0.001117   0.000168   0.004069   0.000165  -0.001097   0.003492
    11  C   -0.000078   0.000010  -0.000089   0.000010  -0.000075  -0.000095
    12  C    0.000001  -0.000000   0.000002  -0.000000  -0.000000   0.000001
    13  C   -0.000015   0.000000  -0.000003  -0.000000   0.000001   0.000001
    14  C    0.000000  -0.000000  -0.000000   0.000000  -0.000017  -0.000001
    15  C   -0.003552   0.004985  -0.038945   0.005070  -0.004009   0.000175
    16  H   -0.004132  -0.002436  -0.000149  -0.000083   0.000024  -0.000188
    17  H   -0.000058  -0.000163   0.000018  -0.000004   0.000001  -0.000077
    18  H    0.006285  -0.000046  -0.000101   0.000001  -0.000005   0.000024
    19  H    0.603907  -0.035615  -0.003366   0.000004  -0.000203   0.000024
    20  H   -0.035615   0.596469  -0.003321   0.004302   0.000005  -0.000083
    21  H   -0.003366  -0.003321   0.631338  -0.003303  -0.003356  -0.000149
    22  H    0.000004   0.004302  -0.003303   0.596622  -0.035637  -0.002458
    23  H   -0.000203   0.000005  -0.003356  -0.035637   0.604029  -0.004146
    24  H    0.000024  -0.000083  -0.000149  -0.002458  -0.004146   0.605473
    25  H   -0.000004   0.000001  -0.000085  -0.000062   0.005685  -0.004075
    26  H    0.000001  -0.000005   0.000018  -0.000161  -0.000075  -0.002407
    27  H    0.000000  -0.000000   0.000000  -0.000000   0.000000   0.000003
    28  H   -0.000000   0.000000  -0.000000  -0.000000  -0.000000  -0.000000
    29  H    0.000000  -0.000000   0.000000  -0.000000   0.000000  -0.000000
    30  H    0.000000   0.000000  -0.000000   0.000000  -0.000000  -0.000000
    31  H   -0.000005  -0.000000   0.000000  -0.000000   0.000000   0.000000
    32  H    0.000006  -0.000000   0.000009  -0.000000   0.000000   0.000000
    33  H    0.000000  -0.000000   0.000005  -0.000000  -0.000004   0.000000
    34  H   -0.000000  -0.000000  -0.000000   0.000000   0.000000  -0.000000
    35  H    0.000000  -0.000000  -0.000000  -0.000000   0.000008   0.000006
    36  H   -0.000066  -0.000166  -0.003425  -0.000031   0.005101  -0.000076
    37  H    0.004609  -0.000048  -0.003753  -0.000167  -0.000051   0.000017
              25         26         27         28         29         30
     1  O   -0.000083   0.000866  -0.000000  -0.000000  -0.000000  -0.000000
     2  C    0.003603  -0.001115  -0.000003   0.000000  -0.000009   0.000000
     3  C   -0.000305   0.000341  -0.000006   0.000000  -0.000123  -0.000004
     4  C    0.005811  -0.006015   0.000167   0.000039   0.001481   0.000299
     5  C    0.000098  -0.000001   0.000000   0.000000  -0.000000   0.000000
     6  C   -0.000737   0.000037  -0.000001   0.000001  -0.000000   0.000000
     7  C   -0.005884   0.005165  -0.000003   0.000000  -0.000001   0.000000
     8  C   -0.030754  -0.040485   0.000024  -0.000004  -0.000033   0.000001
     9  C    0.356196   0.364193   0.001372   0.000296  -0.001144  -0.000101
    10  C   -0.033379  -0.031849  -0.005982   0.004700  -0.005330   0.004718
    11  C   -0.004213  -0.008712  -0.027696  -0.028214  -0.028962  -0.028298
    12  C   -0.000976   0.003607   0.367472   0.364615   0.365182  -0.005181
    13  C    0.000007   0.000072   0.005727  -0.006421  -0.003810   0.364774
    14  C    0.001211   0.000116  -0.005403  -0.005193   0.005816  -0.006425
    15  C   -0.005084   0.005568  -0.000005  -0.000100   0.000025   0.000046
    16  H    0.000024  -0.000093   0.000000  -0.000000   0.000008  -0.000000
    17  H   -0.000003   0.003885  -0.000042  -0.000152   0.005685  -0.000048
    18  H   -0.000197   0.000013  -0.000010  -0.000023  -0.000003  -0.000011
    19  H   -0.000004   0.000001   0.000000  -0.000000   0.000000   0.000000
    20  H    0.000001  -0.000005  -0.000000   0.000000  -0.000000   0.000000
    21  H   -0.000085   0.000018   0.000000  -0.000000   0.000000  -0.000000
    22  H   -0.000062  -0.000161  -0.000000  -0.000000  -0.000000   0.000000
    23  H    0.005685  -0.000075   0.000000  -0.000000   0.000000  -0.000000
    24  H   -0.004075  -0.002407   0.000003  -0.000000  -0.000000  -0.000000
    25  H    0.601888  -0.036205   0.000599  -0.000047   0.000135  -0.000002
    26  H   -0.036205   0.592259   0.001740  -0.000022   0.000684  -0.000002
    27  H    0.000599   0.001740   0.574356  -0.030787  -0.031200  -0.000077
    28  H   -0.000047  -0.000022  -0.030787   0.582295  -0.029868   0.004514
    29  H    0.000135   0.000684  -0.031200  -0.029868   0.573782  -0.000149
    30  H   -0.000002  -0.000002  -0.000077   0.004514  -0.000149   0.582244
    31  H   -0.000000  -0.000013   0.000004  -0.000025   0.003403  -0.030762
    32  H   -0.000004  -0.000001  -0.000194   0.000037  -0.000076  -0.030015
    33  H   -0.000033  -0.000008   0.000005  -0.000076  -0.000193  -0.000030
    34  H   -0.000140  -0.000022  -0.000030   0.004509   0.000035   0.004521
    35  H    0.005656   0.000013   0.003436  -0.000148  -0.000075   0.000034
    36  H    0.004241  -0.000037  -0.000012  -0.000003  -0.000000  -0.000024
    37  H   -0.000054  -0.000164   0.000000  -0.000002  -0.000004  -0.000147
              31         32         33         34         35         36
     1  O    0.000000   0.000000  -0.000000  -0.000000  -0.000000   0.000000
     2  C   -0.000004  -0.000002   0.000000   0.000000  -0.000004   0.000146
     3  C    0.000014  -0.000033  -0.000001   0.000001  -0.000001  -0.000053
     4  C    0.001344  -0.001108  -0.000005  -0.000099   0.000021   0.005701
     5  C    0.000004   0.000004  -0.000002   0.000000  -0.000001   0.005183
     6  C   -0.000004  -0.000131   0.000007  -0.000004  -0.000036  -0.036403
     7  C    0.000000  -0.000000   0.000003   0.000000   0.000004  -0.004171
     8  C   -0.000001   0.000001  -0.000003   0.000000  -0.000123  -0.001274
     9  C   -0.000004   0.000021   0.000158   0.000049   0.001498  -0.005174
    10  C   -0.005981  -0.005354  -0.005971   0.004711  -0.005373  -0.032974
    11  C   -0.027594  -0.028990  -0.027526  -0.028371  -0.028916  -0.008563
    12  C   -0.005394   0.005843   0.005736  -0.006332  -0.003862   0.000070
    13  C    0.367290   0.364328  -0.005422  -0.005220   0.005846   0.000111
    14  C    0.005734  -0.003850   0.367001   0.364813   0.364488   0.003437
    15  C    0.000166   0.001515   0.001391   0.000298  -0.001084   0.361568
    16  H    0.000004  -0.000000   0.000000  -0.000000   0.000000   0.000017
    17  H    0.000623   0.000142   0.000000  -0.000001  -0.000003  -0.000164
    18  H    0.001726   0.000735  -0.000013  -0.000003  -0.000002  -0.000046
    19  H   -0.000005   0.000006   0.000000  -0.000000   0.000000  -0.000066
    20  H   -0.000000  -0.000000  -0.000000  -0.000000  -0.000000  -0.000166
    21  H    0.000000   0.000009   0.000005  -0.000000  -0.000000  -0.003425
    22  H   -0.000000  -0.000000  -0.000000   0.000000  -0.000000  -0.000031
    23  H    0.000000   0.000000  -0.000004   0.000000   0.000008   0.005101
    24  H    0.000000   0.000000   0.000000  -0.000000   0.000006  -0.000076
    25  H   -0.000000  -0.000004  -0.000033  -0.000140   0.005656   0.004241
    26  H   -0.000013  -0.000001  -0.000008  -0.000022   0.000013  -0.000037
    27  H    0.000004  -0.000194   0.000005  -0.000030   0.003436  -0.000012
    28  H   -0.000025   0.000037  -0.000076   0.004509  -0.000148  -0.000003
    29  H    0.003403  -0.000076  -0.000193   0.000035  -0.000075  -0.000000
    30  H   -0.030762  -0.030015  -0.000030   0.004521   0.000034  -0.000024
    31  H    0.575077  -0.031452   0.000003  -0.000074  -0.000194  -0.000007
    32  H   -0.031452   0.577386   0.003427  -0.000147  -0.000077   0.000024
    33  H    0.000003   0.003427   0.576013  -0.030853  -0.031493   0.001813
    34  H   -0.000074  -0.000147  -0.030853   0.582223  -0.029971  -0.000018
    35  H   -0.000194  -0.000077  -0.031493  -0.029971   0.577320   0.000764
    36  H   -0.000007   0.000024   0.001813  -0.000018   0.000764   0.605942
    37  H   -0.000032   0.005732   0.000646  -0.000049   0.000144  -0.036193
              37
     1  O    0.000000
     2  C    0.000139
     3  C   -0.001106
     4  C   -0.005248
     5  C   -0.003622
     6  C   -0.035125
     7  C    0.005197
     8  C   -0.000068
     9  C    0.005776
    10  C   -0.035774
    11  C   -0.004349
    12  C    0.000014
    13  C    0.001189
    14  C   -0.000989
    15  C    0.359811
    16  H   -0.000064
    17  H   -0.000044
    18  H    0.004276
    19  H    0.004609
    20  H   -0.000048
    21  H   -0.003753
    22  H   -0.000167
    23  H   -0.000051
    24  H    0.000017
    25  H   -0.000054
    26  H   -0.000164
    27  H    0.000000
    28  H   -0.000002
    29  H   -0.000004
    30  H   -0.000147
    31  H   -0.000032
    32  H    0.005732
    33  H    0.000646
    34  H   -0.000049
    35  H    0.000144
    36  H   -0.036193
    37  H    0.609057
 Mulliken charges:
               1
     1  O   -0.462662
     2  C    0.455092
     3  C   -0.168363
     4  C   -0.306176
     5  C   -0.278739
     6  C   -0.096270
     7  C   -0.278577
     8  C   -0.167748
     9  C   -0.307850
    10  C    0.100374
    11  C    0.107607
    12  C   -0.463944
    13  C   -0.463074
    14  C   -0.462362
    15  C   -0.291796
    16  H    0.140199
    17  H    0.144039
    18  H    0.140972
    19  H    0.135567
    20  H    0.142825
    21  H    0.123680
    22  H    0.142733
    23  H    0.135512
    24  H    0.140174
    25  H    0.137173
    26  H    0.148814
    27  H    0.146544
    28  H    0.140079
    29  H    0.144745
    30  H    0.140125
    31  H    0.146155
    32  H    0.142224
    33  H    0.145426
    34  H    0.140174
    35  H    0.142124
    36  H    0.134760
    37  H    0.130444
 Sum of Mulliken charges =  -0.00000
 Mulliken charges with hydrogens summed into heavy atoms:
               1
     1  O   -0.462662
     2  C    0.455092
     3  C   -0.028164
     4  C   -0.021164
     5  C   -0.000347
     6  C    0.027410
     7  C   -0.000332
     8  C   -0.027574
     9  C   -0.021863
    10  C    0.100374
    11  C    0.107607
    12  C   -0.032575
    13  C   -0.034570
    14  C   -0.034638
    15  C   -0.026592
 APT charges:
               1
     1  O   -0.641599
     2  C    0.686638
     3  C   -0.043171
     4  C    0.080903
     5  C    0.113222
     6  C    0.109682
     7  C    0.112689
     8  C   -0.041712
     9  C    0.078813
    10  C    0.051825
    11  C    0.140928
    12  C    0.022403
    13  C    0.023584
    14  C    0.023556
    15  C    0.052491
    16  H   -0.055486
    17  H   -0.032092
    18  H   -0.035093
    19  H   -0.046331
    20  H   -0.044931
    21  H   -0.076959
    22  H   -0.045023
    23  H   -0.046377
    24  H   -0.055540
    25  H   -0.038181
    26  H   -0.028159
    27  H   -0.016582
    28  H   -0.031063
    29  H   -0.013805
    30  H   -0.031318
    31  H   -0.017103
    32  H   -0.015213
    33  H   -0.017324
    34  H   -0.031147
    35  H   -0.015298
    36  H   -0.036888
    37  H   -0.040338
 Sum of APT charges =   0.00000
 APT charges with hydrogens summed into heavy atoms:
               1
     1  O   -0.641599
     2  C    0.686638
     3  C   -0.098657
     4  C    0.013718
     5  C    0.021960
     6  C    0.032723
     7  C    0.021289
     8  C   -0.097251
     9  C    0.012473
    10  C    0.051825
    11  C    0.140928
    12  C   -0.039046
    13  C   -0.040050
    14  C   -0.040213
    15  C   -0.024736
 Electronic spatial extent (au):  <R**2>=           2908.0753
 Charge=             -0.0000 electrons
 Dipole moment (field-independent basis, Debye):
    X=              2.3584    Y=              2.3189    Z=              0.0029  Tot=              3.3075
 Quadrupole moment (field-independent basis, Debye-Ang):
   XX=           -101.5208   YY=            -97.3494   ZZ=            -91.0022
   XY=             -8.7242   XZ=             -0.0027   YZ=              0.0013
 Traceless Quadrupole moment (field-independent basis, Debye-Ang):
   XX=             -4.8967   YY=             -0.7252   ZZ=              5.6219
   XY=             -8.7242   XZ=             -0.0027   YZ=              0.0013
 Octapole moment (field-independent basis, Debye-Ang**2):
  XXX=             21.5062  YYY=              5.5337  ZZZ=             -0.7735  XYY=             12.5588
  XXY=             25.3730  XXZ=              0.0395  XZZ=             -7.3630  YZZ=             -3.0166
  YYZ=              0.7621  XYZ=              0.1015
 Hexadecapole moment (field-independent basis, Debye-Ang**3):
 XXXX=          -2408.7390 YYYY=           -867.0230 ZZZZ=           -714.5256 XXXY=            -77.3145
 XXXZ=              0.1129 YYYX=            -13.6342 YYYZ=             -0.4130 ZZZX=             -1.7558
 ZZZY=              0.1607 XXYY=           -593.1162 XXZZ=           -514.5620 YYZZ=           -259.3660
 XXYZ=              0.4653 YYXZ=              1.6618 ZZXY=              7.2854
 N-N= 1.127092655055D+03 E-N=-3.695254659752D+03  KE= 6.159818643125D+02
  Exact polarizability: 153.456   1.826 129.977   0.020   0.001 127.298
 Approx polarizability: 205.417  11.166 201.019   0.026   0.023 193.407
 Calling FoFJK, ICntrl=    100127 FMM=F ISym2X=0 I1Cent= 0 IOpClX= 0 NMat=1 NMatS=1 NMatT=0.
 Full mass-weighted force constant matrix:
 Low frequencies ---   -0.0006   -0.0006    0.0007    6.2263    7.5515   13.5093
 Low frequencies ---   64.2221   87.6257  174.5366
 Diagonal vibrational polarizability:
        9.3460870       7.2526488       5.0646713
 Harmonic frequencies (cm**-1), IR intensities (KM/Mole), Raman scattering
 activities (A**4/AMU), depolarization ratios for plane and unpolarized
 incident light, reduced masses (AMU), force constants (mDyne/A),
 and normal coordinates:
                      1                      2                      3
                      A                      A                      A
 Frequencies --     64.2049                87.6256               174.5345
 Red. masses --      2.6635                 8.4229                 2.6707
 Frc consts  --      0.0065                 0.0381                 0.0479
 IR Inten    --      0.1517                 3.2342                 0.0675
  Atom  AN      X      Y      Z        X      Y      Z        X      Y      Z
     1   8    -0.00   0.00  -0.08     0.47  -0.38  -0.00     0.00   0.00  -0.05
     2   6    -0.00   0.00  -0.04     0.08  -0.01  -0.00     0.00  -0.00  -0.02
     3   6    -0.00  -0.05  -0.02    -0.06   0.12   0.00    -0.04   0.00   0.01
     4   6    -0.00  -0.05  -0.02    -0.06   0.09   0.02    -0.02   0.05   0.11
     5   6    -0.01  -0.05   0.04    -0.03   0.11  -0.01    -0.12  -0.01  -0.06
     6   6    -0.00  -0.00   0.07     0.01   0.10   0.00    -0.00  -0.00   0.00
     7   6     0.00   0.05   0.04    -0.03   0.12   0.01     0.12   0.00  -0.06
     8   6     0.00   0.05  -0.02    -0.06   0.12  -0.00     0.05  -0.01   0.01
     9   6     0.00   0.05  -0.02    -0.06   0.09  -0.02     0.03  -0.05   0.12
    10   6     0.00  -0.00   0.01    -0.05   0.04  -0.00     0.00   0.00   0.10
    11   6     0.00   0.00  -0.00    -0.06  -0.06  -0.00    -0.00   0.00  -0.01
    12   6     0.00  -0.03   0.18    -0.17  -0.09   0.00    -0.03   0.00  -0.08
    13   6     0.04   0.18  -0.07    -0.04  -0.10  -0.00     0.13  -0.02  -0.08
    14   6    -0.02  -0.15  -0.13    -0.01  -0.11  -0.00    -0.11   0.02  -0.07
    15   6    -0.00   0.00   0.07     0.01   0.06   0.00    -0.00   0.00   0.13
    16   1    -0.01  -0.08  -0.04    -0.06   0.12   0.00    -0.08   0.01  -0.01
    17   1    -0.01  -0.05  -0.07    -0.09   0.09   0.05     0.00   0.06   0.19
    18   1    -0.00  -0.09  -0.00    -0.05   0.11   0.00    -0.08   0.12   0.10
    19   1    -0.01  -0.09   0.06    -0.04   0.10  -0.00    -0.26   0.04  -0.02
    20   1    -0.01  -0.05   0.05    -0.02   0.15  -0.04    -0.13  -0.07  -0.19
    21   1    -0.00  -0.00   0.11     0.04   0.11   0.00    -0.01  -0.00  -0.01
    22   1     0.00   0.05   0.05    -0.02   0.15   0.04     0.13   0.06  -0.20
    23   1     0.00   0.08   0.06    -0.04   0.11   0.00     0.26  -0.04  -0.02
    24   1     0.00   0.08  -0.04    -0.07   0.12  -0.00     0.09  -0.02  -0.01
    25   1    -0.00   0.09  -0.00    -0.06   0.11  -0.00     0.09  -0.14   0.11
    26   1     0.01   0.05  -0.07    -0.09   0.09  -0.05    -0.01  -0.06   0.22
    27   1    -0.09  -0.19   0.26    -0.17  -0.07  -0.00    -0.07   0.04  -0.08
    28   1     0.02   0.01   0.10    -0.18  -0.17   0.03    -0.03  -0.02  -0.12
    29   1     0.08   0.07   0.33    -0.24  -0.05  -0.01    -0.02  -0.01  -0.08
    30   1     0.03   0.09  -0.07    -0.04  -0.17  -0.00     0.13  -0.14  -0.15
    31   1    -0.00   0.33   0.04    -0.08  -0.08  -0.00     0.11   0.05  -0.03
    32   1     0.11   0.24  -0.24     0.03  -0.08  -0.00     0.26   0.02  -0.11
    33   1    -0.08  -0.12  -0.30     0.04  -0.11  -0.02    -0.01   0.01  -0.01
    34   1    -0.01  -0.10  -0.06    -0.02  -0.17   0.01    -0.13  -0.04  -0.23
    35   1     0.01  -0.33  -0.10    -0.00  -0.11  -0.01    -0.25   0.10  -0.03
    36   1     0.00   0.04   0.09     0.02   0.05   0.00     0.07   0.06   0.19
    37   1    -0.01  -0.04   0.09     0.02   0.04   0.01    -0.07  -0.05   0.19
                      4                      5                      6
                      A                      A                      A
 Frequencies --    204.9480               243.8602               266.5209
 Red. masses --      2.6584                 1.1095                 2.2147
 Frc consts  --      0.0658                 0.0389                 0.0927
 IR Inten    --      0.1899                 0.0542                 0.5852
  Atom  AN      X      Y      Z        X      Y      Z        X      Y      Z
     1   8     0.04  -0.05  -0.01     0.00   0.01  -0.01    -0.00  -0.01   0.14
     2   6    -0.05   0.04  -0.00     0.02  -0.00  -0.00    -0.02   0.00   0.05
     3   6    -0.06   0.04  -0.00     0.02  -0.01   0.00    -0.02   0.05   0.00
     4   6    -0.06  -0.11  -0.01     0.01  -0.00   0.00    -0.04  -0.11  -0.08
     5   6     0.08   0.07   0.01     0.02  -0.01   0.01    -0.05   0.04  -0.06
     6   6     0.09   0.02  -0.00     0.01  -0.00   0.01    -0.00   0.00  -0.04
     7   6     0.07   0.06  -0.01     0.01  -0.00   0.00     0.05  -0.02  -0.06
     8   6    -0.05   0.04  -0.00     0.02  -0.00  -0.00    -0.01  -0.04   0.01
     9   6    -0.06  -0.11   0.02     0.01   0.00  -0.00     0.01   0.10  -0.08
    10   6    -0.03  -0.10   0.01     0.00   0.00   0.00    -0.00  -0.01  -0.01
    11   6    -0.02  -0.00   0.00    -0.02   0.00  -0.00     0.01   0.00  -0.01
    12   6     0.13   0.04   0.01    -0.04  -0.01   0.03     0.04   0.01  -0.02
    13   6    -0.06   0.06   0.00    -0.03   0.04  -0.01    -0.00   0.01  -0.01
    14   6    -0.12   0.08  -0.00    -0.03  -0.02  -0.03     0.03  -0.01  -0.01
    15   6     0.05  -0.09  -0.01     0.01   0.00   0.01    -0.00  -0.00   0.15
    16   1    -0.09   0.07  -0.00     0.01  -0.01  -0.00    -0.01   0.08   0.03
    17   1    -0.17  -0.14  -0.10     0.01  -0.00  -0.01    -0.19  -0.15  -0.25
    18   1    -0.01  -0.22   0.01     0.02  -0.01  -0.00     0.06  -0.31  -0.02
    19   1     0.15   0.03  -0.01     0.02  -0.01   0.01    -0.13   0.10  -0.06
    20   1     0.09   0.16   0.05     0.02  -0.01   0.02    -0.07  -0.02  -0.12
    21   1     0.16   0.04  -0.00     0.00  -0.00   0.01     0.01   0.00  -0.09
    22   1     0.09   0.15  -0.05     0.01  -0.01   0.00     0.06   0.05  -0.13
    23   1     0.14   0.03   0.00     0.01   0.00   0.01     0.13  -0.09  -0.05
    24   1    -0.07   0.07  -0.00     0.01  -0.00  -0.00    -0.02  -0.06   0.03
    25   1    -0.01  -0.20  -0.00     0.01   0.02  -0.00    -0.09   0.29  -0.03
    26   1    -0.15  -0.13   0.08     0.03   0.01  -0.01     0.15   0.12  -0.25
    27   1     0.01  -0.04   0.07     0.27   0.08  -0.07     0.16   0.05  -0.06
    28   1     0.17   0.19  -0.15    -0.10  -0.10   0.38     0.02   0.00   0.10
    29   1     0.33   0.02   0.13    -0.32  -0.02  -0.19    -0.05  -0.02  -0.11
    30   1    -0.05   0.22  -0.02    -0.02   0.36  -0.09    -0.00   0.01   0.00
    31   1     0.05   0.00  -0.01     0.22  -0.14  -0.06    -0.01   0.01  -0.00
    32   1    -0.19   0.02   0.03    -0.29  -0.07   0.14    -0.01   0.01  -0.02
    33   1    -0.08   0.06   0.09     0.22  -0.03   0.10    -0.02  -0.00  -0.06
    34   1    -0.13   0.07  -0.14    -0.10  -0.24  -0.24     0.05   0.03   0.07
    35   1    -0.23   0.18   0.03    -0.23   0.19   0.03     0.10  -0.08  -0.02
    36   1     0.08  -0.13  -0.01     0.02   0.00   0.01     0.15   0.14   0.30
    37   1     0.10  -0.11  -0.02    -0.00   0.00   0.01    -0.16  -0.14   0.31
                      7                      8                      9
                      A                      A                      A
 Frequencies --    270.5000               274.7477               306.4341
 Red. masses --      1.2288                 1.2632                 2.1209
 Frc consts  --      0.0530                 0.0562                 0.1173
 IR Inten    --      0.0254                 0.0583                 0.1467
  Atom  AN      X      Y      Z        X      Y      Z        X      Y      Z
     1   8    -0.01  -0.01   0.00     0.00   0.01   0.01     0.01   0.00  -0.08
     2   6    -0.01  -0.01  -0.00     0.02  -0.00   0.00    -0.01   0.01  -0.02
     3   6    -0.01   0.00  -0.01     0.02   0.01  -0.00    -0.08   0.06   0.00
     4   6    -0.02  -0.04  -0.03     0.01   0.00  -0.01    -0.07  -0.04   0.02
     5   6     0.04   0.01   0.00    -0.02  -0.00  -0.02     0.04   0.09   0.03
     6   6     0.01  -0.00  -0.02    -0.03  -0.00  -0.03    -0.02   0.01  -0.03
     7   6    -0.03  -0.02   0.01    -0.04  -0.02  -0.01    -0.10  -0.07   0.04
     8   6    -0.01  -0.02  -0.00     0.01  -0.00  -0.01     0.05  -0.03   0.00
     9   6     0.00   0.01  -0.02     0.01   0.06  -0.03     0.06   0.05   0.02
    10   6    -0.00   0.00   0.00     0.01   0.02   0.00     0.00  -0.01   0.06
    11   6     0.00   0.01   0.02     0.01  -0.01   0.01     0.02  -0.01   0.04
    12   6    -0.05  -0.00   0.02     0.01  -0.02   0.06     0.06  -0.00  -0.01
    13   6     0.06   0.03  -0.01     0.05  -0.06   0.01     0.13  -0.04  -0.00
    14   6     0.01   0.04   0.04    -0.03   0.00   0.00    -0.08  -0.01  -0.02
    15   6     0.01  -0.00  -0.01    -0.01   0.02   0.00    -0.02  -0.01  -0.02
    16   1    -0.01   0.01  -0.00     0.02   0.01  -0.00    -0.12   0.08  -0.01
    17   1    -0.05  -0.05  -0.08     0.00   0.00  -0.04    -0.15  -0.06  -0.06
    18   1    -0.01  -0.10  -0.00     0.03  -0.02  -0.01    -0.04  -0.14   0.06
    19   1     0.11  -0.01  -0.01    -0.04   0.02  -0.02     0.19   0.06  -0.02
    20   1     0.05   0.06   0.06    -0.02  -0.03  -0.03     0.06   0.20   0.16
    21   1     0.01  -0.00  -0.03    -0.04  -0.00  -0.03    -0.00   0.01  -0.10
    22   1    -0.03  -0.04   0.05    -0.05  -0.04   0.02    -0.13  -0.20   0.19
    23   1    -0.08  -0.02  -0.01    -0.08  -0.01  -0.03    -0.29  -0.01  -0.02
    24   1     0.00  -0.02  -0.00     0.02  -0.02  -0.00     0.09  -0.06  -0.00
    25   1    -0.02   0.04  -0.01    -0.02   0.13  -0.01     0.05   0.15   0.06
    26   1     0.02   0.02  -0.04     0.05   0.07  -0.09     0.11   0.06  -0.08
    27   1    -0.05   0.01   0.02    -0.33  -0.20   0.20     0.24   0.08  -0.08
    28   1    -0.06  -0.05   0.03     0.07   0.08  -0.31     0.03  -0.01   0.18
    29   1    -0.09   0.02   0.02     0.31   0.06   0.35    -0.07  -0.06  -0.15
    30   1     0.05  -0.33   0.03     0.05   0.16  -0.10     0.13  -0.00  -0.12
    31   1    -0.18   0.27   0.10     0.26  -0.25  -0.06     0.23  -0.09  -0.01
    32   1     0.37   0.17  -0.22    -0.12  -0.16   0.19     0.13  -0.06   0.08
    33   1     0.31   0.01   0.29     0.13  -0.01   0.13    -0.29   0.01  -0.15
    34   1    -0.07  -0.21  -0.21    -0.07  -0.12  -0.18    -0.02   0.19   0.07
    35   1    -0.21   0.37   0.08    -0.19   0.18   0.04     0.01  -0.22  -0.01
    36   1     0.03  -0.02  -0.01     0.00   0.03   0.02    -0.03  -0.08  -0.06
    37   1     0.00   0.00  -0.01    -0.05   0.02   0.02    -0.02   0.07  -0.06
                     10                     11                     12
                      A                      A                      A
 Frequencies --    315.7495               337.0633               352.1270
 Red. masses --      2.8719                 2.0366                 2.2198
 Frc consts  --      0.1687                 0.1363                 0.1622
 IR Inten    --      0.2180                 0.0764                 0.1843
  Atom  AN      X      Y      Z        X      Y      Z        X      Y      Z
     1   8    -0.04  -0.06  -0.01     0.03   0.05   0.01     0.01   0.01   0.07
     2   6    -0.09  -0.01  -0.00     0.06   0.02   0.00     0.00   0.02   0.00
     3   6    -0.07   0.01  -0.01     0.03   0.01   0.01     0.06  -0.03  -0.02
     4   6    -0.03   0.06   0.01     0.02   0.06   0.03     0.05  -0.01  -0.03
     5   6    -0.12   0.00  -0.03    -0.04  -0.00  -0.00    -0.03  -0.06  -0.04
     6   6    -0.02   0.02   0.02    -0.01  -0.01   0.01    -0.01  -0.00  -0.00
     7   6    -0.08   0.06   0.04    -0.02  -0.00   0.02     0.01   0.08  -0.05
     8   6    -0.10   0.05   0.02     0.04   0.01  -0.01    -0.07   0.06  -0.03
     9   6    -0.07  -0.01   0.01     0.03   0.04  -0.06    -0.05  -0.01  -0.05
    10   6     0.01  -0.02  -0.02     0.00  -0.02  -0.02    -0.00  -0.03  -0.03
    11   6     0.09  -0.03  -0.02    -0.02  -0.05  -0.01     0.00  -0.01   0.02
    12   6     0.21  -0.01  -0.00     0.15  -0.03   0.02    -0.01  -0.03   0.13
    13   6     0.10   0.00  -0.02    -0.12  -0.07   0.03     0.14  -0.05  -0.01
    14   6     0.17  -0.05   0.01    -0.14  -0.03  -0.05    -0.10   0.09   0.06
    15   6    -0.00  -0.02  -0.01    -0.00  -0.01   0.00    -0.01  -0.03  -0.05
    16   1    -0.04   0.01   0.00     0.03  -0.01  -0.01     0.07  -0.05  -0.02
    17   1    -0.01   0.07   0.11     0.08   0.08   0.15     0.06  -0.01  -0.01
    18   1    -0.07   0.15  -0.01    -0.00   0.20  -0.03     0.07   0.02  -0.05
    19   1    -0.25   0.01   0.03    -0.10   0.02   0.02    -0.12  -0.02  -0.01
    20   1    -0.13  -0.03  -0.16    -0.04  -0.06  -0.06    -0.04  -0.15  -0.11
    21   1     0.02   0.03   0.05     0.00  -0.00   0.01     0.01   0.00   0.06
    22   1    -0.08   0.07   0.10    -0.02  -0.05   0.06     0.02   0.15  -0.11
    23   1    -0.13   0.06   0.02    -0.07   0.03   0.01     0.10   0.06  -0.01
    24   1    -0.10   0.08  -0.00     0.01   0.00   0.00    -0.10   0.07  -0.02
    25   1    -0.08  -0.05  -0.01     0.00   0.16  -0.02    -0.05  -0.03  -0.05
    26   1    -0.11  -0.03   0.03     0.09   0.06  -0.17    -0.10  -0.02  -0.05
    27   1     0.39   0.01  -0.05     0.31  -0.05  -0.01     0.20  -0.06   0.09
    28   1     0.20   0.07   0.16     0.15   0.11   0.15    -0.06  -0.10   0.40
    29   1     0.15  -0.07  -0.10     0.14  -0.10  -0.05    -0.22   0.04   0.03
    30   1     0.10   0.06  -0.06    -0.11  -0.34   0.21     0.13  -0.12  -0.15
    31   1     0.16  -0.02  -0.02    -0.40   0.08   0.04     0.20  -0.06   0.01
    32   1     0.06  -0.02  -0.01     0.08   0.02  -0.11     0.24  -0.04   0.05
    33   1     0.40  -0.05   0.11    -0.07  -0.03   0.01    -0.35   0.08   0.06
    34   1     0.11  -0.26  -0.08    -0.15  -0.05  -0.24    -0.03   0.34   0.11
    35   1     0.08   0.13   0.01    -0.31   0.04   0.02    -0.01   0.00   0.04
    36   1    -0.02  -0.01  -0.02    -0.02   0.01   0.01    -0.08  -0.05  -0.09
    37   1     0.02  -0.02  -0.02     0.00  -0.02   0.01     0.05  -0.01  -0.10
                     13                     14                     15
                      A                      A                      A
 Frequencies --    372.8919               388.9841               393.3987
 Red. masses --      4.1944                 2.0729                 3.5948
 Frc consts  --      0.3436                 0.1848                 0.3278
 IR Inten    --      0.6626                 0.1082                 0.0697
  Atom  AN      X      Y      Z        X      Y      Z        X      Y      Z
     1   8     0.15   0.16  -0.00    -0.03  -0.01  -0.01    -0.01  -0.00  -0.03
     2   6     0.14   0.15   0.00     0.01  -0.05   0.01    -0.00  -0.01   0.00
     3   6     0.06   0.07   0.06    -0.01  -0.02   0.01    -0.10   0.09   0.01
     4   6     0.03  -0.09   0.05    -0.00   0.04   0.09    -0.08   0.10  -0.08
     5   6    -0.10   0.02   0.04    -0.01  -0.01  -0.07    -0.10   0.09   0.11
     6   6    -0.14  -0.03  -0.00     0.11  -0.02  -0.02     0.02  -0.01   0.13
     7   6    -0.10   0.02  -0.04    -0.02  -0.00   0.04     0.09  -0.09   0.13
     8   6     0.07   0.07  -0.06    -0.02  -0.00   0.01     0.09  -0.09   0.01
     9   6     0.03  -0.09  -0.02    -0.00   0.09  -0.05     0.07  -0.09  -0.11
    10   6    -0.02  -0.12   0.01     0.01  -0.06   0.03     0.00  -0.02  -0.12
    11   6    -0.00  -0.06  -0.01    -0.01  -0.06   0.01    -0.00  -0.01  -0.10
    12   6    -0.02  -0.06  -0.06    -0.04  -0.06  -0.06    -0.04  -0.05   0.09
    13   6    -0.01   0.09  -0.06    -0.01   0.11  -0.04    -0.02  -0.04  -0.11
    14   6     0.07  -0.01   0.08    -0.03   0.03   0.08     0.04   0.13   0.00
    15   6    -0.14  -0.14   0.01     0.09  -0.07  -0.01     0.02  -0.02   0.03
    16   1    -0.01  -0.01  -0.02    -0.05   0.03   0.02    -0.03   0.03   0.01
    17   1    -0.12  -0.12   0.01     0.07   0.06   0.28    -0.12   0.10   0.04
    18   1     0.15  -0.16   0.03    -0.05   0.22   0.02    -0.04   0.18  -0.14
    19   1    -0.16   0.15   0.00    -0.14  -0.00  -0.02    -0.14   0.03   0.15
    20   1    -0.12  -0.13   0.03    -0.01  -0.01  -0.23    -0.09   0.14   0.02
    21   1    -0.04  -0.01  -0.00     0.16  -0.01  -0.01     0.04  -0.00   0.01
    22   1    -0.13  -0.14  -0.02    -0.02   0.02   0.18     0.09  -0.13   0.10
    23   1    -0.17   0.15  -0.01    -0.13  -0.02  -0.02     0.09  -0.04   0.15
    24   1     0.00  -0.01   0.02    -0.02   0.02   0.01     0.01  -0.02   0.01
    25   1     0.16  -0.17   0.00    -0.06   0.35   0.04     0.03  -0.10  -0.14
    26   1    -0.13  -0.12   0.02     0.08   0.11  -0.31     0.12  -0.08  -0.08
    27   1    -0.09  -0.01  -0.06    -0.14   0.00  -0.05    -0.02  -0.25   0.16
    28   1    -0.01  -0.09  -0.14    -0.03  -0.10  -0.16    -0.05  -0.08   0.17
    29   1     0.01  -0.09  -0.06    -0.01  -0.07  -0.05    -0.10   0.13   0.22
    30   1    -0.00   0.19  -0.09    -0.00   0.27  -0.09    -0.02   0.00  -0.12
    31   1     0.08   0.19   0.05     0.13   0.17   0.06     0.02  -0.09  -0.14
    32   1    -0.09   0.11  -0.20    -0.14   0.10  -0.15    -0.04  -0.06  -0.05
    33   1     0.11  -0.02   0.20    -0.13   0.01   0.14    -0.06   0.10   0.15
    34   1     0.06  -0.05   0.13    -0.00   0.13   0.15     0.07   0.22   0.09
    35   1     0.13   0.13   0.03     0.06   0.05   0.03     0.16   0.24  -0.07
    36   1    -0.11  -0.13   0.03     0.09  -0.13  -0.04    -0.06   0.09   0.06
    37   1    -0.16  -0.14   0.02     0.10  -0.04  -0.04     0.10  -0.15   0.06
                     16                     17                     18
                      A                      A                      A
 Frequencies --    426.0200               436.6915               452.6116
 Red. masses --      1.9837                 1.8897                 2.8751
 Frc consts  --      0.2121                 0.2123                 0.3470
 IR Inten    --      0.0816                 0.3273                 4.2251
  Atom  AN      X      Y      Z        X      Y      Z        X      Y      Z
     1   8    -0.00  -0.01  -0.03     0.00   0.01   0.02    -0.01  -0.01   0.13
     2   6    -0.01  -0.00  -0.03     0.03  -0.01  -0.02    -0.01  -0.00  -0.10
     3   6     0.04  -0.00  -0.03     0.03   0.02  -0.05    -0.01   0.02  -0.13
     4   6     0.05   0.04   0.06     0.02  -0.04  -0.03    -0.02   0.11  -0.08
     5   6     0.11   0.02  -0.01    -0.05   0.01  -0.10     0.02   0.01   0.05
     6   6    -0.00  -0.01  -0.07     0.08   0.03  -0.01    -0.01  -0.00   0.05
     7   6    -0.08  -0.02  -0.04    -0.09   0.01   0.10    -0.01  -0.01   0.03
     8   6    -0.06  -0.00  -0.04     0.02   0.01   0.00    -0.00  -0.03  -0.13
     9   6    -0.06  -0.02   0.03     0.01  -0.06   0.03     0.01  -0.08  -0.08
    10   6    -0.01  -0.01   0.01     0.04  -0.02  -0.00    -0.00   0.01  -0.06
    11   6    -0.00  -0.01  -0.06     0.03   0.06  -0.00    -0.00  -0.02   0.11
    12   6     0.02  -0.03   0.06    -0.06   0.06   0.02     0.00   0.01  -0.07
    13   6    -0.04  -0.03  -0.06    -0.02  -0.02   0.05     0.08   0.07   0.08
    14   6     0.03   0.06  -0.00    -0.01   0.02  -0.07    -0.07  -0.09   0.07
    15   6    -0.01  -0.01   0.14     0.06  -0.03   0.03    -0.00   0.01   0.07
    16   1     0.02   0.02  -0.03     0.02   0.04  -0.04     0.00  -0.07  -0.18
    17   1     0.13   0.07   0.22    -0.06  -0.06  -0.10     0.07   0.13   0.08
    18   1    -0.02   0.20   0.01     0.04  -0.13   0.00    -0.07   0.26  -0.13
    19   1     0.30  -0.01  -0.09    -0.30   0.04  -0.01     0.14  -0.10   0.05
    20   1     0.13   0.09   0.18    -0.07  -0.10  -0.34     0.04   0.07   0.16
    21   1     0.00  -0.01  -0.08     0.12   0.04  -0.01    -0.02  -0.00   0.02
    22   1    -0.08  -0.03   0.07    -0.12  -0.12   0.41    -0.01  -0.04   0.08
    23   1    -0.18  -0.01  -0.08    -0.41   0.07  -0.01    -0.06   0.08   0.05
    24   1    -0.04  -0.03  -0.03     0.02   0.05  -0.02    -0.00   0.06  -0.18
    25   1    -0.01  -0.08   0.02     0.06  -0.21  -0.01     0.06  -0.21  -0.12
    26   1    -0.09  -0.02   0.09    -0.09  -0.08   0.16    -0.04  -0.09   0.06
    27   1     0.09  -0.14   0.07    -0.09   0.06   0.03    -0.08   0.19  -0.11
    28   1     0.01  -0.01   0.16    -0.07  -0.04   0.02     0.02   0.02  -0.21
    29   1    -0.03   0.05   0.09    -0.12   0.11   0.03     0.08  -0.14  -0.15
    30   1    -0.03  -0.03  -0.04    -0.02  -0.07   0.12     0.07   0.14  -0.04
    31   1    -0.05  -0.05  -0.08    -0.10  -0.07  -0.02     0.21   0.11   0.16
    32   1    -0.04  -0.04  -0.04     0.01  -0.03   0.12     0.05   0.07   0.04
    33   1    -0.04   0.05   0.06    -0.02   0.04  -0.15    -0.07  -0.08  -0.00
    34   1     0.05   0.12   0.08    -0.01   0.03  -0.09    -0.08  -0.08  -0.00
    35   1     0.12   0.10  -0.05    -0.05  -0.06  -0.03    -0.15  -0.16   0.12
    36   1     0.22   0.17   0.34     0.12   0.00   0.08     0.05   0.18   0.18
    37   1    -0.23  -0.18   0.36     0.04  -0.09   0.08    -0.06  -0.14   0.19
                     19                     20                     21
                      A                      A                      A
 Frequencies --    461.6572               482.5732               536.7783
 Red. masses --      2.5059                 3.3412                 2.4870
 Frc consts  --      0.3147                 0.4584                 0.4222
 IR Inten    --      0.1331                 6.9469                 0.1261
  Atom  AN      X      Y      Z        X      Y      Z        X      Y      Z
     1   8     0.02   0.02   0.00    -0.00  -0.00   0.22    -0.02  -0.04  -0.00
     2   6     0.01   0.03  -0.00    -0.00  -0.00  -0.13    -0.07   0.02   0.00
     3   6    -0.03   0.00   0.03    -0.06  -0.03  -0.13    -0.02   0.02  -0.01
     4   6    -0.02   0.02   0.09    -0.08  -0.05   0.10     0.02   0.02  -0.02
     5   6     0.01   0.00   0.04     0.01  -0.05   0.01    -0.03   0.02   0.04
     6   6     0.01  -0.07   0.00    -0.00  -0.01   0.04    -0.05  -0.03  -0.00
     7   6     0.02   0.00  -0.03    -0.00   0.05  -0.01    -0.02   0.02  -0.04
     8   6    -0.03  -0.00  -0.04     0.06   0.03  -0.14    -0.02   0.02   0.01
     9   6    -0.02  -0.00  -0.11     0.08   0.06   0.08     0.02   0.02   0.02
    10   6    -0.03  -0.10  -0.01    -0.00  -0.00   0.12     0.10  -0.02  -0.00
    11   6     0.01   0.12   0.02     0.00   0.00  -0.07     0.21  -0.03   0.00
    12   6    -0.06   0.16   0.02     0.01  -0.02   0.02    -0.02  -0.13  -0.02
    13   6     0.04  -0.04   0.08    -0.05  -0.03  -0.09     0.00   0.05   0.13
    14   6     0.06  -0.01  -0.09     0.06   0.05  -0.05     0.01   0.08  -0.10
    15   6    -0.02  -0.16  -0.00    -0.00  -0.01  -0.03    -0.02  -0.04   0.00
    16   1    -0.07  -0.02   0.00    -0.21  -0.10  -0.25     0.03  -0.00   0.01
    17   1     0.01   0.04   0.32    -0.09  -0.05   0.10    -0.02   0.01   0.03
    18   1    -0.05   0.23  -0.00    -0.21  -0.06   0.17    -0.03   0.03  -0.00
    19   1     0.09   0.00   0.00     0.08  -0.16   0.03     0.08   0.01  -0.00
    20   1     0.02   0.06   0.10     0.02   0.02   0.08    -0.02   0.05   0.14
    21   1     0.09  -0.05   0.00    -0.00  -0.01   0.07     0.00  -0.02  -0.00
    22   1     0.03   0.06  -0.09    -0.01  -0.00   0.02    -0.02   0.05  -0.14
    23   1     0.10   0.01   0.01    -0.03   0.15   0.03     0.08   0.01   0.00
    24   1    -0.08  -0.01  -0.01     0.20   0.10  -0.25     0.03  -0.00  -0.01
    25   1    -0.06   0.21  -0.03     0.21   0.11   0.17    -0.03   0.03  -0.00
    26   1     0.01   0.01  -0.33     0.09   0.06   0.04    -0.02   0.02  -0.04
    27   1    -0.11   0.18   0.03     0.04  -0.14   0.05    -0.18  -0.06  -0.01
[...]
 -0.00028153,0.00031808,-0.00042547,0.00052232,-0.00007852,-0.00006764,
 -0.00012426,-0.00005246,0.00007167,-0.00004368,-0.00012471,-0.00011831
 ,0.00025575,0.00022077,-0.00039533,-0.00139748,-0.01458138,-0.00573534
 ,-0.01620734,-0.00308105,0.00406934,0.00123517,0.00069905,-0.00154916,
 0.00026816,-0.17245645,-0.03443917,-0.12698638,-0.00038039,0.00092056,
 -0.00027447,0.00000654,-0.00000173,0.00004513,0.00020594,-0.00013940,0
 .00003197,-0.00000348,0.00005264,0.00000064,-0.00000184,0.00001164,0.0
 0001816,0.00011295,-0.00009972,0.00001175,-0.00002167,0.00001435,0.000
 02756,0.00008835,0.00004765,0.00001819,0.00000281,-0.00003538,0.000027
 30,0.00000912,0.00000460,0.00004441,-0.00006328,0.00012032,-0.00012972
 ,0.00020455,0.00007261,0.00002750,0.00026685,0.00004107,0.00039093,0.0
 0022588,0.00007683,-0.00021463,-0.00061082,0.00007196,-0.00159370,0.00
 007379,0.00019127,0.00004013,0.00003143,-0.00009461,0.00033323,0.00053
 677,0.00072207,0.00022824,0.18540548,-0.00004431,0.00003837,-0.0000261
 9,0.00001520,-0.00009425,0.00007987,-0.00004310,0.00000595,-0.00002359
 ,0.00002009,0.00001611,0.00016573,0.00003447,0.00004452,-0.00008106,0.
 00005717,-0.00028787,0.00001423,-0.00005810,0.00003444,0.00002343,-0.0
 0006887,0.00016208,-0.00003314,-0.00002890,-0.00029440,0.00018573,-0.0
 0062045,0.00035803,0.00021798,0.01477419,0.00460108,0.01823927,0.00340
 139,-0.00375725,-0.00044272,0.00061526,0.00147862,0.00081227,-0.035316
 55,-0.05994833,-0.03559780,0.00015277,0.00091471,-0.00070322,0.0000035
 9,0.00000582,0.00000889,-0.00006099,0.00002466,0.00002288,-0.00000231,
 -0.00001827,-0.00002402,-0.00000137,-0.00000435,-0.00000253,0.00001315
 ,-0.00002331,-0.00000549,0.00000311,0.00001716,0.00001292,0.00000074,-
 0.00001788,0.00000750,0.00000242,-0.00002103,0.00000358,0.00000569,-0.
 00000153,-0.00000071,-0.00006320,0.00022042,-0.00013788,-0.00002335,-0
 .00005014,-0.00000309,0.00023083,0.00024030,-0.00003893,-0.00014886,-0
 .00009911,-0.00014041,0.00115499,0.00039784,0.00136724,-0.00011998,-0.
 00002110,0.00010763,-0.00015379,0.00033949,-0.00017042,-0.00009147,-0.
 00031611,-0.00033071,0.03592211,0.06205571,-0.00003295,-0.00000447,0.0
 0000595,0.00005365,0.00001073,-0.00000328,-0.00001916,0.00006450,-0.00
 002268,-0.00016292,-0.00015879,0.00003493,0.00003127,-0.00000236,-0.00
 008494,0.00027564,-0.00024154,0.00015960,-0.00002082,-0.00000487,0.000
 00335,0.00003292,-0.00001291,-0.00000703,0.00008503,0.00011358,-0.0001
 1135,-0.00000382,0.00052109,-0.00008100,0.00017907,0.00058008,-0.00090
 536,-0.00078945,0.00122899,0.00067092,-0.00000121,-0.00042092,0.000362
 58,-0.12807750,-0.03548072,-0.17941088,0.00110521,0.00015781,-0.001689
 87,-0.00002063,0.00000204,0.00003266,0.00002559,-0.00000411,0.00000278
 ,0.00001250,0.00003084,0.00001639,0.00000589,0.00000352,-0.00000251,0.
 00002310,-0.00002428,0.00000926,-0.00002125,0.00000155,0.00004874,0.00
 000230,0.00000060,0.00001087,0.00000568,0.00000076,-0.00000461,-0.0000
 0749,-0.00000309,0.00001375,0.00002257,-0.00004414,0.00004451,0.000033
 01,0.00001060,0.00001058,0.00021971,-0.00010664,-0.00003037,0.00012889
 ,-0.00018994,0.00050665,-0.00038094,-0.00012066,0.00000940,-0.00008986
 ,0.00003000,-0.00033984,0.00029316,0.00008776,0.00009865,0.00003551,0.
 00049291,0.00031656,0.14010507,0.03965718,0.19702248,-0.00018354,-0.00
 002136,-0.00003893,0.00022088,0.00004918,0.00006285,-0.00027228,0.0004
 7679,-0.00017583,-0.00050616,-0.00056552,0.00145437,0.00001410,0.00001
 098,-0.00018264,0.00019708,-0.00019988,0.00016068,-0.00001277,-0.00000
 542,-0.00007952,-0.00007467,0.00003561,-0.00008959,0.00035813,0.000245
 60,0.00010376,-0.00217278,0.00373536,-0.00194885,-0.01334943,0.0012756
 1,0.02062119,0.00016557,-0.00035017,0.00155401,0.00012198,-0.00131442,
 -0.00003499,-0.10493967,0.00422546,0.10768867,-0.00006759,0.00036186,-
 0.00095105,-0.00011457,-0.00000427,0.00019259,-0.00006548,-0.00002355,
 -0.00006765,0.00004383,0.00009517,0.00000575,0.00001502,0.00001291,0.0
 0000344,0.00003410,-0.00003523,0.00002896,-0.00001710,-0.00000092,0.00
 006630,0.00000847,0.00001492,0.00002524,0.00000909,-0.00000847,-0.0000
 0268,-0.00003247,-0.00002082,0.00006144,0.00008446,0.00016535,-0.00007
 204,-0.00015766,0.00003883,-0.00001381,-0.00024817,-0.00016150,0.00000
 834,-0.00009534,0.00050694,-0.00095311,0.00050034,-0.00022441,-0.00018
 855,0.00072432,0.00016920,-0.00026335,0.00004019,-0.00012932,-0.000268
 05,0.00006867,-0.00006338,-0.00010089,0.01211654,-0.00048154,-0.020481
 51,0.11420690,0.00002136,0.00012139,0.00000022,-0.00010333,-0.00031673
 ,0.00008715,0.00029585,-0.00036405,0.00005833,0.00071233,0.00057233,-0
 .00125803,0.00002194,0.00000352,0.00007485,-0.00007813,0.00002065,-0.0
 0000341,0.00001011,-0.00007545,0.00001025,-0.00002235,0.00033622,-0.00
 002032,-0.00005343,-0.00060787,0.00011920,0.00205297,-0.00369098,0.001
 33015,0.01171281,-0.00247138,-0.02096674,-0.00039245,0.00079501,-0.000
 90977,0.00090357,0.00084693,-0.00146298,0.00382423,-0.04856068,-0.0094
 9546,0.00042358,-0.00013318,0.00044893,0.00010951,0.00001057,-0.000160
 71,0.00002242,0.00001373,0.00005048,-0.00006413,0.00001040,-0.00002312
 ,-0.00000719,-0.00000066,-0.00000070,-0.00001405,0.00000627,-0.0000200
 8,0.00001464,0.00001311,-0.00003664,0.00000163,0.00001903,0.00000993,-
 0.00000929,0.00003490,-0.00002440,0.00002878,0.00000657,-0.00002994,-0
 .00000275,0.00052958,-0.00007433,-0.00004900,0.00012305,-0.00000624,-0
 .00012483,-0.00001164,0.00024894,0.00008359,0.00009596,0.00057375,-0.0
 0036544,-0.00011237,-0.00014081,-0.00033136,-0.00065239,0.00050455,-0.
 00022056,0.00029109,0.00027174,0.00004855,-0.00006458,0.00008066,0.003
 32413,-0.00099566,-0.00623707,-0.00810967,0.05179902,0.00015437,-0.000
 02344,0.00000692,-0.00019054,0.00007326,-0.00000918,-0.00001834,-0.000
 04029,0.00005002,-0.00014696,0.00024848,0.00014494,0.00006391,0.000095
 17,-0.00012031,0.00007319,-0.00026700,0.00025787,-0.00002742,-0.000038
 27,-0.00002313,0.00003475,-0.00003269,0.00000919,-0.00018477,-0.000022
 11,0.00001681,-0.00078904,0.00006259,0.00052056,-0.00067042,0.00056946
 ,0.00007875,-0.00144466,0.00078072,0.00050910,-0.00011747,0.00037261,-
 0.00021776,0.10869889,-0.01041700,-0.25251505,0.00003466,0.00067718,-0
 .00024187,0.00002496,-0.00000368,-0.00000726,0.00010578,-0.00007609,0.
 00004787,-0.00000932,-0.00007212,-0.00002430,-0.00001016,-0.00000588,0
 .00001122,0.00006580,-0.00005204,-0.00001166,0.00000196,0.00000658,-0.
 00003714,0.00004466,0.00001336,-0.00002044,-0.00000819,-0.00002059,0.0
 0002466,0.00003425,0.00001054,-0.00001906,-0.00002708,-0.00009117,-0.0
 0001213,0.00009045,0.00000218,0.00004045,0.00015791,-0.00006255,-0.000
 02553,-0.00006668,0.00016957,0.00061856,-0.00013256,-0.00008507,0.0003
 2372,-0.00031686,-0.00040683,0.00051537,-0.00024347,-0.00012733,0.0003
 0513,0.00006952,0.00007954,0.00004508,0.01111222,-0.00025467,-0.020062
 81,-0.11826703,0.00959285,0.27396885,0.00007832,-0.00006019,0.00001603
 ,-0.00006597,0.00016004,-0.00005754,0.00003568,-0.00010643,0.00002871,
 0.00005316,-0.00003133,-0.00030512,0.00000507,-0.00000841,0.00003378,0
 .00001148,0.00008098,0.00002892,0.00005671,-0.00003350,0.00000869,0.00
 006541,-0.00015638,0.00006354,-0.00114507,0.00025670,0.00051062,0.0009
 0492,-0.00047204,0.00026241,0.01126615,0.01992996,-0.00504825,0.001347
 79,0.00026859,0.00067836,-0.00321349,0.00288047,-0.00022343,-0.0928355
 1,-0.09586175,0.01782402,0.00016012,-0.00034566,0.00019774,0.00001701,
 -0.00000414,-0.00003127,0.00000746,0.00001900,0.00000321,0.00002710,-0
 .00010236,-0.00004417,-0.00000586,-0.00000428,-0.00000152,-0.00000301,
 0.00000541,-0.00000786,-0.00001173,-0.00001297,-0.00000606,-0.00001147
 ,0.00001002,-0.00002816,-0.00001716,0.00001545,0.00000648,0.00002026,0
 .00000724,-0.00001970,-0.00179771,0.00005209,0.00113365,-0.00003760,-0
 .00001896,-0.00001206,-0.00009874,-0.00029867,-0.00022049,-0.00009076,
 0.00002237,-0.00005919,0.00007006,-0.00017724,0.00021965,-0.00000912,0
 .00003019,-0.00037755,0.00085282,0.00142098,-0.00010617,-0.00002254,0.
 00015310,0.00019337,-0.00902496,-0.01931451,0.00576323,-0.00678402,-0.
 01339608,0.00162577,0.10036938,-0.00015335,0.00023032,-0.00004269,0.00
 005556,-0.00058520,0.00020373,0.00008306,0.00009284,-0.00004681,0.0000
 6731,0.00012309,-0.00008449,-0.00002491,-0.00002698,0.00001134,-0.0000
 8639,0.00010903,-0.00005959,0.00000890,-0.00010842,-0.00006890,-0.0001
 3204,0.00078320,-0.00007149,-0.00003820,-0.00088156,0.00033796,-0.0010
 2790,-0.00022857,0.00084853,-0.01092478,-0.01992564,0.00343119,-0.0010
 4827,0.00028288,-0.00091165,0.00537397,-0.00291513,0.00067276,-0.09523
 187,-0.25947930,0.04194106,0.00036563,-0.00027948,-0.00015897,0.000018
 08,0.00002078,-0.00002980,-0.00006675,0.00000304,-0.00000421,-0.000038
 88,0.00019810,0.00011966,0.00001309,0.00003315,0.00001322,-0.00001802,
 0.00000856,-0.00001656,0.00003039,0.00001714,-0.00002058,0.00001197,0.
 00004179,0.00004771,-0.00000810,0.00005639,-0.00003499,0.00003468,-0.0
 0000759,-0.00002942,-0.00032689,0.00150692,-0.00020579,-0.00013364,0.0
 0013642,-0.00000790,0.00056922,0.00061711,0.00057695,0.00004875,0.0000
 5366,-0.00010198,0.00025204,0.00028212,-0.00005854,0.00011646,0.000460
 11,-0.00007413,-0.00076121,-0.00166290,0.00012878,-0.00006762,0.000211
 49,-0.00013757,-0.00224138,-0.00461697,0.00091873,0.00066246,0.0022437
 3,0.00000317,0.10486244,0.28292580,-0.00010187,0.00002621,-0.00000843,
 0.00011803,-0.00007830,0.00001207,-0.00002915,0.00001427,-0.00001005,0
 .00003825,0.00001524,0.00003312,-0.00001974,-0.00002788,0.00004779,-0.
 00000802,0.00017843,-0.00006429,0.00006938,-0.00006487,-0.00002612,-0.
 00007628,0.00005593,-0.00004457,0.00077294,-0.00031431,-0.00018288,-0.
 00019136,-0.00026606,0.00013229,0.00025167,-0.00051089,-0.00154915,0.0
 0077752,0.00085253,-0.00001682,0.00009485,0.00016295,-0.00002202,0.017
 85206,0.04212533,-0.05791590,-0.00003104,-0.00043953,0.00012158,-0.000
 01722,0.00000943,0.00001262,-0.00003289,0.00003002,-0.00001644,-0.0000
 2329,0.00003377,-0.00000381,0.00000309,0.00000814,-0.00000260,-0.00002
 418,0.00001603,0.00000528,0.00000205,-0.00000407,0.00001358,-0.0000241
 4,0.00002453,0.00000755,-0.00000163,0.00004028,-0.00003254,-0.00001700
 ,-0.00001148,0.00002115,0.00116316,-0.00001668,-0.00016903,-0.00016972
 ,0.00010501,0.00001422,-0.00046996,-0.00011779,-0.00004871,-0.00003015
 ,0.00009813,0.00008580,-0.00007141,-0.00026856,-0.00000106,-0.00038427
 ,-0.00021045,0.00026818,-0.00001827,0.00004883,0.00062267,0.00011369,0
 .00037368,0.00015859,-0.00927630,-0.02245776,0.00519449,0.01199796,0.0
 2745868,-0.00435252,-0.02207335,-0.04701402,0.05782666,-0.00001711,-0.
 00037989,-0.00001034,0.00022122,0.00097174,0.00002834,0.00043877,-0.00
 041154,-0.00006021,-0.00130855,-0.00147203,-0.00373364,-0.00111675,-0.
 00153688,0.00386398,-0.01251509,0.01612819,0.00060680,0.00022214,0.001
 47161,-0.00078538,-0.00012797,-0.00046780,-0.00001912,0.00035824,0.001
 38553,0.00060682,-0.01141080,0.01506504,-0.00111276,-0.00028300,0.0000
 3403,0.00065413,-0.00001855,0.00007712,0.00003202,-0.00016005,-0.00012
 142,0.00000073,-0.00039645,0.00022117,0.00149085,-0.13382009,0.1189398
 8,-0.00494513,-0.00000018,-0.00002340,0.00003292,-0.00062270,0.0011150
 4,0.00004142,0.00010122,0.00023489,0.00004738,0.00011565,0.00022964,-0
 .00002236,-0.00059123,0.00107212,-0.00003309,0.00087585,-0.00035671,-0
 .00004756,0.00046778,-0.00019352,0.00000399,-0.00008001,-0.00101176,0.
 00022179,-0.00005374,-0.00004248,0.00001463,-0.00006435,-0.00085611,-0
 .00019708,0.00035342,-0.00021012,0.00000253,-0.00000657,-0.00003359,-0
 .00002007,0.00003800,-0.00003973,-0.00005721,0.00002755,-0.00001619,0.
 00006248,0.00008242,0.00001868,0.00003184,-0.00001587,-0.00007764,0.00
 002537,0.00011727,0.00001714,-0.00001126,-0.00010791,0.00025761,0.0017
 6858,0.00017431,-0.00018917,0.00032246,-0.00011968,-0.00025384,-0.0002
 1938,0.14651630,0.00018166,0.00016060,-0.00000006,-0.00025498,-0.00040
 450,0.00000582,-0.00011957,0.00009890,0.00003865,-0.00013528,0.0010514
 6,0.00066689,-0.00043957,0.00106386,-0.00069009,-0.00041701,-0.0009417
 2,-0.00033893,-0.00078322,0.00061997,0.00046304,0.00013749,0.00004690,
 0.00000279,-0.00063985,0.00049202,-0.00017446,-0.00049910,-0.00080367,
 0.00079063,0.00104037,-0.00042951,-0.00016922,-0.00025754,0.00011005,0
 .00014056,-0.00034195,-0.00002516,0.00009342,0.00169189,0.00044325,-0.
 00076742,0.11906125,-0.22376806,0.00515123,0.00004536,-0.00003601,-0.0
 0001803,0.00036730,0.00010783,-0.00009792,-0.00013604,0.00039428,-0.00
 013322,-0.00012746,0.00042217,0.00012208,0.00036165,0.00010447,0.00009
 195,-0.00004545,0.00009745,-0.00053779,-0.00007516,0.00022416,-0.00012
 013,0.00017233,0.00058584,0.00007251,0.00000805,0.00001878,0.00000015,
 0.00012480,0.00051275,-0.00006007,0.00001380,0.00019355,0.00010107,0.0
 0003882,0.00002237,0.00001294,-0.00000227,0.00000555,0.00011146,-0.000
 09696,0.00002999,-0.00010365,0.00000864,-0.00000980,0.00019558,-0.0000
 2115,0.00010083,-0.00007834,0.00024256,-0.00001087,0.00001063,-0.00080
 742,-0.00013569,-0.00094822,-0.00051262,0.00006534,-0.00061898,0.00012
 719,-0.00000904,-0.00003899,-0.13302505,0.24093973,-0.00004520,0.00001
 144,-0.00001988,0.00006433,-0.00003899,-0.00006281,0.00006906,-0.00005
 410,-0.00044231,-0.00297532,-0.00104301,-0.00539213,0.00321646,0.00126
 779,-0.00489938,0.01731689,-0.02349914,-0.00050747,-0.00053355,-0.0010
 1774,0.00102225,-0.00002215,0.00000750,-0.00023954,0.00074319,0.000951
 55,0.00102008,-0.01585661,0.02337693,-0.00058277,-0.00045968,0.0008137
 0,0.00126749,-0.00002401,-0.00019961,0.00007208,0.00020845,-0.00000705
 ,-0.00018192,0.00055636,-0.00004906,-0.00155497,-0.00434497,0.00391541
 ,-0.04682039,0.00001631,0.00000135,0.00027940,-0.00148073,0.00150888,0
 .00011545,0.00021897,-0.00021415,0.00000693,-0.00024926,0.00030957,-0.
 00002081,0.00137644,-0.00139299,0.00006958,-0.00077650,-0.00023767,0.0
 0095443,-0.00044616,-0.00005655,-0.00005608,-0.00007291,0.00067594,0.0
 0009337,-0.00000955,-0.00000198,0.00008170,-0.00000824,-0.00069231,0.0
 0012265,0.00034418,-0.00002359,-0.00006230,-0.00002060,-0.00001622,-0.
 00002215,0.00006835,-0.00001597,-0.00000780,0.00012167,-0.00004819,0.0
 0018325,0.00004912,0.00005023,-0.00007073,-0.00001142,-0.00014753,0.00
 008146,-0.00007478,0.00004459,0.00000695,0.00140732,-0.00024772,-0.001
 79082,0.00002786,-0.00007855,0.00019397,0.00008563,-0.00028540,-0.0001
 7313,0.00110012,-0.00338318,0.05764073,-0.00003908,0.00037627,-0.00000
 537,0.00023374,-0.00096645,0.00001017,-0.00008845,0.00046409,-0.000001
 76,0.00033273,-0.00146723,0.00056918,0.00031162,-0.00139668,-0.0008171
 6,-0.01274917,-0.01589213,0.00015549,-0.00113629,0.00166263,0.00393344
 ,0.00045233,0.00041703,-0.00005286,-0.00130094,0.00158242,-0.00370560,
 -0.01179630,-0.01463877,-0.00082700,-0.00016231,-0.00017254,0.00068892
 ,0.00006709,0.00004297,-0.00001020,-0.00035363,-0.00040725,0.00044347,
 0.00027590,0.00018918,-0.00019851,-0.14220087,-0.12024452,-0.00374311,
 -0.00005867,0.00004135,0.00000659,0.00032562,0.00022623,-0.00000219,-0
 .00004312,0.00089450,-0.00017241,-0.00006022,0.00097158,0.00019931,0.0
 0042557,0.00019516,0.00003080,0.00094269,0.00036427,-0.00005996,-0.000
 61325,-0.00109657,-0.00004686,0.00013588,-0.00023428,-0.00002780,-0.00
 000301,0.00002102,0.00002423,0.00007835,-0.00024345,0.00003369,-0.0006
 2220,-0.00112059,0.00004576,0.00000616,0.00008839,0.00008600,0.0000407
 3,0.00003554,-0.00008752,-0.00002210,-0.00002605,0.00001323,0.00018292
 ,0.00016013,0.00024143,0.00004714,0.00003845,0.00002963,0.00064598,-0.
 00000650,0.00109944,0.00001048,-0.00002311,-0.00009807,-0.00001029,-0.
 00007876,-0.00004454,-0.00005448,0.00001005,0.00005595,0.01272651,0.01
 511449,0.00042093,0.15407295,-0.00019138,0.00015592,0.00000298,0.00027
 781,-0.00039282,-0.00001487,-0.00008772,0.00002499,0.00001563,0.000630
 08,0.00051743,0.00007288,0.00059868,0.00061899,-0.00028432,0.00097182,
 -0.00040505,0.00028763,0.00038851,0.00100025,0.00067659,0.00013934,0.0
 0009217,-0.00002560,0.00014516,0.00113064,-0.00064032,0.00068609,-0.00
 059972,-0.00098623,-0.00099645,-0.00029181,0.00030714,0.00024206,0.000
 06110,-0.00018699,-0.00072802,-0.00056693,0.00032085,-0.00035397,-0.00
 014344,-0.00034409,-0.12062489,-0.21232898,-0.00428183,-0.00000396,0.0
 0002058,-0.00000396,-0.00005749,0.00017662,-0.00009487,-0.00011543,0.0
 0046581,0.00008394,-0.00020487,0.00051051,-0.00005415,0.00000955,0.000
 20116,0.00010462,0.00002717,0.00011565,0.00055796,-0.00037665,0.000124
 15,-0.00009869,0.00011657,0.00046054,-0.00012417,-0.00004470,-0.000038
 99,0.00001626,0.00016102,0.00035712,0.00014321,-0.00036800,0.00009801,
 0.00009545,0.00002913,0.00006912,0.00007056,0.00000711,-0.00001117,-0.
 00012962,0.00001865,-0.00002060,0.00004351,0.00020639,0.00013121,0.000
 20174,0.00011965,0.00002550,0.00026683,0.00031214,0.00041692,0.0014431
 2,0.00021506,-0.00025207,0.00009146,0.00015026,0.00009924,-0.00003946,
 0.00010268,0.00028911,0.00016422,-0.01652054,-0.02133806,-0.00018416,0
 .13511914,0.22922690,-0.00003716,-0.00000955,-0.00001850,0.00005868,0.
 00003234,-0.00006072,-0.00002170,-0.00001090,-0.00024889,0.00078684,-0
 .00098234,0.00098958,-0.00062311,0.00096530,0.00100520,0.01768462,0.02
 306984,-0.00020361,0.00327096,-0.00130118,-0.00494515,0.00007930,0.000
 07047,-0.00046511,-0.00307154,0.00121900,-0.00534533,-0.01667164,-0.02
 286416,-0.00002993,-0.00022483,-0.00066780,0.00104982,-0.00002696,0.00
 019421,0.00007194,-0.00024266,0.00018712,-0.00140712,0.00005646,-0.000
 08585,-0.00009477,-0.00376962,-0.00400590,-0.04715663,-0.00000749,0.00
 000083,0.00008011,0.00033620,0.00003694,-0.00006581,0.00001996,0.00068
 772,0.00013817,-0.00008781,-0.00067644,0.00008357,-0.00042289,0.000044
 90,-0.00007340,-0.00076698,0.00025529,0.00099028,0.00139436,0.00140493
 ,0.00006449,-0.00024215,-0.00030394,-0.00002471,0.00001773,-0.00000178
 ,0.00028136,0.00023148,0.00017671,0.00000732,-0.00147702,-0.00150845,0
 .00012135,0.00005855,0.00011520,0.00016102,0.00007627,0.00003519,-0.00
 003410,0.00001306,-0.00004615,0.00003280,0.00016777,0.00004279,0.00031
 413,0.00008011,0.00001829,0.00014624,0.00103876,0.00113821,-0.00143644
 ,0.00013906,-0.00020426,-0.00002775,0.00011663,0.00002862,0.00001112,-
 0.00006193,0.00021068,0.00006241,0.00031541,0.00020732,-0.00030438,0.0
 0181328,0.00252676,0.05633144\\0.00010071,-0.00000054,0.00000895,-0.00
 009401,-0.00000420,0.00002036,0.00001683,-0.00000812,-0.00000139,-0.00
 001432,-0.00000329,0.00003684,-0.00000120,-0.00003282,-0.00002744,0.00
 002765,0.00000413,0.00004663,-0.00000815,0.00002759,-0.00001837,0.0000
 1745,0.00000980,0.00000111,-0.00002352,0.00001426,0.00003097,0.0000128
 3,-0.00001472,0.00002033,-0.00002319,0.00001123,-0.00001066,0.00000531
 ,0.00000893,0.00002741,-0.00002231,-0.00002858,0.00000105,-0.00001166,
 0.00001286,0.00001634,0.00003476,-0.00001014,-0.00012338,-0.00001633,0
 .00000314,0.00000361,0.00001149,-0.00000252,0.00000890,-0.00000652,0.0
 0000441,-0.00000071,-0.00000347,0.00000991,0.00000109,-0.00000914,-0.0
 0000083,0.00000174,-0.00000262,-0.00000101,0.00000090,-0.00000968,-0.0
 0000135,0.00000084,-0.00000301,-0.00000677,0.00000306,-0.00001444,-0.0
 0000625,0.00000192,-0.00000305,0.00000706,-0.00001907,-0.00000619,0.00
 000372,0.00001005,-0.00000697,-0.00001454,-0.00002848,0.00000593,0.000
 00311,-0.00000536,-0.00000049,-0.00000298,-0.00001401,0.00000298,0.000
 00044,-0.00000122,0.00000579,0.00000542,-0.00001251,0.00001418,0.00001
 710,0.00002147,0.00000658,0.00000373,0.00001990,0.00000144,-0.00000185
 ,-0.00001054,-0.00000766,-0.00000700,0.00000216,0.00001193,-0.00000403
 ,0.00000473,0.00001210,0.00000470,-0.00001723\\\@


 ... FOR AFTERWARDS A MAN FINDS PLEASURE IN HIS PAINS,
 WHEN HE HAS SUFFERED LONG AND WANDERED FAR.

                                    -- HOMER
 Job cpu time:       0 days  0 hours  5 minutes 49.8 seconds.
 Elapsed time:       0 days  0 hours  6 minutes 16.6 seconds.
 File lengths (MBytes):  RWF=    314 Int=      0 D2E=      0 Chk=     16 Scr=      1
 Normal termination of Gaussian 16 at Mon Feb 26 15:36:22 2024.
