 Entering Gaussian System, Link 0=g16
 Input=/Volumes/SSD-PMU3/b3lyp_6-31gd_freq/PKPPAWGCOMEBLA-SEGRVHHLSA-N_calculating/gaussianinput0.gjf
 Output=/Volumes/SSD-PMU3/b3lyp_6-31gd_freq/PKPPAWGCOMEBLA-SEGRVHHLSA-N_calculating/gaussianinput0.log
 Initial command:
 /Applications/g16/l1.exe "/Users/macmini_m1_2022/PycharmProjects/sphere_model/sphere_model_lib/Gau-89711.inp" -scrdir="/Users/macmini_m1_2022/PycharmProjects/sphere_model/sphere_model_lib/"
 Entering Link 1 = /Applications/g16/l1.exe PID=     89712.
  
 Copyright (c) 1988,1990,1992,1993,1995,1998,2003,2009,2016,
            Gaussian, Inc.  All Rights Reserved.
  
 This is part of the Gaussian(R) 16 program.  It is based on
 the Gaussian(R) 09 system (copyright 2009, Gaussian, Inc.),
 the Gaussian(R) 03 system (copyright 2003, Gaussian, Inc.),
 the Gaussian(R) 98 system (copyright 1998, Gaussian, Inc.),
 the Gaussian(R) 94 system (copyright 1995, Gaussian, Inc.),
 the Gaussian 92(TM) system (copyright 1992, Gaussian, Inc.),
 the Gaussian 90(TM) system (copyright 1990, Gaussian, Inc.),
 the Gaussian 88(TM) system (copyright 1988, Gaussian, Inc.),
 the Gaussian 86(TM) system (copyright 1986, Carnegie Mellon
 University), and the Gaussian 82(TM) system (copyright 1983,
 Carnegie Mellon University). Gaussian is a federally registered
 trademark of Gaussian, Inc.
  
 This software contains proprietary and confidential information,
 including trade secrets, belonging to Gaussian, Inc.
  
 This software is provided under written license and may be
 used, copied, transmitted, or stored only in accord with that
 written license.
  
 The following legend is applicable only to US Government
 contracts under FAR:
  
                    RESTRICTED RIGHTS LEGEND
  
 Use, reproduction and disclosure by the US Government is
 subject to restrictions as set forth in subparagraphs (a)
 and (c) of the Commercial Computer Software - Restricted
 Rights clause in FAR 52.227-19.
  
 Gaussian, Inc.
 340 Quinnipiac St., Bldg. 40, Wallingford CT 06492
  
  
 ---------------------------------------------------------------
 Warning -- This program may not be used in any manner that
 competes with the business of Gaussian, Inc. or will provide
 assistance to any competitor of Gaussian, Inc.  The licensee
 of this program is prohibited from giving any competitor of
 Gaussian, Inc. access to this program.  By using this program,
 the user acknowledges that Gaussian, Inc. is engaged in the
 business of creating and licensing software in the field of
 computational chemistry and represents and warrants to the
 licensee that it is not a competitor of Gaussian, Inc. and that
 it will not use this program in any manner prohibited above.
 ---------------------------------------------------------------
  

 Cite this work as:
 Gaussian 16, Revision A.03,
 M. J. Frisch, G. W. Trucks, H. B. Schlegel, G. E. Scuseria, 
 M. A. Robb, J. R. Cheeseman, G. Scalmani, V. Barone, 
 G. A. Petersson, H. Nakatsuji, X. Li, M. Caricato, A. V. Marenich, 
 J. Bloino, B. G. Janesko, R. Gomperts, B. Mennucci, H. P. Hratchian, 
 J. V. Ortiz, A. F. Izmaylov, J. L. Sonnenberg, D. Williams-Young, 
 F. Ding, F. Lipparini, F. Egidi, J. Goings, B. Peng, A. Petrone, 
 T. Henderson, D. Ranasinghe, V. G. Zakrzewski, J. Gao, N. Rega, 
 G. Zheng, W. Liang, M. Hada, M. Ehara, K. Toyota, R. Fukuda, 
 J. Hasegawa, M. Ishida, T. Nakajima, Y. Honda, O. Kitao, H. Nakai, 
 T. Vreven, K. Throssell, J. A. Montgomery, Jr., J. E. Peralta, 
 F. Ogliaro, M. J. Bearpark, J. J. Heyd, E. N. Brothers, K. N. Kudin, 
 V. N. Staroverov, T. A. Keith, R. Kobayashi, J. Normand, 
 K. Raghavachari, A. P. Rendell, J. C. Burant, S. S. Iyengar, 
 J. Tomasi, M. Cossi, J. M. Millam, M. Klene, C. Adamo, R. Cammi, 
 J. W. Ochterski, R. L. Martin, K. Morokuma, O. Farkas, 
 J. B. Foresman, and D. J. Fox, Gaussian, Inc., Wallingford CT, 2016.
 
 ******************************************
 Gaussian 16:  EM64M-G16RevA.03 25-Dec-2016
                24-Feb-2024 
 ******************************************
 %nprocshared=10
 Will use up to   10 processors via shared memory.
 %mem=12GB
 %chk= 0.chk
 ---------------------
 # freq b3lyp/6-31g(d)
 ---------------------
 1/10=4,30=1,38=1/1,3;
 2/12=2,17=6,18=5,40=1/2;
 3/5=1,6=6,7=1,11=2,25=1,30=1,71=2,74=-5,140=1/1,2,3;
 4//1;
 5/5=2,38=5,98=1/2;
 8/6=4,10=90,11=11/1;
 11/6=1,8=1,9=11,15=111,16=1/1,2,10;
 10/6=1/2;
 6/7=2,8=2,9=2,10=2,28=1/1;
 7/8=1,10=1,25=1/1,2,3,16;
 1/10=4,30=1/3;
 99//99;
 ---------
 good luck
 ---------
 Symbolic Z-matrix:
 Charge =  0 Multiplicity = 1
 O                     1.21586   0.        0. 
 C                     0.        0.        0. 
 C                    -0.84907  -1.26997  -0.00141 
 C                    -1.74248  -1.26018   1.26514 
 C                    -1.74007  -1.25804  -1.26844 
 C                    -2.63119   0.       -1.26094 
 C                    -1.74007   1.25804  -1.26844 
 C                    -0.84907   1.26997  -0.00141 
 C                    -1.74248   1.26017   1.26514 
 C                    -2.6378    0.        1.27171 
 O                    -3.57529  0.         2.35151 
 C                    -3.0703    0.00002   3.67445 
 C                    -3.5111    0.        0.00383 
 H                    -0.17831  -2.13483   0.00234 
 H                    -2.37687  -2.15569   1.28469 
 H                    -1.10786  -1.29051   2.15933 
 H                    -2.35783  -2.16583  -1.28651 
 H                    -1.11294  -1.27792  -2.16924 
 H                    -3.27162   0.       -2.152 
 H                    -1.11294   1.27792  -2.16924 
 H                    -2.35783   2.16583  -1.28651 
 H                    -0.17831   2.13483   0.00234 
 H                    -1.10785   1.29051   2.15933 
 H                    -2.37687   2.15568   1.28469 
 H                    -2.46983   0.89238   3.90041 
 H                    -2.46981  -0.89233   3.90043 
 H                    -3.94599   0.00001   4.32908 
 H                    -4.16318   0.88207   0.02585 
 H                    -4.16318  -0.88207   0.02585 
 

 GradGradGradGradGradGradGradGradGradGradGradGradGradGradGradGradGradGrad
 Berny optimization.
 Initialization pass.
 Trust Radius=3.00D-01 FncErr=1.00D-07 GrdErr=1.00D-07 EigMax=2.50D+02 EigMin=1.00D-04
 Number of steps in this run=      2 maximum allowed number of steps=      2.
 GradGradGradGradGradGradGradGradGradGradGradGradGradGradGradGradGradGrad

                          Input orientation:                          
 ---------------------------------------------------------------------
 Center     Atomic      Atomic             Coordinates (Angstroms)
 Number     Number       Type             X           Y           Z
 ---------------------------------------------------------------------
      1          8           0        1.215865    0.000000    0.000000
      2          6           0        0.000000    0.000000    0.000000
      3          6           0       -0.849068   -1.269971   -0.001408
      4          6           0       -1.742484   -1.260175    1.265137
      5          6           0       -1.740074   -1.258035   -1.268443
      6          6           0       -2.631187    0.000000   -1.260938
      7          6           0       -1.740073    1.258035   -1.268443
      8          6           0       -0.849068    1.269970   -0.001408
      9          6           0       -1.742484    1.260174    1.265137
     10          6           0       -2.637800    0.000000    1.271711
     11          8           0       -3.575285   -0.000001    2.351512
     12          6           0       -3.070305    0.000016    3.674450
     13          6           0       -3.511098    0.000000    0.003834
     14          1           0       -0.178314   -2.134829    0.002343
     15          1           0       -2.376873   -2.155685    1.284693
     16          1           0       -1.107855   -1.290510    2.159333
     17          1           0       -2.357834   -2.165829   -1.286513
     18          1           0       -1.112939   -1.277924   -2.169243
     19          1           0       -3.271619    0.000000   -2.151996
     20          1           0       -1.112938    1.277923   -2.169243
     21          1           0       -2.357833    2.165828   -1.286514
     22          1           0       -0.178314    2.134829    0.002343
     23          1           0       -1.107854    1.290509    2.159333
     24          1           0       -2.376873    2.155684    1.284694
     25          1           0       -2.469832    0.892376    3.900409
     26          1           0       -2.469812   -0.892327    3.900425
     27          1           0       -3.945992    0.000012    4.329083
     28          1           0       -4.163179    0.882066    0.025853
     29          1           0       -4.163180   -0.882066    0.025853
 ---------------------------------------------------------------------
                    Distance matrix (angstroms):
                    1          2          3          4          5
     1  O    0.000000
     2  C    1.215865   0.000000
     3  C    2.424206   1.527660   0.000000
     4  C    3.455494   2.494968   1.549976   0.000000
     5  C    3.453864   2.493884   1.549004   2.533582   0.000000
     6  C    4.048429   2.917723   2.524914   2.959542   1.541684
     7  C    3.453863   2.493883   2.964807   3.572172   2.516070
     8  C    2.424206   1.527659   2.539941   2.967147   2.964807
     9  C    3.455494   2.494967   2.967147   2.520349   3.572172
    10  C    4.058076   2.928351   2.536379   1.545857   2.973373
    11  O    5.337108   4.279284   3.818549   2.475360   4.249085
    12  C    5.645603   4.788356   4.478693   3.025885   5.271091
    13  C    4.726965   3.511100   2.949450   2.511359   2.517512
    14  H    2.549752   2.142264   1.094488   2.192327   2.196078
    15  H    4.382372   3.456434   2.184659   1.097620   2.780250
    16  H    3.424589   2.748723   2.176280   1.096932   3.485743
    17  H    4.372328   3.450408   2.174955   2.776650   1.098200
    18  H    3.429582   2.752697   2.183850   3.491648   1.097786
    19  H    4.976806   3.915939   3.479455   3.950075   2.170011
    20  H    3.429581   2.752696   3.355726   4.316623   2.763299
    21  H    4.372327   3.450407   3.966432   4.315909   3.479194
    22  H    2.549752   2.142264   3.470243   3.945545   3.945316
    23  H    3.424588   2.748722   3.360332   2.776388   4.317919
    24  H    4.382371   3.456434   3.965269   3.474324   4.310162
    25  H    5.440026   4.702084   4.746240   3.479536   5.645693
    26  H    5.440016   4.702078   4.241901   2.758453   5.232920
    27  H    6.736893   5.857629   5.473294   3.978855   6.146629
    28  H    5.450947   4.255675   3.951625   3.461905   3.482337
    29  H    5.450948   4.255676   3.336848   2.745644   2.772724
                    6          7          8          9         10
     6  C    0.000000
     7  C    1.541685   0.000000
     8  C    2.524913   1.549003   0.000000
     9  C    2.959542   2.533582   1.549976   0.000000
    10  C    2.532658   2.973373   2.536379   1.545857   0.000000
    11  O    3.733780   4.249086   3.818549   2.475361   1.429982
    12  C    4.954884   5.271083   4.478684   3.025871   2.441355
    13  C    1.540744   2.517513   2.949450   2.511358   1.539533
    14  H    3.488547   3.945315   3.470242   3.945545   3.495406
    15  H    3.345428   4.310163   3.965269   3.474324   2.171458
    16  H    3.960330   4.317920   3.360332   2.776388   2.189525
    17  H    2.183161   3.479195   3.966432   4.315909   3.363585
    18  H    2.182472   2.763300   3.355726   4.316623   3.974727
    19  H    1.097332   2.170012   3.479455   3.950075   3.481881
    20  H    2.182472   1.097786   2.183850   3.491648   3.974727
    21  H    2.183160   1.098199   2.174955   2.776650   3.363586
    22  H    3.488547   2.196077   1.094489   2.192327   3.495406
    23  H    3.960330   3.485743   2.176280   1.096933   2.189525
    24  H    3.345428   2.780251   2.184659   1.097620   2.171457
    25  H    5.240408   5.232904   4.241890   2.758436   2.781115
    26  H    5.240416   5.645686   4.746224   3.479513   2.781116
    27  H    5.742564   6.146625   5.473288   3.978847   3.325491
    28  H    2.186520   2.772724   3.336846   2.745643   2.158005
    29  H    2.186521   3.482339   3.951625   3.461905   2.158005
                   11         12         13         14         15
    11  O    0.000000
    12  C    1.416040   0.000000
    13  C    2.348555   3.696988   0.000000
    14  H    4.649247   5.138633   3.957897   0.000000
    15  H    2.687242   3.292238   2.752098   2.545293   0.000000
    16  H    2.791157   2.795040   3.476661   2.495902   1.767464
    17  H    4.405477   5.459822   2.772333   2.532275   2.571296
    18  H    5.304098   6.293899   3.479442   2.514676   3.781226
    19  H    4.513734   5.829923   2.169090   4.332113   4.154321
    20  H    5.304099   6.293892   3.479443   4.151648   5.031587
    21  H    4.405478   5.459810   2.772333   4.990702   5.028612
    22  H    4.649248   5.138619   3.957897   4.269658   4.988646
    23  H    2.791158   2.795025   3.476661   4.153263   3.775137
    24  H    2.687242   3.292216   2.752098   4.988646   4.311369
    25  H    2.101772   1.099059   4.130843   5.441502   4.017622
    26  H    2.101773   1.099060   4.130853   4.689330   2.906332
    27  H    2.012017   1.093331   4.347058   6.121570   4.046909
    28  H    2.555847   3.909558   1.097149   4.998135   3.742125
    29  H    2.555846   3.909566   1.097149   4.177215   2.529363
                   16         17         18         19         20
    16  H    0.000000
    17  H    3.768619   0.000000
    18  H    4.328597   1.765602   0.000000
    19  H    4.993481   2.504971   2.508642   0.000000
    20  H    5.033234   3.766750   2.555847   2.508643   0.000000
    21  H    5.038113   4.331657   3.766749   2.504970   1.765602
    22  H    4.153264   4.990703   4.151649   4.332113   2.514676
    23  H    2.581019   5.038112   5.033234   4.993481   4.328597
    24  H    3.775136   5.028612   5.031588   4.154321   3.781227
    25  H    3.106657   6.022402   6.587263   6.170154   6.231411
    26  H    2.246081   5.342160   6.231425   6.170165   6.587258
    27  H    3.798458   6.224792   7.203301   6.516070   7.203297
    28  H    4.313563   3.777729   4.334509   2.513155   3.778772
    29  H    3.748810   2.574806   3.778772   2.513155   4.334510
                   21         22         23         24         25
    21  H    0.000000
    22  H    2.532275   0.000000
    23  H    3.768619   2.495902   0.000000
    24  H    2.571299   2.545294   1.767464   0.000000
    25  H    5.342134   4.689314   2.246072   2.906295   0.000000
    26  H    6.022391   5.441478   3.106623   4.017593   1.784703
    27  H    6.224784   6.121562   3.798450   4.046895   1.777392
    28  H    2.574806   4.177214   3.748810   2.529362   4.228441
    29  H    3.777730   4.998136   4.313564   3.742125   4.585658
                   26         27         28         29
    26  H    0.000000
    27  H    1.777392   0.000000
    28  H    4.585659   4.398065   0.000000
    29  H    4.228464   4.398070   1.764132   0.000000
 Stoichiometry    C11H16O2
 Framework group  C1[X(C11H16O2)]
 Deg. of freedom    81
 Full point group                 C1      NOp   1
 Largest Abelian subgroup         C1      NOp   1
 Largest concise Abelian subgroup C1      NOp   1
                         Standard orientation:                         
 ---------------------------------------------------------------------
 Center     Atomic      Atomic             Coordinates (Angstroms)
 Number     Number       Type             X           Y           Z
 ---------------------------------------------------------------------
      1          8           0        2.214164   -2.116999   -0.000003
      2          6           0        1.490539   -1.139914   -0.000002
      3          6           0        0.986350   -0.456749   -1.269971
      4          6           0       -0.563181   -0.492575   -1.260180
      5          6           0        1.474272    1.013353   -1.258029
      6          6           0        0.937890    1.724992    0.000007
      7          6           0        1.474266    1.013343    1.258041
      8          6           0        0.986343   -0.456758    1.269970
      9          6           0       -0.563187   -0.492584    1.260169
     10          6           0       -1.101316    0.222996   -0.000003
     11          8           0       -2.527004    0.333725   -0.000008
     12          6           0       -3.289595   -0.859432    0.000003
     13          6           0       -0.602178    1.679369    0.000003
     14          1           0        1.382538   -0.998006   -2.134830
     15          1           0       -0.956452    0.005592   -2.155689
     16          1           0       -0.904068   -1.534754   -1.290519
     17          1           0        1.121134    1.520551   -2.165822
     18          1           0        2.571407    1.045492   -1.277915
     19          1           0        1.272802    2.769967    0.000012
     20          1           0        2.571401    1.045482    1.277932
     21          1           0        1.121125    1.520535    2.165835
     22          1           0        1.382527   -0.998021    2.134828
     23          1           0       -0.904074   -1.534764    1.290500
     24          1           0       -0.956464    0.005577    2.155680
     25          1           0       -3.113808   -1.476463    0.892362
     26          1           0       -3.113805   -1.476483   -0.892341
     27          1           0       -4.336834   -0.545325   -0.000002
     28          1           0       -1.007963    2.190282    0.882070
     29          1           0       -1.007959    2.190289   -0.882062
 ---------------------------------------------------------------------
 Rotational constants (GHZ):           1.2942161           0.7555647           0.6701772
 Standard basis: 6-31G(d) (6D, 7F)
 There are   227 symmetry adapted cartesian basis functions of A   symmetry.
 There are   227 symmetry adapted basis functions of A   symmetry.
   227 basis functions,   428 primitive gaussians,   227 cartesian basis functions
    49 alpha electrons       49 beta electrons
       nuclear repulsion energy       890.6137493405 Hartrees.
 NAtoms=   29 NActive=   29 NUniq=   29 SFac= 1.00D+00 NAtFMM=   60 NAOKFM=F Big=F
 Integral buffers will be    131072 words long.
 Raffenetti 2 integral format.
 Two-electron integral symmetry is turned on.
 One-electron integrals computed using PRISM.
 NBasis=   227 RedAO= T EigKep=  2.29D-03  NBF=   227
 NBsUse=   227 1.00D-06 EigRej= -1.00D+00 NBFU=   227
 ExpMin= 1.61D-01 ExpMax= 5.48D+03 ExpMxC= 8.25D+02 IAcc=3 IRadAn=         5 AccDes= 0.00D+00
 Harris functional with IExCor=  402 and IRadAn=       5 diagonalized for initial guess.
 HarFok:  IExCor=  402 AccDes= 0.00D+00 IRadAn=         5 IDoV= 1 UseB2=F ITyADJ=14
 ICtDFT=  3500011 ScaDFX=  1.000000  1.000000  1.000000  1.000000
 FoFCou: FMM=F IPFlag=           0 FMFlag=      100000 FMFlg1=           0
         NFxFlg=           0 DoJE=T BraDBF=F KetDBF=T FulRan=T
         wScrn=  0.000000 ICntrl=       500 IOpCl=  0 I1Cent=   200000004 NGrid=           0
         NMat0=    1 NMatS0=      1 NMatT0=    0 NMatD0=    1 NMtDS0=    0 NMtDT0=    0
 Petite list used in FoFCou.
 Requested convergence on RMS density matrix=1.00D-08 within 128 cycles.
 Requested convergence on MAX density matrix=1.00D-06.
 Requested convergence on             energy=1.00D-06.
 No special actions if energy rises.
 Integral accuracy reduced to 1.0D-05 until final iterations.
 Initial convergence to 1.0D-05 achieved.  Increase integral accuracy.
 SCF Done:  E(RB3LYP) =  -579.253471695     A.U. after   13 cycles
            NFock= 13  Conv=0.92D-08     -V/T= 2.0094
 DoSCS=F DFT=T ScalE2(SS,OS)=  1.000000  1.000000
 Range of M.O.s used for correlation:     1   227
 NBasis=   227 NAE=    49 NBE=    49 NFC=     0 NFV=     0
 NROrb=    227 NOA=    49 NOB=    49 NVA=   178 NVB=   178
 Symmetrizing basis deriv contribution to polar:
 IMax=3 JMax=2 DiffMx= 0.00D+00
 G2DrvN: will do    30 centers at a time, making    1 passes.
 Calling FoFCou, ICntrl=  3107 FMM=F I1Cent=   0 AccDes= 0.00D+00.
 End of G2Drv F.D. properties file   721 does not exist.
 End of G2Drv F.D. properties file   722 does not exist.
 End of G2Drv F.D. properties file   788 does not exist.
          IDoAtm=11111111111111111111111111111
          Differentiating once with respect to electric field.
                with respect to dipole field.
          Differentiating once with respect to nuclear coordinates.
 Keep R1 ints in memory in canonical form, NReq=345395554.
          There are    90 degrees of freedom in the 1st order CPHF.  IDoFFX=6 NUNeed=     3.
     87 vectors produced by pass  0 Test12= 9.69D-15 1.11D-09 XBig12= 7.76D+01 2.13D+00.
 AX will form    87 AO Fock derivatives at one time.
     87 vectors produced by pass  1 Test12= 9.69D-15 1.11D-09 XBig12= 8.17D+00 5.70D-01.
     87 vectors produced by pass  2 Test12= 9.69D-15 1.11D-09 XBig12= 8.16D-02 4.10D-02.
     87 vectors produced by pass  3 Test12= 9.69D-15 1.11D-09 XBig12= 3.07D-04 4.23D-03.
     87 vectors produced by pass  4 Test12= 9.69D-15 1.11D-09 XBig12= 4.36D-07 7.86D-05.
     49 vectors produced by pass  5 Test12= 9.69D-15 1.11D-09 XBig12= 3.67D-10 2.29D-06.
      4 vectors produced by pass  6 Test12= 9.69D-15 1.11D-09 XBig12= 2.37D-13 5.12D-08.
      2 vectors produced by pass  7 Test12= 9.69D-15 1.11D-09 XBig12= 1.91D-16 1.34D-09.
 InvSVY:  IOpt=1 It=  1 EMax= 1.95D-14
 Solved reduced A of dimension   490 with    90 vectors.
 Isotropic polarizability for W=    0.000000      109.80 Bohr**3.
 End of Minotr F.D. properties file   721 does not exist.
 End of Minotr F.D. properties file   722 does not exist.
 End of Minotr F.D. properties file   788 does not exist.

 **********************************************************************

            Population analysis using the SCF density.

 **********************************************************************

 Orbital symmetries:
       Occupied  (A) (A) (A) (A) (A) (A) (A) (A) (A) (A) (A) (A)
                 (A) (A) (A) (A) (A) (A) (A) (A) (A) (A) (A) (A)
                 (A) (A) (A) (A) (A) (A) (A) (A) (A) (A) (A) (A)
                 (A) (A) (A) (A) (A) (A) (A) (A) (A) (A) (A) (A)
                 (A)
       Virtual   (A) (A) (A) (A) (A) (A) (A) (A) (A) (A) (A) (A)
                 (A) (A) (A) (A) (A) (A) (A) (A) (A) (A) (A) (A)
                 (A) (A) (A) (A) (A) (A) (A) (A) (A) (A) (A) (A)
                 (A) (A) (A) (A) (A) (A) (A) (A) (A) (A) (A) (A)
                 (A) (A) (A) (A) (A) (A) (A) (A) (A) (A) (A) (A)
                 (A) (A) (A) (A) (A) (A) (A) (A) (A) (A) (A) (A)
                 (A) (A) (A) (A) (A) (A) (A) (A) (A) (A) (A) (A)
                 (A) (A) (A) (A) (A) (A) (A) (A) (A) (A) (A) (A)
                 (A) (A) (A) (A) (A) (A) (A) (A) (A) (A) (A) (A)
                 (A) (A) (A) (A) (A) (A) (A) (A) (A) (A) (A) (A)
                 (A) (A) (A) (A) (A) (A) (A) (A) (A) (A) (A) (A)
                 (A) (A) (A) (A) (A) (A) (A) (A) (A) (A) (A) (A)
                 (A) (A) (A) (A) (A) (A) (A) (A) (A) (A) (A) (A)
                 (A) (A) (A) (A) (A) (A) (A) (A) (A) (A) (A) (A)
                 (A) (A) (A) (A) (A) (A) (A) (A) (A) (A)
 The electronic state is 1-A.
 Alpha  occ. eigenvalues --  -19.14584 -19.13436 -10.26530 -10.24440 -10.22716
 Alpha  occ. eigenvalues --  -10.19671 -10.19658 -10.19656 -10.19238 -10.19237
 Alpha  occ. eigenvalues --  -10.19067 -10.19066 -10.18149  -1.03274  -1.02782
 Alpha  occ. eigenvalues --   -0.87219  -0.78250  -0.77477  -0.76271  -0.68249
 Alpha  occ. eigenvalues --   -0.68055  -0.64882  -0.60640  -0.58246  -0.56959
 Alpha  occ. eigenvalues --   -0.51633  -0.48211  -0.46363  -0.45984  -0.45832
 Alpha  occ. eigenvalues --   -0.45129  -0.44352  -0.43042  -0.42960  -0.41622
 Alpha  occ. eigenvalues --   -0.40375  -0.40317  -0.39388  -0.36495  -0.36225
 Alpha  occ. eigenvalues --   -0.35104  -0.34842  -0.33811  -0.32439  -0.31269
 Alpha  occ. eigenvalues --   -0.31135  -0.28689  -0.25208  -0.23143
 Alpha virt. eigenvalues --   -0.01179   0.06589   0.09827   0.11785   0.11804
 Alpha virt. eigenvalues --    0.12741   0.12832   0.13864   0.13948   0.14763
 Alpha virt. eigenvalues --    0.15616   0.15952   0.16663   0.16892   0.19114
 Alpha virt. eigenvalues --    0.19221   0.19448   0.19620   0.20920   0.21782
 Alpha virt. eigenvalues --    0.21887   0.22659   0.22945   0.25458   0.25756
 Alpha virt. eigenvalues --    0.28055   0.28465   0.29452   0.29718   0.32468
 Alpha virt. eigenvalues --    0.33930   0.36774   0.49735   0.50652   0.51469
 Alpha virt. eigenvalues --    0.53456   0.53692   0.55353   0.55810   0.57593
 Alpha virt. eigenvalues --    0.59158   0.59420   0.61554   0.63773   0.64004
 Alpha virt. eigenvalues --    0.65025   0.65770   0.67297   0.68036   0.69626
 Alpha virt. eigenvalues --    0.69949   0.73478   0.74129   0.75636   0.75944
 Alpha virt. eigenvalues --    0.77596   0.78396   0.80086   0.81083   0.82880
 Alpha virt. eigenvalues --    0.84091   0.85713   0.85857   0.86477   0.86707
 Alpha virt. eigenvalues --    0.87794   0.88569   0.89167   0.89318   0.91266
 Alpha virt. eigenvalues --    0.92002   0.94111   0.94616   0.95960   0.97696
 Alpha virt. eigenvalues --    0.99315   0.99612   0.99941   1.03384   1.06079
 Alpha virt. eigenvalues --    1.10756   1.14288   1.15062   1.16227   1.18383
 Alpha virt. eigenvalues --    1.21917   1.22830   1.23517   1.26163   1.30004
 Alpha virt. eigenvalues --    1.34570   1.36399   1.39660   1.40560   1.46391
 Alpha virt. eigenvalues --    1.50768   1.51414   1.54614   1.58931   1.60821
 Alpha virt. eigenvalues --    1.63163   1.65761   1.66047   1.71307   1.73911
 Alpha virt. eigenvalues --    1.74398   1.76673   1.77348   1.77545   1.79377
 Alpha virt. eigenvalues --    1.82325   1.83732   1.84379   1.85209   1.87414
 Alpha virt. eigenvalues --    1.90105   1.91728   1.93256   1.96963   1.98913
 Alpha virt. eigenvalues --    2.01137   2.03990   2.04915   2.07665   2.08825
 Alpha virt. eigenvalues --    2.09219   2.11181   2.12874   2.13300   2.15727
 Alpha virt. eigenvalues --    2.20116   2.20185   2.22128   2.25048   2.25356
 Alpha virt. eigenvalues --    2.27738   2.28296   2.32298   2.34026   2.34951
 Alpha virt. eigenvalues --    2.36400   2.39006   2.39276   2.41759   2.44373
 Alpha virt. eigenvalues --    2.47243   2.50018   2.51428   2.51891   2.56744
 Alpha virt. eigenvalues --    2.61887   2.66576   2.67748   2.68902   2.70392
 Alpha virt. eigenvalues --    2.72096   2.74513   2.75177   2.75810   2.79150
 Alpha virt. eigenvalues --    2.83137   2.92680   3.01275   3.03192   3.09399
 Alpha virt. eigenvalues --    4.01016   4.10953   4.21362   4.25150   4.28115
 Alpha virt. eigenvalues --    4.28137   4.32297   4.49249   4.56958   4.71051
 Alpha virt. eigenvalues --    4.78976   4.82782   4.84200
          Condensed to atoms (all electrons):
               1          2          3          4          5          6
     1  O    8.010878   0.578175  -0.073322   0.000847   0.000996   0.000049
     2  C    0.578175   4.522894   0.329570  -0.029486  -0.029689  -0.021362
     3  C   -0.073322   0.329570   5.237269   0.306358   0.340360  -0.028201
     4  C    0.000847  -0.029486   0.306358   5.234015  -0.041607  -0.010400
     5  C    0.000996  -0.029689   0.340360  -0.041607   5.100170   0.370434
     6  C    0.000049  -0.021362  -0.028201  -0.010400   0.370434   4.962737
     7  C    0.000996  -0.029689  -0.008614  -0.002188  -0.049604   0.370434
     8  C   -0.073322   0.329570  -0.125521  -0.002161  -0.008614  -0.028201
     9  C    0.000847  -0.029487  -0.002161  -0.079563  -0.002188  -0.010400
    10  C    0.000099  -0.018860  -0.014260   0.359958  -0.016436  -0.021116
    11  O   -0.000000   0.000165   0.002368  -0.044437   0.000072   0.002852
    12  C   -0.000000  -0.000039   0.000259  -0.008162  -0.000004  -0.000208
    13  C   -0.000032  -0.002488  -0.012697  -0.060275  -0.044090   0.338975
    14  H    0.004246  -0.031676   0.344076  -0.028387  -0.031591   0.004286
    15  H   -0.000079   0.003434  -0.026766   0.351459  -0.006002  -0.000279
    16  H    0.000769  -0.000955  -0.037917   0.361575   0.005116  -0.000017
    17  H   -0.000080   0.003587  -0.031272  -0.005555   0.361402  -0.033135
    18  H    0.000695  -0.001021  -0.039161   0.005144   0.366703  -0.034669
    19  H   -0.000000   0.000326   0.004558   0.000025  -0.037554   0.367790
    20  H    0.000695  -0.001021   0.000069   0.000046  -0.004393  -0.034669
    21  H   -0.000080   0.003587  -0.000295   0.000084   0.005257  -0.033135
    22  H    0.004246  -0.031676   0.007035  -0.000184  -0.000061   0.004286
    23  H    0.000769  -0.000955   0.000551  -0.006881   0.000000  -0.000017
    24  H   -0.000079   0.003434  -0.000422   0.006509   0.000098  -0.000279
    25  H   -0.000000  -0.000011   0.000057  -0.001066  -0.000001   0.000017
    26  H   -0.000000  -0.000011  -0.000383   0.006278  -0.000008   0.000017
    27  H   -0.000000   0.000000  -0.000001  -0.000000   0.000001   0.000001
    28  H    0.000000   0.000156  -0.000149   0.006482   0.004996  -0.031992
    29  H    0.000000   0.000156  -0.000807  -0.007695  -0.003726  -0.031992
               7          8          9         10         11         12
     1  O    0.000996  -0.073322   0.000847   0.000099  -0.000000  -0.000000
     2  C   -0.029689   0.329570  -0.029487  -0.018860   0.000165  -0.000039
     3  C   -0.008614  -0.125521  -0.002161  -0.014260   0.002368   0.000259
     4  C   -0.002188  -0.002161  -0.079563   0.359958  -0.044437  -0.008162
     5  C   -0.049604  -0.008614  -0.002188  -0.016436   0.000072  -0.000004
     6  C    0.370434  -0.028201  -0.010400  -0.021116   0.002852  -0.000208
     7  C    5.100170   0.340360  -0.041607  -0.016436   0.000072  -0.000004
     8  C    0.340360   5.237268   0.306359  -0.014260   0.002368   0.000259
     9  C   -0.041607   0.306359   5.234015   0.359958  -0.044436  -0.008162
    10  C   -0.016436  -0.014260   0.359958   4.636008   0.215219  -0.030332
    11  O    0.000072   0.002368  -0.044436   0.215219   8.286739   0.252271
    12  C   -0.000004   0.000259  -0.008162  -0.030332   0.252271   4.883814
    13  C   -0.044090  -0.012697  -0.060274   0.397935  -0.053113   0.005917
    14  H   -0.000061   0.007035  -0.000184   0.003009  -0.000046  -0.000004
    15  H    0.000098  -0.000422   0.006509  -0.028943   0.001924  -0.000197
    16  H    0.000000   0.000551  -0.006881  -0.031563  -0.002334   0.001343
    17  H    0.005257  -0.000295   0.000084  -0.001295  -0.000026   0.000000
    18  H   -0.004393   0.000069   0.000046   0.000258   0.000002  -0.000000
    19  H   -0.037554   0.004558   0.000025   0.004186  -0.000049   0.000003
    20  H    0.366703  -0.039161   0.005144   0.000258   0.000002  -0.000000
    21  H    0.361402  -0.031272  -0.005555  -0.001295  -0.000026   0.000000
    22  H   -0.031591   0.344076  -0.028387   0.003009  -0.000046  -0.000004
    23  H    0.005116  -0.037917   0.361575  -0.031563  -0.002334   0.001343
    24  H   -0.006002  -0.026766   0.351459  -0.028943   0.001924  -0.000197
    25  H   -0.000008  -0.000383   0.006278  -0.007858  -0.037999   0.359987
    26  H   -0.000001   0.000057  -0.001066  -0.007858  -0.037999   0.359987
    27  H    0.000001  -0.000001  -0.000000   0.005111  -0.035253   0.387491
    28  H   -0.003726  -0.000807  -0.007695  -0.030834   0.002107  -0.000091
    29  H    0.004996  -0.000149   0.006482  -0.030834   0.002106  -0.000091
              13         14         15         16         17         18
     1  O   -0.000032   0.004246  -0.000079   0.000769  -0.000080   0.000695
     2  C   -0.002488  -0.031676   0.003434  -0.000955   0.003587  -0.001021
     3  C   -0.012697   0.344076  -0.026766  -0.037917  -0.031272  -0.039161
     4  C   -0.060275  -0.028387   0.351459   0.361575  -0.005555   0.005144
     5  C   -0.044090  -0.031591  -0.006002   0.005116   0.361402   0.366703
     6  C    0.338975   0.004286  -0.000279  -0.000017  -0.033135  -0.034669
     7  C   -0.044090  -0.000061   0.000098   0.000000   0.005257  -0.004393
     8  C   -0.012697   0.007035  -0.000422   0.000551  -0.000295   0.000069
     9  C   -0.060274  -0.000184   0.006509  -0.006881   0.000084   0.000046
    10  C    0.397935   0.003009  -0.028943  -0.031563  -0.001295   0.000258
    11  O   -0.053113  -0.000046   0.001924  -0.002334  -0.000026   0.000002
    12  C    0.005917  -0.000004  -0.000197   0.001343   0.000000  -0.000000
    13  C    5.154718   0.000054  -0.007153   0.005487  -0.003216   0.004864
    14  H    0.000054   0.598303  -0.003916  -0.002875  -0.004069  -0.002235
    15  H   -0.007153  -0.003916   0.589902  -0.036419   0.005395  -0.000029
    16  H    0.005487  -0.002875  -0.036419   0.593805  -0.000069  -0.000156
    17  H   -0.003216  -0.004069   0.005395  -0.000069   0.596731  -0.034695
    18  H    0.004864  -0.002235  -0.000029  -0.000156  -0.034695   0.592833
    19  H   -0.035507  -0.000150  -0.000105   0.000018  -0.003375  -0.003139
    20  H    0.004863  -0.000074   0.000001  -0.000005   0.000018   0.004181
    21  H   -0.003216   0.000022  -0.000005   0.000000  -0.000200   0.000018
    22  H    0.000054  -0.000189   0.000025  -0.000095   0.000022  -0.000074
    23  H    0.005487  -0.000095  -0.000020   0.004191   0.000000  -0.000005
    24  H   -0.007153   0.000025  -0.000210  -0.000020  -0.000005   0.000001
    25  H   -0.000071  -0.000001   0.000184  -0.000084  -0.000000  -0.000000
    26  H   -0.000071   0.000021  -0.000140   0.002144   0.000001   0.000000
    27  H   -0.000186  -0.000000  -0.000068  -0.000028  -0.000000  -0.000000
    28  H    0.356425   0.000019  -0.000106  -0.000176  -0.000073  -0.000151
    29  H    0.356425  -0.000090   0.005606  -0.000080   0.004334  -0.000014
              19         20         21         22         23         24
     1  O   -0.000000   0.000695  -0.000080   0.004246   0.000769  -0.000079
     2  C    0.000326  -0.001021   0.003587  -0.031676  -0.000955   0.003434
     3  C    0.004558   0.000069  -0.000295   0.007035   0.000551  -0.000422
     4  C    0.000025   0.000046   0.000084  -0.000184  -0.006881   0.006509
     5  C   -0.037554  -0.004393   0.005257  -0.000061   0.000000   0.000098
     6  C    0.367790  -0.034669  -0.033135   0.004286  -0.000017  -0.000279
     7  C   -0.037554   0.366703   0.361402  -0.031591   0.005116  -0.006002
     8  C    0.004558  -0.039161  -0.031272   0.344076  -0.037917  -0.026766
     9  C    0.000025   0.005144  -0.005555  -0.028387   0.361575   0.351459
    10  C    0.004186   0.000258  -0.001295   0.003009  -0.031563  -0.028943
    11  O   -0.000049   0.000002  -0.000026  -0.000046  -0.002334   0.001924
    12  C    0.000003  -0.000000   0.000000  -0.000004   0.001343  -0.000197
    13  C   -0.035507   0.004863  -0.003216   0.000054   0.005487  -0.007153
    14  H   -0.000150  -0.000074   0.000022  -0.000189  -0.000095   0.000025
    15  H   -0.000105   0.000001  -0.000005   0.000025  -0.000020  -0.000210
    16  H    0.000018  -0.000005   0.000000  -0.000095   0.004191  -0.000020
    17  H   -0.003375   0.000018  -0.000200   0.000022   0.000000  -0.000005
    18  H   -0.003139   0.004181   0.000018  -0.000074  -0.000005   0.000001
    19  H    0.621133  -0.003139  -0.003375  -0.000150   0.000018  -0.000105
    20  H   -0.003139   0.592833  -0.034695  -0.002235  -0.000156  -0.000029
    21  H   -0.003375  -0.034695   0.596730  -0.004069  -0.000069   0.005395
    22  H   -0.000150  -0.002235  -0.004069   0.598303  -0.002875  -0.003916
    23  H    0.000018  -0.000156  -0.000069  -0.002875   0.593805  -0.036419
    24  H   -0.000105  -0.000029   0.005395  -0.003916  -0.036419   0.589902
    25  H   -0.000000   0.000000   0.000001   0.000021   0.002144  -0.000140
    26  H   -0.000000  -0.000000  -0.000000  -0.000001  -0.000084   0.000184
    27  H   -0.000000  -0.000000  -0.000000  -0.000000  -0.000028  -0.000068
    28  H   -0.003736  -0.000014   0.004334  -0.000090  -0.000080   0.005606
    29  H   -0.003736  -0.000151  -0.000073   0.000019  -0.000176  -0.000106
              25         26         27         28         29
     1  O   -0.000000  -0.000000  -0.000000   0.000000   0.000000
     2  C   -0.000011  -0.000011   0.000000   0.000156   0.000156
     3  C    0.000057  -0.000383  -0.000001  -0.000149  -0.000807
     4  C   -0.001066   0.006278  -0.000000   0.006482  -0.007695
     5  C   -0.000001  -0.000008   0.000001   0.004996  -0.003726
     6  C    0.000017   0.000017   0.000001  -0.031992  -0.031992
     7  C   -0.000008  -0.000001   0.000001  -0.003726   0.004996
     8  C   -0.000383   0.000057  -0.000001  -0.000807  -0.000149
     9  C    0.006278  -0.001066  -0.000000  -0.007695   0.006482
    10  C   -0.007858  -0.007858   0.005111  -0.030834  -0.030834
    11  O   -0.037999  -0.037999  -0.035253   0.002107   0.002106
    12  C    0.359987   0.359987   0.387491  -0.000091  -0.000091
    13  C   -0.000071  -0.000071  -0.000186   0.356425   0.356425
    14  H   -0.000001   0.000021  -0.000000   0.000019  -0.000090
    15  H    0.000184  -0.000140  -0.000068  -0.000106   0.005606
    16  H   -0.000084   0.002144  -0.000028  -0.000176  -0.000080
    17  H   -0.000000   0.000001  -0.000000  -0.000073   0.004334
    18  H   -0.000000   0.000000  -0.000000  -0.000151  -0.000014
    19  H   -0.000000  -0.000000  -0.000000  -0.003736  -0.003736
    20  H    0.000000  -0.000000  -0.000000  -0.000014  -0.000151
    21  H    0.000001  -0.000000  -0.000000   0.004334  -0.000073
    22  H    0.000021  -0.000001  -0.000000  -0.000090   0.000019
    23  H    0.002144  -0.000084  -0.000028  -0.000080  -0.000176
    24  H   -0.000140   0.000184  -0.000068   0.005606  -0.000106
    25  H    0.630801  -0.052421  -0.034609  -0.000044   0.000035
    26  H   -0.052421   0.630802  -0.034609   0.000035  -0.000044
    27  H   -0.034609  -0.034609   0.552804  -0.000013  -0.000013
    28  H   -0.000044   0.000035  -0.000013   0.592381  -0.033806
    29  H    0.000035  -0.000044  -0.000013  -0.033806   0.592381
 Mulliken charges:
               1
     1  O   -0.457311
     2  C    0.453367
     3  C   -0.170581
     4  C   -0.310734
     5  C   -0.280040
     6  C   -0.101805
     7  C   -0.280040
     8  C   -0.170581
     9  C   -0.310735
    10  C    0.347678
    11  O   -0.512093
    12  C   -0.205179
    13  C   -0.284877
    14  H    0.144547
    15  H    0.146320
    16  H    0.144676
    17  H    0.140531
    18  H    0.144926
    19  H    0.129035
    20  H    0.144926
    21  H    0.140531
    22  H    0.144547
    23  H    0.144677
    24  H    0.146320
    25  H    0.135171
    26  H    0.135171
    27  H    0.159470
    28  H    0.141041
    29  H    0.141041
 Sum of Mulliken charges =  -0.00000
 Mulliken charges with hydrogens summed into heavy atoms:
               1
     1  O   -0.457311
     2  C    0.453367
     3  C   -0.026033
     4  C   -0.019738
     5  C    0.005417
     6  C    0.027231
     7  C    0.005417
     8  C   -0.026033
     9  C   -0.019739
    10  C    0.347678
    11  O   -0.512093
    12  C    0.224633
    13  C   -0.002794
 APT charges:
               1
     1  O   -0.632391
     2  C    0.687110
     3  C   -0.030080
     4  C    0.032567
     5  C    0.112665
     6  C    0.104999
     7  C    0.112665
     8  C   -0.030079
     9  C    0.032567
    10  C    0.519909
    11  O   -0.766541
    12  C    0.494841
    13  C    0.051553
    14  H   -0.050405
    15  H   -0.036347
    16  H   -0.032493
    17  H   -0.044936
    18  H   -0.041848
    19  H   -0.068615
    20  H   -0.041848
    21  H   -0.044936
    22  H   -0.050405
    23  H   -0.032493
    24  H   -0.036347
    25  H   -0.057327
    26  H   -0.057327
    27  H   -0.027551
    28  H   -0.033454
    29  H   -0.033454
 Sum of APT charges =   0.00000
 APT charges with hydrogens summed into heavy atoms:
               1
     1  O   -0.632391
     2  C    0.687110
     3  C   -0.080485
     4  C   -0.036273
     5  C    0.025881
     6  C    0.036385
     7  C    0.025881
     8  C   -0.080484
     9  C   -0.036273
    10  C    0.519909
    11  O   -0.766541
    12  C    0.352636
    13  C   -0.015355
 Electronic spatial extent (au):  <R**2>=           2042.9272
 Charge=             -0.0000 electrons
 Dipole moment (field-independent basis, Debye):
    X=             -1.2787    Y=              1.5463    Z=              0.0000  Tot=              2.0065
 Quadrupole moment (field-independent basis, Debye-Ang):
   XX=            -82.7609   YY=            -82.9228   ZZ=            -75.3525
   XY=             11.1652   XZ=             -0.0000   YZ=             -0.0000
 Traceless Quadrupole moment (field-independent basis, Debye-Ang):
   XX=             -2.4155   YY=             -2.5774   ZZ=              4.9929
   XY=             11.1652   XZ=             -0.0000   YZ=             -0.0000
 Octapole moment (field-independent basis, Debye-Ang**2):
  XXX=            -22.6461  YYY=             10.3720  ZZZ=             -0.0000  XYY=            -18.7116
  XXY=              3.9998  XXZ=              0.0001  XZZ=              0.0730  YZZ=             -1.8589
  YYZ=              0.0000  XYZ=             -0.0000
 Hexadecapole moment (field-independent basis, Debye-Ang**3):
 XXXX=          -1365.5302 YYYY=           -741.9078 ZZZZ=           -524.4565 XXXY=             59.0981
 XXXZ=             -0.0001 YYYX=             24.1566 YYYZ=             -0.0000 ZZZX=             -0.0001
 ZZZY=             -0.0000 XXYY=           -393.3767 XXZZ=           -323.5141 YYZZ=           -203.6176
 XXYZ=             -0.0000 YYXZ=              0.0001 ZZXY=             -8.7627
 N-N= 8.906137493405D+02 E-N=-3.127764586897D+03  KE= 5.738834111471D+02
  Exact polarizability: 118.995  -0.002 107.454  -0.000  -0.000 102.938
 Approx polarizability: 162.372  -9.642 164.633  -0.000  -0.000 151.425
 Calling FoFJK, ICntrl=    100127 FMM=F ISym2X=0 I1Cent= 0 IOpClX= 0 NMat=1 NMatS=1 NMatT=0.
 Full mass-weighted force constant matrix:
 Low frequencies ---   -7.9077    0.0008    0.0010    0.0011    9.7089   10.2732
 Low frequencies ---   45.2491   91.0736  191.6794
 Diagonal vibrational polarizability:
       15.7284366       7.3854123      34.8831333
 Harmonic frequencies (cm**-1), IR intensities (KM/Mole), Raman scattering
 activities (A**4/AMU), depolarization ratios for plane and unpolarized
 incident light, reduced masses (AMU), force constants (mDyne/A),
 and normal coordinates:
                      1                      2                      3
                      A                      A                      A
 Frequencies --     45.2087                91.0722               191.6791
 Red. masses --      1.8038                 8.1423                 1.3738
 Frc consts  --      0.0022                 0.0398                 0.0297
 IR Inten    --      2.1103                 4.0375                 0.2950
  Atom  AN      X      Y      Z        X      Y      Z        X      Y      Z
     1   8     0.00   0.00  -0.01     0.49   0.31   0.00    -0.00  -0.00   0.02
     2   6     0.00  -0.00  -0.01     0.06  -0.01  -0.00     0.00   0.00   0.00
     3   6     0.03   0.02  -0.01    -0.09  -0.11   0.00     0.02  -0.00  -0.01
     4   6     0.03   0.02  -0.05    -0.09  -0.05   0.02     0.01   0.02  -0.06
     5   6     0.03   0.02   0.02    -0.03  -0.12  -0.01     0.05  -0.01   0.03
     6   6    -0.00  -0.00   0.02     0.02  -0.10  -0.00    -0.00   0.00   0.00
     7   6    -0.03  -0.02   0.02    -0.03  -0.12   0.01    -0.05   0.01   0.03
     8   6    -0.03  -0.02  -0.01    -0.09  -0.11  -0.00    -0.02   0.00  -0.01
     9   6    -0.03  -0.02  -0.05    -0.09  -0.05  -0.02    -0.01  -0.02  -0.06
    10   6     0.00   0.00  -0.04    -0.05  -0.00  -0.00     0.00  -0.00  -0.05
    11   8     0.00  -0.00  -0.11    -0.04   0.11   0.00     0.00  -0.00   0.00
    12   6     0.00   0.00   0.20    -0.16   0.19   0.00    -0.00   0.00   0.11
    13   6    -0.00  -0.00  -0.01     0.03  -0.03   0.00    -0.00  -0.00  -0.05
    14   1     0.05   0.03  -0.01    -0.10  -0.12  -0.00     0.04   0.00  -0.00
    15   1     0.05   0.05  -0.04    -0.07  -0.06   0.00     0.05   0.06  -0.06
    16   1     0.02   0.03  -0.08    -0.14  -0.04   0.04    -0.02   0.03  -0.10
    17   1     0.05   0.03   0.02    -0.03  -0.11  -0.00     0.11   0.01   0.01
    18   1     0.03   0.02   0.05    -0.03  -0.18  -0.04     0.05  -0.04   0.09
    19   1    -0.00  -0.00   0.04     0.08  -0.12  -0.00    -0.00   0.00   0.01
    20   1    -0.03  -0.02   0.05    -0.03  -0.18   0.04    -0.05   0.04   0.09
    21   1    -0.05  -0.03   0.02    -0.03  -0.11   0.00    -0.11  -0.01   0.01
    22   1    -0.05  -0.03  -0.01    -0.10  -0.12   0.00    -0.04  -0.00  -0.00
    23   1    -0.02  -0.03  -0.08    -0.14  -0.04  -0.04     0.02  -0.03  -0.10
    24   1    -0.05  -0.05  -0.04    -0.07  -0.06  -0.00    -0.05  -0.06  -0.06
    25   1    -0.20   0.37   0.50    -0.22   0.17   0.00     0.41  -0.19  -0.10
    26   1     0.20  -0.37   0.50    -0.22   0.17  -0.00    -0.41   0.19  -0.10
    27   1     0.00  -0.00  -0.17    -0.13   0.29   0.00    -0.00   0.00   0.67
    28   1    -0.02  -0.01  -0.01     0.05  -0.01  -0.00    -0.03   0.01  -0.06
    29   1     0.02   0.01  -0.01     0.05  -0.01   0.00     0.03  -0.01  -0.06
                      4                      5                      6
                      A                      A                      A
 Frequencies --    223.6437               257.4992               272.3076
 Red. masses --      3.0471                 2.3738                 2.3464
 Frc consts  --      0.0898                 0.0927                 0.1025
 IR Inten    --      0.5562                 2.9106                 1.3283
  Atom  AN      X      Y      Z        X      Y      Z        X      Y      Z
     1   8     0.03   0.06   0.00    -0.00  -0.00  -0.04    -0.00  -0.00   0.14
     2   6    -0.09  -0.03   0.00     0.00   0.00  -0.02     0.00  -0.00   0.05
     3   6    -0.08  -0.03  -0.00    -0.03  -0.02  -0.01    -0.01  -0.05   0.00
     4   6    -0.07   0.12  -0.02    -0.04   0.05  -0.04    -0.02   0.13  -0.09
     5   6     0.04  -0.07   0.01     0.11  -0.07   0.05    -0.03  -0.04  -0.06
     6   6     0.06  -0.04  -0.00    -0.00   0.00  -0.03    -0.00   0.00  -0.06
     7   6     0.04  -0.07  -0.01    -0.11   0.07   0.05     0.03   0.04  -0.06
     8   6    -0.08  -0.03   0.00     0.03   0.02  -0.01     0.01   0.05   0.00
     9   6    -0.07   0.12   0.02     0.04  -0.05  -0.04     0.02  -0.13  -0.09
    10   6    -0.03   0.11  -0.00     0.00  -0.00   0.01     0.00  -0.00  -0.01
    11   8    -0.04  -0.02   0.00     0.00   0.00   0.20     0.00   0.00   0.03
    12   6     0.19  -0.19   0.00    -0.00   0.00  -0.02    -0.00   0.00  -0.01
    13   6     0.04   0.09  -0.00    -0.00  -0.00  -0.12    -0.00  -0.00   0.14
    14   1    -0.11  -0.06  -0.00    -0.05  -0.03  -0.01    -0.01  -0.08   0.02
    15   1    -0.02   0.20   0.01    -0.01   0.12  -0.01     0.12   0.34  -0.04
    16   1    -0.16   0.15  -0.08    -0.06   0.06  -0.12    -0.17   0.19  -0.29
    17   1     0.11  -0.04  -0.00     0.33  -0.03  -0.01    -0.09  -0.09  -0.07
    18   1     0.04  -0.16   0.04     0.12  -0.19   0.23    -0.04   0.01  -0.10
    19   1     0.13  -0.06  -0.00    -0.00   0.00  -0.06    -0.00   0.00  -0.11
    20   1     0.04  -0.16  -0.04    -0.12   0.19   0.23     0.04  -0.01  -0.10
    21   1     0.11  -0.04   0.00    -0.33   0.03  -0.01     0.09   0.09  -0.07
    22   1    -0.11  -0.06   0.00     0.05   0.03  -0.01     0.01   0.08   0.02
    23   1    -0.16   0.15   0.08     0.06  -0.06  -0.12     0.17  -0.19  -0.29
    24   1    -0.02   0.20  -0.01     0.01  -0.12  -0.01    -0.12  -0.34  -0.04
    25   1     0.32  -0.15  -0.00    -0.27   0.01   0.04    -0.05   0.00  -0.00
    26   1     0.32  -0.15   0.00     0.27  -0.01   0.04     0.05  -0.00  -0.00
    27   1     0.13  -0.41   0.00    -0.00   0.00  -0.35    -0.00   0.00  -0.08
    28   1     0.09   0.12   0.00    -0.04   0.11  -0.20     0.15  -0.13   0.28
    29   1     0.09   0.12  -0.00     0.04  -0.11  -0.20    -0.15   0.13   0.28
                      7                      8                      9
                      A                      A                      A
 Frequencies --    335.6643               358.1496               366.3178
 Red. masses --      2.5782                 3.6571                 5.9331
 Frc consts  --      0.1711                 0.2764                 0.4691
 IR Inten    --      0.2163                 5.7594                 0.8098
  Atom  AN      X      Y      Z        X      Y      Z        X      Y      Z
     1   8    -0.01  -0.02   0.00    -0.00   0.00   0.14    -0.18   0.24  -0.00
     2   6     0.01  -0.00   0.00    -0.00   0.00   0.03    -0.17   0.22   0.00
     3   6    -0.03  -0.03   0.00     0.12   0.09  -0.02    -0.09   0.09  -0.08
     4   6    -0.01  -0.09   0.06     0.08  -0.01  -0.06    -0.06  -0.11  -0.05
     5   6    -0.13   0.00  -0.05    -0.02   0.15  -0.08     0.08   0.02  -0.08
     6   6    -0.01   0.01   0.00     0.00  -0.00   0.00     0.19  -0.06  -0.00
     7   6    -0.13   0.00   0.05     0.02  -0.15  -0.08     0.08   0.02   0.08
     8   6    -0.03  -0.03  -0.00    -0.12  -0.09  -0.02    -0.09   0.09   0.08
     9   6    -0.01  -0.09  -0.06    -0.08   0.01  -0.06    -0.06  -0.11   0.05
    10   6     0.04   0.05  -0.00    -0.00  -0.00  -0.05     0.04  -0.15   0.00
    11   8     0.07   0.12   0.00    -0.00   0.00   0.23     0.06  -0.03  -0.00
    12   6     0.21   0.04   0.00    -0.00  -0.00   0.03     0.02  -0.00  -0.00
    13   6     0.02   0.04   0.00     0.00  -0.00  -0.11     0.18  -0.18   0.00
    14   1    -0.03  -0.02  -0.00     0.16   0.11  -0.01    -0.01  -0.02   0.03
    15   1    -0.07  -0.25  -0.01     0.09  -0.08  -0.09    -0.25  -0.17   0.00
    16   1     0.03  -0.11   0.24     0.18  -0.05  -0.04     0.11  -0.17  -0.00
    17   1    -0.31  -0.02   0.01    -0.23   0.12  -0.02     0.09   0.16  -0.01
    18   1    -0.14   0.09  -0.23    -0.03   0.30  -0.23     0.08  -0.16  -0.15
    19   1     0.05  -0.01   0.00    -0.00  -0.00   0.15     0.09  -0.03  -0.00
    20   1    -0.14   0.09   0.23     0.03  -0.30  -0.23     0.08  -0.16   0.15
    21   1    -0.31  -0.02  -0.01     0.23  -0.12  -0.02     0.09   0.16   0.01
    22   1    -0.03  -0.02   0.00    -0.16  -0.11  -0.01    -0.01  -0.02  -0.03
    23   1     0.03  -0.11  -0.24    -0.18   0.05  -0.04     0.11  -0.17   0.00
    24   1    -0.07  -0.25   0.01    -0.09   0.08  -0.09    -0.25  -0.17  -0.00
    25   1     0.30   0.07  -0.00    -0.13  -0.08   0.00     0.00  -0.01   0.00
    26   1     0.30   0.07   0.00     0.13   0.08   0.00     0.00  -0.01  -0.00
    27   1     0.17  -0.11   0.00    -0.00  -0.00  -0.10     0.03   0.03   0.00
    28   1     0.00   0.03   0.00    -0.09   0.06  -0.19     0.18  -0.17  -0.01
    29   1     0.00   0.03  -0.00     0.09  -0.06  -0.19     0.18  -0.17   0.01
                     10                     11                     12
                      A                      A                      A
 Frequencies --    395.6101               429.1982               449.5605
 Red. masses --      4.2730                 1.9844                 2.5738
 Frc consts  --      0.3940                 0.2154                 0.3065
 IR Inten    --      0.6206                 0.5119                 0.2731
  Atom  AN      X      Y      Z        X      Y      Z        X      Y      Z
     1   8    -0.00   0.00   0.04     0.00   0.01   0.00     0.00   0.03  -0.00
     2   6    -0.00   0.00   0.02    -0.02  -0.01   0.00    -0.06  -0.02   0.00
     3   6    -0.12  -0.06   0.02     0.01  -0.03  -0.04    -0.02  -0.00   0.00
     4   6    -0.11  -0.10  -0.16     0.02   0.08  -0.10    -0.01  -0.03  -0.06
     5   6    -0.16  -0.03   0.13    -0.08  -0.01  -0.06     0.02  -0.01   0.11
     6   6    -0.00   0.00   0.18    -0.02  -0.05   0.00    -0.15   0.02  -0.00
     7   6     0.16   0.03   0.13    -0.08  -0.01   0.06     0.02  -0.01  -0.11
     8   6     0.12   0.06   0.02     0.01  -0.03   0.04    -0.02  -0.00  -0.00
     9   6     0.11   0.10  -0.16     0.02   0.08   0.10    -0.01  -0.03   0.06
    10   6    -0.00  -0.00  -0.18     0.07  -0.05  -0.00     0.02  -0.08   0.00
    11   8    -0.00   0.00   0.05     0.10  -0.04   0.00     0.08   0.10  -0.00
    12   6    -0.00   0.00  -0.00     0.01   0.04  -0.00     0.15   0.10  -0.00
    13   6    -0.00  -0.00  -0.06     0.01  -0.05  -0.00    -0.10  -0.11  -0.00
    14   1     0.00   0.02   0.02     0.04  -0.05  -0.01     0.04   0.04   0.01
    15   1    -0.03  -0.14  -0.23     0.11   0.34   0.01    -0.01   0.08  -0.01
    16   1    -0.14  -0.09  -0.10    -0.12   0.13  -0.35     0.00  -0.02  -0.18
    17   1    -0.28   0.03   0.21    -0.28  -0.02   0.00     0.30  -0.01  -0.00
    18   1    -0.17  -0.04  -0.03    -0.09   0.11  -0.23     0.03  -0.08   0.39
    19   1    -0.00   0.00   0.10    -0.01  -0.05   0.00    -0.22   0.04  -0.00
    20   1     0.17   0.04  -0.03    -0.09   0.11   0.23     0.03  -0.08  -0.39
    21   1     0.28  -0.03   0.21    -0.28  -0.02  -0.00     0.30  -0.01   0.00
    22   1    -0.00  -0.02   0.02     0.04  -0.05   0.01     0.04   0.04  -0.01
    23   1     0.14   0.09  -0.10    -0.12   0.13   0.35     0.00  -0.02   0.18
    24   1     0.03   0.14  -0.23     0.11   0.34  -0.01    -0.01   0.08   0.01
    25   1    -0.07   0.01   0.02    -0.05   0.02   0.00     0.20   0.11  -0.00
    26   1     0.07  -0.01   0.02    -0.05   0.02  -0.00     0.20   0.11   0.00
    27   1    -0.00   0.00  -0.09     0.04   0.13  -0.00     0.12   0.00   0.00
    28   1    -0.23  -0.07  -0.13    -0.01  -0.07   0.00    -0.17  -0.16  -0.00
    29   1     0.23   0.07  -0.13    -0.01  -0.07  -0.00    -0.17  -0.16   0.00
                     13                     14                     15
                      A                      A                      A
 Frequencies --    451.6591               477.9455               539.3571
 Red. masses --      2.2083                 3.2700                 4.1446
 Frc consts  --      0.2654                 0.4401                 0.7104
 IR Inten    --      7.9215                 2.6253                 5.5997
  Atom  AN      X      Y      Z        X      Y      Z        X      Y      Z
     1   8     0.00   0.00   0.10    -0.00  -0.00   0.24    -0.02   0.07  -0.00
     2   6    -0.00  -0.00  -0.10    -0.00   0.00  -0.12    -0.13  -0.02  -0.00
     3   6     0.03  -0.02  -0.12    -0.07   0.03  -0.14    -0.07  -0.04   0.01
     4   6     0.01  -0.10  -0.03    -0.08   0.06   0.06     0.02  -0.00   0.05
     5   6     0.05  -0.02   0.02    -0.01   0.05   0.02    -0.05  -0.04   0.07
     6   6    -0.00   0.00   0.01    -0.00   0.00   0.06    -0.04   0.10   0.00
     7   6    -0.05   0.02   0.02     0.01  -0.05   0.02    -0.05  -0.04  -0.07
     8   6    -0.03   0.02  -0.12     0.07  -0.03  -0.14    -0.07  -0.04  -0.01
     9   6    -0.01   0.10  -0.03     0.08  -0.06   0.06     0.02  -0.00  -0.05
    10   6     0.00  -0.00  -0.04     0.00  -0.00   0.11     0.17   0.06  -0.00
    11   8     0.00   0.00   0.06     0.00  -0.00  -0.09     0.25  -0.20   0.00
    12   6     0.00   0.00   0.01     0.00   0.00  -0.02    -0.04   0.01  -0.00
    13   6    -0.00  -0.00   0.14    -0.00   0.00  -0.08    -0.02   0.19   0.00
    14   1     0.02   0.03  -0.16    -0.18   0.13  -0.25    -0.01  -0.02   0.02
    15   1    -0.09  -0.27  -0.08    -0.20   0.15   0.16    -0.08  -0.12   0.03
    16   1     0.10  -0.13   0.15    -0.11   0.07   0.02    -0.05   0.01   0.27
    17   1     0.20   0.05  -0.00     0.02   0.15   0.06     0.12  -0.06  -0.01
    18   1     0.06  -0.08   0.16    -0.01  -0.01   0.03    -0.04  -0.13   0.20
    19   1    -0.00   0.00  -0.02    -0.00   0.00   0.09     0.14   0.04  -0.00
    20   1    -0.06   0.08   0.16     0.01   0.01   0.03    -0.04  -0.13  -0.20
    21   1    -0.20  -0.05  -0.00    -0.02  -0.15   0.06     0.12  -0.06   0.01
    22   1    -0.02  -0.03  -0.16     0.18  -0.13  -0.25    -0.01  -0.02  -0.02
    23   1    -0.10   0.13   0.15     0.11  -0.07   0.02    -0.05   0.01  -0.27
    24   1     0.09   0.27  -0.08     0.20  -0.15   0.16    -0.08  -0.12  -0.03
    25   1    -0.04  -0.02   0.00     0.05   0.04  -0.00    -0.28  -0.06   0.01
    26   1     0.04   0.02   0.00    -0.05  -0.04  -0.00    -0.28  -0.06  -0.01
    27   1     0.00  -0.00  -0.03     0.00   0.00   0.02     0.08   0.40  -0.00
    28   1     0.15  -0.24   0.35    -0.15   0.23  -0.28    -0.06   0.15   0.01
    29   1    -0.15   0.24   0.35     0.15  -0.23  -0.28    -0.06   0.15  -0.01
                     16                     17                     18
                      A                      A                      A
 Frequencies --    612.2803               631.8841               708.0018
 Red. masses --      5.5867                 3.5354                 3.5503
 Frc consts  --      1.2340                 0.8317                 1.0485
 IR Inten    --      0.2685                 1.4145                 0.2604
  Atom  AN      X      Y      Z        X      Y      Z        X      Y      Z
     1   8     0.15  -0.15  -0.00     0.00  -0.00  -0.05    -0.04   0.09   0.00
     2   6    -0.03  -0.24   0.00     0.00   0.00  -0.13    -0.15  -0.01  -0.00
     3   6    -0.12   0.04   0.05     0.13  -0.15  -0.10     0.06  -0.07   0.06
     4   6    -0.14  -0.04  -0.03     0.14   0.00   0.04     0.08  -0.11  -0.15
     5   6    -0.00   0.15   0.07    -0.06  -0.12   0.08    -0.04  -0.02   0.08
     6   6     0.17   0.28   0.00     0.00   0.00   0.08     0.06   0.13   0.00
     7   6    -0.00   0.15  -0.07     0.06   0.12   0.08    -0.04  -0.02  -0.08
     8   6    -0.12   0.04  -0.05    -0.13   0.15  -0.10     0.06  -0.07  -0.06
     9   6    -0.14  -0.04   0.03    -0.14  -0.00   0.04     0.08  -0.11   0.15
    10   6     0.02  -0.12  -0.00    -0.00  -0.00   0.09    -0.01  -0.01   0.00
    11   8     0.04  -0.04  -0.00    -0.00   0.00   0.04    -0.11   0.06  -0.00
    12   6    -0.00  -0.02   0.00    -0.00  -0.00   0.01    -0.05  -0.04   0.00
    13   6     0.18  -0.05   0.00     0.00  -0.00   0.02     0.05   0.16   0.00
    14   1    -0.12   0.27  -0.09     0.11  -0.06  -0.17     0.30  -0.02   0.14
    15   1    -0.15   0.11   0.06     0.23   0.17   0.09     0.22  -0.06  -0.18
    16   1    -0.14  -0.04  -0.20    -0.01   0.06  -0.11     0.07  -0.11  -0.24
    17   1    -0.09   0.09   0.06    -0.27  -0.14   0.15    -0.12  -0.16   0.03
    18   1    -0.01   0.03  -0.12    -0.07   0.07  -0.09    -0.04   0.01  -0.01
    19   1     0.05   0.32   0.00     0.00   0.00  -0.17     0.23   0.08   0.00
    20   1    -0.01   0.03   0.12     0.07  -0.07  -0.09    -0.04   0.01   0.01
    21   1    -0.09   0.09  -0.06     0.27   0.14   0.15    -0.12  -0.16  -0.03
    22   1    -0.12   0.27   0.09    -0.11   0.06  -0.17     0.30  -0.02  -0.14
    23   1    -0.14  -0.04   0.20     0.01  -0.06  -0.11     0.07  -0.11   0.24
    24   1    -0.15   0.11  -0.06    -0.23  -0.17   0.09     0.22  -0.06   0.18
    25   1    -0.03  -0.03  -0.00    -0.02  -0.03  -0.01     0.05  -0.01  -0.00
    26   1    -0.03  -0.03   0.00     0.02   0.03  -0.01     0.05  -0.01   0.00
    27   1     0.01   0.02   0.00    -0.00  -0.00  -0.01    -0.09  -0.17   0.00
    28   1     0.10  -0.10  -0.01    -0.15   0.19  -0.16     0.04   0.16  -0.00
    29   1     0.10  -0.10   0.01     0.15  -0.19  -0.16     0.04   0.16   0.00
                     19                     20                     21
                      A                      A                      A
 Frequencies --    718.0281               790.5107               806.1181
 Red. masses --      4.1369                 3.7652                 2.8438
 Frc consts  --      1.2566                 1.3863                 1.0888
 IR Inten    --      0.7814                 0.0137                 0.6509
  Atom  AN      X      Y      Z        X      Y      Z        X      Y      Z
     1   8    -0.06   0.07   0.00    -0.05  -0.06  -0.00    -0.03   0.01  -0.00
     2   6    -0.03   0.08   0.00     0.33   0.22   0.00     0.06   0.08   0.00
     3   6    -0.01   0.01   0.25    -0.03   0.02   0.00    -0.01  -0.08   0.06
     4   6     0.05   0.06   0.17    -0.08  -0.06  -0.04    -0.03  -0.04   0.04
     5   6    -0.04  -0.05   0.11    -0.10  -0.06   0.07     0.08  -0.01  -0.15
     6   6     0.04  -0.01   0.00     0.02  -0.01   0.00     0.03   0.21   0.00
     7   6    -0.04  -0.05  -0.11    -0.10  -0.06  -0.07     0.08  -0.01   0.15
     8   6    -0.01   0.01  -0.25    -0.03   0.02  -0.00    -0.01  -0.08  -0.06
     9   6     0.05   0.06  -0.17    -0.08  -0.06   0.04    -0.03  -0.04  -0.04
    10   6    -0.01  -0.05  -0.00    -0.01  -0.03  -0.00    -0.02  -0.05  -0.00
    11   8     0.01  -0.00   0.00     0.02  -0.02  -0.00     0.01  -0.01   0.00
    12   6     0.00   0.00  -0.00     0.01  -0.01   0.00     0.03   0.03  -0.00
    13   6     0.08  -0.16  -0.00     0.09   0.10   0.00    -0.14   0.04  -0.00
    14   1    -0.08   0.03   0.22     0.02   0.11  -0.03    -0.08  -0.23   0.13
    15   1     0.27   0.20   0.15     0.07   0.16   0.01     0.12   0.13   0.06
    16   1    -0.01   0.08  -0.03    -0.19  -0.02  -0.26    -0.15   0.01  -0.14
    17   1    -0.24  -0.22   0.10     0.17   0.08   0.04     0.13  -0.16  -0.25
    18   1    -0.05   0.01  -0.09    -0.09  -0.24   0.26     0.09  -0.13  -0.16
    19   1    -0.06   0.02   0.00     0.24  -0.08   0.00     0.00   0.22   0.00
    20   1    -0.05   0.01   0.09    -0.09  -0.24  -0.26     0.09  -0.13   0.16
    21   1    -0.24  -0.22  -0.10     0.17   0.08  -0.04     0.13  -0.16   0.25
    22   1    -0.08   0.03  -0.22     0.02   0.11   0.03    -0.08  -0.23  -0.13
    23   1    -0.01   0.08   0.03    -0.19  -0.02   0.26    -0.15   0.01   0.14
    24   1     0.27   0.20  -0.15     0.07   0.16  -0.01     0.12   0.13  -0.06
    25   1     0.00   0.00   0.00    -0.02  -0.01  -0.00     0.03   0.02  -0.00
    26   1     0.00   0.00  -0.00    -0.02  -0.01   0.00     0.03   0.02   0.00
    27   1     0.01   0.00  -0.00     0.02   0.02   0.00     0.02   0.02   0.00
    28   1     0.08  -0.16  -0.01     0.11   0.11   0.00    -0.28  -0.06  -0.01
    29   1     0.08  -0.16   0.01     0.11   0.11  -0.00    -0.28  -0.06   0.01
                     22                     23                     24
                      A                      A                      A
 Frequencies --    860.2880               901.4111               906.7301
 Red. masses --      2.6563                 1.5726                 3.4689
 Frc consts  --      1.1583                 0.7529                 1.6803
 IR Inten    --      1.8007                 4.0792                13.1910
  Atom  AN      X      Y      Z        X      Y      Z        X      Y      Z
     1   8     0.00  -0.00   0.04     0.00  -0.00  -0.01    -0.02   0.03  -0.00
     2   6     0.00   0.00  -0.05     0.00   0.00   0.05    -0.01   0.02   0.00
     3   6    -0.05   0.15   0.02    -0.01  -0.00  -0.01     0.01  -0.11  -0.10
     4   6     0.10   0.07   0.00     0.04  -0.05  -0.03     0.05   0.01   0.08
     5   6    -0.12  -0.10   0.06    -0.09   0.04  -0.06    -0.07   0.04  -0.02
     6   6     0.00   0.00  -0.11     0.00  -0.00   0.00    -0.08   0.12   0.00
     7   6     0.12   0.10   0.06     0.09  -0.04  -0.06    -0.07   0.04   0.02
     8   6     0.05  -0.15   0.02     0.01   0.00  -0.01     0.01  -0.11   0.10
     9   6    -0.10  -0.07   0.00    -0.04   0.05  -0.03     0.05   0.01  -0.08
    10   6    -0.00  -0.00  -0.04    -0.00  -0.00   0.06     0.20   0.02   0.00
    11   8     0.00   0.00   0.01     0.00  -0.00  -0.00    -0.08   0.11  -0.00
    12   6     0.00   0.00   0.01     0.00   0.00   0.00    -0.09  -0.10   0.00
    13   6    -0.00   0.00  -0.03    -0.00   0.00   0.11     0.17  -0.09   0.00
    14   1    -0.09   0.33  -0.11     0.12  -0.03   0.06     0.01  -0.17  -0.06
    15   1     0.06  -0.11  -0.08     0.07   0.05   0.01     0.03   0.15   0.17
    16   1     0.30  -0.00   0.10    -0.04  -0.02  -0.12    -0.21   0.10   0.09
    17   1     0.03  -0.12  -0.01     0.34   0.10  -0.18     0.21   0.08  -0.11
    18   1    -0.11  -0.22   0.14    -0.07  -0.15   0.34    -0.07  -0.02   0.27
    19   1     0.00   0.00  -0.39     0.00  -0.00   0.02    -0.17   0.15   0.00
    20   1     0.11   0.22   0.14     0.07   0.15   0.34    -0.07  -0.02  -0.27
    21   1    -0.03   0.12  -0.01    -0.34  -0.10  -0.18     0.21   0.08   0.11
    22   1     0.09  -0.33  -0.11    -0.12   0.03   0.06     0.01  -0.17   0.06
    23   1    -0.30   0.00   0.10     0.04   0.02  -0.12    -0.21   0.10  -0.09
    24   1    -0.06   0.11  -0.08    -0.07  -0.05   0.01     0.03   0.15  -0.17
    25   1    -0.01  -0.02  -0.00    -0.00  -0.00  -0.00    -0.01  -0.08  -0.00
    26   1     0.01   0.02  -0.00     0.00   0.00  -0.00    -0.01  -0.08   0.00
    27   1     0.00   0.00   0.01     0.00   0.00   0.00    -0.13  -0.24   0.00
    28   1     0.08  -0.02   0.01    -0.23   0.25  -0.14     0.09  -0.15  -0.00
    29   1    -0.08   0.02   0.01     0.23  -0.25  -0.14     0.09  -0.15   0.00
                     25                     26                     27
                      A                      A                      A
 Frequencies --    907.2563               918.0825               953.5722
 Red. masses --      1.5749                 2.3648                 2.1027
 Frc consts  --      0.7638                 1.1744                 1.1265
 IR Inten    --      1.5674                15.0597                 4.0729
  Atom  AN      X      Y      Z        X      Y      Z        X      Y      Z
     1   8     0.00  -0.00  -0.01     0.03  -0.03  -0.00     0.00  -0.00  -0.01
     2   6     0.00  -0.00   0.05    -0.00  -0.05   0.00    -0.00  -0.00   0.04
     3   6     0.00  -0.00  -0.02    -0.08   0.11  -0.03     0.11   0.04  -0.01
     4   6    -0.00   0.10  -0.05     0.13   0.03   0.01    -0.11  -0.02  -0.06
     5   6     0.04  -0.05  -0.03    -0.06  -0.09  -0.04    -0.03  -0.02   0.07
     6   6     0.00   0.00   0.06     0.06   0.05   0.00    -0.00   0.00  -0.11
     7   6    -0.04   0.05  -0.03    -0.06  -0.09   0.04     0.03   0.02   0.07
     8   6    -0.00   0.00  -0.02    -0.08   0.11   0.03    -0.11  -0.04  -0.01
     9   6     0.00  -0.10  -0.05     0.13   0.03  -0.01     0.11   0.02  -0.06
    10   6    -0.00  -0.00  -0.01     0.04  -0.06   0.00    -0.00   0.00   0.11
    11   8     0.00  -0.00  -0.00    -0.04   0.04  -0.00    -0.00  -0.00  -0.02
    12   6     0.00   0.00   0.00    -0.03  -0.00  -0.00    -0.00   0.00  -0.01
    13   6    -0.00  -0.00   0.11    -0.05   0.01   0.00     0.00  -0.00   0.01
    14   1    -0.02  -0.13   0.05    -0.19   0.22  -0.16     0.39   0.14   0.06
    15   1    -0.19  -0.28  -0.18     0.07  -0.00   0.02    -0.33   0.00   0.05
    16   1     0.16   0.03   0.36     0.32  -0.03  -0.06    -0.09  -0.03   0.00
    17   1    -0.06  -0.04   0.00     0.09  -0.05  -0.08    -0.07  -0.08   0.05
    18   1     0.03   0.03  -0.10    -0.06  -0.36  -0.02    -0.03   0.16   0.08
    19   1     0.00   0.00   0.00     0.22  -0.00   0.00    -0.00   0.00  -0.35
    20   1    -0.03  -0.03  -0.10    -0.06  -0.36   0.02     0.03  -0.16   0.08
    21   1     0.06   0.04   0.00     0.09  -0.05   0.08     0.07   0.08   0.05
    22   1     0.02   0.13   0.05    -0.19   0.22   0.16    -0.39  -0.14   0.06
    23   1    -0.16  -0.03   0.36     0.32  -0.03   0.06     0.09   0.03   0.00
    24   1     0.19   0.28  -0.18     0.07  -0.00  -0.02     0.33  -0.00   0.05
    25   1     0.00   0.01   0.00     0.05   0.01  -0.00     0.02   0.02   0.00
    26   1    -0.00  -0.01   0.00     0.05   0.01   0.00    -0.02  -0.02   0.00
    27   1     0.00   0.00   0.01    -0.06  -0.11   0.00    -0.00  -0.00   0.00
    28   1    -0.22   0.26  -0.14    -0.15  -0.08  -0.00     0.15   0.17  -0.02
    29   1     0.22  -0.26  -0.14    -0.15  -0.08   0.00    -0.15  -0.17  -0.02
                     28                     29                     30
                      A                      A                      A
 Frequencies --    979.3516               991.1834              1016.6516
 Red. masses --      2.1182                 2.1025                 2.0316
 Frc consts  --      1.1970                 1.2170                 1.2372
 IR Inten    --      3.5984                 1.9590                 0.0091
  Atom  AN      X      Y      Z        X      Y      Z        X      Y      Z
     1   8     0.02  -0.01   0.00     0.01  -0.02   0.00     0.00  -0.00  -0.01
     2   6    -0.04  -0.04  -0.00     0.05   0.03  -0.00     0.00  -0.00   0.01
     3   6    -0.06   0.01   0.06    -0.01   0.02   0.06     0.05  -0.09  -0.02
     4   6     0.06  -0.04   0.00    -0.02   0.07  -0.12    -0.01   0.10   0.05
     5   6    -0.02   0.07  -0.10    -0.02  -0.05  -0.04    -0.08   0.07   0.03
     6   6    -0.10  -0.08  -0.00    -0.05   0.08   0.00    -0.00  -0.00  -0.05
     7   6    -0.02   0.07   0.10    -0.02  -0.05   0.04     0.08  -0.07   0.03
     8   6    -0.06   0.01  -0.06    -0.01   0.02  -0.06    -0.05   0.09  -0.02
     9   6     0.06  -0.04  -0.00    -0.02   0.07   0.12     0.01  -0.10   0.05
    10   6    -0.10   0.01   0.00     0.00   0.10   0.00     0.00   0.00  -0.10
    11   8     0.02  -0.04   0.00     0.02  -0.00  -0.00     0.00   0.00   0.01
    12   6     0.02   0.02  -0.00    -0.01  -0.03   0.00    -0.00  -0.00  -0.00
    13   6     0.10   0.04   0.00     0.07  -0.12  -0.00     0.00   0.00  -0.08
    14   1    -0.16  -0.09   0.08     0.11   0.03   0.10    -0.01  -0.16  -0.00
    15   1     0.29   0.00  -0.08    -0.09  -0.27  -0.28     0.01  -0.11  -0.07
    16   1     0.08  -0.04  -0.17     0.08   0.02   0.25    -0.14   0.13   0.34
    17   1     0.22   0.12  -0.17     0.04  -0.25  -0.17     0.15   0.11  -0.03
    18   1    -0.01  -0.04   0.18    -0.02  -0.12  -0.02    -0.08   0.20   0.36
    19   1    -0.25  -0.02   0.00    -0.33   0.17   0.00    -0.00  -0.00  -0.15
    20   1    -0.01  -0.04  -0.18    -0.02  -0.12   0.02     0.08  -0.20   0.36
    21   1     0.22   0.12   0.17     0.04  -0.25   0.17    -0.15  -0.11  -0.03
    22   1    -0.16  -0.09  -0.08     0.11   0.03  -0.10     0.01   0.16  -0.00
    23   1     0.08  -0.04   0.17     0.08   0.02  -0.25     0.14  -0.13   0.34
    24   1     0.29   0.00   0.08    -0.09  -0.27   0.28    -0.01   0.11  -0.07
    25   1    -0.00   0.02   0.00    -0.06  -0.04   0.01     0.00   0.01   0.01
    26   1    -0.00   0.02  -0.00    -0.06  -0.04  -0.01    -0.00  -0.01   0.01
    27   1     0.04   0.08  -0.00     0.02   0.07  -0.00     0.00   0.00  -0.01
    28   1     0.29   0.19   0.00     0.09  -0.09  -0.01     0.07  -0.17   0.05
    29   1     0.29   0.19  -0.00     0.09  -0.09   0.01    -0.07   0.17   0.05
                     31                     32                     33
                      A                      A                      A
 Frequencies --   1048.3756              1063.6146              1071.7859
 Red. masses --      2.1500                 1.9218                 5.1250
 Frc consts  --      1.3923                 1.2809                 3.4687
 IR Inten    --      0.7266                 6.0258                 5.5486
  Atom  AN      X      Y      Z        X      Y      Z        X      Y      Z
     1   8    -0.01  -0.01   0.00    -0.00   0.00  -0.00     0.03  -0.04   0.00
     2   6     0.06   0.04  -0.00    -0.00  -0.00   0.05    -0.00  -0.02  -0.00
     3   6    -0.10  -0.09  -0.01    -0.10  -0.05  -0.02    -0.06   0.08   0.16
     4   6     0.07   0.01  -0.05     0.08  -0.01  -0.06    -0.04  -0.05  -0.06
     5   6     0.01   0.07   0.06     0.01   0.06   0.05     0.04   0.06  -0.06
     6   6     0.10  -0.01  -0.00    -0.00   0.00  -0.08    -0.01  -0.20  -0.00
     7   6     0.01   0.07  -0.06    -0.01  -0.06   0.05     0.04   0.06   0.06
     8   6    -0.10  -0.09   0.01     0.10   0.05  -0.02    -0.06   0.08  -0.16
     9   6     0.07   0.01   0.05    -0.08   0.01  -0.06    -0.04  -0.05   0.06
    10   6    -0.01   0.10   0.00    -0.00  -0.00   0.11     0.27   0.03   0.00
    11   8    -0.00  -0.01  -0.00    -0.00  -0.00  -0.01     0.09   0.21  -0.00
    12   6     0.01   0.00  -0.00     0.00   0.00   0.00    -0.14  -0.21   0.00
    13   6    -0.08  -0.08  -0.00     0.00   0.00  -0.01    -0.10   0.07   0.00
    14   1    -0.17  -0.13  -0.01    -0.09  -0.16   0.05     0.08   0.01   0.28
    15   1     0.32  -0.15  -0.24     0.04  -0.09  -0.09    -0.03   0.03  -0.02
    16   1    -0.08   0.05   0.11     0.14  -0.03  -0.01    -0.14  -0.02  -0.00
    17   1    -0.04   0.33   0.22    -0.08   0.27   0.21     0.05   0.16  -0.01
    18   1     0.01  -0.08  -0.06     0.01   0.08  -0.03     0.04  -0.01  -0.01
    19   1     0.00   0.03  -0.00     0.00   0.00  -0.14     0.17  -0.26  -0.00
    20   1     0.01  -0.08   0.06    -0.01  -0.08  -0.03     0.04  -0.01   0.01
    21   1    -0.04   0.33  -0.22     0.08  -0.27   0.21     0.05   0.16   0.01
    22   1    -0.17  -0.13   0.01     0.09   0.16   0.05     0.08   0.01  -0.28
    23   1    -0.08   0.05  -0.11    -0.14   0.03  -0.01    -0.14  -0.02   0.00
    24   1     0.32  -0.15   0.24    -0.04   0.09  -0.09    -0.03   0.03   0.02
    25   1    -0.03  -0.00   0.00    -0.01  -0.01  -0.00    -0.10  -0.18  -0.00
    26   1    -0.03  -0.00  -0.00     0.01   0.01  -0.00    -0.10  -0.18   0.00
    27   1     0.02   0.05  -0.00     0.00   0.00   0.01    -0.13  -0.20   0.00
    28   1    -0.12  -0.11  -0.00     0.40   0.28   0.01    -0.24  -0.09   0.02
    29   1    -0.12  -0.11   0.00    -0.40  -0.28   0.01    -0.24  -0.09  -0.02
                     34                     35                     36
                      A                      A                      A
 Frequencies --   1072.2343              1098.8777              1123.7531
 Red. masses --      1.7551                 1.8117                 1.4372
 Frc consts  --      1.1888                 1.2890                 1.0693
 IR Inten    --     30.6716                11.1729                 8.5970
  Atom  AN      X      Y      Z        X      Y      Z        X      Y      Z
     1   8     0.00  -0.00  -0.02     0.02   0.00   0.00     0.01  -0.02   0.00
     2   6     0.00  -0.00   0.15    -0.06  -0.05  -0.00     0.02   0.01   0.00
     3   6     0.01   0.03  -0.08     0.08   0.03   0.02    -0.00  -0.03   0.04
     4   6     0.04   0.02   0.00    -0.02  -0.01   0.02    -0.01   0.07  -0.03
     5   6    -0.03  -0.05  -0.03    -0.08   0.03  -0.05    -0.04   0.02  -0.01
     6   6    -0.00  -0.00   0.09     0.10  -0.03   0.00     0.03  -0.00  -0.00
     7   6     0.03   0.05  -0.03    -0.08   0.03   0.05    -0.04   0.02   0.01
     8   6    -0.01  -0.03  -0.08     0.08   0.03  -0.02    -0.00  -0.03  -0.04
     9   6    -0.04  -0.02   0.00    -0.02  -0.01  -0.02    -0.01   0.07   0.03
    10   6     0.00   0.00   0.02    -0.02   0.06   0.00     0.02  -0.09  -0.00
    11   8     0.00   0.00   0.00    -0.04  -0.05   0.00    -0.03  -0.04   0.00
    12   6    -0.00  -0.00   0.00     0.05   0.05  -0.00     0.00   0.05   0.00
    13   6    -0.00   0.00  -0.09    -0.04  -0.06  -0.00     0.03   0.02   0.00
    14   1     0.15  -0.18   0.11     0.36   0.11   0.10    -0.07  -0.32   0.19
    15   1    -0.32   0.10   0.20     0.08   0.02  -0.01    -0.22  -0.09  -0.02
    16   1     0.15  -0.02  -0.04    -0.25   0.07   0.10     0.25  -0.02   0.08
    17   1     0.04   0.27   0.12     0.20   0.17  -0.08     0.07   0.09  -0.01
    18   1    -0.03  -0.21  -0.05    -0.07  -0.26   0.12    -0.04   0.17   0.21
    19   1     0.00  -0.00   0.00     0.25  -0.08   0.00     0.43  -0.13  -0.00
    20   1     0.03   0.21  -0.05    -0.07  -0.26  -0.12    -0.04   0.17  -0.21
    21   1    -0.04  -0.27   0.12     0.20   0.17   0.08     0.07   0.09   0.01
    22   1    -0.15   0.18   0.11     0.36   0.11  -0.10    -0.07  -0.32  -0.19
    23   1    -0.15   0.02  -0.04    -0.25   0.07  -0.10     0.25  -0.02  -0.08
    24   1     0.32  -0.10   0.20     0.08   0.02   0.01    -0.22  -0.09   0.02
    25   1    -0.01  -0.02  -0.00    -0.02   0.03   0.00     0.09   0.05  -0.01
    26   1     0.01   0.02  -0.00    -0.02   0.03  -0.00     0.09   0.05   0.01
    27   1    -0.00  -0.00   0.01     0.05   0.08  -0.00    -0.05  -0.11   0.00
    28   1     0.04  -0.27   0.09    -0.11  -0.11  -0.00    -0.08  -0.07   0.00
    29   1    -0.04   0.27   0.09    -0.11  -0.11   0.00    -0.08  -0.07  -0.00
                     37                     38                     39
                      A                      A                      A
 Frequencies --   1131.4461              1152.4666              1157.2113
 Red. masses --      1.1552                 4.0192                 1.1765
 Frc consts  --      0.8713                 3.1452                 0.9283
 IR Inten    --      0.2495               150.0560                 0.4402
  Atom  AN      X      Y      Z        X      Y      Z        X      Y      Z
     1   8     0.00  -0.00   0.00     0.00  -0.01  -0.00     0.00  -0.00   0.00
     2   6     0.00   0.00  -0.03     0.03   0.01   0.00     0.00   0.00  -0.02
     3   6     0.01  -0.02   0.01    -0.07   0.02   0.04    -0.03  -0.04   0.01
     4   6     0.01   0.02  -0.02     0.02  -0.04  -0.04     0.02   0.01  -0.03
     5   6    -0.03   0.00  -0.01     0.05   0.01   0.00    -0.01   0.02   0.01
     6   6    -0.00  -0.00   0.04    -0.06  -0.06  -0.00    -0.00  -0.00   0.01
     7   6     0.03  -0.00  -0.01     0.05   0.01  -0.00     0.01  -0.02   0.01
     8   6    -0.01   0.02   0.01    -0.07   0.02  -0.04     0.03   0.04   0.01
     9   6    -0.01  -0.02  -0.02     0.02  -0.04   0.04    -0.02  -0.01  -0.03
    10   6     0.00  -0.00   0.05     0.29   0.01  -0.00     0.00   0.00   0.06
    11   8    -0.00  -0.00   0.00    -0.21  -0.17   0.00    -0.00  -0.00  -0.01
    12   6    -0.00   0.00  -0.01     0.05   0.22   0.00     0.00   0.00   0.02
    13   6     0.00   0.00  -0.05    -0.01   0.04   0.00    -0.00   0.00  -0.04
    14   1     0.21   0.15  -0.01     0.05   0.12   0.04    -0.04  -0.04  -0.00
    15   1     0.05  -0.08  -0.09    -0.08   0.06   0.06    -0.26   0.01   0.09
    16   1    -0.13   0.06   0.17    -0.20   0.04   0.10     0.30  -0.08  -0.11
    17   1     0.05  -0.10  -0.09    -0.08  -0.05   0.02     0.01  -0.36  -0.20
    18   1    -0.02  -0.30  -0.09     0.05  -0.10  -0.17    -0.02   0.21   0.15
    19   1     0.00  -0.00   0.53    -0.42   0.05  -0.00    -0.00   0.00   0.31
    20   1     0.02   0.30  -0.09     0.05  -0.10   0.17     0.02  -0.21   0.15
    21   1    -0.05   0.10  -0.09    -0.08  -0.05  -0.02    -0.01   0.36  -0.20
    22   1    -0.21  -0.15  -0.01     0.05   0.12  -0.04     0.04   0.04  -0.00
    23   1     0.13  -0.06   0.17    -0.20   0.04  -0.10    -0.30   0.08  -0.11
    24   1    -0.05   0.08  -0.09    -0.08   0.06  -0.06     0.26  -0.01   0.09
    25   1     0.02   0.03   0.01     0.20   0.14  -0.05    -0.05  -0.08  -0.03
    26   1    -0.02  -0.03   0.01     0.20   0.14   0.05     0.05   0.08  -0.03
    27   1    -0.00  -0.00   0.01    -0.14  -0.35  -0.00    -0.00  -0.00  -0.01
    28   1     0.30   0.08   0.04     0.10   0.09   0.02    -0.01  -0.11   0.03
    29   1    -0.30  -0.08   0.04     0.10   0.09  -0.02     0.01   0.11   0.03
                     40                     41                     42
                      A                      A                      A
 Frequencies --   1186.9414              1206.2826              1233.0921
 Red. masses --      1.2717                 1.2082                 1.3978
 Frc consts  --      1.0555                 1.0359                 1.2522
 IR Inten    --      1.0050                18.7481                17.3684
[...]
 05821,0.00135027,0.00002240,0.00000450,-0.00000611,0.00000149,0.000022
 55,0.00028047,0.00070206,-0.00038095,0.00025957,-0.00001589,0.00006262
 ,-0.00000082,0.00008436,-0.00007243,-0.00001660,0.00011853,0.00009089,
 -0.00012988,0.00083437,-0.00003227,0.00110971,-0.00003901,-0.00017535,
 0.00004107,0.00091946,-0.00007244,-0.00085950,0.14783214,-0.00005354,0
 .00009403,0.00013914,-0.00035335,-0.00015655,-0.00081834,0.00016867,-0
 .00014920,0.00011936,-0.00073118,0.00171501,-0.00083572,-0.00005947,0.
 00019533,0.00000300,-0.00019279,-0.00001122,0.00049283,-0.00004419,0.0
 0054041,0.00070229,0.00073654,-0.00051224,-0.00016263,-0.00112208,-0.0
 5285886,-0.00401470,-0.01544129,-0.00053184,-0.02510701,0.00157533,0.0
 0111076,0.00020298,-0.00003172,0.00047432,0.00076374,-0.00244843,-0.00
 472722,0.00137268,0.00003897,-0.00000860,-0.00002017,0.00009278,0.0002
 9806,0.00029725,0.00038095,-0.00044141,0.00043890,0.00000141,0.0000448
 8,0.00004608,0.00007998,-0.00006998,0.00002563,0.00012965,0.00005208,-
 0.00006268,-0.00000314,0.00041999,0.00025661,-0.00039056,0.00019955,-0
 .00043180,0.00036091,0.00009405,0.00025901,0.00393279,0.05296943,0.001
 38979,-0.00004762,0.00045505,-0.00261131,0.00092321,-0.00055841,0.0002
 1569,-0.00023090,-0.00034983,-0.00002345,0.00029481,-0.00001838,-0.000
 21783,0.00008820,-0.00002624,0.00031614,0.00041705,0.00026833,0.005087
 49,-0.00024140,-0.00355386,-0.01412472,-0.00149561,-0.02210005,-0.1229
 1710,-0.00414178,-0.21599776,-0.00017112,-0.00057681,0.00059196,-0.000
 67773,-0.00054405,0.00057563,0.00054064,-0.00021415,-0.00174123,0.0005
 3029,-0.00027610,0.00111526,-0.00000505,-0.00008857,-0.00000734,0.0001
 4255,-0.00006633,0.00022014,0.00025957,-0.00043890,0.00038219,0.000048
 96,-0.00010269,0.00002151,0.00002282,0.00003547,0.00005838,-0.00006923
 ,-0.00007624,0.00001576,-0.00114828,-0.00025224,-0.00143838,0.00019667
 ,0.00005489,0.00039086,-0.00012175,0.00050081,0.00102288,0.13125366,0.
 00430978,0.24061978,-0.00131301,0.00132750,-0.00058462,-0.00016261,-0.
 00396804,0.00349222,-0.00019279,0.00025859,-0.00041250,-0.00205572,-0.
 00297519,0.00006440,-0.00019630,-0.00006658,-0.00018781,-0.00001899,-0
 .00004257,0.00032735,0.00073682,-0.00046435,-0.00176226,-0.01231360,0.
 01693931,0.00301853,-0.13574318,0.12315006,-0.00183054,0.01093063,-0.0
 1632281,-0.00044245,0.00151874,0.00128531,-0.00129217,0.00029645,0.000
 21390,0.00040345,0.00113960,-0.00041420,0.00029655,0.00005731,0.000131
 73,-0.00011568,0.00085662,-0.00108145,-0.00000090,0.00000149,-0.000092
 78,0.00014255,0.00006753,0.00000938,0.00006707,-0.00000490,-0.00000524
 ,-0.00004555,0.00006776,0.00004991,-0.00004356,-0.00002992,-0.00039023
 ,-0.00017871,0.00082012,-0.00025463,0.00060498,0.00015916,-0.00021202,
 -0.00051730,-0.01080952,0.01525782,0.00023722,0.14642498,0.00005003,-0
 .00000464,-0.00023632,-0.00038280,0.00074022,0.00062934,-0.00028291,0.
 00068501,0.00023184,-0.00539825,-0.00359171,0.00006704,0.00010720,0.00
 001786,0.00024053,-0.00021601,-0.00008714,-0.00024372,-0.00013434,0.00
 015820,0.00011986,-0.00070726,0.00202149,0.00021660,0.12066358,-0.2184
 7253,-0.00174468,0.01754767,-0.02481819,-0.00119700,0.00020446,0.00334
 757,-0.00043696,-0.00006806,-0.00030007,0.00051141,0.00172532,0.000512
 04,0.00098825,0.00011127,0.00001628,-0.00012783,0.00108146,-0.00177108
 ,-0.00009450,-0.00002255,0.00029806,0.00006633,-0.00001772,0.00003549,
 0.00002119,-0.00007807,0.00004062,-0.00010410,0.00001781,0.00001303,-0
 .00006744,-0.00018301,0.00019478,-0.00004441,-0.00023136,0.00006327,-0
 .00061008,0.00024590,0.00051969,-0.00049241,-0.00060585,0.00125592,0.0
 0054247,-0.13232171,0.23815640,0.00216003,-0.00170743,0.00122604,0.000
 97265,0.00388320,-0.00529438,-0.00034351,0.00002124,0.00058807,0.00006
 005,0.00008573,0.00010485,0.00022471,0.00007154,0.00028891,-0.00014584
 ,0.00008344,-0.00025703,0.00063343,-0.00118251,0.00213792,0.01702521,-
 0.02447981,-0.00387063,-0.00211644,-0.00194048,-0.04934446,-0.00020823
 ,-0.00010759,-0.00100685,-0.00042610,0.00020181,0.00026838,-0.00002670
 ,0.00018504,-0.00006976,0.00048102,-0.00083149,0.00008038,-0.00005745,
 -0.00010017,0.00004464,-0.00000090,0.00009450,0.00065928,0.00028047,-0
 .00029725,0.00022014,-0.00006410,0.00002973,-0.00007558,-0.00000131,0.
 00004314,0.00000460,-0.00006814,-0.00004537,-0.00001840,-0.00001230,0.
 00040524,0.00040206,-0.00059741,0.00060776,-0.00030516,-0.00058395,0.0
 0044969,0.00092604,-0.01547717,0.02259928,0.00084642,-0.00123061,0.002
 13369,0.05239351,0.00011041,0.00004706,0.00000019,-0.00018351,-0.00011
 396,0.00006398,0.00012244,-0.00012396,0.00007214,0.00005139,0.00019405
 ,-0.00030169,-0.00000233,0.00004916,0.00001009,-0.00015656,0.00003059,
 0.00002140,-0.00002781,-0.00005591,0.00006855,0.00032645,0.00056558,0.
 00007915,0.00003763,-0.00046979,-0.00006182,-0.00136642,0.00087999,0.0
 0285603,-0.00642066,-0.00864125,-0.01398428,-0.12424575,-0.10846451,-0
 .01978024,0.00023284,-0.00014022,-0.00013004,0.00006071,-0.00000376,-0
 .00007435,-0.00010119,0.00003119,-0.00003768,0.00013939,0.00003588,-0.
 00005891,-0.00000766,0.00000925,0.00001173,0.00002410,-0.00001081,-0.0
 0002201,0.00003430,0.00000376,-0.00007576,0.00003218,0.00001131,0.0000
 1780,-0.00001462,0.00001374,-0.00000540,0.00010885,0.00001244,-0.00013
 843,-0.00015829,-0.00052014,0.00156411,-0.00016598,0.00014799,-0.00019
 077,0.13331007,0.00011991,0.00013751,0.00006043,-0.00011419,-0.0003583
 5,-0.00008459,0.00004629,0.00006604,0.00002872,0.00012663,-0.00000514,
 -0.00030178,0.00002370,0.00002209,-0.00004095,-0.00012113,-0.00005741,
 -0.00003054,-0.00021039,-0.00001735,0.00016869,0.00072743,0.00037323,0
 .00023764,-0.00110191,-0.00000017,-0.00054953,-0.00196887,-0.00000512,
 0.00170978,0.00072001,0.00859266,-0.00830495,-0.10897724,-0.22575285,-
 0.03077289,0.00021690,0.00004322,-0.00020903,0.00003081,0.00000759,-0.
 00004414,0.00010948,0.00016129,0.00017691,-0.00008826,-0.00021641,0.00
 008670,0.00000519,0.00002268,0.00001877,0.00000654,-0.00001240,-0.0000
 2791,0.00003439,0.00002209,-0.00004276,0.00006253,0.00001050,0.0000935
 3,-0.00000959,0.00001262,-0.00001201,0.00005853,0.00001713,-0.00009156
 ,0.00047225,-0.00005329,0.00128970,-0.00007099,-0.00020338,-0.00000528
 ,0.12424954,0.23811057,0.00005098,0.00013966,0.00000758,-0.00010165,-0
 .00036504,0.00002062,0.00022785,-0.00016398,0.00008221,0.00026067,0.00
 029869,-0.00073138,-0.00002659,0.00005579,-0.00000014,-0.00019562,0.00
 009179,0.00003830,-0.00010363,-0.00005674,0.00000617,0.00023649,0.0002
 2947,0.00026402,0.00057166,0.00047833,-0.00057578,-0.00454980,-0.00219
 551,0.00502995,-0.02476046,-0.02779150,-0.02293829,-0.01653670,-0.0286
 0115,-0.05736304,0.00048067,0.00013087,-0.00040889,0.00008349,0.000008
 80,-0.00009425,-0.00010857,0.00016647,0.00004662,0.00011633,-0.0001103
 0,0.00010503,-0.00000335,0.00001496,0.00001529,0.00003054,-0.00002077,
 -0.00001314,0.00005667,0.00001066,-0.00009616,0.00009233,0.00005678,0.
 00004186,0.00000025,0.00000561,0.00000202,0.00004191,0.00000401,-0.000
 05627,0.00153170,0.00069526,-0.00109888,-0.00006148,0.00018008,-0.0000
 4469,0.02984732,0.03793727,0.06869436,0.00011042,-0.00004706,0.0000001
 9,-0.00018351,0.00011396,0.00006397,0.00032646,-0.00056558,0.00007915,
 0.00003762,0.00046981,-0.00006192,-0.00002782,0.00005591,0.00006855,-0
 .00015656,-0.00003059,0.00002139,-0.00000233,-0.00004917,0.00001009,0.
 00012243,0.00012396,0.00007214,0.00005142,-0.00019406,-0.00030170,-0.0
 0136642,-0.00087999,0.00285608,-0.00642080,0.00864070,-0.01398458,-0.1
 2425041,0.10846595,-0.01978267,0.00023285,0.00014020,-0.00013005,0.000
 10885,-0.00001244,-0.00013843,-0.00016597,-0.00014799,-0.00019075,-0.0
 0015822,0.00052015,0.00156406,-0.00001462,-0.00001374,-0.00000540,0.00
 003218,-0.00001131,0.00001780,0.00003430,-0.00000376,-0.00007576,0.000
 02410,0.00001081,-0.00002201,-0.00000766,-0.00000925,0.00001173,0.0000
 6071,0.00000376,-0.00007435,0.00013938,-0.00003587,-0.00005892,-0.0001
 0119,-0.00003119,-0.00003767,0.01119260,-0.01546672,0.00378885,0.13331
 527,-0.00011991,0.00013750,-0.00006043,0.00011420,-0.00035833,0.000084
 60,-0.00072739,0.00037320,-0.00023761,0.00110185,-0.00000021,0.0005495
 8,0.00021038,-0.00001735,-0.00016868,0.00012112,-0.00005741,0.00003054
 ,-0.00002369,0.00002209,0.00004094,-0.00004629,0.00006605,-0.00002872,
 -0.00012657,-0.00000515,0.00030179,0.00196873,-0.00000506,-0.00170964,
 -0.00072076,0.00859345,0.00830413,0.10897878,-0.22574641,0.03077524,-0
 .00021688,0.00004321,0.00020902,-0.00005853,0.00001713,0.00009155,0.00
 007098,-0.00020338,0.00000526,-0.00047220,-0.00005330,-0.00128969,0.00
 000959,0.00001262,0.00001201,-0.00006253,0.00001050,-0.00009353,-0.000
 03438,0.00002209,0.00004276,-0.00000654,-0.00001240,0.00002791,-0.0000
 0518,0.00002268,-0.00001877,-0.00003081,0.00000759,0.00004414,0.000088
 25,-0.00021642,-0.00008671,-0.00010949,0.00016129,-0.00017692,0.015467
 54,-0.02224013,0.00253739,-0.12425091,0.23810321,0.00005099,-0.0001396
 5,0.00000758,-0.00010166,0.00036503,0.00002061,0.00023653,-0.00022947,
 0.00026403,0.00057157,-0.00047835,-0.00057576,-0.00010364,0.00005674,0
 .00000617,-0.00019563,-0.00009178,0.00003829,-0.00002659,-0.00005579,-
 0.00000014,0.00022784,0.00016398,0.00008221,0.00026066,-0.00029869,-0.
 00073138,-0.00454983,0.00219550,0.00502991,-0.02476107,0.02779041,-0.0
 2293878,-0.01653919,0.02860368,-0.05736423,0.00048070,-0.00013087,-0.0
 0040892,0.00004191,-0.00000401,-0.00005627,-0.00006147,-0.00018005,-0.
 00004467,0.00153168,-0.00069529,-0.00109882,0.00000025,-0.00000560,0.0
 0000202,0.00009233,-0.00005678,0.00004186,0.00005667,-0.00001066,-0.00
 009616,0.00003054,0.00002077,-0.00001314,-0.00000335,-0.00001496,0.000
 01529,0.00008349,-0.00000880,-0.00009425,0.00011633,0.00011032,0.00010
 503,-0.00010857,-0.00016647,0.00004662,0.00378863,-0.00253685,0.003483
 48,0.02985033,-0.03793952,0.06869569,-0.00007451,0.,0.00000817,0.00007
 637,0.,0.00001107,0.00022036,-0.00009519,0.00010774,-0.00037567,0.0000
 7344,-0.00041655,-0.00010035,-0.00000211,0.00004445,-0.00017743,0.,-0.
 00009492,-0.00010035,0.00000211,0.00004445,0.00022037,0.00009519,0.000
 10774,-0.00037569,-0.00007344,-0.00041654,0.00002951,-0.00000003,-0.00
 309449,0.01490517,0.00000005,-0.01144484,-0.23597719,-0.00000089,0.132
 25637,0.00041899,0.,-0.00035526,0.00000655,0.00000447,-0.00001320,0.00
 003139,0.00001364,0.00004602,0.00033843,-0.00009496,0.00027661,0.00000
 693,0.00000225,-0.00000675,0.00001974,-0.00000954,0.00004496,0.0000469
 9,0.,-0.00003926,0.00001974,0.00000954,0.00004496,0.00000693,-0.000002
 25,-0.00000675,0.00000655,-0.00000447,-0.00001320,0.00033843,0.0000949
 6,0.00027662,0.00003138,-0.00001364,0.00004601,-0.01295680,0.00103911,
 0.00885610,-0.01295729,-0.00103926,0.00885647,0.24635373,0.,0.00009246
 ,0.,0.,-0.00025158,0.,-0.00023576,0.00012091,-0.00010815,0.00039555,0.
 00016662,0.00016564,0.00009505,0.00001322,-0.00007832,0.,-0.00006086,0
 .,-0.00009505,0.00001322,0.00007833,0.00023578,0.00012092,0.00010815,-
 0.00039559,0.00016661,-0.00016564,-0.00000006,-0.00014657,-0.00000004,
 0.00000036,0.00116776,-0.00000048,-0.00000096,-0.05267850,0.00000077,0
 .00000002,0.00020344,-0.00000001,0.00000126,0.00000671,0.00001143,-0.0
 0001052,0.00001015,0.00001097,-0.00041405,-0.00001391,-0.00020870,-0.0
 0000052,0.00000486,0.00000703,-0.00002571,0.00000237,-0.00004181,0.,0.
 00001417,0.,0.00002572,0.00000237,0.00004181,0.00000052,0.00000486,-0.
 00000703,-0.00000126,0.00000670,-0.00001144,0.00041406,-0.00001392,0.0
 0020872,0.00001051,0.00001016,-0.00001099,-0.02328406,0.00126163,0.016
 11540,0.02328369,0.00126180,-0.01611512,0.00000102,0.04852046,0.000179
 55,0.,0.00002139,-0.00025344,0.,-0.00000199,0.00023081,-0.00018685,0.0
 0016084,-0.00037115,0.00051065,-0.00034022,-0.00007450,0.00010585,0.00
 007865,-0.00059568,0.,-0.00028805,-0.00007451,-0.00010585,0.00007865,0
 .00023081,0.00018685,0.00016084,-0.00037118,-0.00051066,-0.00034020,-0
 .00492790,-0.00000006,-0.00161917,0.02503164,-0.00000006,-0.03843879,0
 .12128535,0.00000068,-0.12978978,0.00146446,0.,-0.00098852,0.00008193,
 -0.00000532,-0.00009343,-0.00000047,-0.00006330,-0.00000399,0.00022750
 ,-0.00006358,0.00024742,-0.00001437,-0.00001509,0.00000209,0.00003869,
 -0.00001856,-0.00000488,0.00013567,0.,-0.00022079,0.00003869,0.0000185
 6,-0.00000488,-0.00001437,0.00001509,0.00000208,0.00008193,0.00000532,
 -0.00009343,0.00022749,0.00006357,0.00024743,-0.00000047,0.00006330,-0
 .00000399,-0.00365306,0.00112009,0.00524615,-0.00365346,-0.00112010,0.
 00524646,-0.13517517,-0.00000053,0.16073431,-0.00001261,-0.00038677,-0
 .00000934,0.00022098,0.00098054,0.00000921,0.00043636,-0.00041152,-0.0
 0006673,-0.00137938,-0.00154333,-0.00376724,-0.00093931,-0.00152098,0.
 00348890,-0.01133484,0.01416056,0.00019276,0.00025918,0.00135521,-0.00
 071031,-0.00011051,-0.00050325,-0.00001798,0.00036569,0.00147070,0.000
 74393,-0.01399251,0.01732352,-0.00027045,0.00124381,-0.00109871,0.0016
 3151,0.00010592,-0.00015599,-0.00008688,-0.13781165,0.11980123,0.00152
 930,-0.00001865,-0.00001925,0.00003590,0.00009170,0.00022887,0.0000054
 8,-0.00060417,0.00117124,0.00005914,0.00009198,0.00025573,-0.00001536,
 -0.00048762,0.00098299,-0.00003670,0.00078774,-0.00035786,-0.00000829,
 0.00041004,-0.00018693,0.00000142,-0.00009575,-0.00092837,0.00023022,-
 0.00005549,-0.00004024,0.00000874,0.00042097,-0.00025176,0.00000513,-0
 .00009257,-0.00097911,-0.00030047,-0.00002869,-0.00000253,-0.00002318,
 0.00005290,-0.00008260,0.00019723,0.00000886,-0.00003232,-0.00003739,0
 .14999399,0.00018036,0.00016321,-0.00000786,-0.00026210,-0.00040592,0.
 00002074,-0.00014448,0.00011362,0.00003549,0.00001048,0.00098302,0.000
 75023,-0.00050375,0.00102381,-0.00048046,-0.00126929,0.00004212,-0.000
 45739,-0.00059245,0.00059094,0.00030814,0.00012607,0.00005188,-0.00005
 813,-0.00087091,0.00051164,-0.00017272,0.00018923,-0.00158023,-0.00053
 344,-0.00069968,0.00058730,0.00009113,-0.00024298,0.00010420,0.0002136
 8,0.12145247,-0.22018962,-0.00312169,0.00004161,-0.00003286,-0.0000082
 3,-0.00012957,0.00043199,-0.00015905,0.00039373,0.00012236,-0.00011218
 ,-0.00012840,0.00042257,0.00013327,0.00031206,0.00015069,0.00010014,0.
 00004996,0.00011557,-0.00052930,-0.00003319,0.00021992,-0.00009637,0.0
 0015825,0.00052332,0.00008524,-0.00000095,0.00001588,0.00000269,-0.000
 03100,0.00016455,0.00010280,0.00002870,0.00056938,-0.00016880,0.000001
 67,-0.00000105,-0.00001327,-0.00007761,0.00006221,-0.00016097,0.000019
 30,-0.00000304,0.00008663,-0.13360328,0.23639400,-0.00002456,0.0000274
 1,-0.00001977,0.00002799,-0.00008466,-0.00006058,0.00016333,-0.0001290
 0,-0.00044742,-0.00258967,-0.00089686,-0.00508335,0.00321327,0.0014000
 3,-0.00509854,0.01701565,-0.02369091,0.00002099,-0.00064855,-0.0010225
 1,0.00111838,0.00001298,0.00006352,-0.00024535,0.00076197,0.00111520,0
 .00095164,-0.01743302,0.02362925,-0.00081807,0.00001953,-0.00045088,0.
 00232590,0.00003287,-0.00009041,-0.00010662,0.00314544,-0.00460853,-0.
 04758481,0.00002399,0.00000160,0.00025439,0.00014589,-0.00022411,-0.00
 000975,-0.00135845,0.00141596,0.00000794,-0.00024124,0.00029138,-0.000
 01796,0.00139497,-0.00143872,0.00010192,-0.00087520,-0.00018253,0.0009
 8068,-0.00044360,-0.00003889,-0.00007516,-0.00004227,0.00073465,0.0000
 4882,-0.00000286,0.00000571,0.00008249,0.00033720,-0.00002872,-0.00005
 419,0.00001497,-0.00067013,0.00006281,0.00002382,0.00003928,0.00008105
 ,0.00008954,-0.00008726,0.00025622,0.00002458,-0.00001990,0.00000289,-
 0.00243792,0.00454486,0.05339146,-0.00001261,0.00038677,-0.00000934,0.
 00022098,-0.00098054,0.00000921,-0.00011051,0.00050325,-0.00001798,0.0
 0036569,-0.00147070,0.00074392,0.00025918,-0.00135522,-0.00071031,-0.0
 1133484,-0.01416054,0.00019275,-0.00093931,0.00152098,0.00348890,0.000
 43636,0.00041152,-0.00006673,-0.00137938,0.00154333,-0.00376723,-0.013
 99249,-0.01732350,-0.00027044,0.00124380,0.00109870,0.00163150,0.00010
 592,0.00015599,-0.00008687,-0.13781150,-0.11980068,0.00152930,-0.00005
 549,0.00004024,0.00000874,-0.00009258,0.00097911,-0.00030048,0.0004209
 7,0.00025176,0.00000513,-0.00009574,0.00092836,0.00023021,0.00041004,0
 .00018693,0.00000142,0.00078774,0.00035786,-0.00000829,-0.00048762,-0.
 00098299,-0.00003670,0.00009198,-0.00025573,-0.00001536,-0.00001865,0.
 00001925,0.00003590,-0.00060417,-0.00117124,0.00005914,0.00009170,-0.0
 0022887,0.00000548,0.00005290,0.00008260,0.00019723,-0.00002869,0.0000
 0253,-0.00002318,0.00000886,0.00003231,-0.00003739,0.01247362,0.015625
 74,-0.00035064,0.14999383,-0.00018036,0.00016321,0.00000786,0.00026210
 ,-0.00040592,-0.00002074,-0.00012606,0.00005188,0.00005813,0.00087091,
 0.00051164,0.00017272,0.00059245,0.00059094,-0.00030814,0.00126929,0.0
 0004212,0.00045740,0.00050375,0.00102381,0.00048046,0.00014448,0.00011
 362,-0.00003549,-0.00001048,0.00098301,-0.00075023,-0.00018921,-0.0015
 8022,0.00053343,0.00069966,0.00058729,-0.00009113,0.00024299,0.0001041
 9,-0.00021368,-0.12145190,-0.22018874,0.00312166,0.00000096,0.00001588
 ,-0.00000269,-0.00002870,0.00056938,0.00016880,0.00003100,0.00016455,-
 0.00010280,-0.00015825,0.00052332,-0.00008525,0.00003319,0.00021993,0.
 00009637,-0.00004996,0.00011557,0.00052930,-0.00031206,0.00015068,-0.0
 0010014,0.00012840,0.00042257,-0.00013327,-0.00004161,-0.00003286,0.00
 000823,-0.00039373,0.00012236,0.00011219,0.00012957,0.00043199,0.00015
 905,0.00007761,0.00006221,0.00016097,-0.00000167,-0.00000105,0.0000132
 7,-0.00001930,-0.00000304,-0.00008663,-0.01562578,-0.02115146,0.000395
 18,0.13360274,0.23639313,-0.00002456,-0.00002741,-0.00001977,0.0000279
 9,0.00008466,-0.00006058,0.00001298,-0.00006352,-0.00024535,0.00076197
 ,-0.00111520,0.00095164,-0.00064855,0.00102251,0.00111838,0.01701564,0
 .02369088,0.00002100,0.00321326,-0.00140003,-0.00509853,0.00016333,0.0
 0012900,-0.00044742,-0.00258967,0.00089686,-0.00508335,-0.01743301,-0.
 02362922,-0.00081803,0.00001953,0.00045088,0.00232589,0.00003287,0.000
 09040,-0.00010661,0.00314542,0.00460850,-0.04758495,-0.00000286,-0.000
 00571,0.00008249,0.00001497,0.00067012,0.00006281,0.00033720,0.0000287
 2,-0.00005419,-0.00004227,-0.00073465,0.00004883,-0.00044360,0.0000388
 9,-0.00007516,-0.00087519,0.00018253,0.00098068,0.00139497,0.00143871,
 0.00010192,-0.00024124,-0.00029138,-0.00001796,0.00002399,-0.00000160,
 0.00025439,-0.00135845,-0.00141596,0.00000794,0.00014589,0.00022411,-0
 .00000975,0.00008953,0.00008727,0.00025622,0.00002382,-0.00003928,0.00
 008106,0.00002458,0.00001990,0.00000289,-0.00035064,-0.00039518,-0.000
 06603,-0.00243790,-0.00454482,0.05339155\\0.00000883,-0.00000003,0.000
 02350,-0.00009110,0.00000035,0.00009271,-0.00000312,-0.00001931,-0.000
 12625,0.00002451,-0.00004299,0.00007301,0.00003583,-0.00004818,0.00000
 721,-0.00000218,-0.00000002,0.00006667,0.00003605,0.00004897,0.0000074
 0,-0.00000334,0.00001837,-0.00012631,0.00002416,0.00004277,0.00007273,
 -0.00015200,0.00000031,0.00016005,0.00002535,-0.00000008,-0.00014441,0
 .00014598,0.00000022,0.00007429,0.00000614,0.00000018,-0.00002069,-0.0
 0000148,0.00001672,0.00000714,-0.00000271,0.00002366,0.00000435,-0.000
 01123,0.00000933,-0.00000110,-0.00001389,0.00001101,-0.00002340,0.0000
 0164,0.00001027,-0.00000107,0.00001549,-0.00000003,-0.00000060,0.00000
 161,-0.00001029,-0.00000109,-0.00001370,-0.00001148,-0.00002346,-0.000
 00123,-0.00001631,0.00000705,-0.00001102,-0.00000928,-0.00000076,-0.00
 000278,-0.00002375,0.00000442,0.00000040,-0.00000213,-0.00002561,0.000
 00045,0.00000199,-0.00002551,-0.00001792,0.00000001,-0.00007607,0.0000
 0077,-0.00000235,-0.00000211,0.00000051,0.00000206,-0.00000209\\\@


 THERE ARE TWO THINGS THAT EVERYBODY THINKS THEY CAN DO BETTER THAN
 ANYONE ELSE - PUNCH THE FIRE, AND EDIT A DAILY PAPER.
 -- UNCLE ESEK, "CENTURY MAGAZINE", 1885
 Job cpu time:       0 days  0 hours  3 minutes 28.0 seconds.
 Elapsed time:       0 days  0 hours  3 minutes 34.1 seconds.
 File lengths (MBytes):  RWF=    179 Int=      0 D2E=      0 Chk=     16 Scr=      1
 Normal termination of Gaussian 16 at Sat Feb 24 03:42:43 2024.
