 Entering Gaussian System, Link 0=g16
 Input=/Volumes/SSD-PMU3/b3lyp_6-31gd_freq/AFEFRXAPJRCTOW-BDAKNGLRSA-N_calculating/gaussianinput0.gjf
 Output=/Volumes/SSD-PMU3/b3lyp_6-31gd_freq/AFEFRXAPJRCTOW-BDAKNGLRSA-N_calculating/gaussianinput0.log
 Initial command:
 /Applications/g16/l1.exe "/Users/macmini_m1_2022/PycharmProjects/sphere_model/sphere_model_lib/Gau-58005.inp" -scrdir="/Users/macmini_m1_2022/PycharmProjects/sphere_model/sphere_model_lib/"
 Entering Link 1 = /Applications/g16/l1.exe PID=     58006.
  
 Copyright (c) 1988,1990,1992,1993,1995,1998,2003,2009,2016,
            Gaussian, Inc.  All Rights Reserved.
  
 This is part of the Gaussian(R) 16 program.  It is based on
 the Gaussian(R) 09 system (copyright 2009, Gaussian, Inc.),
 the Gaussian(R) 03 system (copyright 2003, Gaussian, Inc.),
 the Gaussian(R) 98 system (copyright 1998, Gaussian, Inc.),
 the Gaussian(R) 94 system (copyright 1995, Gaussian, Inc.),
 the Gaussian 92(TM) system (copyright 1992, Gaussian, Inc.),
 the Gaussian 90(TM) system (copyright 1990, Gaussian, Inc.),
 the Gaussian 88(TM) system (copyright 1988, Gaussian, Inc.),
 the Gaussian 86(TM) system (copyright 1986, Carnegie Mellon
 University), and the Gaussian 82(TM) system (copyright 1983,
 Carnegie Mellon University). Gaussian is a federally registered
 trademark of Gaussian, Inc.
  
 This software contains proprietary and confidential information,
 including trade secrets, belonging to Gaussian, Inc.
  
 This software is provided under written license and may be
 used, copied, transmitted, or stored only in accord with that
 written license.
  
 The following legend is applicable only to US Government
 contracts under FAR:
  
                    RESTRICTED RIGHTS LEGEND
  
 Use, reproduction and disclosure by the US Government is
 subject to restrictions as set forth in subparagraphs (a)
 and (c) of the Commercial Computer Software - Restricted
 Rights clause in FAR 52.227-19.
  
 Gaussian, Inc.
 340 Quinnipiac St., Bldg. 40, Wallingford CT 06492
  
  
 ---------------------------------------------------------------
 Warning -- This program may not be used in any manner that
 competes with the business of Gaussian, Inc. or will provide
 assistance to any competitor of Gaussian, Inc.  The licensee
 of this program is prohibited from giving any competitor of
 Gaussian, Inc. access to this program.  By using this program,
 the user acknowledges that Gaussian, Inc. is engaged in the
 business of creating and licensing software in the field of
 computational chemistry and represents and warrants to the
 licensee that it is not a competitor of Gaussian, Inc. and that
 it will not use this program in any manner prohibited above.
 ---------------------------------------------------------------
  

 Cite this work as:
 Gaussian 16, Revision A.03,
 M. J. Frisch, G. W. Trucks, H. B. Schlegel, G. E. Scuseria, 
 M. A. Robb, J. R. Cheeseman, G. Scalmani, V. Barone, 
 G. A. Petersson, H. Nakatsuji, X. Li, M. Caricato, A. V. Marenich, 
 J. Bloino, B. G. Janesko, R. Gomperts, B. Mennucci, H. P. Hratchian, 
 J. V. Ortiz, A. F. Izmaylov, J. L. Sonnenberg, D. Williams-Young, 
 F. Ding, F. Lipparini, F. Egidi, J. Goings, B. Peng, A. Petrone, 
 T. Henderson, D. Ranasinghe, V. G. Zakrzewski, J. Gao, N. Rega, 
 G. Zheng, W. Liang, M. Hada, M. Ehara, K. Toyota, R. Fukuda, 
 J. Hasegawa, M. Ishida, T. Nakajima, Y. Honda, O. Kitao, H. Nakai, 
 T. Vreven, K. Throssell, J. A. Montgomery, Jr., J. E. Peralta, 
 F. Ogliaro, M. J. Bearpark, J. J. Heyd, E. N. Brothers, K. N. Kudin, 
 V. N. Staroverov, T. A. Keith, R. Kobayashi, J. Normand, 
 K. Raghavachari, A. P. Rendell, J. C. Burant, S. S. Iyengar, 
 J. Tomasi, M. Cossi, J. M. Millam, M. Klene, C. Adamo, R. Cammi, 
 J. W. Ochterski, R. L. Martin, K. Morokuma, O. Farkas, 
 J. B. Foresman, and D. J. Fox, Gaussian, Inc., Wallingford CT, 2016.
 
 ******************************************
 Gaussian 16:  EM64M-G16RevA.03 25-Dec-2016
                22-Feb-2024 
 ******************************************
 %nprocshared=8
 Will use up to    8 processors via shared memory.
 %mem=4GB
 %chk= 0.chk
 ---------------------
 # freq b3lyp/6-31g(d)
 ---------------------
 1/10=4,30=1,38=1/1,3;
 2/12=2,17=6,18=5,40=1/2;
 3/5=1,6=6,7=1,11=2,25=1,30=1,71=2,74=-5,140=1/1,2,3;
 4//1;
 5/5=2,38=5,98=1/2;
 8/6=4,10=90,11=11/1;
 11/6=1,8=1,9=11,15=111,16=1/1,2,10;
 10/6=1/2;
 6/7=2,8=2,9=2,10=2,28=1/1;
 7/8=1,10=1,25=1/1,2,3,16;
 1/10=4,30=1/3;
 99//99;
 ---------
 good luck
 ---------
 Symbolic Z-matrix:
 Charge =  0 Multiplicity = 1
 O                     1.21751   0.        0. 
 C                     0.        0.        0. 
 C                    -0.8122   -1.28916  -0.00945 
 C                    -1.85288  -1.28601  -1.14816 
 C                    -2.71234  -0.01477  -1.12115 
 C                    -1.85456   1.25901  -1.17332 
 C                    -0.82262   1.28784  -0.00945 
 C                     0.04738   2.55056  -0.04451 
 C                    -0.81142   3.82301  -0.05023 
 C                    -1.83148   3.81063  -1.19863 
 C                    -2.69979   2.54408  -1.1656 
 H                    -0.12252  -2.13496  -0.08439 
 H                    -1.33701  -1.36718   0.95494 
 H                    -2.48359  -2.18016  -1.07523 
 H                    -1.32922  -1.35067  -2.11191 
 H                    -3.32312  -0.00207  -0.20541 
 H                    -3.4163   -0.0205   -1.96369 
 H                    -1.28112   1.24067  -2.1153 
 H                    -1.40943   1.28345   0.92696 
 H                     0.67836   2.52071  -0.9428 
 H                     0.73669   2.54791   0.80689 
 H                    -1.34697   3.9064    0.90748 
 H                    -0.16845   4.70911  -0.12375 
 H                    -2.4677    4.70364  -1.15422 
 H                    -1.29625   3.85623  -2.15847 
 H                    -3.39098   2.53393  -2.01915 
 H                    -3.32423   2.55307  -0.25883 
 

 GradGradGradGradGradGradGradGradGradGradGradGradGradGradGradGradGradGrad
 Berny optimization.
 Initialization pass.
 Trust Radius=3.00D-01 FncErr=1.00D-07 GrdErr=1.00D-07 EigMax=2.50D+02 EigMin=1.00D-04
 Number of steps in this run=      2 maximum allowed number of steps=      2.
 GradGradGradGradGradGradGradGradGradGradGradGradGradGradGradGradGradGrad

                          Input orientation:                          
 ---------------------------------------------------------------------
 Center     Atomic      Atomic             Coordinates (Angstroms)
 Number     Number       Type             X           Y           Z
 ---------------------------------------------------------------------
      1          8           0        1.217509    0.000000    0.000000
      2          6           0        0.000000    0.000000    0.000000
      3          6           0       -0.812204   -1.289159   -0.009453
      4          6           0       -1.852881   -1.286011   -1.148162
      5          6           0       -2.712341   -0.014766   -1.121151
      6          6           0       -1.854558    1.259007   -1.173318
      7          6           0       -0.822623    1.287842   -0.009453
      8          6           0        0.047379    2.550564   -0.044507
      9          6           0       -0.811417    3.823011   -0.050234
     10          6           0       -1.831477    3.810633   -1.198628
     11          6           0       -2.699791    2.544085   -1.165596
     12          1           0       -0.122518   -2.134958   -0.084393
     13          1           0       -1.337011   -1.367180    0.954944
     14          1           0       -2.483591   -2.180156   -1.075226
     15          1           0       -1.329220   -1.350674   -2.111907
     16          1           0       -3.323124   -0.002066   -0.205406
     17          1           0       -3.416295   -0.020495   -1.963691
     18          1           0       -1.281118    1.240667   -2.115304
     19          1           0       -1.409430    1.283449    0.926955
     20          1           0        0.678363    2.520711   -0.942795
     21          1           0        0.736692    2.547912    0.806892
     22          1           0       -1.346973    3.906399    0.907477
     23          1           0       -0.168447    4.709112   -0.123746
     24          1           0       -2.467700    4.703637   -1.154216
     25          1           0       -1.296246    3.856227   -2.158465
     26          1           0       -3.390979    2.533929   -2.019151
     27          1           0       -3.324232    2.553067   -0.258829
 ---------------------------------------------------------------------
                    Distance matrix (angstroms):
                    1          2          3          4          5
     1  O    0.000000
     2  C    1.217509   0.000000
     3  C    2.404528   1.523711   0.000000
     4  C    3.521277   2.530863   1.542620   0.000000
     5  C    4.086676   2.934960   2.543712   1.534752   0.000000
     6  C    3.521274   2.530051   2.989019   2.545143   1.536558
     7  C    2.412626   1.528180   2.577022   2.997133   2.550234
     8  C    2.806521   2.551392   3.934919   4.421352   3.918690
     9  C    4.328334   3.908495   5.112333   5.328433   4.414624
    10  C    5.025331   4.394535   5.334879   5.096939   3.926271
    11  C    4.814169   3.888426   4.426444   3.922652   2.559268
    12  H    2.522071   2.140135   1.093919   2.201470   3.503893
    13  H    3.050684   2.137451   1.100714   2.166971   2.833854
    14  H    4.428017   3.475258   2.173311   1.096636   2.177923
    15  H    3.573556   2.837481   2.165965   1.098730   2.163162
    16  H    4.545277   3.329467   2.828379   2.167699   1.100821
    17  H    5.032757   3.940504   3.494259   2.170457   1.097933
    18  H    3.500986   2.766772   3.324832   2.765209   2.147755
    19  H    3.067131   2.119665   2.802115   3.332399   2.752758
    20  H    2.744727   2.775432   4.196192   4.576080   4.237609
    21  H    2.715532   2.772300   4.217655   5.022658   4.709617
    22  H    4.760256   4.230580   5.302882   5.607381   4.621157
    23  H    4.910389   4.713748   6.033800   6.310962   5.457219
    24  H    6.085818   5.435619   6.321768   6.021123   4.724857
    25  H    5.084134   4.605400   5.597102   5.270025   4.250404
    26  H    5.633465   4.690043   5.030404   4.209075   2.786180
    27  H    5.216565   4.199484   4.597301   4.206460   2.777008
                    6          7          8          9         10
     6  C    0.000000
     7  C    1.555732   0.000000
     8  C    2.561191   1.533818   0.000000
     9  C    2.987236   2.535522   1.535150   0.000000
    10  C    2.551856   2.965872   2.539659   1.536061   0.000000
    11  C    1.538150   2.537434   2.967124   2.538827   1.535970
    12  H    3.962918   3.494470   4.688771   5.997762   6.285866
    13  H    3.419680   2.871202   4.273658   5.312694   5.629575
    14  H    3.497592   3.990200   5.463323   6.315440   6.027440
    15  H    2.822652   3.411557   4.624805   5.593356   5.265494
    16  H    2.164219   2.820419   4.231087   4.578642   4.212858
    17  H    2.168141   3.501132   4.721297   5.021877   4.215983
    18  H    1.102954   2.155702   2.787281   3.339706   2.783508
    19  H    2.147064   1.105089   2.161391   2.786017   3.329097
    20  H    2.839142   2.155006   1.098159   2.170736   2.833487
    21  H    3.506720   2.164638   1.095463   2.181097   3.494577
    22  H    3.405295   2.823569   2.165359   1.100447   2.163237
    23  H    3.980929   3.485125   2.170758   1.097265   2.174467
    24  H    3.498826   3.960356   3.491819   2.176592   1.097364
    25  H    2.833333   3.382185   2.824695   2.163516   1.099926
    26  H    2.168283   3.491142   3.965073   3.491777   2.176069
    27  H    2.161209   2.814432   3.378417   2.823209   2.166336
                   11         12         13         14         15
    11  C    0.000000
    12  H    5.450209   0.000000
    13  H    4.653155   1.773330   0.000000
    14  H    4.730049   2.560949   2.469244   0.000000
    15  H    4.235932   2.486372   3.066905   1.759352   0.000000
    16  H    2.791665   3.848084   2.674807   2.491080   3.070691
    17  H    2.779821   4.341852   3.828239   2.514646   2.479360
    18  H    2.147901   4.106312   4.028699   3.772232   2.591790
    19  H    2.762789   3.790049   2.651766   4.142356   4.022402
    20  H    3.385574   4.801408   4.772719   5.666890   4.514957
    21  H    3.962340   4.843749   4.432844   6.022227   5.290213
    22  H    2.825535   6.243484   5.273802   6.501474   6.062492
    23  H    3.490057   6.844337   6.280958   7.329885   6.482375
    24  H    2.172018   7.308268   6.525476   6.884265   6.234420
    25  H    2.162740   6.447768   6.081033   6.246688   5.207214
    26  H    1.098362   6.018690   5.318146   4.892540   4.398817
    27  H    1.101015   5.679699   4.559674   4.876124   4.759534
                   16         17         18         19         20
    16  H    0.000000
    17  H    1.760848   0.000000
    18  H    3.059720   2.484451   0.000000
    19  H    2.568465   3.752814   3.045264   0.000000
    20  H    4.787488   4.926072   2.617796   3.063603   0.000000
    21  H    4.899923   5.614281   3.784135   2.493817   1.750870
    22  H    4.518825   5.286416   4.030840   2.623766   3.073373
    23  H    5.670437   6.025205   4.151440   3.791989   2.485363
    24  H    4.876026   4.885950   3.784683   4.141122   3.835046
    25  H    4.775887   4.422841   2.615960   4.018932   2.675918
    26  H    3.118581   2.555151   2.476547   3.764276   4.209307
    27  H    2.555692   3.088406   3.056666   2.585436   4.060742
                   21         22         23         24         25
    21  H    0.000000
    22  H    2.489430   0.000000
    23  H    2.521140   1.759742   0.000000
    24  H    4.331423   2.478345   2.519616   0.000000
    25  H    3.825947   3.066772   2.477786   1.760376   0.000000
    26  H    5.002438   3.824498   4.325355   2.511611   2.481086
    27  H    4.198439   2.664832   3.824364   2.481998   3.069132
                   26         27
    26  H    0.000000
    27  H    1.761691   0.000000
 Stoichiometry    C10H16O
 Framework group  C1[X(C10H16O)]
 Deg. of freedom    75
 Full point group                 C1      NOp   1
 Largest Abelian subgroup         C1      NOp   1
 Largest concise Abelian subgroup C1      NOp   1
                         Standard orientation:                         
 ---------------------------------------------------------------------
 Center     Atomic      Atomic             Coordinates (Angstroms)
 Number     Number       Type             X           Y           Z
 ---------------------------------------------------------------------
      1          8           0        1.493430    2.194015   -0.442029
      2          6           0        1.339104    1.090444    0.048523
      3          6           0        2.512692    0.174104    0.372107
      4          6           0        2.318887   -1.223797   -0.250782
      5          6           0        0.952057   -1.818117    0.115311
      6          6           0       -0.203694   -0.887192   -0.282974
      7          6           0       -0.041380    0.517213    0.366337
      8          6           0       -1.183752    1.464539   -0.021167
      9          6           0       -2.553378    0.857903    0.314691
     10          6           0       -2.729690   -0.527304   -0.325308
     11          6           0       -1.583419   -1.474432    0.059679
     12          1           0        3.434086    0.653589    0.028906
     13          1           0        2.573235    0.073122    1.466505
     14          1           0        3.128436   -1.888663    0.073552
     15          1           0        2.399574   -1.143113   -1.343570
     16          1           0        0.909322   -2.004060    1.199472
     17          1           0        0.825013   -2.793667   -0.372151
     18          1           0       -0.161461   -0.746356   -1.376084
     19          1           0       -0.063076    0.358921    1.459815
     20          1           0       -1.120564    1.673422   -1.097423
     21          1           0       -1.049804    2.429212    0.480335
     22          1           0       -2.654433    0.766588    1.406677
     23          1           0       -3.353435    1.532551   -0.015078
     24          1           0       -3.692644   -0.964071   -0.031771
     25          1           0       -2.756554   -0.419488   -1.419608
     26          1           0       -1.705028   -2.443419   -0.442990
     27          1           0       -1.624665   -1.676852    1.141141
 ---------------------------------------------------------------------
 Rotational constants (GHZ):           1.7290481           0.9452221           0.6545062
 Standard basis: 6-31G(d) (6D, 7F)
 There are   197 symmetry adapted cartesian basis functions of A   symmetry.
 There are   197 symmetry adapted basis functions of A   symmetry.
   197 basis functions,   372 primitive gaussians,   197 cartesian basis functions
    42 alpha electrons       42 beta electrons
       nuclear repulsion energy       653.0806070286 Hartrees.
 NAtoms=   27 NActive=   27 NUniq=   27 SFac= 1.00D+00 NAtFMM=   60 NAOKFM=F Big=F
 Integral buffers will be    131072 words long.
 Raffenetti 2 integral format.
 Two-electron integral symmetry is turned on.
 One-electron integrals computed using PRISM.
 NBasis=   197 RedAO= T EigKep=  2.36D-03  NBF=   197
 NBsUse=   197 1.00D-06 EigRej= -1.00D+00 NBFU=   197
 ExpMin= 1.61D-01 ExpMax= 5.48D+03 ExpMxC= 8.25D+02 IAcc=3 IRadAn=         5 AccDes= 0.00D+00
 Harris functional with IExCor=  402 and IRadAn=       5 diagonalized for initial guess.
 HarFok:  IExCor=  402 AccDes= 0.00D+00 IRadAn=         5 IDoV= 1 UseB2=F ITyADJ=14
 ICtDFT=  3500011 ScaDFX=  1.000000  1.000000  1.000000  1.000000
 FoFCou: FMM=F IPFlag=           0 FMFlag=      100000 FMFlg1=           0
         NFxFlg=           0 DoJE=T BraDBF=F KetDBF=T FulRan=T
         wScrn=  0.000000 ICntrl=       500 IOpCl=  0 I1Cent=   200000004 NGrid=           0
         NMat0=    1 NMatS0=      1 NMatT0=    0 NMatD0=    1 NMtDS0=    0 NMtDT0=    0
 Petite list used in FoFCou.
 Requested convergence on RMS density matrix=1.00D-08 within 128 cycles.
 Requested convergence on MAX density matrix=1.00D-06.
 Requested convergence on             energy=1.00D-06.
 No special actions if energy rises.
 Integral accuracy reduced to 1.0D-05 until final iterations.
 Initial convergence to 1.0D-05 achieved.  Increase integral accuracy.
 SCF Done:  E(RB3LYP) =  -465.945294495     A.U. after   13 cycles
            NFock= 13  Conv=0.96D-08     -V/T= 2.0098
 DoSCS=F DFT=T ScalE2(SS,OS)=  1.000000  1.000000
 Range of M.O.s used for correlation:     1   197
 NBasis=   197 NAE=    42 NBE=    42 NFC=     0 NFV=     0
 NROrb=    197 NOA=    42 NOB=    42 NVA=   155 NVB=   155
 Symmetrizing basis deriv contribution to polar:
 IMax=3 JMax=2 DiffMx= 0.00D+00
 G2DrvN: will do    28 centers at a time, making    1 passes.
 Calling FoFCou, ICntrl=  3107 FMM=F I1Cent=   0 AccDes= 0.00D+00.
 End of G2Drv F.D. properties file   721 does not exist.
 End of G2Drv F.D. properties file   722 does not exist.
 End of G2Drv F.D. properties file   788 does not exist.
          IDoAtm=111111111111111111111111111
          Differentiating once with respect to electric field.
                with respect to dipole field.
          Differentiating once with respect to nuclear coordinates.
 Keep R1 ints in memory in canonical form, NReq=198402009.
          There are    84 degrees of freedom in the 1st order CPHF.  IDoFFX=6 NUNeed=     3.
     81 vectors produced by pass  0 Test12= 7.75D-15 1.19D-09 XBig12= 7.37D+01 2.75D+00.
 AX will form    81 AO Fock derivatives at one time.
     81 vectors produced by pass  1 Test12= 7.75D-15 1.19D-09 XBig12= 9.99D+00 7.47D-01.
     81 vectors produced by pass  2 Test12= 7.75D-15 1.19D-09 XBig12= 5.78D-02 2.17D-02.
     81 vectors produced by pass  3 Test12= 7.75D-15 1.19D-09 XBig12= 1.50D-04 1.23D-03.
     81 vectors produced by pass  4 Test12= 7.75D-15 1.19D-09 XBig12= 1.52D-07 4.16D-05.
     38 vectors produced by pass  5 Test12= 7.75D-15 1.19D-09 XBig12= 9.71D-11 9.83D-07.
      3 vectors produced by pass  6 Test12= 7.75D-15 1.19D-09 XBig12= 6.09D-14 2.12D-08.
 InvSVY:  IOpt=1 It=  1 EMax= 2.31D-14
 Solved reduced A of dimension   446 with    84 vectors.
 Isotropic polarizability for W=    0.000000      100.69 Bohr**3.
 End of Minotr F.D. properties file   721 does not exist.
 End of Minotr F.D. properties file   722 does not exist.
 End of Minotr F.D. properties file   788 does not exist.

 **********************************************************************

            Population analysis using the SCF density.

 **********************************************************************

 Orbital symmetries:
       Occupied  (A) (A) (A) (A) (A) (A) (A) (A) (A) (A) (A) (A)
                 (A) (A) (A) (A) (A) (A) (A) (A) (A) (A) (A) (A)
                 (A) (A) (A) (A) (A) (A) (A) (A) (A) (A) (A) (A)
                 (A) (A) (A) (A) (A) (A)
       Virtual   (A) (A) (A) (A) (A) (A) (A) (A) (A) (A) (A) (A)
                 (A) (A) (A) (A) (A) (A) (A) (A) (A) (A) (A) (A)
                 (A) (A) (A) (A) (A) (A) (A) (A) (A) (A) (A) (A)
                 (A) (A) (A) (A) (A) (A) (A) (A) (A) (A) (A) (A)
                 (A) (A) (A) (A) (A) (A) (A) (A) (A) (A) (A) (A)
                 (A) (A) (A) (A) (A) (A) (A) (A) (A) (A) (A) (A)
                 (A) (A) (A) (A) (A) (A) (A) (A) (A) (A) (A) (A)
                 (A) (A) (A) (A) (A) (A) (A) (A) (A) (A) (A) (A)
                 (A) (A) (A) (A) (A) (A) (A) (A) (A) (A) (A) (A)
                 (A) (A) (A) (A) (A) (A) (A) (A) (A) (A) (A) (A)
                 (A) (A) (A) (A) (A) (A) (A) (A) (A) (A) (A) (A)
                 (A) (A) (A) (A) (A) (A) (A) (A) (A) (A) (A) (A)
                 (A) (A) (A) (A) (A) (A) (A) (A) (A) (A) (A)
 The electronic state is 1-A.
 Alpha  occ. eigenvalues --  -19.13200 -10.26509 -10.19504 -10.19311 -10.19128
 Alpha  occ. eigenvalues --  -10.18880 -10.18764 -10.18292 -10.18030 -10.17859
 Alpha  occ. eigenvalues --  -10.17526  -1.03040  -0.84762  -0.80116  -0.75278
 Alpha  occ. eigenvalues --   -0.74141  -0.70334  -0.62337  -0.61497  -0.58055
 Alpha  occ. eigenvalues --   -0.55749  -0.52716  -0.47034  -0.46474  -0.46003
 Alpha  occ. eigenvalues --   -0.44491  -0.43896  -0.42274  -0.41257  -0.40178
 Alpha  occ. eigenvalues --   -0.39018  -0.36987  -0.36005  -0.35782  -0.34863
 Alpha  occ. eigenvalues --   -0.34285  -0.33549  -0.32653  -0.31918  -0.30187
 Alpha  occ. eigenvalues --   -0.29490  -0.23263
 Alpha virt. eigenvalues --   -0.00999   0.08628   0.09199   0.09993   0.12207
 Alpha virt. eigenvalues --    0.13596   0.13910   0.15204   0.15647   0.16153
 Alpha virt. eigenvalues --    0.16630   0.17443   0.17766   0.18328   0.18838
 Alpha virt. eigenvalues --    0.19342   0.19826   0.20170   0.21048   0.22732
 Alpha virt. eigenvalues --    0.24810   0.25260   0.26677   0.27082   0.28143
 Alpha virt. eigenvalues --    0.29668   0.30418   0.35101   0.37329   0.50008
 Alpha virt. eigenvalues --    0.51051   0.51910   0.53387   0.54101   0.55055
 Alpha virt. eigenvalues --    0.56609   0.57888   0.60466   0.61123   0.62852
 Alpha virt. eigenvalues --    0.63542   0.65558   0.66299   0.67784   0.70080
 Alpha virt. eigenvalues --    0.70436   0.72551   0.72970   0.75497   0.77437
 Alpha virt. eigenvalues --    0.78002   0.79814   0.82551   0.83071   0.83308
 Alpha virt. eigenvalues --    0.85703   0.86357   0.87175   0.87785   0.88493
 Alpha virt. eigenvalues --    0.89639   0.90037   0.91440   0.92428   0.93166
 Alpha virt. eigenvalues --    0.93473   0.94259   0.95073   0.96219   0.96966
 Alpha virt. eigenvalues --    0.97345   1.00681   1.04265   1.10119   1.10923
 Alpha virt. eigenvalues --    1.12260   1.16639   1.19102   1.21840   1.23537
 Alpha virt. eigenvalues --    1.31366   1.33775   1.38666   1.40873   1.44760
 Alpha virt. eigenvalues --    1.47366   1.50354   1.55577   1.59735   1.65080
 Alpha virt. eigenvalues --    1.65718   1.70007   1.71706   1.72590   1.74901
 Alpha virt. eigenvalues --    1.75734   1.78908   1.81918   1.82220   1.85074
 Alpha virt. eigenvalues --    1.86779   1.87706   1.90746   1.92892   1.93155
 Alpha virt. eigenvalues --    1.95870   1.96621   1.97645   1.98701   1.99646
 Alpha virt. eigenvalues --    2.02517   2.02800   2.05752   2.07798   2.08723
 Alpha virt. eigenvalues --    2.10128   2.13634   2.20278   2.22431   2.26075
 Alpha virt. eigenvalues --    2.30065   2.30411   2.33136   2.35641   2.37393
 Alpha virt. eigenvalues --    2.39709   2.41040   2.42081   2.44694   2.48227
 Alpha virt. eigenvalues --    2.52108   2.57122   2.58704   2.59982   2.62621
 Alpha virt. eigenvalues --    2.64019   2.69048   2.73883   2.75507   2.78961
 Alpha virt. eigenvalues --    2.84446   2.86633   2.99008   3.05045   4.01101
 Alpha virt. eigenvalues --    4.12668   4.20417   4.24170   4.30382   4.33937
 Alpha virt. eigenvalues --    4.50438   4.55028   4.58656   4.61585   4.70150
          Condensed to atoms (all electrons):
               1          2          3          4          5          6
     1  O    8.008456   0.586301  -0.075249   0.001019   0.000138   0.000027
     2  C    0.586301   4.516929   0.347927  -0.029783  -0.013265  -0.019586
     3  C   -0.075249   0.347927   5.283412   0.342547  -0.044444  -0.008608
     4  C    0.001019  -0.029783   0.342547   5.022766   0.366947  -0.035839
     5  C    0.000138  -0.013265  -0.044444   0.366947   5.049919   0.374785
     6  C    0.000027  -0.019586  -0.008608  -0.035839   0.374785   4.947835
     7  C   -0.093910   0.285629  -0.134427  -0.002347  -0.039705   0.358331
     8  C    0.006822  -0.027275   0.006008   0.000016   0.004253  -0.035554
     9  C    0.000633   0.004406  -0.000070  -0.000014   0.000213  -0.013329
    10  C   -0.000012  -0.000039  -0.000017  -0.000141   0.003766  -0.033479
    11  C   -0.000057   0.002465   0.000004   0.004027  -0.037751   0.380744
    12  H    0.005414  -0.023577   0.342638  -0.025484   0.004106  -0.000014
    13  H    0.001382  -0.030409   0.349519  -0.036057  -0.002975  -0.001222
    14  H   -0.000063   0.003486  -0.029571   0.367788  -0.029547   0.004380
    15  H    0.000479  -0.003011  -0.042558   0.375686  -0.038240  -0.005656
    16  H   -0.000008  -0.001565  -0.003368  -0.041278   0.368189  -0.040489
    17  H    0.000002   0.000309   0.004611  -0.030959   0.361950  -0.031665
    18  H    0.000537  -0.003328  -0.000124  -0.003917  -0.047211   0.369698
    19  H    0.001366  -0.034636   0.001863  -0.001358  -0.004340  -0.045065
    20  H    0.004208  -0.004615   0.000268  -0.000055   0.000050  -0.006688
    21  H    0.004647  -0.003026   0.000188  -0.000007  -0.000149   0.004432
    22  H   -0.000004  -0.000073  -0.000000   0.000000  -0.000030  -0.000980
    23  H    0.000002  -0.000078   0.000002  -0.000000   0.000006   0.000201
    24  H    0.000000   0.000007  -0.000000   0.000002  -0.000125   0.004414
    25  H   -0.000000  -0.000039   0.000000   0.000002   0.000004  -0.005725
    26  H    0.000001  -0.000068   0.000006   0.000024  -0.004186  -0.034024
    27  H    0.000000  -0.000008  -0.000009   0.000063  -0.005817  -0.040035
               7          8          9         10         11         12
     1  O   -0.093910   0.006822   0.000633  -0.000012  -0.000057   0.005414
     2  C    0.285629  -0.027275   0.004406  -0.000039   0.002465  -0.023577
     3  C   -0.134427   0.006008  -0.000070  -0.000017   0.000004   0.342638
     4  C   -0.002347   0.000016  -0.000014  -0.000141   0.004027  -0.025484
     5  C   -0.039705   0.004253   0.000213   0.003766  -0.037751   0.004106
     6  C    0.358331  -0.035554  -0.013329  -0.033479   0.380744  -0.000014
     7  C    5.314953   0.352943  -0.034178  -0.013063  -0.037726   0.006723
     8  C    0.352943   5.016248   0.356543  -0.041659  -0.011716  -0.000155
     9  C   -0.034178   0.356543   5.024385   0.380920  -0.045577   0.000001
    10  C   -0.013063  -0.041659   0.380920   5.000553   0.375081  -0.000000
    11  C   -0.037726  -0.011716  -0.045577   0.375081   5.033930   0.000010
    12  H    0.006723  -0.000155   0.000001  -0.000000   0.000010   0.562402
    13  H    0.003450  -0.000103  -0.000004   0.000001  -0.000018  -0.027218
    14  H   -0.000269   0.000009   0.000000   0.000001  -0.000143  -0.002434
    15  H    0.000021  -0.000036  -0.000001   0.000002   0.000027  -0.003412
    16  H   -0.006650   0.000059  -0.000025   0.000043  -0.005133  -0.000029
    17  H    0.004902  -0.000152   0.000000   0.000015  -0.003630  -0.000144
    18  H   -0.053563  -0.004251  -0.000617  -0.003463  -0.047186  -0.000039
    19  H    0.345040  -0.042239  -0.002801  -0.000727  -0.007685  -0.000118
    20  H   -0.041153   0.374916  -0.039723  -0.004705  -0.000721  -0.000001
    21  H   -0.032837   0.370181  -0.032707   0.004639   0.000058  -0.000005
    22  H   -0.005953  -0.038217   0.369085  -0.041709  -0.004409   0.000000
    23  H    0.004316  -0.032884   0.370686  -0.033064   0.004746  -0.000000
    24  H    0.000198   0.004597  -0.032531   0.367708  -0.031713   0.000000
    25  H   -0.001112  -0.003929  -0.040601   0.371573  -0.039871  -0.000000
    26  H    0.005128  -0.000039   0.004773  -0.031592   0.365113  -0.000000
    27  H   -0.007870  -0.000562  -0.004491  -0.039809   0.366681  -0.000000
              13         14         15         16         17         18
     1  O    0.001382  -0.000063   0.000479  -0.000008   0.000002   0.000537
     2  C   -0.030409   0.003486  -0.003011  -0.001565   0.000309  -0.003328
     3  C    0.349519  -0.029571  -0.042558  -0.003368   0.004611  -0.000124
     4  C   -0.036057   0.367788   0.375686  -0.041278  -0.030959  -0.003917
     5  C   -0.002975  -0.029547  -0.038240   0.368189   0.361950  -0.047211
     6  C   -0.001222   0.004380  -0.005656  -0.040489  -0.031665   0.369698
     7  C    0.003450  -0.000269   0.000021  -0.006650   0.004902  -0.053563
     8  C   -0.000103   0.000009  -0.000036   0.000059  -0.000152  -0.004251
     9  C   -0.000004   0.000000  -0.000001  -0.000025   0.000000  -0.000617
    10  C    0.000001   0.000001   0.000002   0.000043   0.000015  -0.003463
    11  C   -0.000018  -0.000143   0.000027  -0.005133  -0.003630  -0.047186
    12  H   -0.027218  -0.002434  -0.003412  -0.000029  -0.000144  -0.000039
    13  H    0.586920  -0.006427   0.005771   0.004527  -0.000038   0.000113
    14  H   -0.006427   0.593763  -0.036898  -0.004171  -0.002136  -0.000023
    15  H    0.005771  -0.036898   0.596429   0.005783  -0.004186   0.004931
    16  H    0.004527  -0.004171   0.005783   0.614724  -0.036516   0.006427
    17  H   -0.000038  -0.002136  -0.004186  -0.036516   0.600962  -0.004363
    18  H    0.000113  -0.000023   0.004931   0.006427  -0.004363   0.641898
    19  H    0.001672  -0.000031   0.000109   0.005710  -0.000020   0.007315
    20  H   -0.000004   0.000000  -0.000009   0.000005   0.000001   0.005471
    21  H   -0.000016   0.000000  -0.000000   0.000001   0.000003  -0.000049
    22  H   -0.000001  -0.000000  -0.000000  -0.000008   0.000001   0.000157
    23  H   -0.000000   0.000000  -0.000000  -0.000000  -0.000000  -0.000027
    24  H   -0.000000  -0.000000   0.000000   0.000001  -0.000003  -0.000051
    25  H   -0.000000   0.000000  -0.000001   0.000005  -0.000001   0.005103
    26  H    0.000000   0.000002  -0.000002  -0.000281   0.004984  -0.004557
    27  H   -0.000006   0.000003   0.000005   0.005346  -0.000309   0.006512
              19         20         21         22         23         24
     1  O    0.001366   0.004208   0.004647  -0.000004   0.000002   0.000000
     2  C   -0.034636  -0.004615  -0.003026  -0.000073  -0.000078   0.000007
     3  C    0.001863   0.000268   0.000188  -0.000000   0.000002  -0.000000
     4  C   -0.001358  -0.000055  -0.000007   0.000000  -0.000000   0.000002
     5  C   -0.004340   0.000050  -0.000149  -0.000030   0.000006  -0.000125
     6  C   -0.045065  -0.006688   0.004432  -0.000980   0.000201   0.004414
     7  C    0.345040  -0.041153  -0.032837  -0.005953   0.004316   0.000198
     8  C   -0.042239   0.374916   0.370181  -0.038217  -0.032884   0.004597
     9  C   -0.002801  -0.039723  -0.032707   0.369085   0.370686  -0.032531
    10  C   -0.000727  -0.004705   0.004639  -0.041709  -0.033064   0.367708
    11  C   -0.007685  -0.000721   0.000058  -0.004409   0.004746  -0.031713
    12  H   -0.000118  -0.000001  -0.000005   0.000000  -0.000000   0.000000
    13  H    0.001672  -0.000004  -0.000016  -0.000001  -0.000000  -0.000000
    14  H   -0.000031   0.000000   0.000000  -0.000000   0.000000  -0.000000
    15  H    0.000109  -0.000009  -0.000000  -0.000000  -0.000000   0.000000
    16  H    0.005710   0.000005   0.000001  -0.000008  -0.000000   0.000001
    17  H   -0.000020   0.000001   0.000003   0.000001  -0.000000  -0.000003
    18  H    0.007315   0.005471  -0.000049   0.000157  -0.000027  -0.000051
    19  H    0.630030   0.006188  -0.003910   0.005049  -0.000050  -0.000040
    20  H    0.006188   0.592483  -0.033549   0.005724  -0.004058  -0.000052
    21  H   -0.003910  -0.033549   0.582455  -0.004113  -0.002097  -0.000151
    22  H    0.005049   0.005724  -0.004113   0.620227  -0.037124  -0.004440
    23  H   -0.000050  -0.004058  -0.002097  -0.037124   0.602037  -0.002250
    24  H   -0.000040  -0.000052  -0.000151  -0.004440  -0.002250   0.606233
    25  H    0.000177   0.004610  -0.000050   0.006069  -0.004388  -0.037042
    26  H   -0.000020  -0.000022   0.000013  -0.000050  -0.000159  -0.002353
    27  H    0.005875   0.000147  -0.000023   0.004832  -0.000050  -0.004325
              25         26         27
     1  O   -0.000000   0.000001   0.000000
     2  C   -0.000039  -0.000068  -0.000008
     3  C    0.000000   0.000006  -0.000009
     4  C    0.000002   0.000024   0.000063
     5  C    0.000004  -0.004186  -0.005817
     6  C   -0.005725  -0.034024  -0.040035
     7  C   -0.001112   0.005128  -0.007870
     8  C   -0.003929  -0.000039  -0.000562
     9  C   -0.040601   0.004773  -0.004491
    10  C    0.371573  -0.031592  -0.039809
    11  C   -0.039871   0.365113   0.366681
    12  H   -0.000000  -0.000000  -0.000000
    13  H   -0.000000   0.000000  -0.000006
    14  H    0.000000   0.000002   0.000003
    15  H   -0.000001  -0.000002   0.000005
    16  H    0.000005  -0.000281   0.005346
    17  H   -0.000001   0.004984  -0.000309
    18  H    0.005103  -0.004557   0.006512
    19  H    0.000177  -0.000020   0.005875
    20  H    0.004610  -0.000022   0.000147
    21  H   -0.000050   0.000013  -0.000023
    22  H    0.006069  -0.000050   0.004832
    23  H   -0.004388  -0.000159  -0.000050
    24  H   -0.037042  -0.002353  -0.004325
    25  H    0.612579  -0.004193   0.005975
    26  H   -0.004193   0.607568  -0.037087
    27  H    0.005975  -0.037087   0.619282
 Mulliken charges:
               1
     1  O   -0.452133
     2  C    0.446921
     3  C   -0.340546
     4  C   -0.273648
     5  C   -0.266540
     6  C   -0.086890
     7  C   -0.176870
     8  C   -0.253823
     9  C   -0.264978
    10  C   -0.260825
    11  C   -0.259550
    12  H    0.161336
    13  H    0.151142
    14  H    0.142279
    15  H    0.144769
    16  H    0.128698
    17  H    0.136384
    18  H    0.124607
    19  H    0.132648
    20  H    0.141281
    21  H    0.146069
    22  H    0.125968
    23  H    0.134232
    24  H    0.131914
    25  H    0.130855
    26  H    0.131023
    27  H    0.125680
 Sum of Mulliken charges =  -0.00000
 Mulliken charges with hydrogens summed into heavy atoms:
               1
     1  O   -0.452133
     2  C    0.446921
     3  C   -0.028068
     4  C    0.013399
     5  C   -0.001458
     6  C    0.037717
     7  C   -0.044223
     8  C    0.033527
     9  C   -0.004779
    10  C    0.001944
    11  C   -0.002847
 APT charges:
               1
     1  O   -0.640540
     2  C    0.723318
     3  C   -0.063468
     4  C    0.146397
     5  C    0.096103
     6  C    0.104154
     7  C   -0.079276
     8  C    0.095620
     9  C    0.127244
    10  C    0.118550
    11  C    0.111282
    12  H   -0.029379
    13  H   -0.013008
    14  H   -0.058375
    15  H   -0.041125
    16  H   -0.045840
    17  H   -0.052016
    18  H   -0.059247
    19  H   -0.033633
    20  H   -0.029779
    21  H   -0.036553
    22  H   -0.053039
    23  H   -0.062755
    24  H   -0.063992
    25  H   -0.049505
    26  H   -0.061641
    27  H   -0.049500
 Sum of APT charges =   0.00000
 APT charges with hydrogens summed into heavy atoms:
               1
     1  O   -0.640540
     2  C    0.723318
     3  C   -0.105856
     4  C    0.046898
     5  C   -0.001753
     6  C    0.044908
     7  C   -0.112908
     8  C    0.029289
     9  C    0.011450
    10  C    0.005053
    11  C    0.000142
 Electronic spatial extent (au):  <R**2>=           1829.5586
 Charge=             -0.0000 electrons
 Dipole moment (field-independent basis, Debye):
    X=             -0.5507    Y=             -2.6749    Z=              0.9317  Tot=              2.8856
 Quadrupole moment (field-independent basis, Debye-Ang):
   XX=            -67.2752   YY=            -74.7847   ZZ=            -66.7582
   XY=             -4.7517   XZ=              1.6849   YZ=              2.3596
 Traceless Quadrupole moment (field-independent basis, Debye-Ang):
   XX=              2.3309   YY=             -5.1787   ZZ=              2.8478
   XY=             -4.7517   XZ=              1.6849   YZ=              2.3596
 Octapole moment (field-independent basis, Debye-Ang**2):
  XXX=              9.8933  YYY=            -10.3725  ZZZ=             -1.1022  XYY=             -9.6808
  XXY=             -3.9406  XXZ=              1.8082  XZZ=              2.7551  YZZ=              2.2828
  YYZ=              3.7356  XYZ=              3.3982
 Hexadecapole moment (field-independent basis, Debye-Ang**3):
 XXXX=          -1480.5188 YYYY=           -819.4540 ZZZZ=           -163.9188 XXXY=              0.8692
 XXXZ=              1.8129 YYYX=            -20.3360 YYYZ=             12.9826 ZZZX=             -1.0191
 ZZZY=             -3.8407 XXYY=           -395.1874 XXZZ=           -277.5614 YYZZ=           -159.1166
 XXYZ=              0.6281 YYXZ=              7.8400 ZZXY=              2.7962
 N-N= 6.530806070286D+02 E-N=-2.386730114849D+03  KE= 4.614384316003D+02
  Exact polarizability: 113.447  -0.895 104.656   0.105  -1.847  83.970
 Approx polarizability: 137.763   2.436 151.580  -1.108  -8.349 138.655
 Calling FoFJK, ICntrl=    100127 FMM=F ISym2X=0 I1Cent= 0 IOpClX= 0 NMat=1 NMatS=1 NMatT=0.
 Full mass-weighted force constant matrix:
 Low frequencies ---   -4.1664   -0.0005    0.0007    0.0007    6.1929   16.3986
 Low frequencies ---   77.8939  120.2916  155.7363
 Diagonal vibrational polarizability:
        7.1113060       3.4131801      10.1088612
 Harmonic frequencies (cm**-1), IR intensities (KM/Mole), Raman scattering
 activities (A**4/AMU), depolarization ratios for plane and unpolarized
 incident light, reduced masses (AMU), force constants (mDyne/A),
 and normal coordinates:
                      1                      2                      3
                      A                      A                      A
 Frequencies --     77.8728               120.2884               155.7355
 Red. masses --      4.3882                 2.5455                 2.5780
 Frc consts  --      0.0157                 0.0217                 0.0368
 IR Inten    --      2.0746                 0.6425                 0.4133
  Atom  AN      X      Y      Z        X      Y      Z        X      Y      Z
     1   8     0.03   0.14   0.32     0.07  -0.05  -0.04     0.03   0.08   0.07
     2   6     0.01   0.02   0.03     0.01  -0.00   0.04     0.01   0.02  -0.06
     3   6     0.02  -0.04  -0.14    -0.05  -0.01   0.21    -0.00   0.02  -0.03
     4   6    -0.04  -0.03  -0.12     0.02   0.08  -0.02     0.02  -0.06   0.14
     5   6     0.00  -0.02   0.02     0.01   0.00  -0.17    -0.03   0.00   0.05
     6   6    -0.02  -0.04   0.04    -0.02   0.01  -0.06     0.01  -0.01  -0.11
     7   6    -0.01  -0.00  -0.07    -0.02   0.01  -0.05    -0.00  -0.00  -0.14
     8   6     0.01  -0.03  -0.20    -0.01  -0.01  -0.12    -0.02  -0.01  -0.09
     9   6     0.00   0.03  -0.14     0.01   0.02   0.01     0.04  -0.02   0.15
    10   6    -0.02  -0.06   0.07    -0.04  -0.03   0.14    -0.05   0.02   0.09
    11   6    -0.01  -0.01   0.16     0.02  -0.00   0.06     0.00  -0.02  -0.14
    12   1    -0.01  -0.03  -0.20     0.02   0.01   0.43    -0.00  -0.02  -0.07
    13   1     0.12  -0.05  -0.14    -0.26  -0.15   0.20     0.00   0.15  -0.01
    14   1    -0.00  -0.03  -0.20     0.01   0.04  -0.07    -0.04  -0.04   0.32
    15   1    -0.15  -0.03  -0.13     0.08   0.25   0.00     0.15  -0.21   0.14
    16   1     0.08   0.05   0.03    -0.01  -0.16  -0.19    -0.15   0.09   0.06
    17   1    -0.04  -0.05   0.09     0.05   0.07  -0.31     0.00  -0.04   0.12
    18   1    -0.08  -0.12   0.03    -0.10   0.04  -0.06     0.08  -0.06  -0.11
    19   1    -0.07   0.09  -0.06    -0.08   0.01  -0.05    -0.01  -0.00  -0.13
    20   1     0.03  -0.16  -0.23    -0.04  -0.12  -0.14    -0.17  -0.10  -0.11
    21   1     0.02   0.03  -0.32     0.01   0.04  -0.22     0.05   0.02  -0.17
    22   1    -0.01   0.20  -0.12     0.07   0.13   0.02     0.26  -0.08   0.17
    23   1     0.01  -0.00  -0.24    -0.01  -0.01  -0.01    -0.03  -0.02   0.34
    24   1    -0.01  -0.01   0.16     0.00  -0.03   0.29    -0.00  -0.01   0.21
    25   1    -0.05  -0.22   0.05    -0.18  -0.12   0.13    -0.22   0.10   0.11
    26   1    -0.02  -0.07   0.29    -0.01  -0.01   0.09    -0.03   0.05  -0.26
    27   1     0.03   0.13   0.19     0.12   0.02   0.07     0.07  -0.18  -0.16
                      4                      5                      6
                      A                      A                      A
 Frequencies --    255.7076               259.0634               298.0461
 Red. masses --      2.7805                 2.5427                 2.0400
 Frc consts  --      0.1071                 0.1005                 0.1068
 IR Inten    --      3.2331                 1.7578                 0.2844
  Atom  AN      X      Y      Z        X      Y      Z        X      Y      Z
     1   8     0.20  -0.01  -0.03     0.14   0.06   0.01     0.01  -0.05  -0.01
     2   6     0.05   0.03   0.02     0.03   0.04  -0.08     0.01  -0.01   0.07
     3   6    -0.01  -0.06   0.03    -0.01  -0.03  -0.03     0.06  -0.02  -0.06
     4   6    -0.09   0.03  -0.12     0.02  -0.09   0.09     0.03  -0.05   0.01
     5   6    -0.03   0.07   0.12    -0.06  -0.00  -0.09    -0.01   0.04  -0.01
     6   6    -0.00   0.06   0.06    -0.02   0.06  -0.05     0.03   0.10   0.01
     7   6    -0.01   0.10   0.00     0.01   0.06  -0.06    -0.01   0.04   0.13
     8   6    -0.09   0.01  -0.03    -0.08   0.04   0.11    -0.01   0.00   0.00
     9   6    -0.03  -0.11   0.06    -0.09  -0.08  -0.03    -0.06   0.03  -0.09
    10   6    -0.01  -0.07  -0.04     0.00  -0.09  -0.02    -0.07  -0.07   0.10
    11   6     0.01  -0.03  -0.06     0.04   0.03   0.10     0.05  -0.01  -0.10
    12   1     0.03  -0.07   0.13     0.01  -0.08  -0.03    -0.00  -0.00  -0.20
    13   1    -0.08  -0.20   0.02    -0.05   0.07  -0.02     0.21   0.02  -0.06
    14   1    -0.03  -0.01  -0.36    -0.07  -0.09   0.31    -0.02  -0.06   0.09
    15   1    -0.33   0.15  -0.13     0.22  -0.21   0.09     0.08  -0.12   0.01
    16   1     0.08   0.26   0.16    -0.16  -0.11  -0.11    -0.04   0.02  -0.02
    17   1    -0.12   0.00   0.29    -0.09   0.05  -0.19    -0.07   0.06  -0.03
    18   1     0.07   0.04   0.06    -0.10   0.04  -0.06     0.08   0.22   0.03
    19   1    -0.03   0.16   0.01     0.11   0.02  -0.06    -0.05   0.02   0.12
    20   1    -0.15  -0.06  -0.05    -0.08   0.27   0.15     0.10  -0.06  -0.00
    21   1    -0.16   0.05  -0.09    -0.17  -0.05   0.31    -0.09   0.04  -0.04
    22   1     0.10  -0.22   0.06    -0.19  -0.09  -0.04    -0.19   0.21  -0.09
    23   1    -0.10  -0.13   0.21    -0.09  -0.10  -0.09    -0.00  -0.01  -0.29
    24   1    -0.00  -0.11  -0.08     0.01  -0.13  -0.05     0.02  -0.10   0.38
    25   1     0.00   0.00  -0.03     0.07  -0.15  -0.03    -0.35  -0.18   0.10
    26   1     0.12   0.01  -0.15     0.09  -0.07   0.29     0.11   0.08  -0.28
    27   1    -0.05  -0.12  -0.08     0.10   0.23   0.14     0.09  -0.23  -0.14
                      7                      8                      9
                      A                      A                      A
 Frequencies --    340.9374               379.4792               391.5370
 Red. masses --      1.8692                 3.7860                 3.4528
 Frc consts  --      0.1280                 0.3212                 0.3119
 IR Inten    --      0.1333                 0.1015                 1.0621
  Atom  AN      X      Y      Z        X      Y      Z        X      Y      Z
     1   8    -0.03   0.01  -0.01    -0.12  -0.04   0.03     0.04  -0.13   0.04
     2   6    -0.02   0.02   0.03    -0.13  -0.05  -0.00    -0.02  -0.10   0.06
     3   6    -0.01  -0.01  -0.04    -0.16  -0.13  -0.01     0.11  -0.02  -0.02
     4   6     0.00  -0.06   0.03     0.01  -0.13  -0.06     0.19  -0.01  -0.03
     5   6    -0.03  -0.05  -0.08     0.03   0.00   0.04     0.14   0.07   0.00
     6   6     0.01   0.07   0.10     0.11   0.06  -0.06     0.03  -0.00  -0.05
     7   6    -0.01   0.07   0.11    -0.09   0.06  -0.04    -0.08  -0.03  -0.03
     8   6    -0.02  -0.03  -0.10    -0.05   0.14  -0.02    -0.15  -0.03  -0.04
     9   6     0.03  -0.05   0.06     0.01   0.06   0.01    -0.18   0.04   0.07
    10   6     0.05   0.02  -0.06     0.20   0.01   0.06    -0.07   0.09  -0.04
    11   6     0.02   0.03   0.03     0.21   0.03  -0.00    -0.03   0.11   0.03
    12   1    -0.03  -0.03  -0.11    -0.12  -0.07   0.21    -0.01   0.15  -0.13
    13   1     0.06   0.03  -0.04    -0.34  -0.24  -0.00     0.26  -0.03  -0.04
    14   1    -0.03  -0.04   0.15     0.04  -0.07  -0.01     0.14  -0.03   0.05
    15   1     0.12  -0.12   0.03     0.01  -0.16  -0.06     0.25  -0.05  -0.03
    16   1    -0.04  -0.31  -0.13     0.05   0.20   0.08     0.17   0.22   0.03
    17   1    -0.09   0.08  -0.32    -0.13  -0.06   0.22     0.14  -0.00   0.15
    18   1    -0.01   0.17   0.11     0.16   0.03  -0.06     0.02  -0.04  -0.06
    19   1    -0.05   0.17   0.12    -0.16   0.02  -0.05    -0.16  -0.08  -0.04
    20   1    -0.06  -0.34  -0.17    -0.07   0.20  -0.00    -0.25  -0.15  -0.07
    21   1    -0.05   0.11  -0.37    -0.00   0.10   0.05    -0.08   0.02  -0.15
    22   1     0.19  -0.15   0.07     0.02   0.12   0.02    -0.14  -0.02   0.07
    23   1    -0.04  -0.04   0.23    -0.07  -0.07  -0.04    -0.18   0.06   0.12
    24   1     0.01  -0.01  -0.21     0.22  -0.06   0.02    -0.06  -0.03  -0.18
    25   1     0.19   0.11  -0.05     0.21   0.02   0.06     0.04   0.18  -0.03
    26   1     0.09   0.03   0.01     0.17   0.03  -0.00    -0.11   0.03   0.21
    27   1    -0.06   0.03   0.02     0.31   0.03  -0.00    -0.01   0.31   0.07
                     10                     11                     12
                      A                      A                      A
 Frequencies --    416.5972               458.2785               502.6823
 Red. masses --      2.7960                 2.8675                 2.1468
 Frc consts  --      0.2859                 0.3548                 0.3196
 IR Inten    --      1.2954                 1.2289                 1.1860
  Atom  AN      X      Y      Z        X      Y      Z        X      Y      Z
     1   8    -0.08  -0.09   0.01    -0.06   0.07  -0.03    -0.08   0.03   0.02
     2   6     0.02  -0.06   0.10     0.04   0.06  -0.01     0.01  -0.02  -0.08
     3   6     0.10   0.01   0.02    -0.03  -0.03   0.03    -0.01  -0.07   0.01
     4   6    -0.07   0.03   0.03    -0.07  -0.03  -0.02     0.13  -0.06  -0.06
     5   6    -0.13   0.16  -0.02    -0.03  -0.06   0.05     0.05   0.09  -0.01
     6   6    -0.07   0.09  -0.13     0.11   0.04  -0.07    -0.04   0.05   0.06
     7   6     0.00  -0.02  -0.01     0.11  -0.05   0.04     0.03   0.03   0.03
     8   6     0.07   0.01  -0.03     0.02  -0.19   0.03     0.05   0.02   0.00
     9   6     0.12  -0.09  -0.01    -0.07  -0.03   0.01     0.07  -0.05  -0.04
    10   6     0.03  -0.06  -0.03    -0.08   0.02  -0.02    -0.12  -0.03  -0.05
    11   6     0.03   0.03   0.05     0.07   0.21  -0.03    -0.09   0.01   0.01
    12   1     0.02   0.01  -0.20     0.07  -0.13   0.16     0.11  -0.03   0.38
    13   1     0.32   0.04   0.00    -0.17  -0.09   0.04    -0.38  -0.20   0.02
    14   1    -0.16  -0.08   0.02    -0.00  -0.01  -0.13     0.04  -0.07   0.15
    15   1    -0.06   0.04   0.03    -0.18   0.02  -0.02     0.30  -0.16  -0.05
    16   1    -0.22   0.33   0.01    -0.06   0.04   0.06     0.16   0.22   0.02
    17   1    -0.11   0.08   0.14    -0.05  -0.09   0.11    -0.03   0.02   0.14
    18   1    -0.12   0.10  -0.13     0.22   0.05  -0.07    -0.07   0.08   0.06
    19   1    -0.11  -0.15  -0.04     0.16  -0.15   0.02     0.08   0.11   0.04
    20   1     0.08   0.04  -0.02     0.01  -0.35  -0.00     0.11   0.09   0.02
    21   1     0.01  -0.00   0.00     0.03  -0.11  -0.14    -0.03  -0.01   0.08
    22   1     0.26  -0.20   0.00    -0.15  -0.03   0.00     0.20  -0.18  -0.03
    23   1     0.06  -0.07   0.18     0.06   0.09  -0.04     0.05   0.02   0.16
    24   1     0.02  -0.02   0.00     0.03  -0.12   0.11    -0.10   0.05   0.13
    25   1     0.03  -0.11  -0.04    -0.22   0.01  -0.02    -0.25  -0.11  -0.05
    26   1     0.07  -0.10   0.29     0.07   0.07   0.23    -0.00  -0.02   0.04
    27   1     0.14   0.29   0.10     0.15   0.46   0.02    -0.16   0.06   0.01
                     13                     14                     15
                      A                      A                      A
 Frequencies --    542.1674               577.6767               652.5352
 Red. masses --      1.6810                 3.5688                 3.5626
 Frc consts  --      0.2911                 0.7017                 0.8938
 IR Inten    --      0.2340                 8.6892                 1.4530
  Atom  AN      X      Y      Z        X      Y      Z        X      Y      Z
     1   8     0.02   0.02   0.01    -0.20   0.08  -0.02     0.03   0.11  -0.13
     2   6     0.02  -0.01  -0.06     0.16   0.03  -0.01     0.02   0.24   0.25
     3   6    -0.01  -0.01  -0.01     0.27  -0.09   0.12    -0.01  -0.01   0.01
     4   6     0.00   0.00  -0.01     0.00  -0.08  -0.00     0.03  -0.11  -0.07
     5   6    -0.05   0.13  -0.03    -0.04  -0.02   0.00     0.02  -0.07  -0.03
     6   6    -0.06   0.03  -0.02    -0.01   0.01   0.03    -0.01  -0.10  -0.13
     7   6     0.02  -0.05   0.04     0.06   0.05  -0.10    -0.04   0.02   0.08
     8   6     0.02  -0.11   0.03    -0.08   0.07  -0.03    -0.00   0.03  -0.01
     9   6    -0.03   0.03   0.03    -0.10   0.01   0.03     0.02   0.01  -0.00
    10   6     0.07   0.02   0.03     0.02  -0.01   0.03    -0.01   0.00   0.00
    11   6    -0.01  -0.07   0.02    -0.01  -0.04   0.01    -0.07  -0.09   0.02
    12   1     0.05  -0.01   0.16     0.37  -0.26   0.17     0.01  -0.06  -0.00
    13   1    -0.20  -0.05  -0.00     0.19  -0.14   0.12     0.14  -0.25  -0.03
    14   1    -0.10  -0.04   0.16    -0.03  -0.24  -0.24     0.00  -0.01   0.21
    15   1     0.16  -0.08  -0.01    -0.14   0.09  -0.00     0.24  -0.27  -0.06
    16   1    -0.04   0.31   0.00    -0.05  -0.13  -0.01     0.06   0.31   0.04
    17   1    -0.06   0.04   0.15    -0.07   0.02  -0.09     0.01  -0.25   0.33
    18   1    -0.15   0.08  -0.02    -0.04  -0.07   0.02    -0.05  -0.07  -0.12
    19   1     0.11  -0.07   0.03     0.05   0.12  -0.09    -0.26  -0.19   0.04
    20   1    -0.01  -0.36  -0.02    -0.20   0.12  -0.03     0.05  -0.02  -0.01
    21   1     0.08   0.01  -0.22    -0.09   0.06   0.00    -0.03   0.06  -0.04
    22   1    -0.26   0.21   0.02    -0.17   0.10   0.03     0.08   0.00   0.00
    23   1     0.07   0.01  -0.26    -0.11  -0.05  -0.09    -0.02  -0.01   0.04
    24   1    -0.01   0.02  -0.25    -0.02  -0.04  -0.16    -0.06   0.09  -0.05
    25   1     0.33   0.13   0.04     0.18   0.07   0.03     0.06   0.01   0.00
    26   1    -0.02   0.01  -0.13     0.02   0.05  -0.16    -0.18  -0.14   0.13
    27   1     0.02  -0.22  -0.01    -0.03  -0.22  -0.03     0.02   0.03   0.04
                     16                     17                     18
                      A                      A                      A
 Frequencies --    784.3761               825.6644               843.1419
 Red. masses --      1.9847                 2.0023                 2.6174
 Frc consts  --      0.7194                 0.8043                 1.0963
 IR Inten    --      0.2099                 3.3582                 7.5116
  Atom  AN      X      Y      Z        X      Y      Z        X      Y      Z
     1   8     0.00   0.02   0.02    -0.02  -0.01   0.01    -0.04  -0.08   0.02
     2   6     0.02  -0.04  -0.10    -0.07  -0.00   0.01     0.09  -0.03   0.10
     3   6     0.04  -0.01  -0.01    -0.08  -0.04   0.06    -0.06   0.03  -0.09
     4   6     0.01   0.01   0.04     0.07  -0.06   0.02    -0.10   0.09  -0.02
     5   6     0.01  -0.03   0.01     0.05  -0.04  -0.00     0.01   0.00   0.02
     6   6    -0.03  -0.04  -0.09     0.01   0.08  -0.05     0.05  -0.01   0.01
     7   6    -0.03   0.03   0.13     0.06   0.12  -0.06     0.13   0.05  -0.06
     8   6    -0.01   0.13   0.05     0.06  -0.00   0.04     0.08   0.10  -0.02
     9   6    -0.00   0.05   0.03     0.06  -0.05   0.04    -0.08   0.04   0.09
    10   6     0.01  -0.04  -0.05    -0.09  -0.04   0.01    -0.12  -0.09  -0.03
    11   6    -0.01  -0.10  -0.06    -0.06  -0.03   0.02     0.02  -0.06  -0.01
    12   1     0.10  -0.05   0.09    -0.26   0.05  -0.30     0.03  -0.01   0.11
    13   1    -0.14   0.11   0.01     0.28   0.18   0.06    -0.19  -0.25  -0.10
    14   1     0.08  -0.02  -0.18     0.22  -0.03  -0.28    -0.14   0.24   0.40
    15   1    -0.16   0.13   0.03    -0.12   0.21   0.02     0.15  -0.28  -0.03
    16   1    -0.10  -0.01   0.01    -0.01   0.06   0.01     0.08  -0.11   0.00
    17   1     0.12  -0.05   0.02    -0.06  -0.07   0.08     0.11   0.05  -0.09
    18   1     0.05   0.08  -0.07    -0.03   0.06  -0.06     0.14  -0.11  -0.00
    19   1     0.08  -0.03   0.12     0.17   0.10  -0.06     0.04   0.04  -0.06
    20   1    -0.00  -0.33  -0.04    -0.07  -0.11   0.00    -0.06   0.04  -0.04
    21   1     0.01   0.34  -0.36    -0.02   0.08  -0.10     0.16   0.14  -0.10
    22   1    -0.07  -0.01   0.02    -0.21   0.17   0.03    -0.18   0.14   0.08
    23   1    -0.07  -0.04   0.00     0.24   0.01  -0.27    -0.00   0.07  -0.04
    24   1     0.04   0.02   0.11    -0.21   0.06  -0.24    -0.16  -0.17  -0.27
    25   1    -0.16  -0.05  -0.04     0.15   0.10   0.02     0.07   0.07  -0.02
    26   1    -0.08  -0.29   0.33     0.04  -0.04   0.01     0.17  -0.13   0.10
    27   1     0.08   0.31   0.03    -0.01  -0.04   0.02     0.04   0.04   0.01
                     19                     20                     21
                      A                      A                      A
 Frequencies --    857.9921               868.5371               873.8196
 Red. masses --      1.6173                 1.8327                 1.9558
 Frc consts  --      0.7014                 0.8146                 0.8799
 IR Inten    --      1.3966                 1.1772                 0.1327
  Atom  AN      X      Y      Z        X      Y      Z        X      Y      Z
     1   8     0.01   0.02   0.00     0.02   0.04  -0.03    -0.00   0.03  -0.02
     2   6     0.00  -0.01  -0.04    -0.04   0.05   0.02    -0.04   0.03  -0.01
     3   6    -0.01  -0.00   0.00     0.03  -0.06  -0.04    -0.04  -0.08   0.08
     4   6     0.01  -0.02   0.03     0.03  -0.03   0.03    -0.05  -0.02   0.00
     5   6     0.01  -0.02  -0.02     0.03   0.12   0.08     0.03   0.08  -0.07
     6   6     0.03   0.03  -0.05     0.03   0.05   0.00     0.02  -0.04   0.08
     7   6     0.01  -0.05   0.08    -0.12  -0.05  -0.02    -0.00  -0.03  -0.06
     8   6     0.04   0.01  -0.05     0.03  -0.06  -0.01     0.02  -0.00   0.05
     9   6    -0.09   0.08  -0.03     0.04   0.04   0.03    -0.05   0.11   0.02
    10   6    -0.10  -0.03   0.01    -0.06  -0.02  -0.01    -0.01  -0.01  -0.10
    11   6     0.04  -0.03   0.07     0.01  -0.08  -0.02     0.07  -0.07   0.01
    12   1     0.00  -0.05  -0.03     0.06  -0.04   0.09    -0.14  -0.17  -0.31
    13   1    -0.05   0.15   0.02    -0.07  -0.14  -0.04     0.34   0.07   0.07
    14   1     0.09  -0.01  -0.15     0.04  -0.10  -0.15    -0.17  -0.13   0.06
    15   1    -0.12   0.13   0.03    -0.23  -0.07   0.00     0.13   0.10   0.03
    16   1    -0.09   0.12   0.00    -0.09  -0.36  -0.02     0.19   0.16  -0.04
    17   1     0.02  -0.08   0.10     0.00   0.35  -0.38    -0.03   0.05   0.03
    18   1    -0.04   0.14  -0.04     0.18  -0.01   0.00    -0.08  -0.09   0.07
    19   1     0.01  -0.08   0.07    -0.25  -0.08  -0.03     0.14   0.02  -0.04
    20   1     0.28   0.15  -0.01     0.03   0.08   0.02    -0.06  -0.15   0.01
    21   1     0.05  -0.07   0.10     0.14  -0.15   0.13     0.26   0.05  -0.11
    22   1     0.32  -0.08  -0.00     0.01   0.16   0.04    -0.03  -0.14   0.00
    23   1    -0.20   0.16   0.39     0.12   0.10  -0.05    -0.03   0.20   0.19
    24   1    -0.17  -0.08  -0.31    -0.12   0.04  -0.13     0.11  -0.05   0.22
    25   1     0.26  -0.07  -0.00     0.02   0.12   0.00    -0.30  -0.17  -0.11
    26   1     0.08   0.06  -0.12     0.07  -0.21   0.20     0.19  -0.09   0.02
    27   1     0.19  -0.26   0.03     0.08   0.15   0.03    -0.11  -0.03   0.01
                     22                     23                     24
                      A                      A                      A
 Frequencies --    899.4810               925.5266               970.6582
 Red. masses --      2.6298                 1.4179                 2.4096
 Frc consts  --      1.2536                 0.7156                 1.3376
 IR Inten    --      1.0385                 5.5499                 0.4608
  Atom  AN      X      Y      Z        X      Y      Z        X      Y      Z
     1   8     0.03  -0.01  -0.00     0.00   0.01   0.01     0.01   0.04  -0.02
     2   6    -0.04   0.01   0.01     0.00  -0.02  -0.05    -0.01   0.03  -0.00
     3   6     0.06   0.18   0.05     0.02   0.01   0.05    -0.02  -0.09  -0.01
     4   6     0.12  -0.09  -0.10    -0.04   0.01  -0.02     0.03   0.02   0.04
     5   6    -0.15  -0.09   0.03    -0.02  -0.03  -0.06     0.05   0.01   0.01
     6   6    -0.06   0.04   0.05     0.01  -0.02   0.06    -0.10  -0.01   0.02
     7   6    -0.04  -0.05  -0.06    -0.03  -0.01   0.04    -0.06  -0.07   0.01
     8   6     0.07   0.02   0.02     0.00  -0.03  -0.08     0.14   0.09  -0.03
     9   6    -0.03   0.06   0.06     0.01  -0.00   0.05    -0.06  -0.05   0.06
    10   6    -0.01  -0.08  -0.06    -0.02  -0.02   0.03     0.05  -0.12   0.03
    11   6     0.05   0.01  -0.01     0.01  -0.02  -0.08    -0.06   0.17  -0.04
    12   1    -0.04   0.50   0.21     0.01  -0.06  -0.09     0.01  -0.21  -0.10
    13   1    -0.05   0.06   0.04     0.09   0.15   0.06     0.05  -0.00  -0.01
    14   1     0.13  -0.08  -0.12    -0.13  -0.06   0.09     0.07   0.03  -0.05
    15   1     0.06  -0.10  -0.11     0.19   0.09   0.00    -0.01   0.12   0.04
    16   1    -0.12  -0.05   0.04     0.15   0.21  -0.01     0.09  -0.04   0.00
    17   1    -0.45  -0.08   0.08    -0.07  -0.14   0.18     0.15   0.02  -0.03
    18   1    -0.07  -0.02   0.05     0.12   0.17   0.08    -0.17  -0.05   0.01
    19   1    -0.04  -0.02  -0.05    -0.08   0.26   0.08    -0.17  -0.14  -0.01
    20   1    -0.02  -0.06  -0.00     0.06   0.29  -0.01     0.22   0.02  -0.04
    21   1     0.31   0.03  -0.07    -0.02  -0.18   0.23     0.35   0.08  -0.07
    22   1    -0.09   0.02   0.05     0.03   0.30   0.07    -0.10   0.10   0.07
    23   1     0.00   0.09   0.03     0.03  -0.06  -0.13    -0.16  -0.26  -0.10
    24   1     0.06  -0.18   0.01    -0.02  -0.10  -0.13     0.17  -0.45  -0.09
    25   1    -0.08  -0.08  -0.05     0.01   0.29   0.05     0.08   0.01   0.04
    26   1     0.25  -0.03   0.00     0.02  -0.19   0.24    -0.05   0.21  -0.13
    27   1    -0.02   0.03  -0.01     0.03   0.31  -0.01    -0.21   0.08  -0.07
                     25                     26                     27
                      A                      A                      A
 Frequencies --    999.4634              1014.9232              1044.7149
 Red. masses --      1.7168                 1.9569                 1.8475
 Frc consts  --      1.0104                 1.1877                 1.1880
 IR Inten    --      3.2175                 1.2411                 0.2875
  Atom  AN      X      Y      Z        X      Y      Z        X      Y      Z
     1   8     0.00   0.00   0.00    -0.02  -0.02  -0.00    -0.01   0.02  -0.00
     2   6    -0.05   0.00  -0.01     0.07   0.01   0.08    -0.03   0.00  -0.03
     3   6    -0.03   0.03   0.06    -0.08  -0.01  -0.07     0.00  -0.10   0.03
     4   6     0.01  -0.06  -0.06     0.08  -0.02   0.06     0.08   0.12  -0.04
     5   6    -0.03   0.10   0.03    -0.02   0.02  -0.02    -0.07  -0.06   0.08
     6   6     0.06  -0.05  -0.00    -0.01   0.03   0.01    -0.10   0.02  -0.01
     7   6     0.09  -0.00   0.01     0.11   0.01  -0.01     0.00   0.04  -0.01
     8   6     0.03   0.04  -0.02     0.01  -0.06  -0.07    -0.02  -0.06   0.02
     9   6    -0.08  -0.03  -0.04    -0.09   0.03   0.03    -0.01   0.06  -0.03
    10   6     0.04   0.01   0.07     0.10   0.04  -0.03     0.03  -0.02   0.02
    11   6    -0.07  -0.02  -0.04    -0.03  -0.08  -0.01     0.01  -0.01  -0.05
    12   1    -0.18   0.25  -0.05    -0.06  -0.01  -0.01    -0.06  -0.07  -0.11
    13   1     0.14   0.01   0.05    -0.15   0.05  -0.06     0.33  -0.42  -0.03
    14   1    -0.14  -0.22  -0.01     0.32   0.15  -0.21     0.20   0.37   0.18
    15   1     0.02  -0.10  -0.06    -0.22   0.11   0.04     0.21  -0.03  -0.03
    16   1     0.04  -0.15  -0.01    -0.31   0.11  -0.02    -0.10  -0.16   0.06
    17   1    -0.14   0.22  -0.18    -0.05   0.01   0.03    -0.05  -0.01  -0.03
    18   1     0.28  -0.12  -0.00    -0.21   0.19   0.02    -0.01   0.04  -0.00
    19   1     0.36  -0.07   0.01     0.03   0.15   0.01     0.31   0.11   0.01
    20   1     0.27  -0.01  -0.01    -0.02   0.22  -0.01     0.15  -0.05   0.03
    21   1    -0.04   0.06  -0.04     0.09  -0.18   0.16    -0.11  -0.05   0.03
    22   1     0.13  -0.04  -0.02    -0.03   0.01   0.04     0.22   0.05  -0.01
    23   1    -0.28  -0.21   0.10    -0.17  -0.06   0.04    -0.02   0.13   0.15
    24   1     0.03  -0.03  -0.04     0.21  -0.05   0.23     0.04  -0.10  -0.05
    25   1     0.09   0.06   0.07    -0.24   0.06  -0.01     0.10  -0.04   0.02
    26   1    -0.32  -0.05   0.09    -0.09  -0.15   0.12    -0.01  -0.07   0.08
    27   1    -0.00   0.12  -0.01    -0.26   0.12   0.02     0.16   0.12  -0.02
                     28                     29                     30
                      A                      A                      A
 Frequencies --   1058.2099              1072.0683              1090.4166
 Red. masses --      1.5278                 1.3601                 1.4876
 Frc consts  --      1.0080                 0.9210                 1.0422
 IR Inten    --      9.1773                 0.4683                 1.4313
  Atom  AN      X      Y      Z        X      Y      Z        X      Y      Z
     1   8     0.00  -0.01   0.01     0.00   0.01  -0.01     0.01   0.01  -0.00
     2   6    -0.07   0.00   0.01     0.01   0.01   0.02    -0.06   0.00  -0.02
     3   6     0.04   0.02  -0.00    -0.03  -0.01  -0.01     0.03   0.01   0.03
     4   6    -0.02  -0.04   0.02     0.03  -0.01   0.01    -0.04  -0.01  -0.00
     5   6     0.04   0.03  -0.02    -0.02   0.03   0.01     0.06  -0.04   0.01
     6   6    -0.06  -0.10  -0.03    -0.05  -0.03   0.03    -0.05   0.05  -0.00
     7   6     0.02   0.11   0.02     0.05  -0.06   0.02    -0.02  -0.02  -0.02
     8   6     0.01  -0.05  -0.01    -0.07   0.05  -0.02     0.06   0.02  -0.02
     9   6     0.01   0.04   0.02     0.04  -0.01  -0.01    -0.05  -0.08  -0.01
    10   6     0.00  -0.03  -0.02    -0.05   0.02  -0.01    -0.02   0.09   0.01
    11   6     0.04   0.04  -0.01     0.08   0.01  -0.00     0.06  -0.03   0.01
    12   1    -0.04   0.26   0.13    -0.04  -0.02  -0.03    -0.02   0.12   0.04
    13   1    -0.02  -0.14  -0.01    -0.02   0.06  -0.00     0.15  -0.28  -0.01
    14   1    -0.16  -0.26  -0.08     0.06  -0.00  -0.05    -0.04   0.02   0.05
    15   1    -0.23  -0.19  -0.01     0.00   0.07   0.01    -0.15  -0.26  -0.03
    16   1    -0.14   0.01  -0.03    -0.01  -0.02  -0.00    -0.08   0.00   0.01
    17   1     0.42  -0.02  -0.02    -0.06   0.05  -0.03     0.29  -0.08   0.03
    18   1    -0.24  -0.06  -0.03    -0.23  -0.27  -0.01    -0.21   0.23   0.02
    19   1     0.14   0.24   0.04     0.16  -0.40  -0.03     0.14   0.13   0.01
    20   1     0.07   0.06   0.02     0.13  -0.01  -0.02     0.14   0.00  -0.02
    21   1    -0.19  -0.06   0.07    -0.37   0.10  -0.03     0.23  -0.01  -0.01
    22   1     0.09   0.15   0.04     0.16   0.28   0.03    -0.13  -0.13  -0.02
    23   1     0.17   0.24   0.04    -0.02  -0.11  -0.08    -0.22  -0.30  -0.07
    24   1     0.14  -0.34  -0.04    -0.04  -0.01  -0.04    -0.11   0.32   0.06
    25   1    -0.03   0.01  -0.02    -0.13   0.36   0.02    -0.12   0.23   0.03
    26   1    -0.02   0.07  -0.05     0.41  -0.03  -0.01     0.26  -0.07   0.03
    27   1    -0.07  -0.01  -0.02    -0.14   0.02  -0.01     0.09   0.00   0.02
                     31                     32                     33
                      A                      A                      A
 Frequencies --   1101.3307              1120.3570              1156.4977
 Red. masses --      2.9274                 2.1749                 1.8308
 Frc consts  --      2.0920                 1.6084                 1.4427
 IR Inten    --      4.0142                10.3925                 1.1572
  Atom  AN      X      Y      Z        X      Y      Z        X      Y      Z
     1   8    -0.00  -0.01   0.00     0.02   0.02  -0.00    -0.00   0.02  -0.02
     2   6     0.06  -0.01   0.01    -0.12   0.01  -0.03     0.04   0.02   0.04
     3   6    -0.02   0.09   0.05     0.05  -0.03  -0.00    -0.06  -0.02  -0.01
     4   6    -0.11  -0.09  -0.02     0.01   0.06   0.03     0.05  -0.02   0.01
     5   6     0.16  -0.04   0.03    -0.04  -0.00  -0.05    -0.02   0.05   0.00
     6   6    -0.07   0.19  -0.01     0.18  -0.00   0.01    -0.09  -0.08   0.06
     7   6     0.03  -0.10  -0.05     0.03  -0.11   0.02     0.07  -0.13   0.02
     8   6    -0.12  -0.02   0.02    -0.08   0.06  -0.03    -0.05   0.06  -0.02
     9   6     0.05   0.11  -0.02     0.07   0.03   0.04     0.05   0.01  -0.01
    10   6     0.08  -0.10   0.01    -0.00  -0.07  -0.04    -0.04  -0.01   0.02
    11   6    -0.10  -0.00  -0.05    -0.08   0.03   0.05     0.04   0.05  -0.06
    12   1    -0.02   0.03  -0.02     0.03   0.06   0.07    -0.15   0.11  -0.05
    13   1     0.03   0.07   0.04     0.16  -0.43  -0.05     0.02   0.01  -0.01
    14   1    -0.05   0.02   0.08     0.03   0.08   0.01     0.02  -0.11  -0.09
    15   1    -0.15  -0.28  -0.04    -0.13  -0.11   0.01    -0.06   0.03   0.00
    16   1     0.34  -0.08   0.02    -0.45   0.20  -0.03    -0.07  -0.01  -0.01
    17   1     0.21  -0.03  -0.00     0.02  -0.06   0.07     0.19   0.04  -0.03
    18   1    -0.10   0.36   0.01     0.10   0.22   0.04     0.04   0.24   0.10
    19   1     0.21  -0.28  -0.06     0.24  -0.03   0.04     0.10   0.25   0.08
    20   1    -0.09  -0.05   0.02    -0.19   0.08  -0.03    -0.47   0.10  -0.04
    21   1    -0.09  -0.02   0.00     0.07   0.03   0.00     0.05   0.04  -0.01
    22   1     0.29   0.21   0.02     0.02   0.20   0.05    -0.14  -0.17  -0.05
    23   1    -0.07   0.02   0.09     0.01  -0.11  -0.11     0.08   0.05  -0.02
    24   1     0.04  -0.02  -0.00    -0.03   0.00   0.00    -0.13   0.12  -0.08
    25   1     0.11  -0.15   0.01    -0.03  -0.07  -0.03     0.20  -0.23  -0.01
    26   1     0.07  -0.08   0.06     0.00   0.08  -0.07    -0.02   0.02   0.02
    27   1    -0.16   0.16  -0.02    -0.36  -0.09   0.02     0.48   0.07  -0.04
                     34                     35                     36
                      A                      A                      A
 Frequencies --   1167.6237              1200.4587              1230.5780
 Red. masses --      2.2803                 1.5174                 1.6128
 Frc consts  --      1.8317                 1.2884                 1.4390
 IR Inten    --      4.7958                 8.4048                26.5758
  Atom  AN      X      Y      Z        X      Y      Z        X      Y      Z
     1   8    -0.01   0.04   0.00    -0.01  -0.00   0.00    -0.02   0.02  -0.00
     2   6     0.08  -0.05  -0.10     0.06  -0.01  -0.01     0.13  -0.03  -0.03
     3   6    -0.06   0.01   0.11    -0.02   0.06   0.04    -0.05  -0.02   0.04
     4   6    -0.01  -0.02  -0.10    -0.03  -0.05   0.01     0.02   0.00  -0.04
     5   6     0.02   0.02   0.08     0.05   0.04  -0.05    -0.03   0.02  -0.01
     6   6    -0.01   0.01  -0.10     0.03  -0.03   0.05     0.05  -0.04   0.01
     7   6     0.02  -0.02   0.12    -0.07  -0.03  -0.04    -0.03   0.05   0.01
     8   6     0.01   0.02  -0.10     0.02   0.04   0.05    -0.03  -0.04   0.08
     9   6    -0.00  -0.02   0.09     0.01  -0.04  -0.05     0.02   0.04  -0.05
    10   6     0.01   0.03  -0.08    -0.04   0.03   0.04    -0.00  -0.05   0.04
    11   6     0.01  -0.01   0.08     0.05  -0.01  -0.02    -0.01   0.04  -0.02
    12   1    -0.20   0.07  -0.19     0.06  -0.16  -0.04    -0.23   0.24  -0.09
    13   1     0.27  -0.00   0.09     0.12  -0.15   0.00     0.07   0.05   0.03
    14   1     0.06   0.19   0.15     0.30   0.36   0.02     0.00   0.02   0.02
    15   1     0.05  -0.27  -0.11    -0.25  -0.25  -0.02    -0.04  -0.12  -0.05
    16   1    -0.08  -0.20   0.04    -0.20   0.14  -0.05    -0.33   0.06  -0.02
    17   1     0.01   0.13  -0.14    -0.27   0.06   0.00     0.27  -0.02  -0.01
    18   1    -0.07  -0.00  -0.10    -0.12   0.09   0.06    -0.03  -0.17  -0.01
    19   1    -0.25  -0.10   0.10    -0.02   0.12  -0.02    -0.36   0.13   0.01
    20   1    -0.14   0.25  -0.06     0.05  -0.14   0.01    -0.05  -0.13   0.06
    21   1    -0.13  -0.07   0.11    -0.14   0.13  -0.09     0.27  -0.03  -0.02
    22   1    -0.25   0.02   0.07     0.05  -0.05  -0.04     0.19   0.05  -0.03
    23   1     0.18   0.10  -0.11     0.14   0.16   0.04    -0.22  -0.19   0.05
    24   1     0.11  -0.08   0.12     0.07  -0.30  -0.11    -0.13   0.17  -0.06
    25   1    -0.17  -0.08  -0.09     0.02   0.17   0.05     0.08   0.07   0.05
    26   1    -0.10   0.09  -0.10    -0.31   0.01   0.04     0.27  -0.01  -0.00
    27   1    -0.03  -0.19   0.04    -0.00   0.05  -0.01    -0.25   0.06  -0.03
                     37                     38                     39
                      A                      A                      A
 Frequencies --   1254.1060              1274.1715              1282.3182
 Red. masses --      1.3585                 1.3829                 1.4637
 Frc consts  --      1.2588                 1.3229                 1.4180
 IR Inten    --      0.3796                 1.4652                 5.2845
  Atom  AN      X      Y      Z        X      Y      Z        X      Y      Z
     1   8    -0.00   0.03  -0.01    -0.00  -0.02  -0.00    -0.02   0.02  -0.01
     2   6     0.03  -0.01  -0.02     0.01   0.02   0.05     0.11  -0.01   0.01
     3   6    -0.00  -0.06  -0.01    -0.01  -0.02   0.00    -0.02  -0.02  -0.03
     4   6     0.01   0.05   0.02     0.02   0.02  -0.08    -0.01  -0.00   0.06
     5   6    -0.03  -0.05   0.00    -0.02  -0.01   0.08    -0.01  -0.00  -0.04
     6   6     0.02   0.07   0.05     0.02   0.01  -0.04    -0.01   0.00   0.02
     7   6     0.01  -0.03  -0.03    -0.03  -0.05  -0.04    -0.06  -0.01  -0.04
     8   6     0.04   0.03   0.01    -0.02   0.02   0.04    -0.03  -0.00   0.02
     9   6    -0.03  -0.03  -0.04     0.02  -0.02  -0.03     0.02  -0.01   0.06
    10   6     0.00   0.04   0.04    -0.02   0.01  -0.03    -0.01   0.00  -0.09
    11   6     0.01  -0.05  -0.01     0.03  -0.02   0.06     0.01   0.01   0.05
    12   1    -0.23   0.40   0.02     0.05  -0.16  -0.03    -0.20   0.38   0.03
    13   1     0.02  -0.11  -0.02    -0.14   0.40   0.05     0.04  -0.20  -0.05
    14   1    -0.19  -0.22  -0.01    -0.14  -0.12   0.04     0.02  -0.02  -0.04
    15   1     0.06   0.10   0.03     0.23   0.06  -0.06    -0.07   0.10   0.06
    16   1    -0.04   0.03   0.02    -0.21  -0.12   0.05     0.17   0.06  -0.02
    17   1     0.21  -0.10   0.06     0.20   0.03  -0.06    -0.01  -0.04   0.05
    18   1     0.02   0.20   0.07    -0.04   0.36   0.01     0.25   0.05   0.03
    19   1    -0.27  -0.33  -0.08     0.17   0.31   0.02     0.10   0.05  -0.02
    20   1    -0.06  -0.03  -0.01     0.01  -0.09   0.02     0.38  -0.09   0.02
    21   1    -0.21   0.10  -0.06     0.10   0.05  -0.05    -0.03   0.00  -0.00
    22   1    -0.07  -0.17  -0.05     0.17   0.16  -0.00     0.11   0.33   0.09
    23   1     0.18   0.27   0.07    -0.02  -0.06  -0.03    -0.08  -0.20  -0.10
    24   1     0.11  -0.25  -0.03     0.09  -0.23  -0.03     0.02   0.03   0.06
    25   1    -0.01   0.14   0.05    -0.16   0.26  -0.00    -0.13  -0.09  -0.10
    26   1    -0.12  -0.07   0.07    -0.19   0.06  -0.04    -0.26   0.10  -0.06
    27   1    -0.13   0.04   0.01    -0.05  -0.11   0.04     0.35  -0.14   0.03
                     40                     41                     42
                      A                      A                      A
 Frequencies --   1302.3465              1324.4653              1338.8539
 Red. masses --      1.2301                 1.2933                 1.3304
 Frc consts  --      1.2293                 1.3367                 1.4050
 IR Inten    --      0.6225                 2.0193                 7.5229
  Atom  AN      X      Y      Z        X      Y      Z        X      Y      Z
     1   8     0.00  -0.01   0.00    -0.00   0.00  -0.00     0.01  -0.01   0.01
     2   6     0.00   0.01   0.01     0.02  -0.00   0.00    -0.05  -0.01  -0.03
     3   6    -0.01   0.00   0.02    -0.02   0.03  -0.01    -0.01   0.05   0.02
     4   6     0.02   0.00  -0.05    -0.00  -0.03   0.03     0.03  -0.02  -0.00
     5   6    -0.01   0.01  -0.01    -0.01   0.01   0.00    -0.06   0.02  -0.03
     6   6     0.01  -0.01   0.06    -0.01   0.00  -0.08    -0.05  -0.00   0.03
     7   6    -0.03  -0.01  -0.05    -0.01  -0.09  -0.01     0.07   0.04  -0.01
     8   6     0.02   0.01  -0.02     0.04   0.01   0.02     0.02  -0.02   0.03
     9   6    -0.03  -0.00   0.06    -0.02   0.01  -0.01    -0.00   0.00  -0.03
    10   6     0.02   0.00  -0.01     0.03   0.00   0.02     0.00   0.02  -0.03
    11   6    -0.03   0.01  -0.02    -0.05   0.01   0.04    -0.04  -0.01   0.04
    12   1     0.07  -0.21  -0.05    -0.01   0.01  -0.00     0.13  -0.28  -0.04
    13   1    -0.04   0.23   0.04     0.06  -0.21  -0.04     0.07  -0.07   0.01
    14   1     0.01   0.01   0.00     0.02  -0.03  -0.04     0.12   0.05  -0.05
    15   1    -0.00  -0.15  -0.07     0.04   0.15   0.04    -0.09  -0.13  -0.02
    16   1    -0.35   0.07  -0.01     0.18  -0.02  -0.00     0.06   0.04  -0.02
    17   1     0.30  -0.05   0.01    -0.04   0.02  -0.02     0.33  -0.07   0.03
    18   1     0.17   0.09   0.07     0.32  -0.03  -0.07     0.45   0.05   0.06
    19   1     0.00  -0.09  -0.06    -0.08   0.56   0.08    -0.29  -0.22  -0.06
    20   1     0.43  -0.04  -0.00     0.02  -0.07   0.00    -0.25  -0.02   0.02
    21   1    -0.40   0.06  -0.01    -0.36   0.09  -0.03     0.03   0.00  -0.01
    22   1    -0.15  -0.01   0.06    -0.03  -0.07  -0.01     0.19   0.14  -0.00
    23   1     0.08   0.10   0.01     0.02   0.09   0.06    -0.13  -0.13  -0.01
    24   1    -0.05   0.21   0.07     0.06  -0.04   0.04     0.13  -0.22   0.01
    25   1     0.11  -0.30  -0.03    -0.02   0.11   0.03    -0.14   0.17  -0.01
    26   1     0.17  -0.03   0.02     0.44  -0.02  -0.04     0.07  -0.00   0.00
    27   1     0.05   0.04  -0.01    -0.20  -0.04   0.02     0.27  -0.12   0.03
                     43                     44                     45
                      A                      A                      A
 Frequencies --   1344.2739              1358.6608              1384.7380
 Red. masses --      1.2851                 1.3638                 1.3543
 Frc consts  --      1.3683                 1.4833                 1.5301
 IR Inten    --      3.5808                 5.6691                 5.3131
  Atom  AN      X      Y      Z        X      Y      Z        X      Y      Z
     1   8    -0.01  -0.01   0.00     0.00   0.01  -0.01     0.00   0.00  -0.00
     2   6     0.05  -0.00   0.02    -0.03   0.02   0.02    -0.01  -0.00  -0.00
     3   6    -0.01   0.01  -0.00     0.08  -0.13   0.01     0.01  -0.01   0.00
     4   6     0.00  -0.04  -0.00    -0.02   0.04  -0.00    -0.00  -0.03   0.01
     5   6    -0.05   0.01  -0.03     0.00   0.00  -0.03    -0.06   0.04   0.01
     6   6    -0.01   0.03  -0.00    -0.01  -0.01  -0.01    -0.01  -0.09  -0.03
     7   6    -0.08   0.02   0.03     0.01  -0.02   0.00     0.01   0.03  -0.02
     8   6    -0.06   0.02  -0.05     0.02  -0.00   0.00     0.01   0.01   0.01
     9   6     0.01  -0.03  -0.01     0.01   0.01  -0.01    -0.05  -0.04  -0.00
    10   6     0.00   0.01   0.03     0.00   0.01   0.00     0.02  -0.06   0.00
    11   6    -0.00  -0.01   0.02    -0.04   0.00   0.01     0.07   0.02   0.01
    12   1     0.00  -0.01   0.01    -0.14   0.34   0.09    -0.00   0.05   0.03
    13   1     0.01   0.03  -0.00    -0.17   0.53   0.10     0.00   0.03   0.01
    14   1     0.13   0.10  -0.03     0.16   0.31   0.08     0.17   0.19   0.01
    15   1     0.01   0.02  -0.00    -0.24  -0.40  -0.05    -0.04   0.01   0.01
    16   1     0.05   0.04  -0.02     0.15   0.08  -0.02     0.37  -0.09  -0.00
    17   1     0.33  -0.06   0.02    -0.15   0.01  -0.01     0.07   0.03  -0.01
    18   1     0.32  -0.24  -0.02     0.14  -0.03  -0.01     0.09   0.52   0.06
    19   1     0.49  -0.11   0.03     0.04   0.08   0.02    -0.05  -0.14  -0.05
    20   1     0.08   0.09  -0.03    -0.07   0.01  -0.00     0.00   0.03   0.01
    21   1     0.39  -0.08   0.02    -0.06   0.01   0.00     0.04   0.03  -0.05
    22   1    -0.13  -0.21  -0.05    -0.01  -0.05  -0.02     0.10   0.15   0.03
    23   1     0.24   0.23  -0.02    -0.03  -0.03  -0.00     0.13   0.22   0.07
    24   1     0.06  -0.13   0.00     0.07  -0.12   0.00    -0.17   0.40   0.05
    25   1     0.01   0.14   0.05    -0.03   0.06   0.01     0.01   0.07   0.02
    26   1     0.10  -0.01  -0.00     0.17  -0.02  -0.00    -0.08   0.07  -0.03
    27   1    -0.13  -0.00   0.01     0.09  -0.04   0.01    -0.36   0.01  -0.01
                     46                     47                     48
                      A                      A                      A
 Frequencies --   1386.3584              1391.6223              1396.5403
 Red. masses --      1.4092                 1.4035                 1.4301
 Frc consts  --      1.5958                 1.6015                 1.6434
 IR Inten    --      0.8403                 3.1323                 4.0861
  Atom  AN      X      Y      Z        X      Y      Z        X      Y      Z
     1   8    -0.00   0.00   0.00    -0.01  -0.00   0.00     0.01   0.00  -0.00
[...]
 00007685,-0.00006815,0.00014640,0.00010156,-0.00011866,0.00002126,-0.0
 0001551,0.00000660,-0.00000964,-0.00002724,-0.00004622,0.00014991,0.00
 006991,-0.00013948,0.00002733,-0.00003933,-0.00010462,0.00003680,0.000
 08025,-0.00066538,-0.00326994,-0.00479777,0.00001529,-0.00309620,0.056
 57450,-0.00148879,-0.00105027,0.00073187,0.00243816,-0.00061531,0.0001
 1430,-0.00034674,0.00018333,-0.00023394,-0.00000194,-0.00008791,-0.000
 00669,-0.00011270,-0.00004563,0.00033460,-0.00046894,-0.00011857,0.000
 48384,0.00016031,0.00134668,-0.00118345,0.11740552,-0.00483657,-0.2229
 5086,-0.00063443,-0.00059349,-0.00001126,-0.00044796,0.00017950,0.0007
 5190,-0.00001377,-0.00004348,0.00010128,0.00003115,0.00009738,0.000007
 28,-0.00004363,-0.00003584,0.00003373,-0.00003826,0.00000959,-0.000014
 76,0.00000441,0.00001380,0.00002636,-0.00011628,-0.00011198,-0.0000734
 7,0.00004660,0.00006981,0.00000065,0.00024641,-0.00009710,0.00058437,-
 0.00003819,0.00029784,0.00109925,-0.13137700,0.00660579,0.23999403,0.0
 0104484,0.00059767,0.00034657,-0.00089504,0.00080798,0.00020584,0.0000
 1646,0.00001595,-0.00011935,-0.00014535,0.00013147,0.00001568,-0.00037
 125,0.00041737,-0.00112791,-0.00098981,-0.00335542,0.00193851,-0.01290
 262,-0.00182766,-0.01540113,-0.14930918,-0.00078143,-0.12732722,-0.011
 74458,0.00015746,-0.01404560,-0.00080066,0.00359188,0.00146317,0.00062
 952,-0.00005205,0.00022012,0.00005245,-0.00002992,0.00003116,-0.000019
 63,0.00002874,0.00002416,0.00003189,-0.00005988,0.00001047,0.00002149,
 -0.00001578,-0.00000048,-0.00000111,0.00003105,0.00005041,-0.00027959,
 -0.00036498,-0.00001692,0.00010220,-0.00003605,-0.00024567,0.00030485,
 0.00061947,0.00013179,0.01240446,0.00020596,0.01489774,0.16245933,0.00
 147268,-0.00010805,0.00044239,-0.00203746,0.00072553,-0.00082779,0.000
 08851,0.00014100,0.00010878,-0.00011993,0.00029842,-0.00009372,-0.0011
 4132,0.00059703,-0.00141471,-0.00212983,-0.00539565,0.00168282,-0.0169
 6842,-0.00045094,-0.02333292,-0.00023523,-0.04786267,0.00136781,0.0178
 3106,0.00050089,0.02380874,0.00265453,-0.00526580,-0.00162684,0.000060
 02,-0.00053826,0.00010916,0.00006275,0.00000464,0.00004589,-0.00000119
 ,0.00001923,-0.00002783,0.00007557,-0.00004110,0.00004941,0.00003304,-
 0.00001459,0.00000114,-0.00003170,-0.00002857,0.00007065,-0.00041368,-
 0.00058459,-0.00005022,0.00025421,-0.00000398,0.00014615,0.00041733,0.
 00106545,0.00035726,-0.00023520,-0.00019743,-0.00052137,0.00059486,0.0
 5476590,0.00139201,0.00122349,0.00055869,-0.00222466,0.00028951,0.0001
 5718,0.00036436,-0.00011285,-0.00016012,-0.00006601,0.00009177,-0.0000
 7299,-0.00008927,0.00031239,0.00018359,-0.00002493,-0.00001703,0.00071
 838,0.00258358,-0.00039957,0.00161471,-0.12740160,-0.00024866,-0.21226
 002,0.00237469,-0.00017475,0.00141254,0.00022845,0.00029546,0.00099537
 ,0.00025076,-0.00003444,0.00000101,-0.00001468,-0.00009142,-0.00000193
 ,0.00006162,0.00008502,-0.00002201,0.00003113,-0.00003153,0.00003659,0
 .00000960,0.00000306,0.00001527,-0.00007699,-0.00009506,0.00000583,0.0
 0001844,-0.00002615,0.00001340,0.00018684,0.00008320,0.00049405,-0.000
 13575,-0.00051789,0.00076532,-0.01678343,-0.00015291,-0.02200195,0.139
 64333,-0.00116451,0.22623618,0.00031046,0.00027040,-0.00008407,-0.0004
 0896,-0.00007014,-0.00025825,0.00001301,0.00003859,0.00006436,-0.00001
 494,0.00000627,-0.00002735,0.00004514,-0.00005198,0.00006972,-0.000106
 93,0.00008047,-0.00017092,0.00031111,-0.00141359,-0.00020768,-0.011405
 33,0.00203494,0.01756211,-0.10920465,0.00613318,0.10597537,0.01079580,
 -0.00159901,-0.02148127,0.00136490,0.00055585,-0.00020073,0.00000584,0
 .00001964,0.00001217,0.00001251,0.00000510,-0.00000444,0.00001891,0.00
 000837,0.00000894,-0.00000514,-0.00000333,-0.00000443,0.00000471,-0.00
 000004,-0.00000139,0.00003406,0.00002580,0.00001601,-0.00013398,0.0000
 0160,0.00000426,0.00068060,0.00048506,-0.00031107,-0.00117894,0.004031
 61,-0.00049479,0.00025559,-0.00058577,-0.00018820,0.11994249,-0.000485
 20,-0.00036833,0.00012779,0.00080802,0.00000726,0.00035656,-0.00005947
 ,0.00004916,-0.00007586,0.00000289,-0.00002811,0.00001131,-0.00004320,
 0.00002720,-0.00005284,-0.00000123,-0.00021019,0.00001930,0.00073040,0
 .00201561,-0.00117785,0.01502734,-0.00311008,-0.02559909,0.00606702,-0
 .05253198,-0.01481638,-0.00019215,-0.00051477,0.00072943,0.00055223,0.
 00008349,-0.00078447,-0.00000306,0.00002456,-0.00000655,-0.00001773,-0
 .00000983,0.00001441,-0.00001197,0.00000754,-0.00000615,-0.00000156,0.
 00000910,0.00001048,-0.00003559,-0.00002433,0.00002208,-0.00002244,-0.
 00001515,0.00000008,-0.00001519,0.00003996,0.00021006,-0.00049111,-0.0
 0036968,0.00051454,0.00309056,-0.00454511,-0.00004165,-0.00065954,0.00
 117488,0.00045938,-0.01132551,0.05463279,-0.00019932,0.00004776,-0.000
 05689,0.00003578,-0.00029602,0.00021716,0.00004389,-0.00002027,-0.0000
 7464,-0.00004677,-0.00003086,0.00000743,0.00009275,-0.00004725,-0.0000
 4202,-0.00024756,-0.00012719,0.00005989,-0.00010218,0.00043084,0.00010
 905,-0.00003906,0.00003670,0.00064677,0.10575261,-0.01504617,-0.235702
 41,0.01218125,-0.00100118,-0.02466404,0.00153625,0.00061325,0.00057558
 ,-0.00000751,-0.00001809,0.00000352,-0.00000708,-0.00000048,0.00001474
 ,0.00000552,-0.00002514,-0.00000169,-0.00000149,0.00000999,0.00000923,
 -0.00003819,-0.00003806,0.00003483,-0.00000139,-0.00000645,0.00000750,
 -0.00001329,0.00021552,0.00008466,-0.00030783,-0.00061793,0.00016880,-
 0.00018640,0.00034617,0.00136183,0.00023763,-0.00045613,0.00081421,-0.
 11462268,0.01571696,0.25957302,-0.00000034,-0.00017004,-0.00001091,0.0
 0104111,0.00089128,-0.00001404,-0.00030114,0.00030299,0.00000756,-0.00
 011751,-0.00003386,-0.00003962,0.00019261,-0.00011939,0.00009029,-0.00
 041250,0.00045854,-0.00017401,-0.00245511,0.00300012,0.00015258,0.0125
 8853,0.01746690,-0.00153600,-0.13891429,-0.12273441,0.01278443,-0.0133
 1609,-0.01787434,0.00290017,-0.00210334,0.00159828,-0.00456719,0.00008
 374,0.00013806,0.00002569,-0.00000929,-0.00001003,-0.00000582,0.000032
 21,-0.00004925,0.00001904,0.00001512,-0.00000370,0.00000990,-0.0000083
 4,0.00000714,-0.00000623,0.00007569,0.00008068,0.00004368,0.00006699,-
 0.00008586,0.00001970,0.00000846,0.00004140,-0.00017896,0.00087663,-0.
 00079753,-0.00001816,0.00074876,-0.00087043,-0.00005421,-0.00994826,-0
 .01278269,0.00145595,0.15089591,0.00061799,0.00003169,0.00002209,-0.00
 246383,-0.00051112,-0.00016763,0.00055725,-0.00049148,-0.00001233,0.00
 006818,0.00006731,0.00012984,-0.00002449,0.00012231,-0.00007269,0.0004
 5812,0.00037943,0.00048814,0.00563837,-0.00343085,-0.00027669,-0.01662
 575,-0.02276986,0.00244847,-0.12225699,-0.21487225,0.01585460,0.000788
 93,0.00108116,-0.00037912,0.00029520,0.00111274,-0.00020348,-0.0001093
 2,-0.00025243,-0.00000549,-0.00001613,0.00000474,0.00000967,-0.0000447
 9,-0.00002117,-0.00003074,0.00000318,0.00001058,-0.00003014,0.00000650
 ,-0.00001208,0.00002396,-0.00007412,-0.00003943,-0.00003777,-0.0000441
 6,-0.00002093,-0.00010501,0.00010527,0.00029496,0.00012991,-0.00015399
 ,0.00109218,-0.00060793,-0.00000684,0.00085386,0.00051438,0.00150963,0
 .00242034,0.00065680,0.13202679,0.23428434,-0.00010191,0.00007732,-0.0
 0010210,0.00017843,-0.00009068,0.00042848,0.00000141,0.00004369,-0.000
 08721,-0.00008044,-0.00001477,0.00000183,0.00017731,-0.00007791,0.0000
 2935,-0.00015207,0.00043719,-0.00005746,-0.00025058,0.00040227,0.00062
 406,0.00028257,-0.00092174,-0.00073588,0.01339772,0.01659884,-0.051816
 34,-0.01623584,-0.02237986,0.00160112,-0.00285916,0.00138347,-0.004180
 53,0.00001653,0.00001086,0.00000869,0.00000746,0.00002409,0.00000460,0
 .00002223,-0.00002967,0.00000694,0.00000632,-0.00000289,0.00000325,-0.
 00001946,0.00000377,0.00000624,0.00003849,0.00006635,0.00004313,0.0000
 5653,-0.00003720,-0.00001842,-0.00033195,-0.00038335,0.00019152,-0.000
 44112,-0.00019839,0.00025458,0.00025634,0.00022345,-0.00004403,0.01715
 815,0.02388154,-0.00207950,-0.01133161,-0.01775612,0.05374772,0.000217
 36,0.00023519,-0.00001188,-0.00015860,-0.00011954,0.00009199,-0.000040
 09,0.00012371,-0.00004276,-0.00037846,-0.00028044,-0.00000512,0.000980
 16,-0.00088945,-0.00002161,-0.00276163,-0.00286294,0.00018832,-0.00031
 674,-0.00053793,0.00003503,-0.00215094,-0.00177545,-0.00469055,-0.0130
 6519,0.01816368,0.00243621,-0.13681716,0.12223918,0.00883959,0.0126785
 9,-0.01797675,-0.00102904,0.00003046,0.00003526,0.00002135,0.00000258,
 0.00000961,0.00000625,0.00009857,-0.00015404,0.00001830,0.00000035,0.0
 0000972,-0.00000087,-0.00000457,0.00004921,0.00004603,0.00004736,0.000
 05295,-0.00001263,0.00005896,-0.00003170,-0.00018852,0.00004941,0.0000
 9038,-0.00000706,0.00037469,-0.00045415,0.00005408,-0.00059728,0.00150
 990,-0.00023711,0.00114254,-0.00033045,-0.00003080,0.00014001,-0.00029
 270,0.00067462,0.14860055,0.00029566,-0.00005810,-0.00003734,-0.000279
 35,0.00027125,0.00005256,-0.00002516,0.00004361,-0.00007659,-0.0006354
 2,-0.00038667,0.00007639,0.00175851,-0.00096235,0.00011467,-0.00572766
 ,-0.00283056,0.00031890,-0.00034771,0.00025744,-0.00034978,-0.00028983
 ,0.00106571,0.00010862,-0.00113675,0.00165604,0.00034011,0.12165507,-0
 .21760028,-0.01055330,0.01664817,-0.02286849,-0.00180155,0.00004346,-0
 .00001498,0.00002928,-0.00001245,0.00001019,0.00000788,0.00014515,-0.0
 0026760,0.00000685,0.00002801,0.00002576,-0.00001793,-0.00006026,-0.00
 003325,0.00010677,0.00000425,0.00003623,-0.00006791,-0.00010774,0.0003
 2369,-0.00012805,0.00001381,-0.00002859,0.00007441,-0.00000403,-0.0000
 3124,-0.00005621,-0.00004637,0.00003913,-0.00017006,-0.00002137,0.0001
 5752,0.00046820,0.00031196,0.00054089,0.00039423,-0.13146841,0.2372318
 9,0.00013881,0.00015612,0.00003737,-0.00010839,-0.00003196,0.00004841,
 -0.00002337,0.00005422,-0.00001532,-0.00004331,0.00000008,-0.00004043,
 0.00002226,-0.00002379,0.00041142,-0.00002418,-0.00022720,0.00032690,-
 0.00007586,-0.00056366,0.00006739,-0.00280647,-0.00157245,-0.00417447,
 -0.01589723,0.02257422,0.00097894,0.00932245,-0.01127958,-0.05091219,-
 0.00020575,0.00162799,-0.00081678,0.00001803,0.00002188,0.00000467,0.0
 0000442,0.00000829,-0.00000128,0.00001971,-0.00000988,0.00000292,0.000
 01150,0.00000028,0.00000896,-0.00005209,-0.00007462,-0.00000437,0.0000
 3648,0.00002702,-0.00000260,-0.00035025,0.00038276,0.00024508,0.000045
 89,0.00004351,-0.00001785,-0.00029180,0.00007659,0.00021775,-0.0009445
 1,0.00129478,0.00011327,0.00085403,0.00027878,0.00096041,0.00067212,-0
 .00039972,0.00086523,-0.00697667,0.01190096,0.05265631,0.00010950,-0.0
 0004615,-0.00002455,-0.00005219,0.00012580,0.00006548,-0.00001187,0.00
 000712,-0.00002450,-0.00001340,-0.00000675,-0.00005199,0.00011984,-0.0
 0005927,-0.00020863,0.00022797,0.00120961,-0.00007334,-0.00004808,-0.0
 0007641,-0.00008577,0.00139356,-0.00059611,-0.00013568,0.01087836,0.00
 077578,-0.02148788,-0.10963024,-0.00213607,0.10690368,-0.01157920,-0.0
 0146807,0.01771906,0.00001306,-0.00000400,0.00000618,-0.00000498,0.000
 00523,-0.00000450,-0.00000102,-0.00003020,0.00000849,0.00002736,-0.000
 03794,-0.00000459,0.00009305,0.00019279,-0.00011321,-0.00003647,-0.000
 00200,0.00000584,0.00069553,-0.00047230,-0.00037029,-0.00016446,0.0000
 0025,-0.00002490,-0.00015215,-0.00003622,0.00039092,0.00008218,-0.0002
 8645,0.00021694,-0.00249824,0.00040403,-0.00433554,0.00113390,0.000031
 12,0.00083806,-0.00982818,-0.00083788,0.01686205,0.12042018,0.00010436
 ,0.00004422,-0.00003215,-0.00006372,-0.00001999,0.00006246,0.00000107,
 0.00000856,-0.00000422,0.00006236,0.00003875,-0.00009173,-0.00015380,-
 0.00007860,-0.00013180,-0.00077605,0.00180357,0.00121951,0.00004395,-0
 .00026386,-0.00000936,-0.00052207,0.00010955,0.00080801,0.00045941,-0.
 00050590,-0.00128607,-0.00186659,-0.05159153,0.00753389,-0.01513248,-0
 .00233666,0.02530762,0.00000730,0.00000704,0.00000450,-0.00000206,0.00
 000660,-0.00000614,-0.00000726,0.00001936,-0.00000052,0.00003655,-0.00
 005346,-0.00001576,0.00018696,0.00008192,-0.00019936,-0.00000984,0.000
 01319,0.00002260,0.00046009,-0.00041721,-0.00054517,0.00000135,0.00004
 196,-0.00022121,0.00014035,0.00013361,0.00004401,0.00003097,-0.0000228
 4,-0.00011548,-0.00050634,0.00097652,-0.00018968,0.00030860,0.00013186
 ,-0.00027279,0.01298358,0.00149925,-0.02416246,0.00686418,0.05375034,-
 0.00012353,0.00006652,0.00004060,0.00017221,-0.00005206,-0.00001791,-0
 .00002768,0.00003830,-0.00000393,0.00003734,0.00004138,-0.00004174,-0.
 00023409,0.00014885,0.00029081,0.00010784,-0.00032679,-0.00016106,-0.0
 0029149,0.00017371,0.00005217,0.00153051,-0.00061774,0.00070147,0.0120
 5121,0.00012299,-0.02453032,0.10679600,0.00798189,-0.23783684,0.000342
 58,0.00006592,-0.00026235,0.00000263,0.00002028,-0.00000163,-0.0000019
 5,-0.00000471,0.00000619,-0.00000652,0.00002078,0.00000693,-0.00000668
 ,0.00001988,0.00002041,-0.00005913,-0.00016740,0.00000913,0.00000907,-
 0.00001487,-0.00001959,-0.00038903,0.00057800,0.00024622,-0.00000361,-
 0.00023150,0.00009020,-0.00085547,0.00079752,0.00051619,-0.00024383,-0
 .00016348,0.00047113,-0.00428782,0.00011736,-0.00308805,-0.00002263,-0
 .00043938,0.00098385,0.00094629,-0.00078359,-0.00117678,-0.11562439,-0
 .00765610,0.26150616,-0.00071993,0.00063265,0.00030720,0.00021166,-0.0
 0169507,-0.00115733,0.00007693,-0.00003943,0.00014017,0.00000374,0.000
 08227,0.00020797,0.00038164,-0.00105353,0.00011366,-0.01289890,0.00079
 426,-0.01547057,-0.00139752,0.00417615,0.00106907,0.00067972,0.0000137
 5,0.00021610,-0.00094149,-0.00380377,0.00172776,-0.01229419,-0.0002982
 4,-0.01500375,-0.14636333,-0.00103291,-0.12231906,0.00005051,0.0000787
 0,0.00004931,-0.00000488,0.00000532,0.00000462,0.00006222,0.00001846,0
 .00005748,-0.00003705,0.00000716,0.00002306,0.00006491,0.00004285,0.00
 009254,0.00067611,0.00047870,0.00024281,0.00027660,-0.00061278,0.00024
 697,0.00025238,-0.00000579,-0.00013679,-0.00007042,-0.00000796,0.00003
 663,-0.00002508,0.00000152,-0.00002054,0.00009921,-0.00003541,-0.00025
 669,-0.00067955,0.00001916,-0.00101768,0.00080374,-0.00001414,0.000264
 99,0.00024774,0.00069002,0.00024545,0.15892632,0.00108160,-0.00071520,
 -0.00038511,0.00026392,0.00190286,0.00149128,-0.00020685,0.00001844,-0
 .00023037,0.00014223,-0.00006091,-0.00013913,0.00072797,0.00150408,0.0
 0111119,0.01712306,-0.00081859,0.02306285,0.00284614,-0.00579367,-0.00
 038236,-0.00000291,-0.00057826,-0.00005707,-0.00267541,-0.00525844,0.0
 0193932,-0.01794668,0.00009049,-0.02379042,-0.00110881,-0.04803131,-0.
 00189318,-0.00005833,-0.00003026,-0.00005960,0.00001944,-0.00000195,0.
 00000727,-0.00009473,0.00003195,-0.00006779,0.00000155,0.00000762,-0.0
 0000398,-0.00005462,-0.00008167,-0.00000666,-0.00045266,-0.00036812,-0
 .00050395,-0.00064991,0.00106502,-0.00038984,-0.00034883,-0.00002219,-
 0.00032306,0.00000580,0.00013280,0.00001378,0.00000874,0.00019970,0.00
 000592,0.00031109,-0.00000525,0.00019215,-0.00154481,0.00003307,-0.001
 31102,0.00087277,0.00083480,-0.00023860,0.00057939,0.00115391,0.000462
 55,0.00140481,0.05518572,-0.00026727,0.00037496,-0.00011142,-0.0000585
 7,-0.00082641,0.00024903,0.00005498,-0.00006869,-0.00007085,0.00023377
 ,0.00022822,0.00025244,-0.00001222,-0.00028924,-0.00011437,0.00130065,
 -0.00036329,0.00016565,-0.00002877,0.00043610,0.00113375,0.00023504,0.
 00006810,-0.00001388,0.00018612,-0.00026732,0.00103526,0.00242718,0.00
 029065,0.00160772,-0.12284419,-0.00163527,-0.20771557,0.00003301,0.000
 04937,0.00005113,-0.00000072,-0.00000221,0.00001428,-0.00001783,0.0000
 7719,-0.00000562,0.00000546,-0.00002045,-0.00001464,-0.00009218,-0.000
 00211,-0.00001318,0.00027938,0.00059177,0.00033566,-0.00014208,0.00047
 085,0.00082902,0.00018434,-0.00009544,0.00049090,-0.00004387,0.0000091
 6,-0.00000203,-0.00003611,-0.00001866,-0.00004216,0.00023196,0.0001325
 6,0.00047005,-0.00024127,0.00017110,0.00008956,-0.00005818,-0.00054885
 ,-0.00002042,-0.00019445,-0.00040946,0.00084567,0.13575100,0.00183400,
 0.22224706,0.00021820,-0.00015410,0.00005152,0.00011031,0.00023725,-0.
 00019760,-0.00001614,-0.00006540,0.00013338,0.00009739,0.00004568,-0.0
 0028270,0.00023999,-0.00119326,-0.00014124,-0.01234931,0.00175228,0.01
 674189,0.00054786,-0.00079872,0.00138227,-0.00016846,-0.00000224,-0.00
 031003,0.00045263,0.00083827,0.00138846,-0.01127940,-0.00060492,0.0161
 0788,-0.12727369,0.00137853,0.11214822,-0.00000345,-0.00000977,-0.0000
 1664,0.00000769,0.00001513,-0.00003516,0.00000865,0.00005692,-0.000057
 80,0.00007682,-0.00020404,-0.00006443,0.00065196,0.00044849,-0.0003403
 6,0.00005403,0.00006824,-0.00009265,-0.00168161,0.00337818,-0.00001757
 ,-0.00009993,0.00017698,-0.00091208,0.00026211,-0.00001418,-0.00007033
 ,-0.00007283,0.00000063,-0.00004438,-0.00013153,-0.00016900,-0.0008978
 5,0.00036608,-0.00001259,-0.00029034,0.00089350,0.00011047,-0.00047287
 ,-0.00142172,-0.00334087,-0.00006327,0.01261894,-0.00024394,-0.0168851
 6,0.13789192,-0.00016058,0.00009222,0.00000512,-0.00025546,-0.00003458
 ,-0.00006459,-0.00002261,0.00006901,-0.00008170,0.00008306,-0.00006952
 ,0.00010157,0.00088056,0.00177758,-0.00122369,0.01694769,-0.00283391,-
 0.02440916,-0.00105541,0.00099977,-0.00095852,-0.00000832,-0.00018672,
 -0.00000767,0.00098743,0.00104949,0.00091727,-0.01713075,-0.00118844,0
 .02497392,0.00149009,-0.04770286,-0.00191893,-0.00001131,-0.00000479,-
 0.00000830,0.00001061,-0.00001484,0.00003039,-0.00006439,-0.00001515,0
 .00009427,-0.00018337,0.00008572,0.00018548,-0.00043152,-0.00033587,0.
 00067095,-0.00005061,-0.00007654,-0.00001142,0.00344409,-0.00464878,0.
 00012353,-0.00013677,0.00016884,0.00073899,0.00000960,-0.00013955,0.00
 000179,-0.00000365,0.00012881,-0.00001126,0.00005947,0.00010686,-0.000
 81345,0.00044358,-0.00003987,-0.00007067,0.00079879,0.00108875,0.00013
 644,-0.00409944,-0.00453017,-0.00019831,0.00015324,-0.00039464,-0.0001
 8662,-0.00169402,0.05664918,-0.00001655,-0.00006736,-0.00012065,-0.000
 04826,0.00014829,0.00038670,0.00000701,-0.00001572,-0.00008583,-0.0002
 9673,-0.00019736,0.00037231,0.00006074,0.00045059,-0.00001640,0.000540
 86,-0.00042643,-0.00187215,-0.00048246,0.00015779,0.00091091,-0.000002
 07,0.00004769,0.00012264,-0.00053808,-0.00023497,0.00066956,0.00042145
 ,0.00053112,-0.00132835,0.11234866,-0.00214964,-0.22013166,-0.00000369
 ,-0.00001704,0.00000230,0.00000934,-0.00000639,0.00002517,0.00004567,-
 0.00010848,-0.00001322,-0.00010145,0.00020389,-0.00001297,-0.00029748,
 -0.00065925,0.00041227,0.00009805,0.00000491,-0.00005274,0.00002526,-0
 .00029520,0.00136870,0.00034736,0.00002940,0.00057791,-0.00008776,-0.0
 0000372,-0.00013538,0.00003582,-0.00001025,-0.00000150,0.00038802,-0.0
 0004177,0.00059057,0.00001956,0.00007529,0.00023131,-0.00004523,0.0005
 9133,0.00023745,-0.00025250,0.00034685,0.00135307,0.01458560,-0.000338
 18,-0.02169304,-0.12676115,0.00198460,0.23820300\\-0.00005467,0.000008
 84,-0.00000418,0.00003469,0.00001701,0.00003960,-0.00006384,-0.0000146
 0,-0.00010168,0.00005072,-0.00001607,0.00003273,0.00002983,0.00000579,
 0.00002297,0.00007620,-0.00004844,0.00006067,-0.00005904,0.00003019,-0
 .00011051,0.00001293,0.00001138,0.00001739,-0.00005649,0.00002044,-0.0
 0002846,0.00002132,-0.00001818,-0.00000099,0.00000319,0.00000451,0.000
 02276,0.00000138,0.00000329,0.00001763,-0.00000283,-0.00000835,0.00002
 290,0.00000384,0.00001412,0.00000678,0.00000124,0.00000531,0.00000268,
 0.00000249,-0.00000016,0.00000634,0.00000133,0.00000041,-0.00000413,0.
 00000523,0.00000717,-0.00000124,-0.00002467,-0.00000636,0.00001296,0.0
 0001357,-0.00000130,-0.00000720,-0.00001296,-0.00000241,-0.00000417,0.
 00000278,-0.00000139,0.00000359,-0.00000470,-0.00000550,-0.00000615,0.
 00000649,-0.00001495,-0.00000426,0.00000325,-0.00000019,0.00000063,0.0
 0001218,0.00000562,-0.00000210,-0.00000346,0.00000384,0.00000545\\\@


 YOU CAN LEAD A BOY TO COLLEGE....
 BUT YOU CANNOT MAKE HIM THINK....
           ELBERT HUBBARD
 Job cpu time:       0 days  0 hours  2 minutes 36.2 seconds.
 Elapsed time:       0 days  1 hours  9 minutes 37.6 seconds.
 File lengths (MBytes):  RWF=    127 Int=      0 D2E=      0 Chk=      5 Scr=      1
 Normal termination of Gaussian 16 at Thu Feb 22 06:55:43 2024.
