 Entering Gaussian System, Link 0=g16
 Input=/Volumes/SSD-PMU3/b3lyp_6-31gd_freq/LHXDLQBQYFFVNW-OIBJUYFYSA-N_calculating/gaussianinput0.gjf
 Output=/Volumes/SSD-PMU3/b3lyp_6-31gd_freq/LHXDLQBQYFFVNW-OIBJUYFYSA-N_calculating/gaussianinput0.log
 Initial command:
 /Applications/g16/l1.exe "/Users/macmini_m1_2022/PycharmProjects/sphere_model/sphere_model_lib/Gau-58182.inp" -scrdir="/Users/macmini_m1_2022/PycharmProjects/sphere_model/sphere_model_lib/"
 Entering Link 1 = /Applications/g16/l1.exe PID=     58183.
  
 Copyright (c) 1988,1990,1992,1993,1995,1998,2003,2009,2016,
            Gaussian, Inc.  All Rights Reserved.
  
 This is part of the Gaussian(R) 16 program.  It is based on
 the Gaussian(R) 09 system (copyright 2009, Gaussian, Inc.),
 the Gaussian(R) 03 system (copyright 2003, Gaussian, Inc.),
 the Gaussian(R) 98 system (copyright 1998, Gaussian, Inc.),
 the Gaussian(R) 94 system (copyright 1995, Gaussian, Inc.),
 the Gaussian 92(TM) system (copyright 1992, Gaussian, Inc.),
 the Gaussian 90(TM) system (copyright 1990, Gaussian, Inc.),
 the Gaussian 88(TM) system (copyright 1988, Gaussian, Inc.),
 the Gaussian 86(TM) system (copyright 1986, Carnegie Mellon
 University), and the Gaussian 82(TM) system (copyright 1983,
 Carnegie Mellon University). Gaussian is a federally registered
 trademark of Gaussian, Inc.
  
 This software contains proprietary and confidential information,
 including trade secrets, belonging to Gaussian, Inc.
  
 This software is provided under written license and may be
 used, copied, transmitted, or stored only in accord with that
 written license.
  
 The following legend is applicable only to US Government
 contracts under FAR:
  
                    RESTRICTED RIGHTS LEGEND
  
 Use, reproduction and disclosure by the US Government is
 subject to restrictions as set forth in subparagraphs (a)
 and (c) of the Commercial Computer Software - Restricted
 Rights clause in FAR 52.227-19.
  
 Gaussian, Inc.
 340 Quinnipiac St., Bldg. 40, Wallingford CT 06492
  
  
 ---------------------------------------------------------------
 Warning -- This program may not be used in any manner that
 competes with the business of Gaussian, Inc. or will provide
 assistance to any competitor of Gaussian, Inc.  The licensee
 of this program is prohibited from giving any competitor of
 Gaussian, Inc. access to this program.  By using this program,
 the user acknowledges that Gaussian, Inc. is engaged in the
 business of creating and licensing software in the field of
 computational chemistry and represents and warrants to the
 licensee that it is not a competitor of Gaussian, Inc. and that
 it will not use this program in any manner prohibited above.
 ---------------------------------------------------------------
  

 Cite this work as:
 Gaussian 16, Revision A.03,
 M. J. Frisch, G. W. Trucks, H. B. Schlegel, G. E. Scuseria, 
 M. A. Robb, J. R. Cheeseman, G. Scalmani, V. Barone, 
 G. A. Petersson, H. Nakatsuji, X. Li, M. Caricato, A. V. Marenich, 
 J. Bloino, B. G. Janesko, R. Gomperts, B. Mennucci, H. P. Hratchian, 
 J. V. Ortiz, A. F. Izmaylov, J. L. Sonnenberg, D. Williams-Young, 
 F. Ding, F. Lipparini, F. Egidi, J. Goings, B. Peng, A. Petrone, 
 T. Henderson, D. Ranasinghe, V. G. Zakrzewski, J. Gao, N. Rega, 
 G. Zheng, W. Liang, M. Hada, M. Ehara, K. Toyota, R. Fukuda, 
 J. Hasegawa, M. Ishida, T. Nakajima, Y. Honda, O. Kitao, H. Nakai, 
 T. Vreven, K. Throssell, J. A. Montgomery, Jr., J. E. Peralta, 
 F. Ogliaro, M. J. Bearpark, J. J. Heyd, E. N. Brothers, K. N. Kudin, 
 V. N. Staroverov, T. A. Keith, R. Kobayashi, J. Normand, 
 K. Raghavachari, A. P. Rendell, J. C. Burant, S. S. Iyengar, 
 J. Tomasi, M. Cossi, J. M. Millam, M. Klene, C. Adamo, R. Cammi, 
 J. W. Ochterski, R. L. Martin, K. Morokuma, O. Farkas, 
 J. B. Foresman, and D. J. Fox, Gaussian, Inc., Wallingford CT, 2016.
 
 ******************************************
 Gaussian 16:  EM64M-G16RevA.03 25-Dec-2016
                22-Feb-2024 
 ******************************************
 %nprocshared=8
 Will use up to    8 processors via shared memory.
 %mem=4GB
 %chk= 0.chk
 ---------------------
 # freq b3lyp/6-31g(d)
 ---------------------
 1/10=4,30=1,38=1/1,3;
 2/12=2,17=6,18=5,40=1/2;
 3/5=1,6=6,7=1,11=2,25=1,30=1,71=2,74=-5,140=1/1,2,3;
 4//1;
 5/5=2,38=5,98=1/2;
 8/6=4,10=90,11=11/1;
 11/6=1,8=1,9=11,15=111,16=1/1,2,10;
 10/6=1/2;
 6/7=2,8=2,9=2,10=2,28=1/1;
 7/8=1,10=1,25=1/1,2,3,16;
 1/10=4,30=1/3;
 99//99;
 ---------
 good luck
 ---------
 Symbolic Z-matrix:
 Charge =  0 Multiplicity = 1
 O                     1.21363   0.        0. 
 C                     0.        0.        0. 
 C                    -0.91636  -1.22899  -0.00649 
 C                    -0.24725  -2.51649   0.43963 
 C                    -2.11917  -0.67301   0.79693 
 C                    -1.52464  -1.25226  -1.45122 
 C                    -2.5382   -0.06646  -1.45885 
 C                    -2.31201   0.59142  -0.07652 
 C                    -0.90187   1.25919  -0.00649 
 C                    -0.70344   2.04031   1.31152 
 C                    -0.5272    2.18754  -1.17424 
 H                     0.13142  -2.4313    1.46428 
 H                    -0.94884  -3.35806   0.40194 
 H                     0.60738  -2.75008  -0.20432 
 H                    -1.88032  -0.46987   1.84586 
 H                    -2.98556  -1.34433   0.76705 
 H                    -2.02575  -2.214    -1.61128 
 H                    -0.74961  -1.1621   -2.22025 
 H                    -3.56735  -0.43616  -1.52631 
 H                    -2.39201   0.61853  -2.29773 
 H                    -3.11899   1.26462   0.23003 
 H                    -1.303     2.9585    1.29728 
 H                     0.34946   2.31803   1.42531 
 H                    -0.99412   1.46441   2.19555 
 H                    -1.21462   3.04067  -1.22703 
 H                    -0.54191   1.67908  -2.14278 
 H                     0.48673   2.57252  -1.02572 
 

 GradGradGradGradGradGradGradGradGradGradGradGradGradGradGradGradGradGrad
 Berny optimization.
 Initialization pass.
 Trust Radius=3.00D-01 FncErr=1.00D-07 GrdErr=1.00D-07 EigMax=2.50D+02 EigMin=1.00D-04
 Number of steps in this run=      2 maximum allowed number of steps=      2.
 GradGradGradGradGradGradGradGradGradGradGradGradGradGradGradGradGradGrad

                          Input orientation:                          
 ---------------------------------------------------------------------
 Center     Atomic      Atomic             Coordinates (Angstroms)
 Number     Number       Type             X           Y           Z
 ---------------------------------------------------------------------
      1          8           0        1.213625    0.000000    0.000000
      2          6           0        0.000000    0.000000    0.000000
      3          6           0       -0.916359   -1.228989   -0.006493
      4          6           0       -0.247248   -2.516495    0.439634
      5          6           0       -2.119165   -0.673006    0.796927
      6          6           0       -1.524644   -1.252255   -1.451218
      7          6           0       -2.538197   -0.066461   -1.458846
      8          6           0       -2.312010    0.591418   -0.076515
      9          6           0       -0.901872    1.259193   -0.006493
     10          6           0       -0.703441    2.040306    1.311518
     11          6           0       -0.527198    2.187539   -1.174245
     12          1           0        0.131419   -2.431304    1.464279
     13          1           0       -0.948837   -3.358061    0.401943
     14          1           0        0.607381   -2.750083   -0.204321
     15          1           0       -1.880315   -0.469866    1.845862
     16          1           0       -2.985563   -1.344327    0.767047
     17          1           0       -2.025754   -2.214002   -1.611283
     18          1           0       -0.749606   -1.162105   -2.220251
     19          1           0       -3.567351   -0.436156   -1.526314
     20          1           0       -2.392008    0.618534   -2.297734
     21          1           0       -3.118991    1.264618    0.230027
     22          1           0       -1.303003    2.958502    1.297283
     23          1           0        0.349462    2.318032    1.425312
     24          1           0       -0.994121    1.464412    2.195549
     25          1           0       -1.214621    3.040666   -1.227029
     26          1           0       -0.541906    1.679075   -2.142776
     27          1           0        0.486726    2.572520   -1.025721
 ---------------------------------------------------------------------
                    Distance matrix (angstroms):
                    1          2          3          4          5
     1  O    0.000000
     2  C    1.213625   0.000000
     3  C    2.459123   1.533026   0.000000
     4  C    2.942818   2.566546   1.518029   0.000000
     5  C    3.492208   2.361967   1.549627   2.651449   0.000000
     6  C    3.342498   2.449228   1.567732   2.608709   2.396485
     7  C    4.026018   2.928326   2.468027   3.854263   2.373183
     8  C    3.575714   2.387681   2.294913   3.766799   1.548825
     9  C    2.461897   1.548865   2.488224   3.857899   2.420884
    10  C    3.091613   2.525422   3.531399   4.661838   3.103408
    11  C    3.032267   2.538132   3.631495   4.981055   3.821334
    12  H    3.037519   2.841236   2.169463   1.095693   2.932933
    13  H    4.014271   3.512609   2.168138   1.096303   2.955537
    14  H    2.823515   2.823759   2.162093   1.095277   3.570826
    15  H    3.633242   2.676484   2.221868   2.972049   1.094797
    16  H    4.475350   3.362910   2.212074   2.996589   1.096453
    17  H    4.241652   3.406129   2.185488   2.731455   2.860572
    18  H    3.183438   2.615705   2.221037   3.026834   3.349369
    19  H    5.037618   3.904595   3.156929   4.383588   2.747870
    20  H    4.320041   3.373999   3.292517   4.682049   3.364438
    21  H    4.519262   3.373466   3.335507   4.752648   2.252868
    22  H    4.095008   3.483317   4.402773   5.641434   3.755573
    23  H    2.855094   2.743522   4.029110   4.969937   3.928778
    24  H    3.440796   2.820144   3.479863   4.414598   2.791133
    25  H    4.080151   3.496649   4.450688   5.881804   4.325038
    26  H    3.239239   2.775688   3.627776   4.935430   4.081897
    27  H    2.863275   2.811915   4.178390   5.346406   4.543804
                    6          7          8          9         10
     6  C    0.000000
     7  C    1.559954   0.000000
     8  C    2.430820   1.547516   0.000000
     9  C    2.963519   2.558173   1.561831   0.000000
    10  C    4.375848   3.934427   2.571654   1.544884   0.000000
    11  C    3.592185   3.034078   2.634040   1.538133   2.496349
    12  H    3.554268   4.611290   4.181057   4.104952   4.551442
    13  H    2.863595   4.101613   4.205419   4.635522   5.479955
    14  H    2.888559   4.320917   4.439010   4.288505   5.192673
    15  H    3.407253   3.393617   2.237905   2.716287   2.823388
    16  H    2.657717   2.605317   2.216389   3.423222   4.118285
    17  H    1.096216   2.213090   3.210582   3.987674   5.328266
    18  H    1.095547   2.231419   3.179867   3.284295   4.767700
    19  H    2.200979   1.095620   2.175708   3.505545   4.731610
    20  H    2.229072   1.092851   2.222825   2.807265   4.230768
    21  H    3.420991   2.227417   1.094708   2.229706   2.757933
    22  H    5.033275   4.274617   2.916934   2.179080   1.096705
    23  H    4.953145   4.726812   3.510002   2.176475   1.094845
    24  H    4.578280   4.252334   2.767892   2.213507   1.094376
    25  H    4.309936   3.385237   2.920062   2.182010   2.776013
    26  H    3.168079   2.738582   2.930137   2.206713   3.476885
    27  H    4.342299   4.037571   3.557904   2.166070   2.676273
                   11         12         13         14         15
    11  C    0.000000
    12  H    5.359972   0.000000
    13  H    5.780642   1.776060   0.000000
    14  H    5.158307   1.764196   1.777360   0.000000
    15  H    4.244264   2.835475   3.360688   3.948578   0.000000
    16  H    4.720832   3.373904   2.887331   3.978562   1.774851
    17  H    4.670143   3.762937   2.553762   3.033204   3.874921
    18  H    3.516207   3.995351   3.426050   2.902940   4.276795
    19  H    4.031161   5.158019   4.371764   4.952808   3.770782
    20  H    2.683565   5.460947   5.018397   4.972554   4.314607
    21  H    3.088876   5.074286   5.109627   5.494755   2.674636
    22  H    2.702722   5.579916   6.389525   6.204218   3.519650
    23  H    2.746499   4.754498   5.911928   5.329917   3.594599
    24  H    3.477994   4.120461   5.145417   5.107461   2.156166
    25  H    1.096888   6.244791   6.608169   6.156167   4.712711
    26  H    1.093985   5.509939   5.658085   4.969498   4.724248
    27  H    1.094674   5.600410   6.266646   5.386962   4.806764
                   16         17         18         19         20
    16  H    0.000000
    17  H    2.708140   0.000000
    18  H    3.735861   1.762352   0.000000
    19  H    2.534316   2.354671   2.991360   0.000000
    20  H    3.687548   2.937451   2.423667   1.757524   0.000000
    21  H    2.666981   4.084897   4.184117   2.485637   2.708414
    22  H    4.650430   5.978037   5.445980   4.962225   4.425554
    23  H    4.996857   5.949949   5.158433   5.624862   4.925954
    24  H    3.727663   5.393233   5.143702   4.907742   4.781129
    25  H    5.132323   5.330771   4.343502   4.208705   2.898167
    26  H    4.855872   4.200040   2.849815   3.742665   2.138139
    27  H    5.532856   5.437484   4.111307   5.073289   3.704482
                   21         22         23         24         25
    21  H    0.000000
    22  H    2.702978   0.000000
    23  H    3.816877   1.776861   0.000000
    24  H    2.901425   1.770479   1.768374   0.000000
    25  H    2.983954   2.527195   3.162826   3.774551   0.000000
    26  H    3.527511   3.748361   3.732835   4.367109   1.773434
    27  H    4.035927   2.957780   2.468029   3.714484   1.776026
                   26         27
    26  H    0.000000
    27  H    1.761857   0.000000
 Stoichiometry    C10H16O
 Framework group  C1[X(C10H16O)]
 Deg. of freedom    75
 Full point group                 C1      NOp   1
 Largest Abelian subgroup         C1      NOp   1
 Largest concise Abelian subgroup C1      NOp   1
                         Standard orientation:                         
 ---------------------------------------------------------------------
 Center     Atomic      Atomic             Coordinates (Angstroms)
 Number     Number       Type             X           Y           Z
 ---------------------------------------------------------------------
      1          8           0        0.090089   -1.992696   -0.892971
      2          6           0        0.017478   -0.923500   -0.323380
      3          6           0       -1.263701   -0.196735    0.101547
      4          6           0       -2.493766   -1.082662    0.182065
      5          6           0       -0.754989    0.524567    1.375234
      6          6           0       -1.370025    1.014020   -0.888680
      7          6           0       -0.247864    1.991168   -0.420288
      8          6           0        0.466725    1.189412    0.693872
      9          6           0        1.219587   -0.040282    0.093564
     10          6           0        2.053384   -0.779089    1.163896
     11          6           0        2.130438    0.239527   -1.113874
     12          1           0       -2.352983   -1.890226    0.909089
     13          1           0       -3.376579   -0.504152    0.478460
     14          1           0       -2.696505   -1.549960   -0.787554
     15          1           0       -0.504109   -0.163171    2.189271
     16          1           0       -1.477558    1.256192    1.755795
     17          1           0       -2.364703    1.465033   -0.794378
     18          1           0       -1.258582    0.697421   -1.931545
     19          1           0       -0.680459    2.904294    0.003325
     20          1           0        0.417164    2.301742   -1.229982
     21          1           0        1.099998    1.802612    1.342976
     22          1           0        2.933122   -0.181770    1.432283
     23          1           0        2.397142   -1.741082    0.770087
     24          1           0        1.490019   -0.976085    2.081214
     25          1           0        2.938755    0.927876   -0.838261
     26          1           0        1.590952    0.671386   -1.961964
     27          1           0        2.579994   -0.697092   -1.458773
 ---------------------------------------------------------------------
 Rotational constants (GHZ):           1.5463992           1.1573239           0.9527135
 Standard basis: 6-31G(d) (6D, 7F)
 There are   197 symmetry adapted cartesian basis functions of A   symmetry.
 There are   197 symmetry adapted basis functions of A   symmetry.
   197 basis functions,   372 primitive gaussians,   197 cartesian basis functions
    42 alpha electrons       42 beta electrons
       nuclear repulsion energy       679.4378676735 Hartrees.
 NAtoms=   27 NActive=   27 NUniq=   27 SFac= 1.00D+00 NAtFMM=   60 NAOKFM=F Big=F
 Integral buffers will be    131072 words long.
 Raffenetti 2 integral format.
 Two-electron integral symmetry is turned on.
 One-electron integrals computed using PRISM.
 NBasis=   197 RedAO= T EigKep=  1.25D-03  NBF=   197
 NBsUse=   197 1.00D-06 EigRej= -1.00D+00 NBFU=   197
 ExpMin= 1.61D-01 ExpMax= 5.48D+03 ExpMxC= 8.25D+02 IAcc=3 IRadAn=         5 AccDes= 0.00D+00
 Harris functional with IExCor=  402 and IRadAn=       5 diagonalized for initial guess.
 HarFok:  IExCor=  402 AccDes= 0.00D+00 IRadAn=         5 IDoV= 1 UseB2=F ITyADJ=14
 ICtDFT=  3500011 ScaDFX=  1.000000  1.000000  1.000000  1.000000
 FoFCou: FMM=F IPFlag=           0 FMFlag=      100000 FMFlg1=           0
         NFxFlg=           0 DoJE=T BraDBF=F KetDBF=T FulRan=T
         wScrn=  0.000000 ICntrl=       500 IOpCl=  0 I1Cent=   200000004 NGrid=           0
         NMat0=    1 NMatS0=      1 NMatT0=    0 NMatD0=    1 NMtDS0=    0 NMtDT0=    0
 Petite list used in FoFCou.
 Requested convergence on RMS density matrix=1.00D-08 within 128 cycles.
 Requested convergence on MAX density matrix=1.00D-06.
 Requested convergence on             energy=1.00D-06.
 No special actions if energy rises.
 Integral accuracy reduced to 1.0D-05 until final iterations.
 Initial convergence to 1.0D-05 achieved.  Increase integral accuracy.
 SCF Done:  E(RB3LYP) =  -465.926540347     A.U. after   13 cycles
            NFock= 13  Conv=0.94D-08     -V/T= 2.0097
 DoSCS=F DFT=T ScalE2(SS,OS)=  1.000000  1.000000
 Range of M.O.s used for correlation:     1   197
 NBasis=   197 NAE=    42 NBE=    42 NFC=     0 NFV=     0
 NROrb=    197 NOA=    42 NOB=    42 NVA=   155 NVB=   155
 Symmetrizing basis deriv contribution to polar:
 IMax=3 JMax=2 DiffMx= 0.00D+00
 G2DrvN: will do    28 centers at a time, making    1 passes.
 Calling FoFCou, ICntrl=  3107 FMM=F I1Cent=   0 AccDes= 0.00D+00.
 End of G2Drv F.D. properties file   721 does not exist.
 End of G2Drv F.D. properties file   722 does not exist.
 End of G2Drv F.D. properties file   788 does not exist.
          IDoAtm=111111111111111111111111111
          Differentiating once with respect to electric field.
                with respect to dipole field.
          Differentiating once with respect to nuclear coordinates.
 Keep R1 ints in memory in canonical form, NReq=198401974.
          There are    84 degrees of freedom in the 1st order CPHF.  IDoFFX=6 NUNeed=     3.
     81 vectors produced by pass  0 Test12= 7.75D-15 1.19D-09 XBig12= 7.16D+01 2.38D+00.
 AX will form    81 AO Fock derivatives at one time.
     81 vectors produced by pass  1 Test12= 7.75D-15 1.19D-09 XBig12= 1.13D+01 7.84D-01.
     81 vectors produced by pass  2 Test12= 7.75D-15 1.19D-09 XBig12= 8.75D-02 4.18D-02.
     81 vectors produced by pass  3 Test12= 7.75D-15 1.19D-09 XBig12= 2.95D-04 3.59D-03.
     81 vectors produced by pass  4 Test12= 7.75D-15 1.19D-09 XBig12= 3.43D-07 5.45D-05.
     39 vectors produced by pass  5 Test12= 7.75D-15 1.19D-09 XBig12= 2.23D-10 1.19D-06.
      3 vectors produced by pass  6 Test12= 7.75D-15 1.19D-09 XBig12= 1.31D-13 2.85D-08.
 InvSVY:  IOpt=1 It=  1 EMax= 7.99D-15
 Solved reduced A of dimension   447 with    84 vectors.
 Isotropic polarizability for W=    0.000000       98.94 Bohr**3.
 End of Minotr F.D. properties file   721 does not exist.
 End of Minotr F.D. properties file   722 does not exist.
 End of Minotr F.D. properties file   788 does not exist.

 **********************************************************************

            Population analysis using the SCF density.

 **********************************************************************

 Orbital symmetries:
       Occupied  (A) (A) (A) (A) (A) (A) (A) (A) (A) (A) (A) (A)
                 (A) (A) (A) (A) (A) (A) (A) (A) (A) (A) (A) (A)
                 (A) (A) (A) (A) (A) (A) (A) (A) (A) (A) (A) (A)
                 (A) (A) (A) (A) (A) (A)
       Virtual   (A) (A) (A) (A) (A) (A) (A) (A) (A) (A) (A) (A)
                 (A) (A) (A) (A) (A) (A) (A) (A) (A) (A) (A) (A)
                 (A) (A) (A) (A) (A) (A) (A) (A) (A) (A) (A) (A)
                 (A) (A) (A) (A) (A) (A) (A) (A) (A) (A) (A) (A)
                 (A) (A) (A) (A) (A) (A) (A) (A) (A) (A) (A) (A)
                 (A) (A) (A) (A) (A) (A) (A) (A) (A) (A) (A) (A)
                 (A) (A) (A) (A) (A) (A) (A) (A) (A) (A) (A) (A)
                 (A) (A) (A) (A) (A) (A) (A) (A) (A) (A) (A) (A)
                 (A) (A) (A) (A) (A) (A) (A) (A) (A) (A) (A) (A)
                 (A) (A) (A) (A) (A) (A) (A) (A) (A) (A) (A) (A)
                 (A) (A) (A) (A) (A) (A) (A) (A) (A) (A) (A) (A)
                 (A) (A) (A) (A) (A) (A) (A) (A) (A) (A) (A) (A)
                 (A) (A) (A) (A) (A) (A) (A) (A) (A) (A) (A)
 The electronic state is 1-A.
 Alpha  occ. eigenvalues --  -19.13388 -10.25965 -10.19958 -10.19789 -10.19287
 Alpha  occ. eigenvalues --  -10.19070 -10.18681 -10.18580 -10.17988 -10.17755
 Alpha  occ. eigenvalues --  -10.17419  -1.03199  -0.87834  -0.79107  -0.74435
 Alpha  occ. eigenvalues --   -0.71510  -0.68334  -0.66580  -0.63993  -0.57642
 Alpha  occ. eigenvalues --   -0.54962  -0.49802  -0.48066  -0.47497  -0.45151
 Alpha  occ. eigenvalues --   -0.43876  -0.42643  -0.41418  -0.40219  -0.39570
 Alpha  occ. eigenvalues --   -0.38552  -0.37944  -0.37098  -0.35909  -0.35273
 Alpha  occ. eigenvalues --   -0.34861  -0.34712  -0.33258  -0.32043  -0.30782
 Alpha  occ. eigenvalues --   -0.30316  -0.22691
 Alpha virt. eigenvalues --   -0.00835   0.07326   0.10023   0.10881   0.12075
 Alpha virt. eigenvalues --    0.12567   0.14092   0.15432   0.15954   0.16611
 Alpha virt. eigenvalues --    0.16940   0.17570   0.17867   0.18477   0.19879
 Alpha virt. eigenvalues --    0.20126   0.20497   0.21264   0.21847   0.22883
 Alpha virt. eigenvalues --    0.23932   0.24861   0.25522   0.26995   0.27978
 Alpha virt. eigenvalues --    0.29195   0.31302   0.33771   0.36007   0.49339
 Alpha virt. eigenvalues --    0.50023   0.51681   0.52039   0.53033   0.55184
 Alpha virt. eigenvalues --    0.58107   0.59388   0.60013   0.60373   0.61733
 Alpha virt. eigenvalues --    0.63831   0.65054   0.66459   0.67901   0.70043
 Alpha virt. eigenvalues --    0.71837   0.73491   0.74300   0.74782   0.77770
 Alpha virt. eigenvalues --    0.80204   0.81076   0.82424   0.84483   0.85168
 Alpha virt. eigenvalues --    0.85551   0.87141   0.87862   0.88148   0.88646
 Alpha virt. eigenvalues --    0.90493   0.91322   0.92108   0.92480   0.92773
 Alpha virt. eigenvalues --    0.92899   0.93962   0.95831   0.96204   0.97495
 Alpha virt. eigenvalues --    0.98992   0.99592   1.01695   1.02446   1.03759
 Alpha virt. eigenvalues --    1.10093   1.12334   1.15508   1.24381   1.29206
 Alpha virt. eigenvalues --    1.29818   1.34553   1.36322   1.44351   1.46009
 Alpha virt. eigenvalues --    1.48755   1.52212   1.56625   1.61132   1.62652
 Alpha virt. eigenvalues --    1.64784   1.71252   1.71753   1.76121   1.76443
 Alpha virt. eigenvalues --    1.78074   1.80762   1.82617   1.84832   1.87065
 Alpha virt. eigenvalues --    1.89567   1.90416   1.91770   1.93623   1.94889
 Alpha virt. eigenvalues --    1.97816   1.98771   2.00187   2.01612   2.04441
 Alpha virt. eigenvalues --    2.07021   2.10119   2.10517   2.11607   2.13165
 Alpha virt. eigenvalues --    2.16370   2.17966   2.21976   2.22769   2.23238
 Alpha virt. eigenvalues --    2.25726   2.27065   2.28698   2.30463   2.34065
 Alpha virt. eigenvalues --    2.35439   2.41685   2.44090   2.47612   2.50379
 Alpha virt. eigenvalues --    2.52039   2.57533   2.61311   2.64170   2.66966
 Alpha virt. eigenvalues --    2.69255   2.73016   2.73611   2.78736   2.80357
 Alpha virt. eigenvalues --    2.86972   2.87639   3.04662   3.07493   4.15745
 Alpha virt. eigenvalues --    4.20985   4.25653   4.28455   4.30541   4.39794
 Alpha virt. eigenvalues --    4.48642   4.52485   4.68581   4.78847   4.90774
          Condensed to atoms (all electrons):
               1          2          3          4          5          6
     1  O    8.048592   0.560756  -0.076351   0.004001   0.002257  -0.002395
     2  C    0.560756   4.648215   0.336330  -0.041126  -0.066201  -0.033349
     3  C   -0.076351   0.336330   5.054368   0.356624   0.344194   0.377450
     4  C    0.004001  -0.041126   0.356624   5.127924  -0.046678  -0.045384
     5  C    0.002257  -0.066201   0.344194  -0.046678   5.224451  -0.085540
     6  C   -0.002395  -0.033349   0.377450  -0.045384  -0.085540   5.138669
     7  C   -0.000093  -0.017878  -0.056984   0.006374  -0.068990   0.341661
     8  C    0.004245  -0.057873   0.001929   0.003059   0.327715  -0.060368
     9  C   -0.080331   0.305959  -0.165403   0.010285  -0.037044  -0.010287
    10  C   -0.003471  -0.034041   0.002531  -0.000280  -0.004734   0.000511
    11  C   -0.000210  -0.036155   0.005216  -0.000145   0.005139  -0.001739
    12  H    0.001489  -0.003398  -0.027303   0.369252  -0.003931   0.004872
    13  H    0.000158   0.004696  -0.026642   0.362517  -0.003629  -0.005409
    14  H    0.005617  -0.005199  -0.028005   0.367499   0.005051  -0.003085
    15  H    0.000115  -0.004774  -0.031522  -0.001122   0.364084   0.006658
    16  H   -0.000060   0.005126  -0.029707  -0.001227   0.362999  -0.007551
    17  H   -0.000048   0.004070  -0.033572  -0.004635  -0.002608   0.366361
    18  H    0.001610  -0.005580  -0.035378   0.000556   0.007286   0.364560
    19  H    0.000001   0.000271  -0.000248  -0.000155  -0.001306  -0.028968
    20  H   -0.000003   0.000589   0.002240  -0.000098   0.005723  -0.030309
    21  H   -0.000059   0.005753   0.003073  -0.000167  -0.032131   0.006748
    22  H    0.000003   0.004397  -0.000172   0.000006  -0.000183  -0.000000
    23  H    0.006150  -0.005477   0.000674  -0.000015  -0.000280   0.000003
    24  H    0.000035  -0.003283   0.000667  -0.000062   0.001791  -0.000004
    25  H    0.000037   0.004474  -0.000184   0.000002  -0.000001   0.000048
    26  H    0.000246  -0.003371   0.000084  -0.000016   0.000178   0.000426
    27  H    0.005699  -0.005629   0.000442  -0.000005  -0.000213  -0.000062
               7          8          9         10         11         12
     1  O   -0.000093   0.004245  -0.080331  -0.003471  -0.000210   0.001489
     2  C   -0.017878  -0.057873   0.305959  -0.034041  -0.036155  -0.003398
     3  C   -0.056984   0.001929  -0.165403   0.002531   0.005216  -0.027303
     4  C    0.006374   0.003059   0.010285  -0.000280  -0.000145   0.369252
     5  C   -0.068990   0.327715  -0.037044  -0.004734   0.005139  -0.003931
     6  C    0.341661  -0.060368  -0.010287   0.000511  -0.001739   0.004872
     7  C    5.085859   0.374539  -0.023366   0.004244  -0.007872  -0.000210
     8  C    0.374539   5.045405   0.345573  -0.050938  -0.046508   0.000207
     9  C   -0.023366   0.345573   5.105666   0.366327   0.362237  -0.000017
    10  C    0.004244  -0.050938   0.366327   5.138235  -0.051795   0.000006
    11  C   -0.007872  -0.046508   0.362237  -0.051795   5.129025  -0.000004
    12  H   -0.000210   0.000207  -0.000017   0.000006  -0.000004   0.566690
    13  H   -0.000002   0.000081  -0.000150   0.000003   0.000002  -0.031041
    14  H   -0.000069  -0.000214   0.000204  -0.000004  -0.000006  -0.028257
    15  H    0.005370  -0.031966  -0.002395   0.000944   0.000029   0.002558
    16  H   -0.002497  -0.029757   0.003330   0.000337  -0.000147  -0.000229
    17  H   -0.027243   0.002496  -0.000483   0.000002   0.000074  -0.000002
    18  H   -0.029348   0.000302   0.002091  -0.000015   0.000077  -0.000147
    19  H    0.366249  -0.031488   0.004153  -0.000140   0.000228   0.000004
    20  H    0.368109  -0.030080  -0.009874   0.000089   0.003530   0.000003
    21  H   -0.038353   0.361243  -0.036078  -0.004700  -0.000577   0.000002
    22  H    0.000053  -0.004036  -0.031238   0.367663  -0.006085   0.000000
    23  H   -0.000156   0.005346  -0.031346   0.366295  -0.004093  -0.000000
    24  H    0.000048  -0.005074  -0.032069   0.367883   0.005453  -0.000000
    25  H   -0.000260  -0.003669  -0.030286  -0.005445   0.367371   0.000000
    26  H    0.000775  -0.005467  -0.029364   0.005290   0.369312  -0.000000
    27  H    0.000189   0.005129  -0.029535  -0.004666   0.366687  -0.000000
              13         14         15         16         17         18
     1  O    0.000158   0.005617   0.000115  -0.000060  -0.000048   0.001610
     2  C    0.004696  -0.005199  -0.004774   0.005126   0.004070  -0.005580
     3  C   -0.026642  -0.028005  -0.031522  -0.029707  -0.033572  -0.035378
     4  C    0.362517   0.367499  -0.001122  -0.001227  -0.004635   0.000556
     5  C   -0.003629   0.005051   0.364084   0.362999  -0.002608   0.007286
     6  C   -0.005409  -0.003085   0.006658  -0.007551   0.366361   0.364560
     7  C   -0.000002  -0.000069   0.005370  -0.002497  -0.027243  -0.029348
     8  C    0.000081  -0.000214  -0.031966  -0.029757   0.002496   0.000302
     9  C   -0.000150   0.000204  -0.002395   0.003330  -0.000483   0.002091
    10  C    0.000003  -0.000004   0.000944   0.000337   0.000002  -0.000015
    11  C    0.000002  -0.000006   0.000029  -0.000147   0.000074   0.000077
    12  H   -0.031041  -0.028257   0.002558  -0.000229  -0.000002  -0.000147
    13  H    0.586576  -0.030816  -0.000125   0.002028   0.004701  -0.000187
    14  H   -0.030816   0.553553  -0.000058  -0.000112  -0.000517   0.002361
    15  H   -0.000125  -0.000058   0.578608  -0.033875  -0.000091  -0.000178
    16  H    0.002028  -0.000112  -0.033875   0.589843   0.002999  -0.000023
    17  H    0.004701  -0.000517  -0.000091   0.002999   0.583228  -0.034855
    18  H   -0.000187   0.002361  -0.000178  -0.000023  -0.034855   0.577995
    19  H   -0.000019   0.000001  -0.000059   0.002449  -0.009791   0.003719
    20  H   -0.000000  -0.000005  -0.000174   0.000039   0.003225  -0.007301
    21  H    0.000001   0.000004  -0.000736  -0.001861  -0.000200  -0.000094
    22  H   -0.000000   0.000000   0.000118  -0.000020  -0.000000  -0.000000
    23  H    0.000000  -0.000002  -0.000215   0.000008   0.000000  -0.000004
    24  H    0.000001  -0.000001   0.005430  -0.000127   0.000001  -0.000002
    25  H   -0.000000   0.000000  -0.000002  -0.000001  -0.000002   0.000009
    26  H    0.000000  -0.000001  -0.000004   0.000001   0.000001   0.001084
    27  H    0.000000  -0.000001  -0.000005   0.000004   0.000002  -0.000059
              19         20         21         22         23         24
     1  O    0.000001  -0.000003  -0.000059   0.000003   0.006150   0.000035
     2  C    0.000271   0.000589   0.005753   0.004397  -0.005477  -0.003283
     3  C   -0.000248   0.002240   0.003073  -0.000172   0.000674   0.000667
     4  C   -0.000155  -0.000098  -0.000167   0.000006  -0.000015  -0.000062
     5  C   -0.001306   0.005723  -0.032131  -0.000183  -0.000280   0.001791
     6  C   -0.028968  -0.030309   0.006748  -0.000000   0.000003  -0.000004
     7  C    0.366249   0.368109  -0.038353   0.000053  -0.000156   0.000048
     8  C   -0.031488  -0.030080   0.361243  -0.004036   0.005346  -0.005074
     9  C    0.004153  -0.009874  -0.036078  -0.031238  -0.031346  -0.032069
    10  C   -0.000140   0.000089  -0.004700   0.367663   0.366295   0.367883
    11  C    0.000228   0.003530  -0.000577  -0.006085  -0.004093   0.005453
    12  H    0.000004   0.000003   0.000002   0.000000  -0.000000  -0.000000
    13  H   -0.000019  -0.000000   0.000001  -0.000000   0.000000   0.000001
    14  H    0.000001  -0.000005   0.000004   0.000000  -0.000002  -0.000001
    15  H   -0.000059  -0.000174  -0.000736   0.000118  -0.000215   0.005430
    16  H    0.002449   0.000039  -0.001861  -0.000020   0.000008  -0.000127
    17  H   -0.009791   0.003225  -0.000200  -0.000000   0.000000   0.000001
    18  H    0.003719  -0.007301  -0.000094  -0.000000  -0.000004  -0.000002
    19  H    0.595333  -0.036353  -0.003339  -0.000001   0.000002  -0.000003
    20  H   -0.036353   0.583029   0.000825  -0.000006  -0.000004   0.000001
    21  H   -0.003339   0.000825   0.617721   0.003189  -0.000038   0.000119
    22  H   -0.000001  -0.000006   0.003189   0.576571  -0.029465  -0.030225
    23  H    0.000002  -0.000004  -0.000038  -0.029465   0.549572  -0.027883
    24  H   -0.000003   0.000001   0.000119  -0.030225  -0.027883   0.570476
    25  H   -0.000046   0.000481   0.001825   0.004541  -0.000339  -0.000050
    26  H   -0.000027   0.002803  -0.000146   0.000006  -0.000053  -0.000182
    27  H   -0.000002  -0.000102  -0.000135  -0.000510   0.004968   0.000009
              25         26         27
     1  O    0.000037   0.000246   0.005699
     2  C    0.004474  -0.003371  -0.005629
     3  C   -0.000184   0.000084   0.000442
     4  C    0.000002  -0.000016  -0.000005
     5  C   -0.000001   0.000178  -0.000213
     6  C    0.000048   0.000426  -0.000062
     7  C   -0.000260   0.000775   0.000189
     8  C   -0.003669  -0.005467   0.005129
     9  C   -0.030286  -0.029364  -0.029535
    10  C   -0.005445   0.005290  -0.004666
    11  C    0.367371   0.369312   0.366687
    12  H    0.000000  -0.000000  -0.000000
    13  H   -0.000000   0.000000   0.000000
    14  H    0.000000  -0.000001  -0.000001
    15  H   -0.000002  -0.000004  -0.000005
    16  H   -0.000001   0.000001   0.000004
    17  H   -0.000002   0.000001   0.000002
    18  H    0.000009   0.001084  -0.000059
    19  H   -0.000046  -0.000027  -0.000002
    20  H    0.000481   0.002803  -0.000102
    21  H    0.001825  -0.000146  -0.000135
    22  H    0.004541   0.000006  -0.000510
    23  H   -0.000339  -0.000053   0.004968
    24  H   -0.000050  -0.000182   0.000009
    25  H    0.580895  -0.031416  -0.030314
    26  H   -0.031416   0.570421  -0.027998
    27  H   -0.030314  -0.027998   0.551254
 Mulliken charges:
               1
     1  O   -0.477991
     2  C    0.442700
     3  C    0.025648
     4  C   -0.466985
     5  C   -0.297402
     6  C   -0.293518
     7  C   -0.280149
     8  C   -0.119830
     9  C    0.043440
    10  C   -0.460133
    11  C   -0.459045
    12  H    0.149458
    13  H    0.137257
    14  H    0.162060
    15  H    0.143385
    16  H    0.138032
    17  H    0.146886
    18  H    0.151521
    19  H    0.139533
    20  H    0.143624
    21  H    0.118112
    22  H    0.145392
    23  H    0.166351
    24  H    0.147049
    25  H    0.142332
    26  H    0.147417
    27  H    0.164853
 Sum of Mulliken charges =  -0.00000
 Mulliken charges with hydrogens summed into heavy atoms:
               1
     1  O   -0.477991
     2  C    0.442700
     3  C    0.025648
     4  C   -0.018209
     5  C   -0.015985
     6  C    0.004889
     7  C    0.003008
     8  C   -0.001718
     9  C    0.043440
    10  C   -0.001340
    11  C   -0.004442
 APT charges:
               1
     1  O   -0.639853
     2  C    0.685477
     3  C   -0.047875
     4  C    0.077276
     5  C    0.037121
     6  C    0.073808
     7  C    0.071375
     8  C    0.083436
     9  C   -0.061744
    10  C    0.070392
    11  C    0.059532
    12  H   -0.020602
    13  H   -0.030641
    14  H   -0.006248
    15  H   -0.024219
    16  H   -0.035849
    17  H   -0.037005
    18  H   -0.026709
    19  H   -0.050736
    20  H   -0.030269
    21  H   -0.055393
    22  H   -0.025898
    23  H   -0.006815
    24  H   -0.012973
    25  H   -0.025964
    26  H   -0.017067
    27  H   -0.002557
 Sum of APT charges =   0.00000
 APT charges with hydrogens summed into heavy atoms:
               1
     1  O   -0.639853
     2  C    0.685477
     3  C   -0.047875
     4  C    0.019785
     5  C   -0.022947
     6  C    0.010094
     7  C   -0.009631
     8  C    0.028043
     9  C   -0.061744
    10  C    0.024706
    11  C    0.013944
 Electronic spatial extent (au):  <R**2>=           1547.0824
 Charge=             -0.0000 electrons
 Dipole moment (field-independent basis, Debye):
    X=             -0.1083    Y=              2.4674    Z=              1.1824  Tot=              2.7382
 Quadrupole moment (field-independent basis, Debye-Ang):
   XX=            -65.6320   YY=            -73.2455   ZZ=            -68.0051
   XY=             -0.2291   XZ=              0.1888   YZ=             -3.1729
 Traceless Quadrupole moment (field-independent basis, Debye-Ang):
   XX=              3.3288   YY=             -4.2846   ZZ=              0.9558
   XY=             -0.2291   XZ=              0.1888   YZ=             -3.1729
 Octapole moment (field-independent basis, Debye-Ang**2):
  XXX=              1.2610  YYY=              6.6112  ZZZ=             -3.6477  XYY=             -0.7116
  XXY=             -1.4743  XXZ=             -1.1191  XZZ=             -0.4630  YZZ=             -0.3420
  YYZ=              7.1130  XYZ=             -0.4023
 Hexadecapole moment (field-independent basis, Debye-Ang**3):
 XXXX=          -1015.3555 YYYY=           -660.4351 ZZZZ=           -418.2677 XXXY=             -5.7206
 XXXZ=              1.3410 YYYX=             -3.2175 YYYZ=             -5.9787 ZZZX=              0.7473
 ZZZY=              2.2059 XXYY=           -269.9717 XXZZ=           -242.6802 YYZZ=           -180.3116
 XXYZ=              7.5037 YYXZ=             -1.6359 ZZXY=              2.1456
 N-N= 6.794378676735D+02 E-N=-2.439398771681D+03  KE= 4.614728455461D+02
  Exact polarizability: 107.305  -1.008  99.028   0.106   1.186  90.498
 Approx polarizability: 140.939  -3.112 149.909  -0.276   7.860 137.026
 Calling FoFJK, ICntrl=    100127 FMM=F ISym2X=0 I1Cent= 0 IOpClX= 0 NMat=1 NMatS=1 NMatT=0.
 Full mass-weighted force constant matrix:
 Low frequencies ---   -7.9306   -0.0003    0.0004    0.0009    3.5287   13.7038
 Low frequencies ---   85.4072  178.7592  189.3743
 Diagonal vibrational polarizability:
        6.6852667       4.4227141       8.8688412
 Harmonic frequencies (cm**-1), IR intensities (KM/Mole), Raman scattering
 activities (A**4/AMU), depolarization ratios for plane and unpolarized
 incident light, reduced masses (AMU), force constants (mDyne/A),
 and normal coordinates:
                      1                      2                      3
                      A                      A                      A
 Frequencies --     85.4048               178.7586               189.3706
 Red. masses --      4.0002                 1.4300                 1.1299
 Frc consts  --      0.0172                 0.0269                 0.0239
 IR Inten    --      2.2843                 0.8386                 0.1534
  Atom  AN      X      Y      Z        X      Y      Z        X      Y      Z
     1   8     0.02  -0.15   0.26     0.01  -0.05   0.09     0.01  -0.02   0.04
     2   6    -0.00  -0.05   0.06     0.01   0.01  -0.02     0.00   0.01  -0.00
     3   6    -0.01   0.01  -0.07     0.00   0.01  -0.02     0.00   0.00  -0.00
     4   6    -0.05   0.07  -0.18     0.02  -0.01  -0.00     0.01  -0.01   0.02
     5   6    -0.03  -0.07  -0.01     0.02  -0.00  -0.02     0.00   0.01  -0.00
     6   6     0.09   0.05  -0.03    -0.06   0.03   0.03     0.02  -0.01  -0.02
     7   6     0.02   0.05   0.11    -0.02   0.02  -0.02    -0.03   0.02   0.02
     8   6    -0.01  -0.03   0.06     0.00   0.01  -0.03     0.00   0.01  -0.00
     9   6    -0.01   0.00  -0.01     0.01   0.02  -0.03    -0.00   0.02  -0.02
    10   6     0.12   0.04  -0.10    -0.06  -0.04  -0.02    -0.03  -0.04  -0.04
    11   6    -0.14   0.06  -0.10     0.07   0.02   0.02     0.01   0.01  -0.01
    12   1    -0.12   0.00  -0.24     0.21  -0.28  -0.34    -0.09   0.20   0.27
    13   1    -0.03   0.09  -0.17     0.11  -0.10   0.45    -0.06   0.04  -0.31
    14   1    -0.04   0.15  -0.22    -0.27   0.34  -0.11     0.21  -0.28   0.11
    15   1    -0.05  -0.13  -0.05     0.03   0.00  -0.02     0.00   0.01  -0.00
    16   1    -0.03  -0.09   0.03     0.01  -0.01  -0.01     0.00   0.01  -0.00
    17   1     0.07   0.04  -0.13    -0.05   0.03   0.11     0.00  -0.03  -0.08
    18   1     0.20   0.09  -0.03    -0.13   0.07   0.01     0.08  -0.01  -0.01
    19   1    -0.04  -0.01   0.18     0.01   0.03  -0.01    -0.07  -0.02   0.07
    20   1     0.05   0.16   0.18    -0.05  -0.00  -0.04    -0.04   0.10   0.04
    21   1    -0.01  -0.09   0.12     0.00   0.02  -0.04     0.00   0.01  -0.00
    22   1     0.17   0.04  -0.24    -0.12  -0.02   0.13    -0.15   0.04   0.18
    23   1     0.05   0.02  -0.10     0.04   0.02  -0.09     0.16   0.08  -0.15
    24   1     0.23   0.10  -0.02    -0.14  -0.18  -0.10    -0.12  -0.28  -0.14
    25   1    -0.19   0.16  -0.20     0.17  -0.14   0.12     0.22  -0.26   0.09
    26   1    -0.26  -0.03  -0.07     0.16   0.21   0.06     0.09   0.33   0.10
    27   1    -0.07   0.10  -0.11    -0.06  -0.01  -0.08    -0.26  -0.05  -0.21
                      4                      5                      6
                      A                      A                      A
 Frequencies --    194.3007               207.8783               228.8985
 Red. masses --      1.8128                 1.7762                 1.2416
 Frc consts  --      0.0403                 0.0452                 0.0383
 IR Inten    --      0.9296                 0.5760                 1.1544
  Atom  AN      X      Y      Z        X      Y      Z        X      Y      Z
     1   8    -0.01  -0.04   0.06     0.01   0.00  -0.07    -0.04  -0.02  -0.00
     2   6    -0.01   0.00  -0.02    -0.00  -0.04   0.01    -0.01  -0.02  -0.01
     3   6    -0.00   0.01  -0.01     0.01  -0.03   0.02    -0.00   0.00  -0.00
     4   6     0.00   0.01   0.06    -0.08   0.10   0.09    -0.01   0.01  -0.04
     5   6     0.00   0.02  -0.02    -0.01  -0.00   0.01     0.01  -0.02   0.00
     6   6    -0.00  -0.01  -0.02     0.11  -0.10  -0.09    -0.04   0.04   0.05
     7   6     0.02  -0.02  -0.04    -0.01  -0.02   0.01     0.03  -0.02  -0.02
     8   6     0.00  -0.01  -0.01    -0.01  -0.01   0.02     0.01  -0.02  -0.01
     9   6    -0.00   0.00  -0.02    -0.01  -0.01   0.01     0.01  -0.03  -0.01
    10   6    -0.05  -0.13  -0.07     0.02   0.02  -0.00     0.03   0.06   0.03
    11   6     0.06   0.16   0.06    -0.03   0.06   0.01     0.01  -0.00  -0.01
    12   1    -0.03   0.13   0.21    -0.05  -0.03  -0.06    -0.06   0.03  -0.00
    13   1    -0.02   0.05  -0.08     0.06   0.18   0.35    -0.03   0.02  -0.13
    14   1     0.06  -0.16   0.13    -0.34   0.28   0.06     0.07  -0.03  -0.04
    15   1    -0.01   0.02  -0.01    -0.02   0.01   0.02     0.02  -0.02  -0.00
    16   1     0.00   0.03  -0.03    -0.02   0.00  -0.02     0.03  -0.01   0.02
    17   1     0.00   0.01  -0.01     0.07  -0.13  -0.31    -0.02   0.07   0.19
    18   1    -0.02  -0.02  -0.02     0.31  -0.19  -0.04    -0.17   0.08   0.03
    19   1     0.03   0.00  -0.06    -0.12  -0.09   0.04     0.11   0.04  -0.05
    20   1     0.02  -0.05  -0.04     0.01   0.09   0.07     0.04  -0.11  -0.05
    21   1     0.01  -0.00  -0.02    -0.01  -0.02   0.01     0.03  -0.03  -0.02
    22   1     0.01  -0.24  -0.05    -0.14   0.17   0.19    -0.24   0.33   0.33
    23   1    -0.17  -0.14  -0.14     0.27   0.14  -0.09     0.46   0.25  -0.06
    24   1    -0.06  -0.13  -0.08    -0.05  -0.24  -0.10    -0.10  -0.31  -0.13
    25   1    -0.23   0.48   0.11    -0.06   0.09   0.03    -0.13   0.18  -0.05
    26   1     0.02  -0.11  -0.06    -0.05   0.07   0.03    -0.04  -0.20  -0.08
    27   1     0.45   0.30   0.20     0.02   0.10  -0.03     0.19   0.04   0.11
                      7                      8                      9
                      A                      A                      A
 Frequencies --    259.9244               291.7511               299.1687
 Red. masses --      2.2397                 3.4620                 2.4229
 Frc consts  --      0.0892                 0.1736                 0.1278
 IR Inten    --      0.4464                 5.7227                 0.4930
  Atom  AN      X      Y      Z        X      Y      Z        X      Y      Z
     1   8     0.06  -0.07  -0.01     0.32   0.03   0.00    -0.04  -0.07  -0.00
     2   6     0.01  -0.05  -0.06     0.07   0.02  -0.01    -0.01  -0.02  -0.08
     3   6    -0.01  -0.03  -0.04     0.01  -0.02  -0.04     0.02   0.02  -0.10
     4   6    -0.14   0.14   0.04    -0.05   0.08   0.06     0.08  -0.05   0.12
     5   6     0.03  -0.10  -0.03    -0.02  -0.01  -0.02     0.02  -0.06  -0.07
     6   6    -0.08   0.02   0.04    -0.04   0.04   0.04     0.05   0.09  -0.05
     7   6    -0.05  -0.02   0.01     0.01   0.02   0.00    -0.01   0.10   0.11
     8   6    -0.01  -0.03  -0.03    -0.02   0.03   0.02     0.01  -0.02  -0.01
     9   6     0.02  -0.01  -0.03    -0.02   0.03   0.02    -0.02  -0.02  -0.06
    10   6     0.05   0.09   0.02    -0.12  -0.10   0.01    -0.11   0.08   0.08
    11   6     0.12   0.02   0.05    -0.13  -0.09  -0.09     0.01  -0.04  -0.04
    12   1    -0.32   0.24   0.19    -0.11   0.13   0.13     0.29   0.06   0.20
    13   1    -0.04   0.35  -0.10     0.02   0.20   0.04     0.08  -0.09   0.21
    14   1    -0.19   0.01   0.11    -0.15   0.02   0.11    -0.04  -0.19   0.22
    15   1     0.08  -0.15  -0.08    -0.04   0.01  -0.01    -0.01  -0.13  -0.12
    16   1     0.03  -0.15   0.05    -0.06  -0.03  -0.06     0.01  -0.10  -0.02
    17   1    -0.07   0.01   0.17    -0.02   0.04   0.19     0.03   0.05  -0.13
    18   1    -0.18   0.09   0.01    -0.15   0.12   0.00     0.18   0.17  -0.06
    19   1    -0.01  -0.01   0.03     0.05   0.06  -0.04    -0.08  -0.00   0.26
    20   1    -0.07  -0.02  -0.02     0.02  -0.05  -0.01    -0.02   0.27   0.17
    21   1    -0.02  -0.03  -0.02    -0.04   0.03   0.04     0.04  -0.10   0.04
    22   1     0.12   0.07  -0.18    -0.14  -0.15   0.21    -0.14   0.12   0.09
    23   1    -0.06  -0.01   0.15    -0.10  -0.04  -0.10    -0.06   0.03   0.24
    24   1     0.12   0.29   0.11    -0.24  -0.24  -0.09    -0.19   0.20   0.05
    25   1     0.17  -0.10   0.19    -0.16   0.05  -0.33    -0.08   0.09  -0.08
    26   1     0.24   0.18   0.05    -0.26  -0.34  -0.12    -0.02  -0.19  -0.10
    27   1     0.05   0.01  -0.01    -0.09  -0.13   0.06     0.14  -0.02   0.08
                     10                     11                     12
                      A                      A                      A
 Frequencies --    327.3562               371.9281               423.3344
 Red. masses --      2.3211                 2.1886                 2.9566
 Frc consts  --      0.1466                 0.1784                 0.3122
 IR Inten    --      0.1869                 0.3402                 0.7388
  Atom  AN      X      Y      Z        X      Y      Z        X      Y      Z
     1   8     0.01   0.01  -0.01    -0.00  -0.05  -0.03    -0.03  -0.03  -0.04
     2   6    -0.01   0.01  -0.01     0.00  -0.05  -0.02     0.04  -0.05   0.01
     3   6    -0.05   0.03  -0.11     0.04  -0.04   0.03     0.05   0.04  -0.06
     4   6     0.01  -0.05   0.12     0.01  -0.00  -0.01     0.07   0.06  -0.02
     5   6    -0.13  -0.01  -0.08     0.03   0.00   0.01     0.07   0.06  -0.07
     6   6    -0.02   0.09  -0.05     0.05  -0.01   0.06    -0.10   0.03  -0.03
     7   6     0.11  -0.03  -0.04     0.13  -0.05  -0.04    -0.14   0.04  -0.02
     8   6    -0.04  -0.04   0.06     0.04  -0.03  -0.01     0.04   0.00  -0.09
     9   6    -0.01  -0.02   0.07    -0.02  -0.02  -0.03     0.07  -0.11   0.11
    10   6     0.14  -0.01  -0.03    -0.12   0.05   0.09     0.10  -0.12   0.15
    11   6    -0.05   0.03   0.05    -0.11   0.15  -0.05    -0.12   0.04   0.05
    12   1     0.23   0.05   0.18    -0.04  -0.02  -0.02     0.06   0.07  -0.01
    13   1     0.02  -0.09   0.24     0.02   0.02  -0.03     0.09   0.09  -0.02
    14   1    -0.14  -0.17   0.21     0.03   0.02  -0.03     0.04   0.05  -0.01
    15   1    -0.21  -0.04  -0.07     0.01   0.05   0.06     0.08   0.06  -0.07
    16   1    -0.14   0.00  -0.13     0.02   0.03  -0.05     0.07   0.06  -0.06
    17   1     0.04   0.19   0.08     0.08   0.04   0.19    -0.13  -0.06   0.05
    18   1    -0.14   0.16  -0.08    -0.10   0.01   0.04    -0.14   0.08  -0.05
    19   1     0.22   0.07  -0.16     0.21   0.03  -0.15    -0.19  -0.09   0.22
    20   1     0.20  -0.19  -0.03     0.15  -0.18  -0.07    -0.29   0.30  -0.05
    21   1    -0.10  -0.05   0.12     0.08  -0.07  -0.01     0.04   0.07  -0.15
    22   1     0.12   0.05  -0.10    -0.10   0.02   0.07     0.12  -0.14   0.15
    23   1     0.18   0.04  -0.10    -0.17  -0.05   0.28     0.09  -0.12   0.12
    24   1     0.24  -0.09   0.03    -0.22   0.26   0.07     0.10  -0.14   0.15
    25   1     0.05  -0.11   0.09    -0.02   0.02   0.02    -0.14   0.10  -0.01
    26   1    -0.03   0.19   0.13    -0.18   0.41   0.13    -0.33   0.12   0.23
    27   1    -0.19   0.01  -0.08    -0.24   0.20  -0.35    -0.09   0.14  -0.19
                     13                     14                     15
                      A                      A                      A
 Frequencies --    448.7133               510.0125               522.2954
 Red. masses --      2.1382                 3.1827                 3.2305
 Frc consts  --      0.2537                 0.4878                 0.5192
 IR Inten    --      0.4235                 2.3138                 2.2615
  Atom  AN      X      Y      Z        X      Y      Z        X      Y      Z
     1   8     0.04  -0.08  -0.05     0.10  -0.07  -0.05    -0.12  -0.09  -0.04
     2   6     0.01  -0.09  -0.00    -0.08  -0.09  -0.00     0.06  -0.07  -0.02
     3   6     0.02  -0.05   0.04    -0.02   0.00   0.04     0.19  -0.07  -0.03
     4   6    -0.02  -0.02  -0.00    -0.00  -0.04  -0.01     0.17   0.12  -0.01
     5   6    -0.11   0.18  -0.03     0.13   0.02   0.04    -0.06  -0.05  -0.00
     6   6     0.01   0.01   0.08     0.05   0.07  -0.00     0.05  -0.05   0.06
     7   6    -0.00   0.06   0.09     0.03   0.11  -0.05    -0.03   0.06  -0.04
     8   6     0.02  -0.02  -0.01     0.00   0.06  -0.07    -0.13   0.12   0.08
     9   6    -0.01  -0.05  -0.05    -0.19  -0.05   0.02    -0.03   0.08   0.03
    10   6     0.02   0.02  -0.04    -0.03   0.04  -0.09    -0.02   0.01  -0.05
    11   6     0.05  -0.01  -0.01    -0.11  -0.04   0.20    -0.03  -0.03   0.04
    12   1    -0.07  -0.05  -0.02     0.05  -0.07  -0.05     0.04   0.14   0.04
    13   1    -0.02  -0.01  -0.01    -0.08  -0.15  -0.02     0.29   0.31  -0.01
    14   1    -0.00   0.01  -0.02     0.09  -0.02  -0.04     0.06   0.11   0.02
    15   1    -0.34   0.43   0.25     0.37  -0.00  -0.06     0.00   0.00   0.02
    16   1    -0.13   0.38  -0.44     0.12  -0.09   0.22    -0.28  -0.22  -0.09
    17   1    -0.00  -0.04   0.16     0.05   0.06  -0.05     0.01  -0.19   0.30
    18   1    -0.02   0.10   0.05     0.09   0.04   0.01    -0.12   0.05   0.02
    19   1    -0.02  -0.00   0.20     0.04   0.12  -0.04    -0.04   0.17  -0.27
    20   1    -0.07   0.15   0.06     0.02   0.10  -0.06     0.07  -0.14  -0.03
    21   1     0.07  -0.08   0.00     0.13  -0.00  -0.14    -0.16   0.11   0.12
    22   1     0.01   0.05  -0.10    -0.05   0.16  -0.27     0.03  -0.07  -0.04
    23   1     0.04   0.00   0.00     0.03   0.11  -0.20    -0.09   0.04  -0.19
    24   1     0.04   0.06  -0.02     0.20  -0.06   0.02     0.03  -0.09  -0.05
    25   1     0.01  -0.00   0.08    -0.17  -0.06   0.40     0.03  -0.07  -0.05
    26   1     0.10   0.01  -0.03     0.04   0.02   0.14     0.01  -0.11  -0.02
    27   1     0.10   0.01   0.01    -0.04  -0.01   0.22    -0.10  -0.11   0.16
                     16                     17                     18
                      A                      A                      A
 Frequencies --    596.5375               660.3481               720.5737
 Red. masses --      3.7203                 3.4502                 4.7020
 Frc consts  --      0.7800                 0.8864                 1.4384
 IR Inten    --      0.7180                 1.6653                 0.6344
  Atom  AN      X      Y      Z        X      Y      Z        X      Y      Z
     1   8     0.06   0.04   0.04     0.07  -0.12  -0.07     0.01   0.18   0.03
     2   6    -0.00   0.07  -0.03     0.01  -0.12  -0.01     0.02  -0.01   0.31
     3   6     0.04   0.13  -0.01    -0.06   0.14   0.10     0.05  -0.06   0.08
     4   6     0.22   0.17  -0.02     0.06   0.06   0.01     0.06   0.03   0.01
     5   6    -0.03   0.02   0.05    -0.08   0.02   0.20    -0.14  -0.15  -0.08
     6   6    -0.08  -0.05  -0.03    -0.04   0.11  -0.05     0.09   0.04   0.05
     7   6    -0.05  -0.20   0.05    -0.05   0.06  -0.06     0.01   0.16  -0.09
     8   6     0.01  -0.18   0.02    -0.14   0.01   0.05    -0.09  -0.09  -0.17
     9   6    -0.10  -0.09  -0.05     0.02  -0.07  -0.04    -0.04  -0.16  -0.09
    10   6    -0.06   0.06  -0.09     0.05  -0.06   0.06    -0.01  -0.03  -0.01
    11   6    -0.05  -0.03   0.06     0.09   0.02  -0.12     0.04  -0.02  -0.06
    12   1     0.26   0.17  -0.03     0.18   0.02  -0.06    -0.01   0.01   0.01
    13   1     0.19   0.13  -0.02    -0.09  -0.16  -0.01     0.11   0.10   0.02
    14   1     0.26   0.17  -0.02     0.24   0.08  -0.04     0.03   0.06   0.01
    15   1    -0.25  -0.04   0.07     0.02  -0.09   0.08    -0.01  -0.16  -0.13
    16   1     0.06   0.16  -0.04    -0.04  -0.03   0.37    -0.18  -0.23   0.01
    17   1    -0.07  -0.03  -0.06    -0.07   0.11  -0.36     0.05  -0.07   0.19
    18   1    -0.07  -0.12  -0.01     0.18  -0.08   0.03    -0.03   0.04   0.04
    19   1    -0.03  -0.23   0.14     0.08   0.22  -0.26     0.03   0.11   0.05
    20   1    -0.05  -0.11   0.08     0.10  -0.20  -0.03    -0.04   0.23  -0.11
    21   1     0.12  -0.16  -0.10    -0.09   0.03  -0.02    -0.05  -0.23  -0.08
    22   1    -0.14   0.24  -0.22     0.03  -0.04   0.09    -0.07   0.07  -0.05
    23   1     0.06   0.06   0.03     0.07  -0.09   0.16     0.06  -0.05   0.10
    24   1     0.01   0.14  -0.03    -0.02   0.02   0.04    -0.03   0.05  -0.01
    25   1    -0.10  -0.04   0.24     0.07   0.02  -0.08    -0.13   0.04   0.30
    26   1     0.06   0.04   0.02     0.08   0.07  -0.10     0.11   0.18  -0.01
    27   1     0.02   0.00   0.07     0.11   0.06  -0.19     0.26   0.16  -0.23
                     19                     20                     21
                      A                      A                      A
 Frequencies --    786.1475               834.0019               838.5540
 Red. masses --      2.9901                 1.7929                 2.6857
 Frc consts  --      1.0888                 0.7347                 1.1127
 IR Inten    --      0.2366                 2.8591                 3.6779
  Atom  AN      X      Y      Z        X      Y      Z        X      Y      Z
     1   8    -0.02  -0.02  -0.08    -0.01  -0.02  -0.01    -0.04   0.04   0.02
     2   6     0.04  -0.18   0.25     0.05  -0.03   0.02     0.13   0.04   0.02
     3   6    -0.02   0.03  -0.03    -0.02   0.02   0.07     0.11  -0.12  -0.02
     4   6     0.00   0.01  -0.00     0.02   0.02   0.02    -0.03  -0.10  -0.01
     5   6     0.03   0.03   0.00    -0.01  -0.07  -0.09     0.05   0.01   0.16
     6   6    -0.04   0.05  -0.13    -0.04   0.06   0.08    -0.07   0.14  -0.15
     7   6     0.02  -0.10   0.02    -0.02   0.01   0.01    -0.05   0.02  -0.00
     8   6     0.01  -0.02   0.01     0.02  -0.09  -0.08    -0.03  -0.07   0.01
     9   6     0.05   0.09   0.06     0.06   0.08   0.03     0.02  -0.04  -0.02
    10   6    -0.07   0.09  -0.08    -0.01   0.05  -0.03    -0.02   0.01  -0.04
    11   6     0.03   0.02  -0.01    -0.03   0.01   0.07    -0.03  -0.02   0.03
    12   1     0.09   0.01  -0.02    -0.03  -0.04  -0.04    -0.35  -0.07   0.08
    13   1    -0.06  -0.09   0.02    -0.04  -0.03  -0.04     0.22   0.29  -0.00
    14   1     0.04  -0.01  -0.00     0.14   0.09  -0.04    -0.31  -0.05   0.03
    15   1     0.04  -0.10  -0.11    -0.11   0.00   0.00    -0.01   0.18   0.32
    16   1     0.15   0.05   0.18     0.08   0.07  -0.19     0.02   0.10  -0.05
    17   1     0.05   0.17   0.23    -0.14  -0.04  -0.43    -0.14   0.00  -0.20
    18   1    -0.34   0.18  -0.20     0.43  -0.09   0.17     0.10   0.25  -0.17
    19   1    -0.10  -0.24   0.20     0.30   0.16   0.01     0.19   0.16  -0.07
    20   1     0.06   0.18   0.16    -0.10  -0.24  -0.16     0.10  -0.18   0.03
    21   1    -0.04   0.07  -0.02    -0.06  -0.10  -0.01     0.10  -0.02  -0.15
    22   1     0.05  -0.17   0.11     0.08  -0.14   0.09    -0.05   0.05  -0.04
    23   1    -0.26   0.08  -0.24    -0.16   0.05  -0.17     0.00  -0.01   0.03
    24   1    -0.17  -0.02  -0.17    -0.08  -0.03  -0.09    -0.06   0.07  -0.06
    25   1     0.09  -0.02  -0.08     0.06  -0.01  -0.12    -0.05  -0.01   0.06
    26   1     0.04  -0.03  -0.04    -0.10  -0.08   0.07    -0.05   0.00   0.06
    27   1    -0.04  -0.04   0.08    -0.15  -0.06   0.12    -0.01   0.01  -0.01
                     22                     23                     24
                      A                      A                      A
 Frequencies --    846.8169               895.7723               901.1927
 Red. masses --      2.2084                 2.6551                 2.1432
 Frc consts  --      0.9330                 1.2553                 1.0255
 IR Inten    --      0.1486                 0.1473                 0.7392
  Atom  AN      X      Y      Z        X      Y      Z        X      Y      Z
     1   8    -0.01  -0.03   0.01    -0.01  -0.02  -0.01    -0.01  -0.01  -0.01
     2   6     0.05   0.05  -0.13     0.06  -0.00  -0.02     0.05  -0.02   0.02
     3   6     0.01  -0.00   0.10    -0.00   0.04   0.05    -0.02   0.05  -0.13
     4   6    -0.00  -0.00   0.02    -0.03  -0.00   0.03    -0.05  -0.01  -0.07
     5   6    -0.10  -0.05   0.10    -0.05  -0.06   0.01    -0.09  -0.00   0.13
     6   6     0.07   0.04  -0.02    -0.10  -0.07  -0.07     0.09  -0.01   0.12
     7   6     0.06  -0.01  -0.09     0.04   0.17  -0.10    -0.05  -0.03  -0.03
     8   6    -0.06  -0.08  -0.13     0.16   0.02   0.14     0.09   0.05  -0.05
     9   6     0.03   0.06   0.01     0.09  -0.04  -0.00     0.05  -0.02   0.01
    10   6     0.01   0.01   0.01    -0.03   0.03  -0.09    -0.02   0.03  -0.04
    11   6    -0.01   0.01   0.05    -0.02  -0.04   0.07    -0.01  -0.02   0.03
    12   1    -0.08  -0.05  -0.01    -0.08  -0.08  -0.05     0.30   0.22   0.12
    13   1    -0.01   0.00  -0.02    -0.10  -0.07  -0.05     0.01  -0.05   0.16
    14   1     0.06   0.06  -0.02     0.11   0.08  -0.04    -0.34  -0.31   0.13
    15   1    -0.02   0.02   0.13    -0.34  -0.21  -0.02    -0.19  -0.15   0.04
    16   1    -0.10  -0.03   0.08    -0.01  -0.01  -0.01    -0.10  -0.03   0.19
    17   1     0.18   0.24   0.17    -0.09  -0.07   0.00     0.06  -0.05   0.01
    18   1    -0.24  -0.08  -0.01    -0.26  -0.26  -0.03     0.19   0.05   0.12
    19   1    -0.16  -0.31   0.32    -0.15   0.09  -0.12    -0.01  -0.01  -0.04
    20   1     0.01   0.50   0.06    -0.03   0.29  -0.12    -0.23  -0.07  -0.19
    21   1    -0.04  -0.00  -0.21     0.17  -0.16   0.31     0.24   0.15  -0.30
    22   1     0.06  -0.07   0.03    -0.10   0.09  -0.02     0.00  -0.03   0.03
    23   1    -0.05   0.02  -0.08     0.04  -0.03   0.11    -0.06   0.01  -0.04
    24   1     0.03  -0.04   0.01    -0.18   0.19  -0.15    -0.10   0.05  -0.09
    25   1     0.08  -0.01  -0.17    -0.06   0.03   0.02    -0.04   0.02   0.03
    26   1    -0.11  -0.11   0.05    -0.17  -0.01   0.18    -0.09   0.01   0.10
    27   1    -0.15  -0.09   0.13     0.02   0.03  -0.06     0.03   0.03  -0.06
                     25                     26                     27
                      A                      A                      A
 Frequencies --    942.6988               956.4181               968.9291
 Red. masses --      2.4681                 1.9219                 1.5568
 Frc consts  --      1.2923                 1.0358                 0.8611
 IR Inten    --     11.9640                 5.1175                 0.3480
  Atom  AN      X      Y      Z        X      Y      Z        X      Y      Z
     1   8    -0.02  -0.00   0.01     0.01  -0.01  -0.00     0.00  -0.00   0.00
     2   6     0.17   0.03  -0.04    -0.05  -0.00  -0.00    -0.02  -0.00  -0.00
     3   6    -0.00   0.05   0.02     0.02  -0.03   0.06    -0.00  -0.01  -0.02
     4   6    -0.05  -0.02   0.02     0.02  -0.01   0.06     0.02  -0.00  -0.02
     5   6    -0.00   0.10  -0.09    -0.06  -0.06  -0.03    -0.01   0.01   0.02
     6   6     0.02  -0.01   0.06    -0.00   0.10  -0.03    -0.06  -0.03   0.01
     7   6     0.01  -0.06   0.05    -0.02  -0.13   0.02     0.06   0.04   0.00
     8   6    -0.15   0.04  -0.00     0.10   0.15   0.01     0.00  -0.02  -0.01
     9   6     0.10  -0.10  -0.01     0.01  -0.03   0.02    -0.02  -0.03   0.10
    10   6    -0.04   0.01  -0.10    -0.03  -0.00  -0.02    -0.10   0.04   0.02
    11   6     0.00  -0.07   0.06     0.02  -0.03  -0.01     0.11  -0.01  -0.04
    12   1    -0.07  -0.06  -0.02    -0.23  -0.17  -0.07    -0.00   0.05   0.04
    13   1    -0.10  -0.07  -0.02    -0.01   0.04  -0.12     0.10   0.10   0.02
    14   1     0.02   0.02  -0.02     0.22   0.21  -0.09    -0.10  -0.04   0.02
    15   1     0.37   0.04  -0.26    -0.12  -0.07  -0.02     0.10   0.03   0.00
    16   1     0.06  -0.03   0.27    -0.36  -0.29  -0.16    -0.02  -0.01   0.06
    17   1     0.07   0.11  -0.01     0.04   0.21  -0.14    -0.08  -0.07  -0.10
    18   1     0.04  -0.03   0.06     0.13   0.14  -0.02     0.02  -0.11   0.04
    19   1    -0.01  -0.06   0.03     0.00  -0.14   0.07     0.10   0.02   0.09
    20   1     0.08  -0.04   0.12    -0.13  -0.04  -0.04     0.02   0.07  -0.02
    21   1    -0.34   0.08   0.13     0.09   0.38  -0.20     0.02  -0.08   0.02
    22   1    -0.12   0.13  -0.09    -0.06   0.08  -0.09    -0.04   0.10  -0.33
    23   1     0.05  -0.04   0.12     0.05   0.02   0.01    -0.07   0.19  -0.34
    24   1    -0.14   0.17  -0.13     0.04   0.02   0.02     0.34  -0.23   0.23
    25   1    -0.11   0.07   0.04    -0.07   0.06   0.04     0.09   0.12  -0.30
    26   1    -0.26   0.03   0.28    -0.08   0.06   0.10    -0.26  -0.01   0.20
    27   1     0.10   0.09  -0.24     0.13   0.08  -0.19     0.06   0.08  -0.32
                     28                     29                     30
                      A                      A                      A
 Frequencies --    973.7283              1014.8476              1024.6243
 Red. masses --      2.0359                 1.5470                 1.4395
 Frc consts  --      1.1373                 0.9387                 0.8904
 IR Inten    --      6.6687                13.0839                 2.4079
  Atom  AN      X      Y      Z        X      Y      Z        X      Y      Z
     1   8     0.01   0.01   0.01    -0.02  -0.01  -0.00    -0.01   0.00   0.01
     2   6    -0.06   0.01  -0.01     0.10   0.00   0.01     0.04   0.02  -0.03
     3   6     0.00   0.00   0.02     0.03   0.02   0.01     0.01   0.02   0.01
     4   6    -0.03   0.03   0.00    -0.03  -0.02   0.05    -0.04   0.03   0.04
     5   6     0.10  -0.06  -0.00    -0.05   0.06  -0.04    -0.00  -0.02   0.02
     6   6     0.14   0.08   0.00     0.06   0.01  -0.01     0.02  -0.06  -0.06
     7   6    -0.14  -0.02  -0.09    -0.07  -0.01  -0.00    -0.02   0.03   0.09
     8   6    -0.03  -0.07   0.06     0.04  -0.04   0.02    -0.01   0.01  -0.06
     9   6     0.04  -0.03   0.04    -0.05   0.02  -0.00     0.00   0.00  -0.03
    10   6    -0.04   0.02  -0.02    -0.04  -0.05   0.03     0.02   0.05   0.05
    11   6     0.05  -0.02   0.02     0.01   0.06  -0.00    -0.01  -0.06   0.01
    12   1     0.16   0.03  -0.03    -0.16  -0.14  -0.06     0.03  -0.07  -0.08
    13   1    -0.15  -0.18   0.03    -0.10  -0.06  -0.07    -0.20  -0.18  -0.04
    14   1     0.09  -0.04   0.01     0.12   0.11  -0.05     0.19   0.07  -0.03
    15   1    -0.17   0.14   0.25    -0.10  -0.27  -0.30    -0.21  -0.11   0.00
    16   1     0.20   0.21  -0.35     0.08   0.02   0.25     0.02   0.04  -0.05
    17   1     0.16   0.07   0.21     0.04  -0.09   0.15     0.01  -0.13   0.20
    18   1    -0.05   0.17  -0.04     0.02   0.24  -0.08    -0.15   0.10  -0.12
    19   1    -0.26  -0.01  -0.24    -0.01   0.07  -0.10     0.06   0.18  -0.15
    20   1    -0.10  -0.05  -0.07    -0.13  -0.15  -0.10     0.24  -0.22   0.20
    21   1    -0.22  -0.01   0.19     0.23  -0.14  -0.08     0.18   0.01  -0.25
    22   1    -0.04   0.07  -0.11    -0.12   0.19  -0.25     0.16  -0.19   0.09
    23   1     0.00   0.05  -0.06     0.14   0.02   0.02    -0.19   0.10  -0.26
    24   1     0.05  -0.01   0.02     0.21  -0.04   0.19     0.04  -0.17   0.02
    25   1     0.03   0.08  -0.16     0.16  -0.04  -0.20    -0.15   0.05   0.15
    26   1    -0.20  -0.02   0.18     0.03  -0.10  -0.10    -0.07   0.09   0.12
    27   1     0.03   0.05  -0.18    -0.19  -0.10   0.18     0.15   0.10  -0.20
                     31                     32                     33
                      A                      A                      A
 Frequencies --   1039.2359              1048.9368              1100.2508
 Red. masses --      1.8356                 1.5008                 1.3204
 Frc consts  --      1.1681                 0.9729                 0.9418
 IR Inten    --     28.8663                 9.7018                 0.8644
  Atom  AN      X      Y      Z        X      Y      Z        X      Y      Z
     1   8    -0.03  -0.02  -0.01     0.02  -0.01   0.00     0.00  -0.01  -0.01
     2   6     0.17   0.01  -0.01    -0.09   0.01  -0.05     0.00  -0.02   0.03
     3   6     0.02   0.04  -0.00    -0.02  -0.01   0.01    -0.05   0.04   0.02
     4   6    -0.04  -0.02   0.00     0.06  -0.06   0.01     0.06  -0.06  -0.02
     5   6     0.03  -0.03  -0.02    -0.05   0.08  -0.01     0.01  -0.05  -0.02
     6   6    -0.01   0.04   0.05     0.05   0.02   0.01     0.01  -0.01   0.02
     7   6     0.00  -0.03  -0.07    -0.04  -0.01  -0.03    -0.01   0.01   0.03
     8   6     0.01   0.01   0.06     0.03  -0.05   0.03    -0.01   0.05  -0.04
     9   6    -0.07   0.02   0.02     0.01  -0.01   0.01     0.00   0.04  -0.05
    10   6    -0.03   0.02   0.06     0.03   0.08   0.01    -0.01  -0.04   0.01
    11   6    -0.05  -0.04  -0.10    -0.00  -0.04  -0.01    -0.00  -0.01   0.03
    12   1    -0.03  -0.01   0.00    -0.30  -0.09   0.04    -0.19   0.00   0.08
    13   1    -0.06  -0.04   0.01     0.26   0.29  -0.07     0.27   0.27  -0.00
    14   1    -0.05  -0.04   0.01    -0.09   0.12  -0.04    -0.20   0.02  -0.00
    15   1    -0.06   0.03   0.06     0.04  -0.15  -0.22    -0.35  -0.19  -0.02
    16   1     0.07   0.07  -0.13     0.14   0.08   0.32     0.36   0.30  -0.02
    17   1     0.06   0.25  -0.17     0.05   0.01   0.06     0.11   0.25  -0.04
    18   1     0.04  -0.19   0.13     0.05   0.14  -0.03    -0.08  -0.17   0.06
    19   1    -0.17  -0.15   0.01    -0.08  -0.01  -0.08    -0.13   0.04  -0.15
    20   1    -0.09   0.17  -0.06    -0.17  -0.03  -0.15     0.22  -0.03   0.20
    21   1    -0.01  -0.07   0.15    -0.02  -0.17   0.19    -0.09   0.19  -0.09
    22   1     0.07  -0.06  -0.07     0.18  -0.23   0.22    -0.06   0.09  -0.11
    23   1    -0.12   0.12  -0.24    -0.22   0.06  -0.17     0.11  -0.01   0.05
    24   1     0.17  -0.20   0.13    -0.11  -0.08  -0.11     0.09   0.01   0.08
    25   1    -0.20  -0.06   0.41    -0.10   0.02   0.12    -0.01   0.02  -0.03
    26   1     0.30   0.17  -0.21     0.00   0.07   0.04    -0.07  -0.01   0.07
    27   1     0.21   0.06  -0.02     0.12   0.06  -0.12    -0.02   0.01  -0.03
                     34                     35                     36
                      A                      A                      A
 Frequencies --   1134.8976              1141.2711              1187.6867
 Red. masses --      1.2008                 2.0072                 2.1232
 Frc consts  --      0.9113                 1.5404                 1.7646
 IR Inten    --      4.2031                 2.4875                 1.5209
  Atom  AN      X      Y      Z        X      Y      Z        X      Y      Z
     1   8     0.00   0.01   0.00     0.01   0.01   0.00     0.01  -0.01   0.00
     2   6     0.01  -0.01   0.02    -0.04   0.00  -0.01    -0.04   0.02  -0.04
     3   6    -0.00   0.04  -0.01     0.05   0.07  -0.10     0.10   0.03   0.20
     4   6     0.00  -0.02  -0.00    -0.02  -0.05   0.07    -0.04  -0.02  -0.11
     5   6     0.03   0.02  -0.03     0.08   0.02   0.02    -0.01   0.03  -0.08
     6   6    -0.00   0.02   0.02     0.01  -0.02   0.07     0.02   0.08  -0.05
     7   6    -0.03  -0.00   0.02     0.02   0.04  -0.06    -0.06  -0.01  -0.00
     8   6    -0.02  -0.01   0.02    -0.08  -0.04   0.02     0.04  -0.03   0.02
     9   6    -0.02  -0.06  -0.03    -0.01  -0.09   0.14     0.03  -0.06   0.05
    10   6     0.02   0.03   0.01     0.00   0.03  -0.05    -0.02   0.03  -0.00
    11   6     0.03   0.03   0.03     0.01   0.04  -0.05    -0.02   0.02  -0.02
    12   1    -0.07  -0.01   0.02    -0.28  -0.21  -0.06     0.16   0.21   0.13
    13   1     0.04   0.05  -0.02    -0.04   0.02  -0.14     0.06  -0.03   0.22
    14   1    -0.06   0.00  -0.00     0.09   0.16  -0.06    -0.32  -0.31   0.10
    15   1     0.12   0.09  -0.00    -0.34  -0.22  -0.05    -0.08  -0.18  -0.24
    16   1    -0.29  -0.24  -0.14    -0.00   0.01  -0.12    -0.10  -0.12   0.01
    17   1     0.12   0.31  -0.10    -0.08  -0.21   0.00    -0.11  -0.24   0.09
    18   1    -0.09  -0.26   0.10     0.07  -0.09   0.10    -0.14  -0.28   0.05
    19   1    -0.28  -0.00  -0.25     0.06  -0.03   0.14     0.12   0.05   0.06
    20   1     0.13  -0.05   0.13     0.17   0.14   0.11     0.23  -0.06   0.22
    21   1     0.40  -0.28  -0.13    -0.04   0.33  -0.38    -0.08   0.22  -0.09
    22   1     0.09  -0.11   0.10    -0.01  -0.01   0.07     0.02  -0.02  -0.02
    23   1    -0.10   0.01  -0.05    -0.05  -0.02   0.02    -0.06   0.05  -0.09
    24   1    -0.06  -0.05  -0.06    -0.14   0.09  -0.13     0.01  -0.04  -0.00
    25   1     0.12   0.00  -0.19     0.09  -0.06  -0.03     0.03  -0.06   0.05
    26   1    -0.09  -0.10   0.03     0.14  -0.01  -0.16     0.12  -0.01  -0.12
    27   1    -0.13  -0.05   0.04    -0.01  -0.02   0.08    -0.01  -0.02   0.09
                     37                     38                     39
                      A                      A                      A
 Frequencies --   1199.6045              1227.4502              1248.1917
 Red. masses --      2.3767                 2.0128                 1.9141
 Frc consts  --      2.0151                 1.7867                 1.7570
 IR Inten    --      2.6639                 0.1651                 3.3310
  Atom  AN      X      Y      Z        X      Y      Z        X      Y      Z
     1   8    -0.00  -0.01   0.00     0.01  -0.00  -0.01    -0.00  -0.02  -0.01
     2   6     0.03   0.02  -0.04    -0.04  -0.02   0.03     0.00  -0.01   0.00
     3   6    -0.10   0.00   0.01     0.06   0.20  -0.04     0.03   0.08   0.00
     4   6     0.04   0.00   0.01    -0.02  -0.08   0.02    -0.01  -0.04  -0.00
     5   6    -0.04  -0.05   0.01     0.02  -0.01   0.05     0.01   0.00  -0.01
     6   6     0.04  -0.07  -0.05     0.03  -0.02  -0.03     0.05  -0.00  -0.04
     7   6    -0.05   0.06   0.10     0.01  -0.01   0.04    -0.05   0.01   0.02
     8   6     0.06   0.01  -0.09     0.00   0.01  -0.04    -0.01  -0.06   0.00
     9   6     0.07  -0.10   0.20     0.07  -0.03  -0.13    -0.09   0.17   0.08
    10   6    -0.04   0.02  -0.05    -0.03   0.01   0.05     0.04  -0.06  -0.04
    11   6    -0.04   0.05  -0.07    -0.03   0.02   0.03     0.04  -0.08  -0.02
    12   1    -0.02   0.01   0.02    -0.27  -0.11   0.03    -0.11  -0.03   0.03
    13   1     0.09   0.10  -0.03     0.02   0.04  -0.07     0.03   0.03  -0.01
    14   1     0.02   0.08  -0.02    -0.14   0.04  -0.01    -0.10  -0.01   0.00
    15   1     0.25   0.26   0.19     0.02   0.07   0.12     0.11   0.06  -0.00
    16   1     0.01   0.01  -0.01    -0.29  -0.19  -0.18    -0.13  -0.10  -0.09
    17   1     0.25   0.36   0.08     0.00  -0.13   0.13     0.10   0.07   0.10
    18   1    -0.21  -0.01  -0.10    -0.13  -0.13  -0.02    -0.24  -0.35   0.04
    19   1     0.03   0.21  -0.15     0.17   0.03   0.11     0.32   0.10   0.21
    20   1    -0.12  -0.25  -0.08    -0.27  -0.10  -0.22    -0.15  -0.14  -0.12
    21   1    -0.06  -0.01   0.06    -0.39   0.03   0.31     0.17  -0.14  -0.10
    22   1    -0.09   0.09  -0.08     0.05  -0.03  -0.12    -0.11   0.10   0.11
    23   1    -0.00   0.01  -0.01    -0.01   0.09  -0.13     0.12  -0.13   0.24
    24   1    -0.05   0.07  -0.05     0.14  -0.15   0.12    -0.08   0.21  -0.05
    25   1     0.06  -0.13   0.11     0.02  -0.04   0.02    -0.14   0.13   0.02
    26   1     0.28   0.02  -0.29    -0.00  -0.06  -0.02    -0.07   0.14   0.16
    27   1     0.01  -0.03   0.21    -0.09  -0.04   0.12     0.17   0.08  -0.25
                     40                     41                     42
                      A                      A                      A
 Frequencies --   1257.1288              1277.9273              1286.6671
 Red. masses --      2.2426                 1.5188                 1.4542
 Frc consts  --      2.0882                 1.4613                 1.4184
 IR Inten    --      2.4972                 0.6515                 0.7513
  Atom  AN      X      Y      Z        X      Y      Z        X      Y      Z
     1   8     0.01  -0.00  -0.01    -0.00   0.01   0.00     0.00  -0.01  -0.00
     2   6    -0.07  -0.02   0.02     0.01   0.00   0.00    -0.02  -0.00  -0.01
     3   6    -0.02  -0.04  -0.08    -0.04  -0.10   0.01     0.02   0.04   0.06
     4   6     0.01   0.01   0.03     0.01   0.03  -0.02    -0.01  -0.01  -0.03
     5   6    -0.03   0.06   0.01     0.08   0.08   0.01     0.07   0.04   0.04
     6   6     0.01   0.04   0.05     0.00  -0.07  -0.00    -0.05  -0.06   0.02
     7   6    -0.05   0.03  -0.03    -0.03   0.05  -0.02     0.01  -0.01  -0.01
     8   6     0.04  -0.12   0.01    -0.03  -0.05   0.06    -0.02   0.01  -0.10
     9   6     0.19   0.12  -0.02     0.04  -0.01  -0.06     0.02   0.05   0.07
    10   6    -0.07  -0.04   0.01    -0.01   0.01   0.02    -0.01  -0.03  -0.02
    11   6    -0.07  -0.04  -0.01    -0.01  -0.00   0.01    -0.01  -0.02  -0.02
    12   1    -0.02  -0.07  -0.05     0.13   0.05  -0.01    -0.01   0.04   0.04
    13   1    -0.02   0.01  -0.08     0.02   0.01   0.03     0.02  -0.00   0.05
    14   1     0.11   0.08  -0.03     0.04  -0.03   0.01    -0.10  -0.05   0.01
    15   1     0.25   0.10  -0.04    -0.27  -0.24  -0.15    -0.29  -0.22  -0.08
    16   1    -0.22  -0.16   0.09    -0.19  -0.16  -0.03    -0.29  -0.22  -0.14
    17   1    -0.05  -0.08  -0.04     0.26   0.53  -0.10     0.03   0.12  -0.05
    18   1    -0.01  -0.20   0.12    -0.09  -0.01  -0.04     0.22   0.47  -0.11
    19   1    -0.19   0.03  -0.19     0.36   0.11   0.26    -0.17  -0.07  -0.10
    20   1     0.36   0.02   0.29    -0.17  -0.02  -0.16     0.15   0.03   0.12
    21   1     0.04   0.06  -0.15    -0.09   0.20  -0.12    -0.03  -0.38   0.28
    22   1    -0.10   0.13  -0.22     0.03  -0.02  -0.04    -0.07   0.07  -0.02
    23   1     0.16   0.07  -0.04    -0.01   0.04  -0.07     0.07  -0.02   0.05
    24   1     0.19   0.00   0.18     0.04  -0.06   0.04    -0.00   0.09   0.01
    25   1    -0.14  -0.05   0.26    -0.01  -0.01   0.03    -0.04   0.00   0.05
    26   1     0.09   0.12  -0.02    -0.02  -0.01   0.01     0.04   0.06  -0.01
    27   1     0.14   0.04   0.07    -0.02  -0.02   0.04     0.07   0.03  -0.03
                     43                     44                     45
                      A                      A                      A
 Frequencies --   1303.9332              1333.9646              1359.8950
 Red. masses --      1.8519                 1.6798                 1.5676
 Frc consts  --      1.8551                 1.7611                 1.7080
 IR Inten    --      1.6602                 3.9965                 3.0743
  Atom  AN      X      Y      Z        X      Y      Z        X      Y      Z
     1   8     0.00   0.01   0.01    -0.01  -0.00  -0.00    -0.00  -0.00  -0.00
     2   6    -0.04   0.00   0.00     0.04   0.00   0.01     0.03  -0.00   0.00
     3   6     0.15  -0.09  -0.08    -0.03   0.02  -0.03     0.03   0.03   0.02
     4   6    -0.04   0.04   0.03     0.01  -0.01   0.02    -0.01  -0.00  -0.01
     5   6    -0.02   0.05   0.06    -0.03  -0.01   0.01    -0.02   0.01  -0.00
     6   6    -0.02   0.06   0.00     0.01  -0.04   0.04    -0.04  -0.04   0.01
     7   6    -0.01  -0.01   0.05    -0.13  -0.00  -0.10     0.05   0.05   0.04
     8   6     0.05   0.02  -0.11     0.12   0.00  -0.01     0.08  -0.14   0.01
     9   6    -0.04  -0.01   0.03    -0.09  -0.02  -0.02    -0.09   0.03  -0.01
    10   6     0.02  -0.00  -0.01     0.03   0.01   0.01     0.03  -0.00   0.00
    11   6     0.01   0.01  -0.00     0.02   0.01   0.01     0.03  -0.01  -0.01
    12   1     0.05  -0.10  -0.13    -0.02  -0.02  -0.00    -0.01   0.02   0.02
    13   1    -0.18  -0.15  -0.03     0.01   0.03  -0.05    -0.02  -0.03   0.02
    14   1     0.13  -0.07   0.04     0.02   0.07  -0.02    -0.04  -0.02   0.01
    15   1    -0.19  -0.22  -0.11     0.15   0.13   0.08     0.16   0.06  -0.02
    16   1     0.09   0.09   0.18    -0.08  -0.07   0.04    -0.13  -0.10  -0.02
    17   1     0.07   0.26  -0.13     0.06   0.07  -0.01     0.03   0.13  -0.07
    18   1    -0.12  -0.49   0.16     0.05   0.15  -0.02     0.07   0.22  -0.06
    19   1    -0.08   0.03  -0.12     0.35   0.05   0.28    -0.37   0.04  -0.37
    20   1    -0.00  -0.10   0.03     0.52   0.02   0.43    -0.08  -0.00  -0.09
    21   1    -0.32  -0.11   0.37    -0.24   0.07   0.29    -0.40   0.54  -0.17
    22   1    -0.01   0.02   0.03     0.03  -0.02   0.05    -0.02   0.04   0.06
    23   1    -0.02  -0.02   0.01    -0.08  -0.02  -0.01    -0.08  -0.04   0.00
    24   1    -0.05   0.04  -0.04    -0.05  -0.03  -0.05    -0.05   0.02  -0.04
    25   1     0.02   0.01  -0.04     0.02   0.03  -0.06    -0.04   0.07  -0.01
    26   1    -0.00  -0.02  -0.01    -0.05  -0.05   0.02    -0.07   0.01   0.07
    27   1    -0.02  -0.00  -0.01    -0.07  -0.02  -0.04    -0.05  -0.03  -0.03
                     46                     47                     48
                      A                      A                      A
 Frequencies --   1372.4662              1421.9135              1440.8399
 Red. masses --      2.1569                 1.2123                 1.2723
 Frc consts  --      2.3938                 1.4442                 1.5562
 IR Inten    --      3.0977                 3.2627                 2.3718
  Atom  AN      X      Y      Z        X      Y      Z        X      Y      Z
     1   8     0.02   0.01   0.00    -0.00   0.00   0.00     0.00  -0.01  -0.00
[...]
 -0.00018608,0.00214458,-0.00197778,0.00057264,-0.00033735,0.00167620,-
 0.00033065,-0.00227921,-0.00715328,0.00885852,0.02857574,0.16707244,-0
 .00034107,-0.00029228,0.00004947,0.00023689,0.00074512,-0.00007170,0.0
 0054146,-0.00064359,-0.00039112,-0.00017928,-0.00006902,0.00014679,-0.
 00109438,-0.00345095,-0.00574793,-0.00017519,-0.00359808,0.00284530,0.
 02903693,0.12872105,-0.20434482,0.00336581,0.01845073,-0.01879499,0.00
 156906,0.00124747,0.00078432,0.00017738,0.00000945,0.00012383,0.000810
 42,0.00003036,-0.00025953,0.00005797,-0.00000413,0.00006680,0.00002895
 ,0.,-0.00000709,-0.00006339,0.00009804,0.00000307,-0.00066701,0.001724
 93,-0.00084864,0.00011168,-0.00025126,0.00028429,0.00013170,-0.0008554
 6,-0.00009170,-0.00038418,0.00016743,0.00104907,0.00041053,-0.00134628
 ,0.00243079,-0.03335366,-0.14038594,0.22087212,-0.00202997,0.00225754,
 0.00007334,-0.00343504,-0.00488425,-0.00018734,0.00063020,0.00017002,-
 0.00037819,0.00026288,-0.00021834,0.00020199,-0.00050266,-0.00050388,-
 0.00028078,0.00091902,-0.00068154,-0.00175252,0.00505083,-0.00505032,-
 0.00180755,-0.19345834,0.12012858,0.05555970,-0.01870936,0.01779980,0.
 00603146,0.00155995,0.00122717,0.00112875,0.00006206,0.00077198,-0.000
 72380,-0.00001122,-0.00001914,0.00001478,-0.00001489,0.00010554,-0.000
 03228,-0.00005972,-0.00004120,0.00001520,-0.00003789,0.00029484,-0.000
 19805,0.00033960,0.00035082,-0.00035638,0.00012611,-0.00019292,0.00012
 487,0.00021336,-0.00027565,0.00001927,0.00078423,0.00020483,0.00061924
 ,-0.00001162,0.00026326,0.00031641,0.20788475,-0.00084723,0.00186887,0
 .00013206,-0.00291948,-0.00351325,-0.00038820,0.00028508,-0.00400827,0
 .00247161,0.00135280,0.00034324,-0.00115345,0.01611584,-0.01084656,-0.
 00969488,0.00041630,-0.00074914,-0.00127503,0.00695287,-0.00600454,-0.
 00113208,0.11886386,-0.14811007,-0.04486479,-0.01182341,0.01036849,0.0
 0409417,0.00022941,0.00111501,0.00045816,0.00022698,0.00082280,-0.0004
 5469,-0.00001882,0.00001789,0.00005674,-0.00008754,0.00005290,-0.00003
 469,0.00028440,-0.00056049,0.00021323,-0.00014098,0.00069798,0.0004077
 0,-0.00051321,0.00046527,-0.00046466,0.00030421,-0.00030312,-0.0001341
 8,0.00012966,-0.00038281,-0.00013157,-0.00017785,0.00010145,0.00019869
 ,-0.00009383,0.00006655,-0.00036506,-0.12948411,0.15885699,0.00003125,
 -0.00000399,0.00017960,-0.00126343,0.00097262,-0.00005373,-0.00069780,
 0.00360397,-0.00319191,-0.00097653,0.00011736,0.00132657,-0.01590025,0
 .01015742,0.00745863,-0.00128335,-0.00196759,-0.00463181,0.02160192,-0
 .01716155,-0.00492408,0.05615058,-0.04624944,-0.07025330,-0.00050348,0
 .00019689,-0.00045258,-0.00065163,0.00030532,0.00036294,0.00019299,-0.
 00046393,-0.00000527,0.00010280,-0.00012421,0.00005745,0.00005017,0.00
 000861,-0.00004382,-0.00034332,0.00046313,-0.00009430,0.00011602,-0.00
 091694,0.00032103,0.00054378,-0.00074567,0.00039358,0.00082471,-0.0009
 7418,-0.00008866,0.00045827,-0.00072102,0.00008637,-0.00047395,0.00052
 765,0.00146250,0.00013063,0.00059509,-0.00014745,-0.05811158,0.0517311
 3,0.07202368,0.00126530,0.00018454,0.00037398,-0.00112236,0.00011616,-
 0.00057403,0.00003827,-0.00003060,0.00042172,-0.00000770,-0.00003314,0
 .00000803,-0.00028138,-0.00025267,0.00022119,0.00000807,0.00003496,-0.
 00000813,0.00012743,0.00009276,-0.00005078,0.00117628,-0.00045791,0.00
 025730,0.00227427,-0.00514302,-0.00133424,-0.12869457,0.11948573,-0.00
 294887,0.00003788,0.00002345,0.00009605,-0.00000771,-0.00000733,0.0000
 0336,0.00001530,0.00000256,0.00000084,-0.00000357,-0.00001357,-0.00000
 700,-0.00004822,-0.00000734,-0.00016251,-0.00000500,-0.00005311,-0.000
 08420,0.00003615,0.00001410,0.00003467,-0.00001691,0.00001749,-0.00000
 397,0.00000737,0.00003370,0.00006197,0.00000056,-0.00001277,0.00002834
 ,0.00002755,0.00030849,0.00001168,0.13516801,0.00101353,-0.00007689,0.
 00038747,-0.00293749,0.00134855,-0.00307329,0.00059595,-0.00034601,0.0
 0069842,-0.00034782,-0.00011210,0.00000363,-0.00029148,-0.00035420,0.0
 0045875,0.00014018,0.00016339,0.00026722,-0.00024978,0.00018620,-0.000
 11953,0.00140883,0.00039927,0.00049150,0.00962368,-0.01671329,-0.00265
 595,0.12070336,-0.23035236,0.00767268,-0.00039085,0.00081894,0.0017251
 0,0.00000048,0.00003106,-0.00001795,0.00002513,-0.00013677,0.00003238,
 0.00001447,0.00004868,-0.00001181,0.00000696,-0.00002804,-0.00034569,-
 0.00012962,-0.00004227,-0.00020264,-0.00006166,0.00003869,-0.00000632,
 -0.00001797,0.00003888,-0.00000612,-0.00003070,-0.00001976,-0.00003668
 ,0.00000238,0.00001675,-0.00002829,-0.00103171,-0.00001050,0.00003789,
 -0.13279316,0.24940338,0.00155950,-0.00030707,0.00077431,-0.00349393,-
 0.00016368,-0.00527285,0.00081652,-0.00088293,0.00081072,-0.00051166,-
 0.00021233,-0.00001964,0.00004513,0.00005333,-0.00056682,0.00017982,0.
 00015752,0.00026983,0.00017851,0.00007094,-0.00002412,0.00102317,0.000
 93307,0.00091269,0.01676133,-0.02630511,-0.00388086,-0.00356234,0.0073
 2816,-0.04727459,0.00055659,-0.00113601,0.00182466,0.00003512,-0.00002
 291,0.00002329,0.00006826,-0.00017269,0.00007668,0.00000938,0.00006391
 ,0.00000641,-0.00003488,0.00001007,0.00036084,-0.00004492,0.00009949,0
 .00023814,-0.00002275,0.00001109,-0.00000946,0.00000633,0.00002762,0.0
 0001384,-0.00002218,0.00005834,0.00001252,-0.00001631,0.00001256,-0.00
 002708,-0.00048350,0.00013676,0.00024043,0.00470983,-0.00485288,0.0524
 9800,0.00131997,0.00017847,0.00037710,-0.00111295,0.00100562,-0.000073
 01,-0.00015057,-0.00008143,0.00009686,-0.00001262,0.00001896,-0.000045
 97,-0.00000847,0.00007950,-0.00008255,0.00004307,0.00005941,-0.0000180
 1,-0.00011094,-0.00011337,0.00047711,0.00099432,0.00006237,-0.00105998
 ,-0.00346773,-0.00239622,-0.00089373,-0.29793295,-0.06421645,-0.024406
 78,0.00007802,0.00014247,0.00074059,0.00000186,-0.00001694,0.00002177,
 0.00000395,-0.00001140,0.00000966,0.00002715,-0.00001907,-0.00000521,-
 0.00002631,0.00006248,-0.00004492,-0.00001243,-0.00004958,0.00004222,0
 .00002559,-0.00003464,0.00001088,0.00003854,-0.00002657,-0.00004260,0.
 00001356,-0.00003640,-0.00012906,0.00002033,0.00003234,-0.00009376,0.0
 0033401,0.00008782,0.00011812,-0.01571634,-0.00477696,-0.00102795,0.32
 132191,0.00175666,0.00095550,0.00083068,-0.00398540,-0.00016592,0.0004
 0777,0.00021078,0.00033489,-0.00007825,0.00009947,0.00001285,-0.000068
 12,-0.00006429,0.00045376,-0.00005012,-0.00012368,0.00027361,-0.000132
 62,-0.00123154,-0.00037412,0.00026498,0.00067579,-0.00149390,-0.003506
 23,-0.01645578,-0.00692540,-0.00203453,-0.06254565,-0.06503618,-0.0048
 7728,0.00041274,0.00012034,0.00109581,-0.00001496,-0.00003886,0.000040
 27,0.00001545,0.00003502,0.00000582,0.00001816,-0.00007885,-0.00001000
 ,-0.00001988,0.00014472,-0.00021184,0.00005758,-0.00008842,-0.00011825
 ,0.00003381,-0.00001111,0.00005182,0.00001330,-0.00004069,-0.00004427,
 -0.00003227,-0.00025532,-0.00042019,0.00004612,0.00004641,-0.00002826,
 -0.00013087,0.00009065,0.00008210,0.02762539,0.00877401,0.00272064,0.0
 7096515,0.06766000,0.00116311,0.00091171,-0.00001642,-0.00218865,0.000
 48407,0.00113035,0.00027774,0.00023571,0.00013231,0.00005342,-0.000009
 39,0.00001712,-0.00001371,0.00052167,-0.00040827,-0.00026881,0.0002249
 7,-0.00001547,-0.00166601,-0.00085164,0.00045445,0.00086639,-0.0021536
 6,-0.00528690,-0.02727344,-0.00814311,-0.00394055,-0.02288325,-0.00439
 243,-0.05061809,-0.00139937,-0.00052318,0.00121991,0.00001076,-0.00001
 025,0.00000843,-0.00000045,0.00001175,-0.00001602,0.00000276,-0.000032
 75,-0.00000380,0.00009547,-0.00025896,0.00034002,0.00004917,-0.0000886
 6,0.00013662,0.00004086,-0.00001919,0.00002589,0.00005133,-0.00005288,
 0.00001330,-0.00011244,-0.00039745,-0.00056017,0.00001656,0.00009552,0
 .00005294,0.00012149,0.00020878,-0.00008829,-0.00108171,-0.00000925,-0
 .00108632,0.02675392,0.00812658,0.05555614,-0.00028310,0.00030117,-0.0
 0018654,0.00031951,-0.00026002,0.00065513,0.00009745,-0.00003518,-0.00
 009997,0.00001096,-0.00000069,0.00007531,-0.00012142,-0.00075794,-0.00
 022188,-0.00001073,-0.00009887,0.00005646,0.00001178,0.00010043,0.0000
 6566,0.00026707,0.00033909,-0.00033326,-0.00048907,0.00318050,-0.00352
 272,-0.06931152,-0.03778946,0.05769111,0.00002554,-0.00049576,-0.00070
 718,-0.00001240,0.00004669,-0.00003633,-0.00001214,-0.00001136,-0.0000
 2232,-0.00001812,0.00001174,-0.00001394,-0.00003298,-0.00112627,-0.000
 42399,-0.00003771,0.00004713,-0.00004983,-0.00002181,0.00001753,-0.000
 02614,-0.00001319,0.00001146,0.00002426,0.00001201,0.00002633,0.000028
 24,0.00000371,0.00003040,0.00002884,-0.00011723,0.00015183,-0.00005321
 ,0.00569310,0.00990712,-0.01615325,-0.00664051,-0.01769042,0.02647312,
 0.06951621,0.00002117,-0.00000227,0.00017415,0.00017766,0.00105222,-0.
 00031983,-0.00003532,-0.00005913,-0.00021453,0.00003102,-0.00000218,0.
 00000792,-0.00059947,-0.00124177,-0.00073432,-0.00000194,-0.00003707,-
 0.00004997,0.00027629,0.00004399,0.00003081,-0.00020479,0.00058494,0.0
 0075501,0.00620128,0.01048908,-0.01296898,-0.03816916,-0.12652915,0.11
 430577,-0.00053445,-0.00155822,-0.00260109,0.00001137,-0.00002859,-0.0
 0000069,-0.00000212,0.00002631,0.00000149,-0.00000796,0.00000462,0.000
 00876,-0.00116418,-0.00189131,-0.00076028,0.00003561,0.00009494,0.0001
 0652,-0.00000769,-0.00000951,0.00000937,-0.00000105,-0.00000002,0.0000
 3359,0.00002121,0.00003137,0.00007149,0.00002496,0.00000286,0.00005007
 ,0.00000367,-0.00008849,0.00014718,-0.00896980,-0.01418479,0.02149778,
 -0.00122026,-0.00487422,0.00570278,0.04416489,0.13725684,0.00071294,-0
 .00068558,0.00033707,-0.00114910,0.00233260,-0.00043499,0.00027526,-0.
 00050544,-0.00038158,-0.00018187,-0.00008740,0.00002890,0.00011497,0.0
 0026937,-0.00105745,-0.00018498,-0.00001907,0.00011309,-0.00003841,0.0
 0000607,0.00001963,0.00095827,0.00115887,0.00029260,0.00758383,0.01423
 403,-0.01921712,0.05663760,0.11336281,-0.21815558,-0.00077415,-0.00463
 857,-0.00477218,0.00005676,-0.00005094,0.00004244,0.00003069,-0.000047
 89,0.00002956,-0.00003134,0.00007292,0.00001942,0.00003790,-0.00050228
 ,0.00162871,0.00010131,0.00008500,0.00069575,-0.00003498,-0.00003242,-
 0.00002962,0.00000042,0.00006919,0.00013974,-0.00006306,-0.00008933,0.
 00001911,0.00011811,0.00003338,0.00023153,-0.00038874,-0.00001450,-0.0
 0000381,-0.00044379,0.00022358,0.00017163,-0.00044086,-0.00216784,0.00
 351433,-0.06308515,-0.12400483,0.23757518,0.00139246,0.00020333,-0.000
 46981,-0.00158785,-0.00016475,0.00171421,0.00006441,-0.00031040,-0.000
 37892,-0.00000204,-0.00004234,-0.00003867,0.00026940,0.00012000,0.0000
 2815,-0.00009427,-0.00013291,-0.00003033,0.00015687,-0.00000005,-0.000
 03446,0.00077013,-0.00014060,-0.00055908,0.00615129,-0.00880001,0.0021
 1219,-0.00008732,-0.00004463,-0.00042282,-0.15358914,0.12751517,-0.007
 10645,-0.00000802,0.00000294,-0.00000005,0.00000684,-0.00001648,-0.000
 00362,-0.00000494,-0.00001068,-0.00000017,-0.00000548,0.00001622,-0.00
 004520,-0.00001626,0.00006604,-0.00004607,-0.00001978,0.00000252,-0.00
 003706,-0.00003293,-0.00000975,0.00000856,0.00000717,0.00006334,-0.000
 03521,-0.00001662,0.00003353,-0.00007351,0.00015330,0.00032365,0.00002
 468,0.00019193,0.00002808,-0.00044241,-0.00000412,0.00011743,0.0000668
 8,0.00008430,-0.00024615,-0.00016097,0.16336507,0.00092771,0.00000827,
 -0.00044311,-0.00350359,0.00099600,0.00350531,0.00051078,-0.00053922,-
 0.00062396,-0.00035051,-0.00016544,-0.00008440,0.00016087,-0.00004440,
 0.00002860,0.00003434,-0.00019413,-0.00001114,-0.00025503,-0.00026686,
 0.00008036,0.00077695,0.00075561,-0.00045412,0.01316504,-0.01874220,0.
 00310685,-0.00020749,0.00059593,-0.00168096,0.12872736,-0.20381909,0.0
 0604220,0.00001070,0.00002428,0.00000444,0.00003327,-0.00015571,0.0000
 2897,0.00000407,0.00006041,-0.00000261,-0.00001403,0.00006873,-0.00002
 490,-0.00009035,0.00001309,0.00001911,-0.00018899,0.00003101,-0.000092
 10,-0.00006990,0.00010316,0.00009692,-0.00006814,-0.00000698,-0.000061
 84,0.00012296,-0.00017236,-0.00030699,-0.00065595,-0.00010021,0.000235
 20,-0.00003117,0.00087560,0.00059750,-0.00006981,0.00007053,0.00000433
 ,-0.00036229,0.00019372,-0.00008304,-0.14095982,0.22136330,-0.00102146
 ,0.00012397,0.00077095,0.00335451,0.00085557,-0.00416254,-0.00052940,0
 .00083269,0.00052682,0.00031905,0.00017655,0.00008242,-0.00039482,-0.0
 0009752,0.00004797,0.00017430,0.00020416,-0.00038529,0.00015131,0.0000
 1957,0.00011782,-0.00027692,-0.00073922,0.00098002,-0.01749000,0.02047
 455,-0.00318807,-0.00095826,0.00106104,0.00166921,-0.00666601,0.006315
 64,-0.04955088,-0.00000865,-0.00002126,0.00000100,-0.00004322,0.000140
 96,-0.00003079,-0.00001704,-0.00002572,-0.00000046,-0.00003146,-0.0000
 1663,-0.00000786,0.00006766,-0.00006077,-0.00000954,-0.00000119,-0.000
 03352,0.00020435,-0.00011827,0.00011147,0.00010466,-0.00003451,-0.0000
 0867,0.00006641,0.00018550,0.00002416,-0.00005813,0.00038437,-0.000009
 37,-0.00002941,0.00041438,-0.00061128,-0.00043020,0.00001868,0.0000116
 5,-0.00011366,0.00027910,-0.00029012,0.00032892,0.00577016,-0.01035924
 ,0.05165148,-0.00022645,-0.00002009,0.00043135,0.00069874,0.00029294,-
 0.00067334,-0.00003743,-0.00001641,0.00000859,-0.00004638,-0.00004887,
 -0.00006268,0.00015097,-0.00009371,-0.00018819,0.00028468,-0.00015059,
 -0.00011518,-0.00085631,-0.00131112,0.00072717,0.00007583,0.00077498,0
 .00027762,-0.00110379,0.00479174,0.00577931,-0.00028547,-0.00091691,0.
 00091470,-0.04881462,-0.00186796,-0.00444432,-0.00001181,0.00002954,-0
 .00002012,-0.00000043,-0.00002678,0.00001300,-0.00000764,0.00002603,0.
 00000512,-0.00003187,0.00008448,-0.00008800,-0.00004697,0.00001648,-0.
 00001255,-0.00010478,0.00010496,-0.00002916,0.00001764,0.00005156,0.00
 006280,0.00005635,0.00022145,-0.00016931,-0.00199536,-0.00137373,-0.00
 052646,0.00003350,-0.00004832,-0.00003678,0.00001998,-0.00038701,-0.00
 024943,0.00035155,0.00011299,0.00032512,0.00065729,0.00005517,0.000411
 62,0.00067755,0.00974901,0.01964642,0.04934191,0.00010307,0.00008842,-
 0.00027889,-0.00020996,0.00108225,0.00076057,0.00008483,0.00012795,0.0
 0019062,0.00003571,0.00001228,0.00000288,0.00024845,0.00021717,-0.0000
 0301,-0.00032109,0.00011596,0.00018967,-0.00149479,-0.00083971,-0.0004
 3249,0.00017820,0.00064296,-0.00058482,0.00182271,0.01077054,0.0178315
 4,-0.00109557,-0.00254603,0.00279079,-0.00126911,-0.11108214,-0.112064
 58,-0.00001092,0.00000559,-0.00001271,-0.00001054,0.00001355,-0.000008
 90,0.00000250,-0.00001138,0.00000189,0.00003199,0.00002737,-0.00006035
 ,-0.00002265,0.00004892,-0.00007905,0.00004916,0.00006027,-0.00009975,
 0.00015018,-0.00019749,-0.00017447,0.00005252,-0.00011095,0.00017785,-
 0.00144719,-0.00095181,0.00025618,-0.00002696,-0.00003726,-0.00001534,
 -0.00034017,0.00018952,0.00017546,0.00010699,-0.00016019,0.00000820,0.
 00001448,0.00091804,0.00122780,-0.00240872,-0.01178353,-0.02222294,0.0
 0508431,0.11947380,-0.00122456,0.00046221,0.00060751,0.00193671,-0.001
 92373,-0.00033733,-0.00005471,0.00034745,-0.00043374,0.00011366,0.0000
 8372,0.00008349,0.00003493,-0.00007005,0.00015634,-0.00022139,0.000197
 93,-0.00031977,-0.00086438,-0.00029937,-0.00046024,-0.00085352,-0.0006
 7832,-0.00030506,-0.00203070,-0.01088925,-0.01929403,0.00166874,0.0046
 1630,-0.00369827,-0.00374527,-0.11083749,-0.25413070,0.00002472,-0.000
 04523,0.00004237,-0.00001572,0.00005198,-0.00001888,-0.00003508,0.0000
 2051,-0.00000652,-0.00000992,-0.00013394,0.00016649,0.00008271,0.00014
 630,0.00002216,-0.00009234,-0.00008605,0.00016490,-0.00010304,0.000288
 04,0.00025454,-0.00017245,-0.00031413,0.00060453,-0.00011043,-0.000763
 18,0.00117884,0.00000290,0.00005810,0.00007160,0.00006927,0.00011139,0
 .00043469,0.00001014,0.00007632,0.00034044,-0.00021961,-0.00089339,-0.
 00147972,0.00040201,0.00090895,0.00261386,0.00570284,0.12182331,0.2773
 7755,0.00119453,0.00055934,-0.00033564,-0.00139343,0.00060158,0.000238
 48,0.00000943,0.00007583,-0.00009549,0.00001567,0.00001448,-0.00004431
 ,-0.00065210,-0.00006653,-0.00023584,-0.00010536,-0.00000183,0.0000499
 7,0.00026351,0.00028443,0.00021060,0.00144625,-0.00062133,0.00114150,-
 0.00748394,-0.00402811,-0.00006704,0.00024888,0.00028550,-0.00112045,-
 0.27881082,-0.08599691,-0.03604837,0.00000330,-0.00001353,0.00001758,-
 0.00000274,-0.00000478,0.00000179,0.00002306,-0.00002555,-0.00000162,0
 .00003784,-0.00001622,0.00009475,0.00006920,-0.00019931,0.00019132,0.0
 0002634,-0.00005113,-0.00000902,0.00003085,-0.00000889,-0.00002746,-0.
 00001271,-0.00002831,-0.00003499,0.00000222,0.00007677,0.00009951,0.00
 000661,0.00012157,-0.00006231,-0.00018368,-0.00002396,0.00011601,0.000
 62211,0.00013393,0.00051974,0.00042300,0.00014007,-0.00006228,-0.01782
 195,-0.00739600,-0.00317424,0.00120330,0.00069260,-0.00029550,0.300840
 61,0.00185048,0.00115766,-0.00049049,-0.00334633,0.00026116,-0.0009480
 8,0.00007586,0.00019430,0.00025577,0.00008525,0.00001659,0.00000542,-0
 .00134821,-0.00040091,-0.00002106,0.00000134,0.00034012,-0.00007466,-0
 .00010901,0.00034758,0.00037454,0.00078432,-0.00168547,0.00280339,-0.0
 1977153,-0.00887323,-0.00249068,0.00014152,0.00056315,-0.00132657,-0.0
 8437125,-0.08030841,-0.01430888,-0.00000793,-0.00003305,0.00003236,0.0
 0001781,0.00004320,-0.00000348,0.00002101,-0.00007823,-0.00001757,0.00
 003886,-0.00000126,0.00005813,0.00017257,-0.00041803,0.00024421,0.0000
 5627,-0.00003380,0.00009527,-0.00001616,0.00001400,-0.00003884,-0.0000
 3715,-0.00012993,0.00006395,0.00023487,-0.00011926,0.00012477,-0.00038
 122,-0.00015340,0.00016232,0.00020644,0.00004404,0.00010134,0.00026752
 ,0.00057090,0.00040675,0.00027745,-0.00019219,-0.00014648,0.02479506,0
 .01083049,0.00414428,-0.01513414,-0.00607409,-0.00225837,0.09549629,0.
 08411807,-0.00045972,-0.00038594,-0.00041847,0.00050362,-0.00049547,0.
 00080626,0.00014821,-0.00013690,-0.00005858,-0.00006824,0.00000580,0.0
 0009313,0.00159966,0.00064474,0.00036233,-0.00012533,0.00004461,0.0000
 2530,-0.00063731,-0.00013937,-0.00089154,-0.00092127,0.00259439,-0.004
 23602,0.02521090,0.00910924,0.00198165,0.00143389,0.00049529,0.0010467
 3,-0.03719282,-0.01508439,-0.05374160,0.00001480,-0.00000710,-0.000001
 58,0.00000427,-0.00002237,-0.00000763,-0.00002306,0.00003895,-0.000003
 44,0.00000477,-0.00005195,-0.00000642,-0.00011111,0.00058777,-0.000240
 87,0.00000147,-0.00004010,0.00000876,-0.00002543,0.00010811,0.00004911
 ,-0.00003575,-0.00015185,0.00032095,0.00013835,-0.00032274,0.00067101,
 0.00008694,-0.00004998,0.00002404,-0.00001339,-0.00013232,-0.00007674,
 -0.00031266,0.00003338,-0.00078830,-0.00022191,-0.00006465,0.00034443,
 -0.00024206,-0.00043035,-0.00119906,-0.02769013,-0.00939947,-0.0036350
 7,0.03893332,0.01325267,0.05957162\\0.00005118,0.00002620,-0.00002921,
 -0.00009954,-0.00004295,0.00007241,0.00004462,0.00001322,0.00005177,-0
 .00000732,-0.00001161,0.00000955,-0.00004986,-0.00005089,-0.00001780,0
 .00005184,0.00000067,-0.00003693,-0.00000722,-0.00000059,-0.00002606,-
 0.00005616,0.00004501,-0.00000076,0.00008081,-0.00000213,-0.00000464,0
 .00004346,-0.00001925,0.00001856,-0.00000807,0.00000336,-0.00001500,0.
 00005737,0.00002952,-0.00003837,-0.00002762,0.00001923,0.00006573,-0.0
 0006007,-0.00004305,-0.00005209,0.00000019,0.00000724,-0.00000880,-0.0
 0000349,-0.00000545,-0.00000827,0.00000679,0.00000030,-0.00000484,0.00
 000314,0.00002150,0.00001360,0.00000441,0.00000206,0.00001759,-0.00001
 218,0.00000107,0.00000128,0.00000495,0.00000635,-0.00000167,-0.0000179
 0,-0.00001459,-0.00000205,-0.00000265,0.00001271,-0.00001423,0.0000217
 5,-0.00000395,0.00000236,-0.00003915,-0.00002986,-0.00003153,0.0000548
 3,-0.00001571,0.00001325,-0.00003412,0.00005158,0.00002615\\\@


 THE MOST SERIOUS THREAT TO THE SURVIVAL OF MANKIND IS NOT NOW
 IGNORANCE IN THE TRADITIONAL SENSE,
 BUT A MORALLY NEUTRAL, AN INSENSITIVE OR INHIBITED HUMAN INTELLIGENCE.

                     -- MARGO JEFFERSON IN NEWSWEEK, SEPTEMBER 2, 1974
 Job cpu time:       0 days  0 hours  2 minutes 55.3 seconds.
 Elapsed time:       0 days  0 hours 53 minutes 26.2 seconds.
 File lengths (MBytes):  RWF=    127 Int=      0 D2E=      0 Chk=      5 Scr=      1
 Normal termination of Gaussian 16 at Thu Feb 22 07:49:14 2024.
