 Entering Gaussian System, Link 0=g16
 Input=/Volumes/SSD-PMU3/b3lyp_6-31gd_freq/NKTGPDBVZFNRKC-XLPZGREQSA-N_calculating/gaussianinput0.gjf
 Output=/Volumes/SSD-PMU3/b3lyp_6-31gd_freq/NKTGPDBVZFNRKC-XLPZGREQSA-N_calculating/gaussianinput0.log
 Initial command:
 /Applications/g16/l1.exe "/Users/macmini_m1_2022/PycharmProjects/sphere_model/sphere_model_lib/Gau-58537.inp" -scrdir="/Users/macmini_m1_2022/PycharmProjects/sphere_model/sphere_model_lib/"
 Entering Link 1 = /Applications/g16/l1.exe PID=     58538.
  
 Copyright (c) 1988,1990,1992,1993,1995,1998,2003,2009,2016,
            Gaussian, Inc.  All Rights Reserved.
  
 This is part of the Gaussian(R) 16 program.  It is based on
 the Gaussian(R) 09 system (copyright 2009, Gaussian, Inc.),
 the Gaussian(R) 03 system (copyright 2003, Gaussian, Inc.),
 the Gaussian(R) 98 system (copyright 1998, Gaussian, Inc.),
 the Gaussian(R) 94 system (copyright 1995, Gaussian, Inc.),
 the Gaussian 92(TM) system (copyright 1992, Gaussian, Inc.),
 the Gaussian 90(TM) system (copyright 1990, Gaussian, Inc.),
 the Gaussian 88(TM) system (copyright 1988, Gaussian, Inc.),
 the Gaussian 86(TM) system (copyright 1986, Carnegie Mellon
 University), and the Gaussian 82(TM) system (copyright 1983,
 Carnegie Mellon University). Gaussian is a federally registered
 trademark of Gaussian, Inc.
  
 This software contains proprietary and confidential information,
 including trade secrets, belonging to Gaussian, Inc.
  
 This software is provided under written license and may be
 used, copied, transmitted, or stored only in accord with that
 written license.
  
 The following legend is applicable only to US Government
 contracts under FAR:
  
                    RESTRICTED RIGHTS LEGEND
  
 Use, reproduction and disclosure by the US Government is
 subject to restrictions as set forth in subparagraphs (a)
 and (c) of the Commercial Computer Software - Restricted
 Rights clause in FAR 52.227-19.
  
 Gaussian, Inc.
 340 Quinnipiac St., Bldg. 40, Wallingford CT 06492
  
  
 ---------------------------------------------------------------
 Warning -- This program may not be used in any manner that
 competes with the business of Gaussian, Inc. or will provide
 assistance to any competitor of Gaussian, Inc.  The licensee
 of this program is prohibited from giving any competitor of
 Gaussian, Inc. access to this program.  By using this program,
 the user acknowledges that Gaussian, Inc. is engaged in the
 business of creating and licensing software in the field of
 computational chemistry and represents and warrants to the
 licensee that it is not a competitor of Gaussian, Inc. and that
 it will not use this program in any manner prohibited above.
 ---------------------------------------------------------------
  

 Cite this work as:
 Gaussian 16, Revision A.03,
 M. J. Frisch, G. W. Trucks, H. B. Schlegel, G. E. Scuseria, 
 M. A. Robb, J. R. Cheeseman, G. Scalmani, V. Barone, 
 G. A. Petersson, H. Nakatsuji, X. Li, M. Caricato, A. V. Marenich, 
 J. Bloino, B. G. Janesko, R. Gomperts, B. Mennucci, H. P. Hratchian, 
 J. V. Ortiz, A. F. Izmaylov, J. L. Sonnenberg, D. Williams-Young, 
 F. Ding, F. Lipparini, F. Egidi, J. Goings, B. Peng, A. Petrone, 
 T. Henderson, D. Ranasinghe, V. G. Zakrzewski, J. Gao, N. Rega, 
 G. Zheng, W. Liang, M. Hada, M. Ehara, K. Toyota, R. Fukuda, 
 J. Hasegawa, M. Ishida, T. Nakajima, Y. Honda, O. Kitao, H. Nakai, 
 T. Vreven, K. Throssell, J. A. Montgomery, Jr., J. E. Peralta, 
 F. Ogliaro, M. J. Bearpark, J. J. Heyd, E. N. Brothers, K. N. Kudin, 
 V. N. Staroverov, T. A. Keith, R. Kobayashi, J. Normand, 
 K. Raghavachari, A. P. Rendell, J. C. Burant, S. S. Iyengar, 
 J. Tomasi, M. Cossi, J. M. Millam, M. Klene, C. Adamo, R. Cammi, 
 J. W. Ochterski, R. L. Martin, K. Morokuma, O. Farkas, 
 J. B. Foresman, and D. J. Fox, Gaussian, Inc., Wallingford CT, 2016.
 
 ******************************************
 Gaussian 16:  EM64M-G16RevA.03 25-Dec-2016
                22-Feb-2024 
 ******************************************
 %nprocshared=8
 Will use up to    8 processors via shared memory.
 %mem=4GB
 %chk= 0.chk
 ---------------------
 # freq b3lyp/6-31g(d)
 ---------------------
 1/10=4,30=1,38=1/1,3;
 2/12=2,17=6,18=5,40=1/2;
 3/5=1,6=6,7=1,11=2,25=1,30=1,71=2,74=-5,140=1/1,2,3;
 4//1;
 5/5=2,38=5,98=1/2;
 8/6=4,10=90,11=11/1;
 11/6=1,8=1,9=11,15=111,16=1/1,2,10;
 10/6=1/2;
 6/7=2,8=2,9=2,10=2,28=1/1;
 7/8=1,10=1,25=1/1,2,3,16;
 1/10=4,30=1/3;
 99//99;
 ---------
 good luck
 ---------
 Symbolic Z-matrix:
 Charge =  0 Multiplicity = 1
 O                     1.20827   0.        0. 
 C                     0.        0.        0. 
 C                    -1.00727  -1.15507   0.0143 
 C                    -1.75211  -0.797     1.33472 
 C                    -3.07235  -1.53934   1.56134 
 C                    -1.79908   0.8049    1.32445 
 C                    -3.21432   1.40368   1.35015 
 C                    -1.02203   1.34865   2.53875 
 C                    -1.01014   1.1539    0.0143 
 C                    -1.81198   0.7844   -1.25556 
 C                    -1.85895  -0.78553  -1.22459 
 H                    -0.57382  -2.15699  -0.00016 
 H                    -1.0853   -1.09175   2.15626 
 H                    -3.82603  -1.32318   0.79805 
 H                    -3.50612  -1.27893   2.53336 
 H                    -2.90067  -2.62226   1.55918 
 H                    -3.86905   1.00808   0.56876 
 H                    -3.70003   1.20716   2.31278 
 H                    -3.16708   2.49226   1.22429 
 H                    -1.47162   0.99713   3.47575 
 H                    -1.03042   2.44555   2.55461 
 H                     0.02463   1.02335   2.52614 
 H                    -0.57772   2.15677   0.00977 
 H                    -1.2789    1.13904  -2.14448 
 H                    -2.80613   1.23731  -1.27807 
 H                    -1.41698  -1.21004  -2.13184 
 H                    -2.88033  -1.17041  -1.15633 
 

 GradGradGradGradGradGradGradGradGradGradGradGradGradGradGradGradGradGrad
 Berny optimization.
 Initialization pass.
 Trust Radius=3.00D-01 FncErr=1.00D-07 GrdErr=1.00D-07 EigMax=2.50D+02 EigMin=1.00D-04
 Number of steps in this run=      2 maximum allowed number of steps=      2.
 GradGradGradGradGradGradGradGradGradGradGradGradGradGradGradGradGradGrad

                          Input orientation:                          
 ---------------------------------------------------------------------
 Center     Atomic      Atomic             Coordinates (Angstroms)
 Number     Number       Type             X           Y           Z
 ---------------------------------------------------------------------
      1          8           0        1.208268    0.000000    0.000000
      2          6           0        0.000000    0.000000    0.000000
      3          6           0       -1.007275   -1.155074    0.014304
      4          6           0       -1.752112   -0.797003    1.334715
      5          6           0       -3.072352   -1.539342    1.561342
      6          6           0       -1.799083    0.804896    1.324450
      7          6           0       -3.214315    1.403683    1.350152
      8          6           0       -1.022026    1.348651    2.538753
      9          6           0       -1.010135    1.153902    0.014304
     10          6           0       -1.811980    0.784395   -1.255560
     11          6           0       -1.858953   -0.785525   -1.224588
     12          1           0       -0.573816   -2.156986   -0.000162
     13          1           0       -1.085299   -1.091749    2.156256
     14          1           0       -3.826034   -1.323182    0.798052
     15          1           0       -3.506124   -1.278925    2.533360
     16          1           0       -2.900667   -2.622260    1.559179
     17          1           0       -3.869046    1.008083    0.568763
     18          1           0       -3.700029    1.207161    2.312780
     19          1           0       -3.167080    2.492264    1.224293
     20          1           0       -1.471618    0.997126    3.475753
     21          1           0       -1.030424    2.445547    2.554610
     22          1           0        0.024632    1.023351    2.526137
     23          1           0       -0.577719    2.156769    0.009766
     24          1           0       -1.278899    1.139043   -2.144479
     25          1           0       -2.806125    1.237314   -1.278069
     26          1           0       -1.416982   -1.210037   -2.131841
     27          1           0       -2.880332   -1.170409   -1.156326
 ---------------------------------------------------------------------
                    Distance matrix (angstroms):
                    1          2          3          4          5
     1  O    0.000000
     2  C    1.208268   0.000000
     3  C    2.498606   1.532646   0.000000
     4  C    3.343730   2.342344   1.557717   0.000000
     5  C    4.809477   3.774481   2.608741   1.531490   0.000000
     6  C    3.383221   2.374600   2.486951   1.602620   2.678205
     7  C    4.832440   3.758332   3.633559   2.642214   2.954006
     8  C    3.638453   3.051010   3.555517   2.566430   3.674190
     9  C    2.500601   1.533645   2.308978   2.469827   3.728221
    10  C    3.363570   2.339867   2.453904   3.035445   3.863059
    11  C    3.394777   2.360587   1.548152   2.561558   3.130812
    12  H    2.797930   2.232007   1.091753   2.240498   3.010392
    13  H    3.331937   2.649383   2.144308   1.098383   2.121943
    14  H    5.266108   4.126286   2.930516   2.205907   1.094246
    15  H    5.502641   4.510706   3.550384   2.178430   1.095808
    16  H    5.117679   4.209650   2.850299   2.168208   1.096445
    17  H    5.207575   4.038470   3.629932   2.885555   2.847685
    18  H    5.558558   4.527295   4.256063   2.961024   2.915805
    19  H    5.182079   4.211967   4.408164   3.582402   4.046779
    20  H    4.500768   3.903944   4.102342   2.807422   3.558228
    21  H    4.185508   3.683545   4.406604   3.538800   4.586436
    22  H    2.971466   2.725660   3.481332   2.808913   4.133949
    23  H    2.800267   2.232825   3.339587   3.443756   4.721421
    24  H    3.475947   2.744411   3.161819   4.009613   4.911551
    25  H    4.390872   3.322461   3.260308   3.475058   3.980320
    26  H    3.591779   2.831391   2.185594   3.507124   4.060578
    27  H    4.407221   3.317116   2.208835   2.760000   2.749309
                    6          7          8          9         10
     6  C    0.000000
     7  C    1.536909   0.000000
     8  C    1.540785   2.494380   0.000000
     9  C    1.568670   2.589457   2.531978   0.000000
    10  C    2.580124   3.023210   3.916532   1.546624   0.000000
    11  C    3.005099   3.641281   4.406573   2.452901   1.570928
    12  H    3.468230   4.633999   4.351606   3.339545   3.429402
    13  H    2.190582   3.377824   2.471004   3.104280   3.960867
    14  H    2.985689   2.848650   4.246315   3.831383   3.565896
    15  H    2.952586   2.946442   3.615927   4.300494   4.635011
    16  H    3.607490   4.043548   4.500777   4.496682   4.551186
    17  H    2.212938   1.093499   3.478846   2.915829   2.758571
    18  H    2.179956   1.095989   2.691242   3.538553   4.059127
    19  H    2.174548   1.096850   2.763496   2.812063   3.301936
    20  H    2.184557   2.778572   1.097120   3.495594   4.748307
    21  H    2.189947   2.702884   1.097043   2.849897   4.229380
    22  H    2.194928   3.466752   1.096117   2.719759   4.210876
    23  H    2.246705   3.052116   2.691884   1.092129   2.237825
    24  H    3.523594   4.003538   4.694953   2.175500   1.095503
    25  H    2.823867   2.664928   4.214681   2.214219   1.092688
    26  H    4.018943   4.710224   5.340161   3.218644   2.213967
    27  H    3.350400   3.608313   4.842786   3.204752   2.229906
                   11         12         13         14         15
    11  C    0.000000
    12  H    2.243145   0.000000
    13  H    3.481727   2.458960   0.000000
    14  H    2.872204   3.450985   3.067557   0.000000
    15  H    4.132649   3.973431   2.457160   1.765105   0.000000
    16  H    3.494012   2.839412   2.448372   1.767264   1.766396
    17  H    3.236296   4.604333   3.831276   2.342908   3.036735
    18  H    4.457951   5.142022   3.485154   2.951765   2.503373
    19  H    4.295593   5.462585   4.248237   3.895322   4.006304
    20  H    5.041932   4.778750   2.500743   4.254079   3.194953
    21  H    5.040697   5.283811   3.560079   5.010414   4.472274
    22  H    4.570324   4.105468   2.417107   4.829091   4.215064
    23  H    3.438355   4.313768   3.926567   4.825247   5.171854
    24  H    2.210571   3.994877   4.848735   4.605316   5.717454
    25  H    2.234250   4.258817   4.492256   3.450599   4.620438
    26  H    1.094832   2.480261   4.302532   3.794813   5.112080
    27  H    1.093623   2.762257   3.768492   2.176531   3.743952
                   16         17         18         19         20
    16  H    0.000000
    17  H    3.885624   0.000000
    18  H    3.983887   1.763461   0.000000
    19  H    5.132395   1.767843   1.766445   0.000000
    20  H    4.337671   3.768073   2.522387   3.190470   0.000000
    21  H    5.492846   3.750689   2.952774   2.517384   1.772309
    22  H    4.773140   4.358013   3.735292   3.746936   1.772349
    23  H    5.534969   3.530551   3.994302   2.879657   3.762565
    24  H    5.522193   3.753358   5.072836   4.092073   5.625326
    25  H    4.791161   2.143160   3.700563   2.822588   4.943422
    26  H    4.221294   4.269184   5.550658   5.294668   6.026580
    27  H    3.079327   2.949460   4.284792   4.377756   5.304605
                   21         22         23         24         25
    21  H    0.000000
    22  H    1.771044   0.000000
    23  H    2.600878   2.824816   0.000000
    24  H    4.883659   4.850488   2.483584   0.000000
    25  H    4.393446   4.746678   2.733077   1.758620   0.000000
    26  H    5.956135   5.363118   4.077527   2.353169   2.940777
    27  H    5.501667   5.178024   4.210928   2.979027   2.411941
                   26         27
    26  H    0.000000
    27  H    1.759146   0.000000
 Stoichiometry    C10H16O
 Framework group  C1[X(C10H16O)]
 Deg. of freedom    75
 Full point group                 C1      NOp   1
 Largest Abelian subgroup         C1      NOp   1
 Largest concise Abelian subgroup C1      NOp   1
                         Standard orientation:                         
 ---------------------------------------------------------------------
 Center     Atomic      Atomic             Coordinates (Angstroms)
 Number     Number       Type             X           Y           Z
 ---------------------------------------------------------------------
      1          8           0       -2.312375    1.186547   -0.870967
      2          6           0       -1.450892    0.502608   -0.370980
      3          6           0       -0.890284   -0.865611   -0.774339
      4          6           0        0.598515   -0.455317   -0.978339
      5          6           0        1.587735   -1.619596   -1.084917
      6          6           0        0.857096    0.629088    0.173006
      7          6           0        1.970546    0.256318    1.164651
      8          6           0        1.214913    1.983340   -0.468856
      9          6           0       -0.553649    0.740682    0.849816
     10          6           0       -0.906660   -0.530773    1.656558
     11          6           0       -1.079419   -1.636949    0.554586
     12          1           0       -1.354449   -1.324340   -1.649577
     13          1           0        0.643979    0.079337   -1.936735
     14          1           0        1.632782   -2.232447   -0.179512
     15          1           0        2.601587   -1.254936   -1.284720
     16          1           0        1.306915   -2.277484   -1.915889
     17          1           0        1.843975   -0.734522    1.609576
     18          1           0        2.948775    0.269232    0.670593
     19          1           0        2.008271    0.985586    1.983079
     20          1           0        2.127344    1.897455   -1.071986
     21          1           0        1.390732    2.749432    0.296450
     22          1           0        0.412862    2.343702   -1.123321
     23          1           0       -0.719745    1.681819    1.378418
     24          1           0       -1.845180   -0.374241    2.199519
     25          1           0       -0.147653   -0.788037    2.399317
     26          1           0       -2.078465   -2.082666    0.598186
     27          1           0       -0.360130   -2.453006    0.667211
 ---------------------------------------------------------------------
 Rotational constants (GHZ):           1.4251202           1.1328607           0.9923879
 Standard basis: 6-31G(d) (6D, 7F)
 There are   197 symmetry adapted cartesian basis functions of A   symmetry.
 There are   197 symmetry adapted basis functions of A   symmetry.
   197 basis functions,   372 primitive gaussians,   197 cartesian basis functions
    42 alpha electrons       42 beta electrons
       nuclear repulsion energy       676.5751899170 Hartrees.
 NAtoms=   27 NActive=   27 NUniq=   27 SFac= 1.00D+00 NAtFMM=   60 NAOKFM=F Big=F
 Integral buffers will be    131072 words long.
 Raffenetti 2 integral format.
 Two-electron integral symmetry is turned on.
 One-electron integrals computed using PRISM.
 NBasis=   197 RedAO= T EigKep=  1.20D-03  NBF=   197
 NBsUse=   197 1.00D-06 EigRej= -1.00D+00 NBFU=   197
 ExpMin= 1.61D-01 ExpMax= 5.48D+03 ExpMxC= 8.25D+02 IAcc=3 IRadAn=         5 AccDes= 0.00D+00
 Harris functional with IExCor=  402 and IRadAn=       5 diagonalized for initial guess.
 HarFok:  IExCor=  402 AccDes= 0.00D+00 IRadAn=         5 IDoV= 1 UseB2=F ITyADJ=14
 ICtDFT=  3500011 ScaDFX=  1.000000  1.000000  1.000000  1.000000
 FoFCou: FMM=F IPFlag=           0 FMFlag=      100000 FMFlg1=           0
         NFxFlg=           0 DoJE=T BraDBF=F KetDBF=T FulRan=T
         wScrn=  0.000000 ICntrl=       500 IOpCl=  0 I1Cent=   200000004 NGrid=           0
         NMat0=    1 NMatS0=      1 NMatT0=    0 NMatD0=    1 NMtDS0=    0 NMtDT0=    0
 Petite list used in FoFCou.
 Requested convergence on RMS density matrix=1.00D-08 within 128 cycles.
 Requested convergence on MAX density matrix=1.00D-06.
 Requested convergence on             energy=1.00D-06.
 No special actions if energy rises.
 Integral accuracy reduced to 1.0D-05 until final iterations.
 Initial convergence to 1.0D-05 achieved.  Increase integral accuracy.
 SCF Done:  E(RB3LYP) =  -465.911041788     A.U. after   13 cycles
            NFock= 13  Conv=0.86D-08     -V/T= 2.0096
 DoSCS=F DFT=T ScalE2(SS,OS)=  1.000000  1.000000
 Range of M.O.s used for correlation:     1   197
 NBasis=   197 NAE=    42 NBE=    42 NFC=     0 NFV=     0
 NROrb=    197 NOA=    42 NOB=    42 NVA=   155 NVB=   155
 Symmetrizing basis deriv contribution to polar:
 IMax=3 JMax=2 DiffMx= 0.00D+00
 G2DrvN: will do    28 centers at a time, making    1 passes.
 Calling FoFCou, ICntrl=  3107 FMM=F I1Cent=   0 AccDes= 0.00D+00.
 End of G2Drv F.D. properties file   721 does not exist.
 End of G2Drv F.D. properties file   722 does not exist.
 End of G2Drv F.D. properties file   788 does not exist.
          IDoAtm=111111111111111111111111111
          Differentiating once with respect to electric field.
                with respect to dipole field.
          Differentiating once with respect to nuclear coordinates.
 Keep R1 ints in memory in canonical form, NReq=198401974.
          There are    84 degrees of freedom in the 1st order CPHF.  IDoFFX=6 NUNeed=     3.
     81 vectors produced by pass  0 Test12= 7.75D-15 1.19D-09 XBig12= 6.96D+01 2.24D+00.
 AX will form    81 AO Fock derivatives at one time.
     81 vectors produced by pass  1 Test12= 7.75D-15 1.19D-09 XBig12= 7.50D+00 6.07D-01.
     81 vectors produced by pass  2 Test12= 7.75D-15 1.19D-09 XBig12= 9.23D-02 3.11D-02.
     81 vectors produced by pass  3 Test12= 7.75D-15 1.19D-09 XBig12= 4.77D-04 3.14D-03.
     81 vectors produced by pass  4 Test12= 7.75D-15 1.19D-09 XBig12= 4.71D-07 8.99D-05.
     38 vectors produced by pass  5 Test12= 7.75D-15 1.19D-09 XBig12= 2.80D-10 1.50D-06.
      3 vectors produced by pass  6 Test12= 7.75D-15 1.19D-09 XBig12= 1.97D-13 4.45D-08.
      1 vectors produced by pass  7 Test12= 7.75D-15 1.19D-09 XBig12= 1.79D-16 1.55D-09.
 InvSVY:  IOpt=1 It=  1 EMax= 1.24D-14
 Solved reduced A of dimension   447 with    84 vectors.
 Isotropic polarizability for W=    0.000000       98.41 Bohr**3.
 End of Minotr F.D. properties file   721 does not exist.
 End of Minotr F.D. properties file   722 does not exist.
 End of Minotr F.D. properties file   788 does not exist.

 **********************************************************************

            Population analysis using the SCF density.

 **********************************************************************

 Orbital symmetries:
       Occupied  (A) (A) (A) (A) (A) (A) (A) (A) (A) (A) (A) (A)
                 (A) (A) (A) (A) (A) (A) (A) (A) (A) (A) (A) (A)
                 (A) (A) (A) (A) (A) (A) (A) (A) (A) (A) (A) (A)
                 (A) (A) (A) (A) (A) (A)
       Virtual   (A) (A) (A) (A) (A) (A) (A) (A) (A) (A) (A) (A)
                 (A) (A) (A) (A) (A) (A) (A) (A) (A) (A) (A) (A)
                 (A) (A) (A) (A) (A) (A) (A) (A) (A) (A) (A) (A)
                 (A) (A) (A) (A) (A) (A) (A) (A) (A) (A) (A) (A)
                 (A) (A) (A) (A) (A) (A) (A) (A) (A) (A) (A) (A)
                 (A) (A) (A) (A) (A) (A) (A) (A) (A) (A) (A) (A)
                 (A) (A) (A) (A) (A) (A) (A) (A) (A) (A) (A) (A)
                 (A) (A) (A) (A) (A) (A) (A) (A) (A) (A) (A) (A)
                 (A) (A) (A) (A) (A) (A) (A) (A) (A) (A) (A) (A)
                 (A) (A) (A) (A) (A) (A) (A) (A) (A) (A) (A) (A)
                 (A) (A) (A) (A) (A) (A) (A) (A) (A) (A) (A) (A)
                 (A) (A) (A) (A) (A) (A) (A) (A) (A) (A) (A) (A)
                 (A) (A) (A) (A) (A) (A) (A) (A) (A) (A) (A)
 The electronic state is 1-A.
 Alpha  occ. eigenvalues --  -19.13880 -10.26485 -10.20659 -10.19767 -10.19155
 Alpha  occ. eigenvalues --  -10.19123 -10.19038 -10.18910 -10.18129 -10.17899
 Alpha  occ. eigenvalues --  -10.17574  -1.03658  -0.87721  -0.78687  -0.76175
 Alpha  occ. eigenvalues --   -0.70681  -0.69523  -0.67948  -0.61087  -0.58644
 Alpha  occ. eigenvalues --   -0.53276  -0.51905  -0.49217  -0.47187  -0.44814
 Alpha  occ. eigenvalues --   -0.43948  -0.42992  -0.41839  -0.40422  -0.39505
 Alpha  occ. eigenvalues --   -0.38778  -0.38083  -0.37106  -0.36405  -0.35831
 Alpha  occ. eigenvalues --   -0.35356  -0.35022  -0.33407  -0.33028  -0.30164
 Alpha  occ. eigenvalues --   -0.29434  -0.22617
 Alpha virt. eigenvalues --   -0.00676   0.06857   0.10184   0.10425   0.12413
 Alpha virt. eigenvalues --    0.12734   0.13926   0.14349   0.15162   0.16034
 Alpha virt. eigenvalues --    0.16438   0.17025   0.17743   0.18109   0.18907
 Alpha virt. eigenvalues --    0.19539   0.19771   0.21637   0.22499   0.22744
 Alpha virt. eigenvalues --    0.23158   0.24525   0.24953   0.26140   0.28247
 Alpha virt. eigenvalues --    0.30183   0.32697   0.33931   0.36574   0.47719
 Alpha virt. eigenvalues --    0.50026   0.51705   0.51845   0.55117   0.56183
 Alpha virt. eigenvalues --    0.57531   0.58687   0.59838   0.61011   0.62305
 Alpha virt. eigenvalues --    0.62416   0.65335   0.68489   0.69422   0.70168
 Alpha virt. eigenvalues --    0.70978   0.73286   0.74179   0.76462   0.76902
 Alpha virt. eigenvalues --    0.77990   0.81108   0.82754   0.84165   0.85094
 Alpha virt. eigenvalues --    0.85444   0.85878   0.86892   0.88432   0.88999
 Alpha virt. eigenvalues --    0.89673   0.90468   0.91182   0.91755   0.92864
 Alpha virt. eigenvalues --    0.93488   0.94034   0.96328   0.96596   0.97250
 Alpha virt. eigenvalues --    1.00206   1.01207   1.01932   1.02552   1.04581
 Alpha virt. eigenvalues --    1.09867   1.10999   1.20479   1.22343   1.24436
 Alpha virt. eigenvalues --    1.26638   1.28603   1.39523   1.41882   1.45160
 Alpha virt. eigenvalues --    1.47030   1.53775   1.56870   1.59522   1.62325
 Alpha virt. eigenvalues --    1.65631   1.70832   1.72564   1.73871   1.75810
 Alpha virt. eigenvalues --    1.76771   1.78779   1.80372   1.82564   1.85049
 Alpha virt. eigenvalues --    1.85429   1.88050   1.90068   1.91774   1.92490
 Alpha virt. eigenvalues --    1.96659   1.97804   2.00152   2.00885   2.02490
 Alpha virt. eigenvalues --    2.05932   2.08864   2.11441   2.12166   2.14765
 Alpha virt. eigenvalues --    2.17910   2.18531   2.19691   2.21831   2.26693
 Alpha virt. eigenvalues --    2.28725   2.29120   2.31530   2.33525   2.34357
 Alpha virt. eigenvalues --    2.38267   2.40666   2.42784   2.47251   2.52247
 Alpha virt. eigenvalues --    2.56764   2.59499   2.61496   2.66685   2.68794
 Alpha virt. eigenvalues --    2.69745   2.70712   2.74908   2.75946   2.79238
 Alpha virt. eigenvalues --    2.81251   2.84527   3.02429   3.07386   4.09121
 Alpha virt. eigenvalues --    4.17175   4.23297   4.24525   4.32229   4.45820
 Alpha virt. eigenvalues --    4.49334   4.54839   4.72616   4.78239   5.02603
          Condensed to atoms (all electrons):
               1          2          3          4          5          6
     1  O    7.982232   0.584696  -0.062889   0.000579  -0.000039   0.000288
     2  C    0.584696   4.636186   0.307491  -0.057464   0.003695  -0.049482
     3  C   -0.062889   0.307491   5.232446   0.362468  -0.037113  -0.049552
     4  C    0.000579  -0.057464   0.362468   5.035002   0.362585   0.357668
     5  C   -0.000039   0.003695  -0.037113   0.362585   5.105808  -0.031286
     6  C    0.000288  -0.049482  -0.049552   0.357668  -0.031286   4.843314
     7  C   -0.000058   0.003209   0.000549  -0.043844  -0.011318   0.377763
     8  C   -0.001000  -0.000571   0.001394  -0.041711   0.002235   0.375442
     9  C   -0.062848   0.297724  -0.143846  -0.066346   0.001721   0.380491
    10  C    0.001385  -0.053904  -0.056564  -0.013038   0.000182  -0.025756
    11  C    0.001726  -0.057234   0.358288  -0.030257  -0.010932  -0.017276
    12  H    0.001261  -0.027978   0.354523  -0.031063  -0.001149   0.005777
    13  H    0.000712   0.001010  -0.047001   0.370947  -0.047186  -0.047198
    14  H   -0.000000   0.000065  -0.006357  -0.030613   0.371474  -0.006021
    15  H    0.000000  -0.000104   0.004240  -0.028510   0.370472  -0.003583
    16  H   -0.000000   0.000008  -0.003227  -0.028270   0.370292   0.004137
    17  H   -0.000000   0.000163   0.000051  -0.004540   0.000671  -0.025495
    18  H    0.000000  -0.000098   0.000101  -0.005066   0.001534  -0.027816
    19  H   -0.000000   0.000016  -0.000119   0.004898   0.000223  -0.029096
    20  H    0.000008  -0.000103   0.000245  -0.005900   0.000528  -0.029104
    21  H    0.000030  -0.000144  -0.000197   0.005035  -0.000159  -0.030213
    22  H    0.002309   0.007099   0.000554  -0.004966   0.000084  -0.028973
    23  H    0.001080  -0.028625   0.006617   0.006275  -0.000093  -0.034564
    24  H    0.000470   0.000329   0.002043  -0.000034  -0.000011   0.004564
    25  H   -0.000062   0.004212   0.001294   0.000791  -0.000006  -0.012383
    26  H    0.000324   0.000127  -0.032322   0.004532   0.000195   0.000012
    27  H   -0.000066   0.004050  -0.029999  -0.011870   0.004157   0.001133
               7          8          9         10         11         12
     1  O   -0.000058  -0.001000  -0.062848   0.001385   0.001726   0.001261
     2  C    0.003209  -0.000571   0.297724  -0.053904  -0.057234  -0.027978
     3  C    0.000549   0.001394  -0.143846  -0.056564   0.358288   0.354523
     4  C   -0.043844  -0.041711  -0.066346  -0.013038  -0.030257  -0.031063
     5  C   -0.011318   0.002235   0.001721   0.000182  -0.010932  -0.001149
     6  C    0.377763   0.375442   0.380491  -0.025756  -0.017276   0.005777
     7  C    5.153599  -0.068538  -0.046698  -0.010790  -0.000243  -0.000100
     8  C   -0.068538   5.175321  -0.056350   0.004883   0.000253  -0.000231
     9  C   -0.046698  -0.056350   5.256439   0.360164  -0.051941   0.006815
    10  C   -0.010790   0.004883   0.360164   5.096585   0.341256   0.005619
    11  C   -0.000243   0.000253  -0.051941   0.341256   5.098392  -0.035051
    12  H   -0.000100  -0.000231   0.006815   0.005619  -0.035051   0.590758
    13  H    0.004599  -0.010950   0.003804  -0.000103   0.005735  -0.003986
    14  H    0.001666  -0.000021   0.000163  -0.000103   0.001910  -0.000215
    15  H    0.000453   0.000369   0.000107  -0.000037   0.000263  -0.000080
    16  H    0.000281  -0.000127  -0.000130   0.000050  -0.000290   0.002337
    17  H    0.365234   0.005595  -0.005408   0.000556   0.000288  -0.000013
    18  H    0.366720  -0.004788   0.004774   0.000337  -0.000046  -0.000001
    19  H    0.367606  -0.004491  -0.004378  -0.000516   0.000076   0.000003
    20  H   -0.003985   0.363785   0.005134  -0.000153   0.000001   0.000001
    21  H   -0.004586   0.364854  -0.004745   0.000001   0.000005   0.000006
    22  H    0.005543   0.365724  -0.006451   0.000140   0.000023  -0.000049
    23  H   -0.000968  -0.004748   0.354262  -0.035083   0.005651  -0.000159
    24  H    0.000241  -0.000165  -0.034725   0.367920  -0.029733  -0.000192
    25  H    0.005201   0.000124  -0.027753   0.368887  -0.030135  -0.000074
    26  H    0.000005   0.000004   0.002357  -0.028679   0.369753  -0.003388
    27  H    0.000002  -0.000013  -0.000021  -0.029645   0.368175   0.000907
              13         14         15         16         17         18
     1  O    0.000712  -0.000000   0.000000  -0.000000  -0.000000   0.000000
     2  C    0.001010   0.000065  -0.000104   0.000008   0.000163  -0.000098
     3  C   -0.047001  -0.006357   0.004240  -0.003227   0.000051   0.000101
     4  C    0.370947  -0.030613  -0.028510  -0.028270  -0.004540  -0.005066
     5  C   -0.047186   0.371474   0.370472   0.370292   0.000671   0.001534
     6  C   -0.047198  -0.006021  -0.003583   0.004137  -0.025495  -0.027816
     7  C    0.004599   0.001666   0.000453   0.000281   0.365234   0.366720
     8  C   -0.010950  -0.000021   0.000369  -0.000127   0.005595  -0.004788
     9  C    0.003804   0.000163   0.000107  -0.000130  -0.005408   0.004774
    10  C   -0.000103  -0.000103  -0.000037   0.000050   0.000556   0.000337
    11  C    0.005735   0.001910   0.000263  -0.000290   0.000288  -0.000046
    12  H   -0.003986  -0.000215  -0.000080   0.002337  -0.000013  -0.000001
    13  H    0.625429   0.005528  -0.003172  -0.003668  -0.000117   0.000109
    14  H    0.005528   0.571675  -0.031303  -0.031912   0.002188   0.000061
    15  H   -0.003172  -0.031303   0.572237  -0.030924   0.000034   0.001426
    16  H   -0.003668  -0.031912  -0.030924   0.573848  -0.000036  -0.000031
    17  H   -0.000117   0.002188   0.000034  -0.000036   0.574993  -0.030972
    18  H    0.000109   0.000061   0.001426  -0.000031  -0.030972   0.576026
    19  H   -0.000143  -0.000051  -0.000039  -0.000004  -0.031521  -0.031264
    20  H    0.002772   0.000012   0.000417  -0.000043  -0.000061   0.004228
    21  H    0.000404   0.000006  -0.000037   0.000003  -0.000009  -0.000219
    22  H    0.003194  -0.000004  -0.000015   0.000001  -0.000188   0.000007
    23  H   -0.000242  -0.000009  -0.000002   0.000003  -0.000169  -0.000096
    24  H    0.000015   0.000012   0.000000  -0.000000  -0.000038  -0.000001
    25  H   -0.000003  -0.000120  -0.000004  -0.000000   0.003582  -0.000196
    26  H   -0.000175  -0.000145   0.000001  -0.000047   0.000010   0.000000
    27  H    0.000106   0.005234  -0.000227   0.000273   0.000182  -0.000018
              19         20         21         22         23         24
     1  O   -0.000000   0.000008   0.000030   0.002309   0.001080   0.000470
     2  C    0.000016  -0.000103  -0.000144   0.007099  -0.028625   0.000329
     3  C   -0.000119   0.000245  -0.000197   0.000554   0.006617   0.002043
     4  C    0.004898  -0.005900   0.005035  -0.004966   0.006275  -0.000034
     5  C    0.000223   0.000528  -0.000159   0.000084  -0.000093  -0.000011
     6  C   -0.029096  -0.029104  -0.030213  -0.028973  -0.034564   0.004564
     7  C    0.367606  -0.003985  -0.004586   0.005543  -0.000968   0.000241
     8  C   -0.004491   0.363785   0.364854   0.365724  -0.004748  -0.000165
     9  C   -0.004378   0.005134  -0.004745  -0.006451   0.354262  -0.034725
    10  C   -0.000516  -0.000153   0.000001   0.000140  -0.035083   0.367920
    11  C    0.000076   0.000001   0.000005   0.000023   0.005651  -0.029733
    12  H    0.000003   0.000001   0.000006  -0.000049  -0.000159  -0.000192
    13  H   -0.000143   0.002772   0.000404   0.003194  -0.000242   0.000015
    14  H   -0.000051   0.000012   0.000006  -0.000004  -0.000009   0.000012
    15  H   -0.000039   0.000417  -0.000037  -0.000015  -0.000002   0.000000
    16  H   -0.000004  -0.000043   0.000003   0.000001   0.000003  -0.000000
    17  H   -0.031521  -0.000061  -0.000009  -0.000188  -0.000169  -0.000038
    18  H   -0.031264   0.004228  -0.000219   0.000007  -0.000096  -0.000001
    19  H    0.577263  -0.000194   0.004337  -0.000056   0.002109  -0.000066
    20  H   -0.000194   0.580912  -0.030928  -0.029369   0.000056   0.000003
    21  H    0.004337  -0.030928   0.579228  -0.028628   0.003237  -0.000000
    22  H   -0.000056  -0.029369  -0.028628   0.553464   0.000455  -0.000003
    23  H    0.002109   0.000056   0.003237   0.000455   0.594192  -0.002923
    24  H   -0.000066   0.000003  -0.000000  -0.000003  -0.002923   0.583563
    25  H    0.000605  -0.000007   0.000000  -0.000004   0.000594  -0.036372
    26  H   -0.000001  -0.000000  -0.000000  -0.000000  -0.000176  -0.009922
    27  H    0.000005  -0.000001   0.000000   0.000000  -0.000073   0.003804
              25         26         27
     1  O   -0.000062   0.000324  -0.000066
     2  C    0.004212   0.000127   0.004050
     3  C    0.001294  -0.032322  -0.029999
     4  C    0.000791   0.004532  -0.011870
     5  C   -0.000006   0.000195   0.004157
     6  C   -0.012383   0.000012   0.001133
     7  C    0.005201   0.000005   0.000002
     8  C    0.000124   0.000004  -0.000013
     9  C   -0.027753   0.002357  -0.000021
    10  C    0.368887  -0.028679  -0.029645
    11  C   -0.030135   0.369753   0.368175
    12  H   -0.000074  -0.003388   0.000907
    13  H   -0.000003  -0.000175   0.000106
    14  H   -0.000120  -0.000145   0.005234
    15  H   -0.000004   0.000001  -0.000227
    16  H   -0.000000  -0.000047   0.000273
    17  H    0.003582   0.000010   0.000182
    18  H   -0.000196   0.000000  -0.000018
    19  H    0.000605  -0.000001   0.000005
    20  H   -0.000007  -0.000000  -0.000001
    21  H    0.000000  -0.000000   0.000000
    22  H   -0.000004  -0.000000   0.000000
    23  H    0.000594  -0.000176  -0.000073
    24  H   -0.036372  -0.009922   0.003804
    25  H    0.578658   0.003395  -0.008182
    26  H    0.003395   0.578904  -0.036452
    27  H   -0.008182  -0.036452   0.583514
 Mulliken charges:
               1
     1  O   -0.450137
     2  C    0.425629
     3  C   -0.163117
     4  C   -0.107287
     5  C   -0.456563
     6  C    0.097208
     7  C   -0.461546
     8  C   -0.466279
     9  C   -0.162315
    10  C   -0.293594
    11  C   -0.288658
    12  H    0.135723
    13  H    0.139582
    14  H    0.146883
    15  H    0.148017
    16  H    0.147476
    17  H    0.145020
    18  H    0.145289
    19  H    0.144798
    20  H    0.141747
    21  H    0.142719
    22  H    0.160109
    23  H    0.133399
    24  H    0.151221
    25  H    0.147959
    26  H    0.151688
    27  H    0.145027
 Sum of Mulliken charges =  -0.00000
 Mulliken charges with hydrogens summed into heavy atoms:
               1
     1  O   -0.450137
     2  C    0.425629
     3  C   -0.027393
     4  C    0.032295
     5  C   -0.014187
     6  C    0.097208
     7  C   -0.026440
     8  C   -0.021703
     9  C   -0.028916
    10  C    0.005587
    11  C    0.008057
 APT charges:
               1
     1  O   -0.643303
     2  C    0.723757
     3  C   -0.079019
     4  C    0.102961
     5  C    0.051082
     6  C    0.120837
     7  C    0.032111
     8  C    0.051853
     9  C   -0.102088
    10  C    0.089345
    11  C    0.091212
    12  H   -0.036173
    13  H   -0.063457
    14  H   -0.012119
    15  H   -0.021859
    16  H   -0.023642
    17  H   -0.016242
    18  H   -0.021174
    19  H   -0.020552
    20  H   -0.028933
    21  H   -0.026814
    22  H   -0.005945
    23  H   -0.034153
    24  H   -0.041053
    25  H   -0.023804
    26  H   -0.037082
    27  H   -0.025746
 Sum of APT charges =   0.00000
 APT charges with hydrogens summed into heavy atoms:
               1
     1  O   -0.643303
     2  C    0.723757
     3  C   -0.115192
     4  C    0.039504
     5  C   -0.006538
     6  C    0.120837
     7  C   -0.025857
     8  C   -0.009839
     9  C   -0.136241
    10  C    0.024488
    11  C    0.028384
 Electronic spatial extent (au):  <R**2>=           1548.6210
 Charge=             -0.0000 electrons
 Dipole moment (field-independent basis, Debye):
    X=              2.2547    Y=             -1.6196    Z=              1.1142  Tot=              2.9914
 Quadrupole moment (field-independent basis, Debye-Ang):
   XX=            -73.6480   YY=            -69.1482   ZZ=            -67.6112
   XY=              4.7095   XZ=             -3.6341   YZ=              1.9987
 Traceless Quadrupole moment (field-independent basis, Debye-Ang):
   XX=             -3.5122   YY=              0.9876   ZZ=              2.5246
   XY=              4.7095   XZ=             -3.6341   YZ=              1.9987
 Octapole moment (field-independent basis, Debye-Ang**2):
  XXX=              7.8955  YYY=              1.3253  ZZZ=             -3.3029  XYY=              1.7939
  XXY=            -10.5501  XXZ=              7.0536  XZZ=             -0.7293  YZZ=             -0.2107
  YYZ=              2.2241  XYZ=             -4.7675
 Hexadecapole moment (field-independent basis, Debye-Ang**3):
 XXXX=           -909.4789 YYYY=           -687.3217 ZZZZ=           -499.0060 XXXY=             22.9294
 XXXZ=            -23.1817 YYYX=             -3.3039 YYYZ=              2.6917 ZZZX=              4.7891
 ZZZY=              1.7016 XXYY=           -275.3597 XXZZ=           -235.7771 YYZZ=           -193.5409
 XXYZ=              8.6956 YYXZ=              1.4121 ZZXY=              0.7777
 N-N= 6.765751899170D+02 E-N=-2.433476029768D+03  KE= 4.614621746996D+02
  Exact polarizability: 102.827  -0.537  98.671   0.547   1.019  93.732
 Approx polarizability: 147.233  -7.561 141.657   5.411  -2.504 138.672
 Calling FoFJK, ICntrl=    100127 FMM=F ISym2X=0 I1Cent= 0 IOpClX= 0 NMat=1 NMatS=1 NMatT=0.
 Full mass-weighted force constant matrix:
 Low frequencies ---   -7.4463    0.0002    0.0006    0.0007    3.5754    8.3113
 Low frequencies ---   63.2320  123.2951  216.7834
 Diagonal vibrational polarizability:
        5.4733926       4.9464768       5.0534903
 Harmonic frequencies (cm**-1), IR intensities (KM/Mole), Raman scattering
 activities (A**4/AMU), depolarization ratios for plane and unpolarized
 incident light, reduced masses (AMU), force constants (mDyne/A),
 and normal coordinates:
                      1                      2                      3
                      A                      A                      A
 Frequencies --     63.1907               123.2950               216.7832
 Red. masses --      2.8387                 6.8813                 1.1211
 Frc consts  --      0.0067                 0.0616                 0.0310
 IR Inten    --      0.3604                 3.0201                 0.0481
  Atom  AN      X      Y      Z        X      Y      Z        X      Y      Z
     1   8     0.03   0.08   0.07     0.39   0.20  -0.28     0.00  -0.01  -0.01
     2   6     0.02   0.03   0.02     0.03  -0.02   0.03    -0.00  -0.01  -0.00
     3   6    -0.00   0.05  -0.07    -0.07  -0.09   0.11    -0.01  -0.01   0.01
     4   6     0.04  -0.03   0.03    -0.10  -0.01   0.01    -0.01  -0.01   0.00
     5   6    -0.02  -0.10   0.18    -0.04   0.05  -0.09     0.02   0.02  -0.01
     6   6     0.01   0.01  -0.01    -0.08  -0.00   0.02    -0.00  -0.00  -0.01
     7   6     0.07   0.14  -0.04     0.00   0.04  -0.06    -0.02   0.01   0.02
     8   6    -0.12   0.02  -0.06    -0.21   0.03   0.02     0.01  -0.02  -0.03
     9   6     0.03  -0.06   0.03    -0.06  -0.08   0.10     0.00   0.00  -0.01
    10   6     0.06  -0.12  -0.05     0.04  -0.09   0.10     0.06  -0.00   0.01
    11   6    -0.10  -0.02  -0.12     0.04  -0.09   0.12    -0.05   0.01   0.01
    12   1     0.01   0.12  -0.11    -0.09  -0.10   0.13    -0.02  -0.01   0.01
    13   1     0.15  -0.09  -0.00    -0.20   0.01   0.02    -0.02   0.00   0.01
    14   1    -0.10  -0.02   0.24     0.06   0.03  -0.11    -0.25  -0.22  -0.16
    15   1     0.01  -0.17   0.20    -0.08   0.11  -0.16     0.08   0.07   0.39
    16   1    -0.02  -0.16   0.23    -0.08   0.06  -0.09     0.27   0.24  -0.27
    17   1     0.15   0.16   0.03     0.07   0.03  -0.07     0.15  -0.12  -0.22
    18   1     0.05   0.16  -0.08    -0.03   0.08  -0.13     0.03   0.33   0.12
    19   1     0.07   0.19  -0.09     0.03   0.03  -0.06    -0.26  -0.17   0.19
    20   1    -0.11   0.08  -0.06    -0.26   0.10  -0.07    -0.05  -0.07  -0.11
    21   1    -0.18   0.07  -0.09    -0.18   0.02   0.03     0.13  -0.03  -0.04
    22   1    -0.15  -0.07  -0.07    -0.29   0.01   0.11    -0.02   0.04   0.05
    23   1     0.03  -0.10   0.10    -0.06  -0.08   0.10     0.01   0.00  -0.01
    24   1     0.12  -0.14   0.07     0.05  -0.14   0.15     0.11  -0.01   0.11
    25   1     0.13  -0.22  -0.15     0.08  -0.06   0.07     0.13  -0.02  -0.07
    26   1    -0.17   0.13  -0.16     0.07  -0.16   0.17    -0.10   0.11   0.02
    27   1    -0.23  -0.14  -0.18     0.10  -0.05   0.08    -0.14  -0.06   0.01
                      4                      5                      6
                      A                      A                      A
 Frequencies --    241.9333               255.3990               270.3594
 Red. masses --      2.6317                 1.4134                 1.5748
 Frc consts  --      0.0908                 0.0543                 0.0678
 IR Inten    --      0.3632                 0.2121                 0.1711
  Atom  AN      X      Y      Z        X      Y      Z        X      Y      Z
     1   8    -0.03  -0.10  -0.09     0.01  -0.00   0.03    -0.01  -0.04  -0.04
     2   6     0.01  -0.02  -0.05     0.02   0.00   0.00    -0.02  -0.02  -0.01
     3   6     0.03   0.01   0.00     0.02  -0.01   0.01    -0.02  -0.02   0.01
     4   6     0.03   0.02  -0.01     0.02  -0.02   0.01    -0.03   0.02   0.02
     5   6    -0.10  -0.10   0.03     0.07   0.03  -0.02     0.07   0.11   0.05
     6   6     0.02   0.03  -0.00     0.01  -0.02   0.01    -0.01   0.01   0.00
     7   6     0.08  -0.07  -0.11     0.06  -0.03  -0.06     0.03  -0.04  -0.06
     8   6    -0.05   0.14   0.19    -0.07  -0.01  -0.01     0.06  -0.00   0.01
     9   6     0.01   0.03  -0.02     0.01  -0.00   0.01    -0.01  -0.00   0.01
    10   6     0.05   0.05   0.01    -0.10   0.03   0.01     0.02  -0.02   0.01
    11   6    -0.02   0.05   0.03    -0.05   0.02   0.02    -0.12   0.00   0.00
    12   1     0.04  -0.03   0.01     0.01  -0.00   0.01    -0.01  -0.00  -0.00
    13   1     0.05  -0.01  -0.02     0.01  -0.00   0.02    -0.07   0.01   0.01
    14   1    -0.25  -0.12   0.02    -0.16  -0.20  -0.16     0.24   0.24   0.13
    15   1    -0.03  -0.26   0.09     0.12   0.10   0.35     0.01   0.20  -0.11
    16   1    -0.16  -0.04   0.01     0.31   0.24  -0.26     0.06  -0.04   0.17
    17   1     0.14  -0.13  -0.23    -0.08   0.08   0.15    -0.03   0.02   0.05
    18   1     0.04   0.00  -0.20    -0.00  -0.33  -0.20    -0.01  -0.19  -0.16
    19   1     0.16  -0.17  -0.02     0.33   0.13  -0.22     0.20   0.03  -0.13
    20   1    -0.01   0.34   0.22    -0.01   0.07   0.06    -0.14  -0.13  -0.26
    21   1    -0.16   0.02   0.34    -0.20   0.04  -0.02     0.44  -0.10   0.02
    22   1    -0.06   0.19   0.22    -0.05  -0.11  -0.08    -0.06   0.21   0.27
    23   1    -0.01   0.04  -0.05     0.02   0.01  -0.00    -0.03  -0.01   0.01
    24   1     0.10   0.04   0.10    -0.14   0.09  -0.08     0.09  -0.01   0.12
    25   1     0.13   0.06  -0.06    -0.17   0.01   0.08     0.10  -0.06  -0.08
    26   1    -0.07   0.15   0.01    -0.06   0.02  -0.03    -0.19   0.16  -0.01
    27   1    -0.11  -0.02   0.05    -0.06   0.01   0.07    -0.24  -0.11   0.00
                      7                      8                      9
                      A                      A                      A
 Frequencies --    277.4108               292.7785               304.5235
 Red. masses --      1.4016                 2.1182                 1.6749
 Frc consts  --      0.0636                 0.1070                 0.0915
 IR Inten    --      0.1556                 0.0856                 0.1120
  Atom  AN      X      Y      Z        X      Y      Z        X      Y      Z
     1   8     0.00  -0.04  -0.04    -0.00   0.06   0.00     0.01   0.03   0.05
     2   6    -0.00  -0.02  -0.00    -0.05   0.01   0.01     0.04   0.01  -0.01
     3   6    -0.01  -0.01   0.02    -0.05  -0.01  -0.01     0.02  -0.01  -0.00
     4   6    -0.01   0.00   0.02    -0.05   0.02  -0.04     0.03  -0.05  -0.02
     5   6     0.00   0.03  -0.08     0.03   0.08   0.17     0.12   0.02  -0.01
     6   6     0.01   0.01   0.02    -0.05   0.01  -0.06     0.01  -0.04  -0.03
     7   6     0.00   0.05   0.04    -0.07  -0.12  -0.09    -0.01  -0.08  -0.02
     8   6     0.05  -0.01   0.01     0.05   0.01  -0.00    -0.11   0.00   0.00
     9   6    -0.00  -0.00   0.00    -0.02   0.00  -0.02     0.03  -0.00  -0.02
    10   6     0.06  -0.02   0.02     0.09  -0.02  -0.01    -0.05   0.06   0.01
    11   6    -0.10   0.01   0.01     0.08  -0.02   0.00    -0.07   0.04   0.03
    12   1     0.00  -0.00   0.01    -0.07  -0.02   0.02     0.00  -0.02   0.01
    13   1    -0.06   0.03   0.03    -0.03  -0.05  -0.07     0.01  -0.06  -0.03
    14   1     0.10   0.03  -0.08    -0.07   0.13   0.21     0.37   0.18   0.09
    15   1    -0.03   0.05  -0.19     0.04   0.15   0.33     0.04   0.10  -0.28
    16   1    -0.07   0.02  -0.06     0.25   0.00   0.15     0.03  -0.16   0.17
    17   1    -0.01   0.10   0.14    -0.14  -0.13  -0.14     0.12  -0.22  -0.30
    18   1    -0.00  -0.03   0.03    -0.07  -0.18  -0.10     0.04   0.23   0.08
    19   1     0.03   0.13  -0.03     0.01  -0.17  -0.05    -0.22  -0.30   0.18
    20   1     0.31   0.05   0.38     0.25   0.05   0.30    -0.05   0.15   0.07
    21   1    -0.37   0.10  -0.01    -0.26   0.06   0.02    -0.30   0.02   0.02
    22   1     0.26  -0.20  -0.36     0.24  -0.08  -0.28    -0.12  -0.12  -0.05
    23   1    -0.01  -0.01   0.01    -0.02  -0.01   0.00     0.07   0.03  -0.05
    24   1     0.14  -0.02   0.16     0.11  -0.08   0.05    -0.05   0.12  -0.01
    25   1     0.16  -0.06  -0.10     0.14   0.02  -0.05    -0.07   0.04   0.03
    26   1    -0.18   0.18   0.00     0.11  -0.09   0.08    -0.10   0.11  -0.01
    27   1    -0.24  -0.12   0.01     0.14   0.02  -0.06    -0.12   0.00   0.07
                     10                     11                     12
                      A                      A                      A
 Frequencies --    359.8582               377.1809               420.6497
 Red. masses --      1.9374                 2.7252                 3.1840
 Frc consts  --      0.1478                 0.2284                 0.3319
 IR Inten    --      0.0262                 1.1382                 0.7081
  Atom  AN      X      Y      Z        X      Y      Z        X      Y      Z
     1   8    -0.00  -0.00  -0.01     0.03   0.09   0.11     0.11  -0.09   0.06
     2   6    -0.02  -0.01   0.01     0.00  -0.05  -0.02     0.09  -0.08   0.08
     3   6    -0.04  -0.03   0.02    -0.06  -0.11  -0.01     0.07  -0.04   0.05
     4   6    -0.04   0.01   0.02    -0.03  -0.09  -0.09     0.02   0.09  -0.02
     5   6    -0.02   0.04   0.03     0.05  -0.05  -0.02    -0.08   0.02   0.02
     6   6     0.01   0.00   0.01     0.00  -0.02  -0.12     0.03   0.14  -0.08
     7   6     0.14   0.08  -0.09    -0.07   0.12   0.01    -0.12  -0.04  -0.03
     8   6     0.11  -0.01   0.03     0.06   0.09   0.13     0.06   0.17  -0.12
     9   6    -0.01  -0.02   0.01     0.04  -0.04  -0.11     0.06  -0.02   0.03
    10   6    -0.14  -0.03  -0.01     0.00   0.03  -0.03    -0.09  -0.05   0.01
    11   6    -0.02  -0.06   0.00    -0.04  -0.05   0.05    -0.08  -0.06   0.01
    12   1    -0.02  -0.01   0.00    -0.09  -0.16   0.03     0.08   0.02   0.01
    13   1    -0.07   0.01   0.02    -0.09  -0.13  -0.12    -0.07   0.03  -0.06
    14   1     0.01   0.07   0.05     0.02  -0.02   0.00    -0.20   0.04   0.04
    15   1    -0.04   0.07   0.01     0.04   0.04   0.07    -0.02  -0.14   0.02
    16   1    -0.01   0.00   0.05     0.19  -0.09  -0.03    -0.17   0.03   0.04
    17   1     0.45  -0.04  -0.27    -0.11   0.22   0.22    -0.36  -0.08  -0.19
    18   1     0.11   0.47  -0.15    -0.02   0.03   0.10    -0.04  -0.15   0.13
    19   1    -0.01  -0.06   0.05    -0.16   0.31  -0.16    -0.14  -0.17   0.08
    20   1     0.21  -0.08   0.18     0.07   0.21   0.12     0.07   0.12  -0.10
    21   1     0.04  -0.01   0.04     0.10  -0.14   0.35     0.06   0.20  -0.15
    22   1     0.24   0.02  -0.11     0.08   0.33   0.23     0.08   0.15  -0.16
    23   1    -0.03  -0.03   0.03     0.04  -0.01  -0.16    -0.02  -0.04   0.05
    24   1    -0.22   0.03  -0.17     0.00   0.12  -0.07    -0.17   0.08  -0.16
    25   1    -0.25  -0.03   0.11    -0.03   0.04   0.01    -0.26  -0.13   0.15
    26   1     0.04  -0.18  -0.02    -0.04  -0.04   0.11    -0.14   0.06  -0.12
    27   1     0.08   0.03   0.02    -0.04  -0.04   0.08    -0.19  -0.15   0.10
                     13                     14                     15
                      A                      A                      A
 Frequencies --    478.2516               508.7910               529.4904
 Red. masses --      2.9797                 3.6283                 3.2057
 Frc consts  --      0.4016                 0.5534                 0.5295
 IR Inten    --      1.0584                 3.1968                 2.9316
  Atom  AN      X      Y      Z        X      Y      Z        X      Y      Z
     1   8     0.02  -0.10  -0.05    -0.02   0.12   0.08    -0.09  -0.02  -0.12
     2   6     0.05  -0.00   0.01    -0.04  -0.06  -0.12    -0.05   0.13   0.06
     3   6    -0.10   0.02  -0.00    -0.04  -0.15   0.01    -0.13   0.06   0.09
     4   6    -0.12   0.05  -0.08    -0.01   0.02   0.18    -0.02  -0.13   0.09
     5   6    -0.12   0.14   0.06    -0.06   0.04   0.01     0.11  -0.11  -0.03
     6   6     0.11  -0.09  -0.03     0.07   0.09   0.10     0.08   0.07  -0.03
     7   6     0.08  -0.02   0.12     0.11  -0.08   0.09     0.01  -0.02   0.03
     8   6    -0.07  -0.04   0.01    -0.02   0.08  -0.05     0.03   0.15  -0.04
     9   6     0.18  -0.02  -0.03    -0.01   0.02  -0.17     0.08   0.05   0.05
    10   6     0.02   0.03  -0.05     0.05   0.03  -0.14     0.00  -0.07  -0.05
    11   6    -0.01  -0.00  -0.02    -0.02  -0.12   0.02    -0.02  -0.07  -0.02
    12   1    -0.18   0.10  -0.00     0.21  -0.27  -0.06    -0.20   0.20   0.05
    13   1    -0.16   0.08  -0.06    -0.07   0.04   0.19    -0.03  -0.20   0.05
    14   1    -0.19   0.28   0.15     0.02  -0.07  -0.07     0.31  -0.24  -0.12
    15   1    -0.12   0.21   0.18    -0.07   0.03  -0.07     0.03   0.10  -0.06
    16   1     0.06   0.00   0.11    -0.17   0.16  -0.04     0.17  -0.02  -0.11
    17   1     0.04   0.03   0.23     0.02  -0.12  -0.03    -0.16  -0.04  -0.05
    18   1     0.17  -0.02   0.30     0.08  -0.15   0.02     0.06  -0.11   0.13
    19   1    -0.11   0.08   0.04     0.27  -0.19   0.19     0.01  -0.09   0.09
    20   1    -0.09   0.17  -0.05    -0.07   0.12  -0.13     0.02   0.26  -0.08
    21   1    -0.19  -0.03   0.03    -0.06   0.20  -0.17    -0.01   0.12  -0.00
    22   1    -0.18  -0.17   0.08    -0.13  -0.10  -0.03    -0.02   0.14   0.01
    23   1     0.28  -0.02   0.00    -0.23   0.01  -0.21     0.20  -0.05   0.26
    24   1    -0.03   0.16  -0.18     0.08   0.05  -0.10    -0.03  -0.01  -0.12
    25   1    -0.10  -0.03   0.05     0.09   0.11  -0.16    -0.08  -0.12   0.02
    26   1     0.02  -0.05   0.06    -0.02  -0.13   0.13     0.06  -0.25   0.10
    27   1     0.04   0.04  -0.06     0.01  -0.09   0.05     0.15   0.05  -0.16
                     16                     17                     18
                      A                      A                      A
 Frequencies --    613.7155               665.3968               736.7432
 Red. masses --      4.2949                 3.2443                 3.3418
 Frc consts  --      0.9531                 0.8463                 1.0687
 IR Inten    --      1.0258                 0.5009                 7.3818
  Atom  AN      X      Y      Z        X      Y      Z        X      Y      Z
     1   8     0.14  -0.14   0.08    -0.09   0.06  -0.05     0.01  -0.00  -0.01
     2   6     0.19  -0.02   0.07    -0.02   0.12  -0.02    -0.01   0.10   0.15
     3   6    -0.06   0.01  -0.00     0.13  -0.01   0.13     0.09  -0.05   0.14
     4   6    -0.11  -0.10   0.18     0.07   0.07   0.15     0.00   0.01  -0.17
     5   6    -0.02   0.00   0.01    -0.04   0.07   0.03     0.04  -0.03  -0.04
     6   6    -0.13   0.03   0.07    -0.00  -0.08  -0.09    -0.00   0.01   0.01
     7   6    -0.12   0.04  -0.09    -0.12   0.03  -0.12     0.05  -0.02   0.05
     8   6    -0.03  -0.07   0.06    -0.03  -0.11   0.04    -0.02  -0.04   0.02
     9   6     0.03   0.14  -0.02     0.13  -0.02  -0.04    -0.12   0.19  -0.01
    10   6     0.06   0.10  -0.18     0.02  -0.04  -0.07    -0.03   0.02  -0.17
    11   6     0.01   0.00  -0.13     0.00  -0.10   0.05     0.02  -0.17  -0.00
    12   1    -0.15   0.27  -0.09     0.35  -0.10   0.06    -0.09   0.12   0.14
    13   1    -0.06  -0.09   0.19    -0.01   0.03   0.12    -0.16   0.04  -0.16
    14   1     0.23  -0.18  -0.12    -0.05  -0.05  -0.06    -0.22   0.19   0.12
    15   1    -0.11   0.20  -0.09    -0.01  -0.07  -0.06     0.12  -0.18   0.10
    16   1    -0.04   0.14  -0.09    -0.25   0.22  -0.02     0.13  -0.23   0.08
    17   1    -0.01   0.01  -0.14    -0.10   0.06  -0.05     0.14  -0.02   0.08
    18   1    -0.20   0.08  -0.27    -0.09   0.06  -0.05     0.02   0.02  -0.02
    19   1     0.02   0.00  -0.07    -0.22   0.10  -0.17     0.09  -0.00   0.04
    20   1    -0.00  -0.16   0.12    -0.01  -0.03   0.06    -0.04  -0.01  -0.01
    21   1     0.01  -0.10   0.09    -0.06  -0.22   0.16    -0.04  -0.01  -0.01
    22   1     0.04   0.02   0.03    -0.02  -0.03   0.08    -0.06  -0.10   0.04
    23   1    -0.08   0.15  -0.07     0.39  -0.09   0.16    -0.09   0.13   0.10
    24   1     0.06   0.06  -0.18    -0.02   0.09  -0.20     0.01  -0.16  -0.05
    25   1     0.06   0.10  -0.18    -0.09  -0.01   0.05     0.10   0.23  -0.23
    26   1     0.05  -0.07   0.03    -0.07   0.05  -0.04    -0.11   0.10  -0.12
    27   1     0.10   0.08  -0.17    -0.11  -0.19   0.10    -0.20  -0.33   0.19
                     19                     20                     21
                      A                      A                      A
 Frequencies --    780.0670               791.6082               802.6119
 Red. masses --      2.9641                 2.5795                 2.1576
 Frc consts  --      1.0627                 0.9524                 0.8189
 IR Inten    --      2.3859                 1.1238                 2.1894
  Atom  AN      X      Y      Z        X      Y      Z        X      Y      Z
     1   8    -0.04  -0.03   0.04    -0.05   0.01  -0.01     0.03  -0.02   0.00
     2   6     0.25   0.17  -0.18     0.09   0.08  -0.12    -0.02  -0.04   0.05
     3   6     0.05   0.01   0.04    -0.05  -0.05  -0.04    -0.13   0.06  -0.01
     4   6    -0.04  -0.05  -0.02    -0.01   0.01  -0.11     0.14   0.14  -0.01
     5   6    -0.05   0.04   0.00     0.04  -0.04  -0.03     0.08  -0.01  -0.00
     6   6     0.01  -0.02  -0.01    -0.09   0.11   0.16     0.02   0.00  -0.00
     7   6    -0.01  -0.01  -0.01    -0.05   0.04   0.01    -0.03   0.01  -0.02
     8   6     0.01   0.03  -0.02    -0.03  -0.01   0.05    -0.01  -0.05   0.02
     9   6    -0.07   0.02  -0.02     0.13  -0.04   0.04     0.01  -0.02  -0.07
    10   6    -0.10  -0.10   0.05     0.07  -0.02  -0.03    -0.02   0.03  -0.00
    11   6    -0.04  -0.04   0.07    -0.00  -0.03   0.08    -0.11  -0.09   0.06
    12   1     0.03   0.01   0.05    -0.15  -0.09   0.03    -0.19   0.28  -0.09
    13   1    -0.11  -0.07  -0.03    -0.01   0.11  -0.06     0.15   0.17   0.01
    14   1    -0.05   0.07   0.02    -0.12   0.11   0.07    -0.12   0.00   0.01
    15   1    -0.07   0.10   0.04     0.09  -0.14   0.05     0.19  -0.34  -0.02
    16   1     0.01   0.00   0.01     0.09  -0.17   0.05    -0.15   0.03   0.04
    17   1    -0.00   0.01   0.03    -0.04  -0.03  -0.14    -0.03   0.01  -0.03
    18   1     0.02  -0.02   0.05    -0.17   0.02  -0.22    -0.04  -0.00  -0.05
    19   1    -0.06   0.02  -0.03     0.21  -0.09   0.11    -0.01   0.01  -0.02
    20   1     0.01   0.07  -0.02    -0.05  -0.38   0.08    -0.03  -0.07  -0.00
    21   1    -0.01   0.00   0.01     0.12   0.19  -0.18    -0.01  -0.01  -0.02
    22   1     0.01   0.05  -0.01     0.06  -0.06  -0.09    -0.03  -0.11   0.02
    23   1    -0.07   0.02  -0.03     0.11  -0.13   0.20     0.02   0.00  -0.10
    24   1     0.14  -0.22   0.50    -0.05   0.15  -0.27     0.13   0.15   0.22
    25   1     0.28  -0.08  -0.32    -0.15  -0.02   0.20     0.14  -0.01  -0.18
    26   1     0.11  -0.38  -0.03    -0.04   0.07   0.20     0.06  -0.47   0.19
    27   1     0.22   0.20   0.10    -0.08  -0.11   0.05     0.22   0.20   0.03
                     22                     23                     24
                      A                      A                      A
 Frequencies --    874.2895               892.5100               930.0136
 Red. masses --      1.7374                 4.2369                 2.1167
 Frc consts  --      0.7825                 1.9885                 1.0787
 IR Inten    --      0.9364                 2.0234                 4.7041
  Atom  AN      X      Y      Z        X      Y      Z        X      Y      Z
     1   8     0.00   0.01  -0.01     0.03  -0.03   0.03     0.00  -0.01  -0.01
     2   6    -0.07  -0.03   0.05     0.04  -0.02  -0.00     0.01   0.04   0.05
     3   6     0.06  -0.10   0.02    -0.06   0.15   0.19     0.04   0.02  -0.09
     4   6    -0.02  -0.01  -0.02     0.03   0.04   0.01     0.01  -0.02   0.01
     5   6     0.00  -0.00  -0.01     0.03  -0.01   0.00    -0.02   0.03   0.02
     6   6    -0.02   0.01   0.02     0.00  -0.01  -0.02    -0.11  -0.12   0.00
     7   6    -0.01   0.00   0.00     0.02  -0.01   0.02    -0.01  -0.08   0.06
     8   6    -0.00   0.02   0.01    -0.00   0.01  -0.01     0.01   0.14  -0.07
     9   6     0.07  -0.01   0.07    -0.11  -0.19  -0.13    -0.02  -0.10   0.01
    10   6    -0.05   0.03  -0.11    -0.00  -0.14  -0.24     0.00   0.07  -0.05
    11   6    -0.04   0.12  -0.03     0.05   0.24   0.14     0.00  -0.06   0.06
    12   1     0.16  -0.27   0.05    -0.21  -0.02   0.37    -0.03   0.22  -0.16
    13   1    -0.12   0.00  -0.02    -0.04  -0.01  -0.02     0.17   0.00   0.03
    14   1    -0.06   0.05   0.03     0.01  -0.02  -0.00     0.04  -0.05  -0.04
    15   1     0.02  -0.04   0.03     0.04  -0.05  -0.00    -0.05   0.06  -0.05
    16   1     0.02  -0.06   0.03     0.00   0.00  -0.00    -0.08   0.11  -0.03
    17   1     0.00  -0.00  -0.00     0.06  -0.01   0.03     0.42  -0.04   0.29
    18   1    -0.02  -0.01  -0.02    -0.00   0.01  -0.02    -0.12   0.15  -0.16
    19   1     0.02  -0.01   0.01     0.03   0.00  -0.00     0.02   0.12  -0.12
    20   1    -0.00  -0.08   0.02    -0.00  -0.04  -0.00     0.04   0.02  -0.01
    21   1     0.04   0.06  -0.04     0.02   0.01  -0.02     0.08   0.11  -0.06
    22   1     0.02   0.01  -0.03     0.02   0.02  -0.02     0.11   0.25  -0.13
    23   1     0.20  -0.08   0.23    -0.26  -0.34   0.07     0.23  -0.17   0.21
    24   1     0.16   0.12   0.22    -0.05  -0.16  -0.33     0.04   0.15  -0.00
    25   1     0.13  -0.29  -0.41    -0.06   0.02  -0.13     0.08   0.26  -0.06
    26   1     0.11  -0.22  -0.13     0.01   0.33   0.18    -0.02   0.01   0.11
    27   1     0.22   0.38   0.24    -0.04   0.15  -0.03    -0.03  -0.07   0.22
                     25                     26                     27
                      A                      A                      A
 Frequencies --    950.2420               956.3996               975.9188
 Red. masses --      2.2137                 1.5939                 1.7901
 Frc consts  --      1.1777                 0.8590                 1.0045
 IR Inten    --      2.1533                 0.7565                 0.2802
  Atom  AN      X      Y      Z        X      Y      Z        X      Y      Z
     1   8    -0.01  -0.01   0.01    -0.00   0.00   0.01     0.00  -0.00   0.01
     2   6     0.05   0.04  -0.04     0.01  -0.00  -0.03     0.02   0.01  -0.01
     3   6    -0.09  -0.13  -0.10    -0.05  -0.05   0.05    -0.03  -0.03   0.08
     4   6     0.04   0.03   0.02     0.00   0.03   0.02     0.01   0.03   0.01
     5   6     0.05   0.04   0.02     0.05  -0.00  -0.02     0.06   0.02   0.01
     6   6     0.02  -0.02  -0.05     0.01  -0.08   0.06    -0.12  -0.02  -0.06
     7   6     0.05  -0.02  -0.03    -0.08  -0.06  -0.02     0.07  -0.02   0.08
     8   6     0.01  -0.02  -0.03     0.07   0.07  -0.00    -0.09   0.02  -0.05
     9   6    -0.08   0.07   0.17     0.03   0.05  -0.01     0.04   0.03  -0.05
    10   6     0.02   0.00  -0.07    -0.00  -0.03   0.04    -0.00  -0.02   0.06
    11   6     0.01   0.04   0.03     0.02   0.04  -0.06     0.01   0.02  -0.08
    12   1    -0.15  -0.15  -0.07    -0.05  -0.16   0.11    -0.07  -0.13   0.15
    13   1     0.06   0.02   0.02    -0.12   0.12   0.07    -0.13  -0.00  -0.01
    14   1    -0.10  -0.07  -0.05    -0.13   0.07   0.04    -0.12  -0.02  -0.01
    15   1     0.15  -0.29  -0.09     0.13  -0.21   0.03     0.16  -0.29  -0.04
    16   1    -0.29   0.19   0.02    -0.03  -0.06   0.05    -0.19   0.08   0.04
    17   1    -0.09   0.04   0.07     0.35  -0.00   0.23     0.08  -0.04   0.05
    18   1     0.20  -0.04   0.26    -0.19   0.23  -0.22     0.04  -0.05   0.02
    19   1    -0.24   0.05  -0.08    -0.12   0.18  -0.23     0.14  -0.06   0.11
    20   1     0.04   0.15  -0.00    -0.03   0.23  -0.19     0.06  -0.24   0.21
    21   1    -0.06  -0.16   0.12    -0.07   0.24  -0.15     0.11  -0.22   0.15
    22   1    -0.00   0.08   0.03    -0.14  -0.24   0.08     0.22   0.47  -0.18
    23   1    -0.15  -0.01   0.31     0.05   0.12  -0.12     0.18   0.12  -0.18
    24   1    -0.06  -0.18  -0.16    -0.06  -0.13  -0.02    -0.03  -0.04   0.02
    25   1    -0.06  -0.01   0.01    -0.04  -0.09   0.05    -0.02  -0.08   0.06
    26   1    -0.01   0.12   0.33     0.01   0.06  -0.06     0.02  -0.01  -0.14
    27   1    -0.04  -0.00   0.08    -0.01  -0.00  -0.18     0.01   0.01  -0.22
                     28                     29                     30
                      A                      A                      A
 Frequencies --   1012.4660              1021.1261              1039.2293
 Red. masses --      1.6985                 1.4231                 1.7838
 Frc consts  --      1.0258                 0.8743                 1.1351
 IR Inten    --      0.0191                 0.1446                 1.5272
  Atom  AN      X      Y      Z        X      Y      Z        X      Y      Z
     1   8     0.00   0.00  -0.01     0.00   0.00   0.00     0.01   0.01   0.00
     2   6    -0.02   0.00   0.05    -0.01  -0.01   0.01    -0.02  -0.05  -0.02
     3   6    -0.04  -0.04  -0.06     0.04   0.02  -0.04     0.06   0.06  -0.02
     4   6     0.04  -0.02  -0.05     0.01  -0.02   0.01    -0.03   0.05  -0.02
     5   6    -0.03   0.04   0.07    -0.01   0.01  -0.04    -0.00  -0.05   0.01
     6   6    -0.00   0.01   0.01    -0.02  -0.01  -0.01    -0.06   0.02  -0.02
     7   6    -0.02   0.02   0.03    -0.03   0.02   0.07     0.04  -0.09  -0.02
     8   6     0.01  -0.01   0.02     0.03  -0.04  -0.08    -0.04   0.02   0.04
     9   6     0.06   0.08  -0.06    -0.00   0.06   0.00     0.03   0.12   0.00
    10   6    -0.08  -0.10  -0.00     0.04  -0.06  -0.01     0.05  -0.08  -0.03
    11   6     0.06   0.03   0.06    -0.05   0.02   0.06    -0.06  -0.00   0.08
    12   1    -0.30  -0.06   0.08     0.13   0.06  -0.11     0.24   0.04  -0.10
    13   1     0.36  -0.11  -0.09    -0.02   0.08   0.07     0.02  -0.07  -0.09
    14   1     0.17  -0.22  -0.12    -0.11   0.15   0.07     0.16  -0.11  -0.03
    15   1    -0.10   0.12  -0.15     0.01  -0.00   0.07    -0.08   0.13  -0.02
    16   1    -0.18   0.28  -0.08     0.09  -0.13   0.04     0.09  -0.00  -0.06
    17   1     0.03  -0.03  -0.06     0.13  -0.07  -0.08     0.17   0.04   0.30
    18   1    -0.11   0.01  -0.14    -0.21   0.03  -0.28     0.14   0.10   0.18
    19   1     0.16  -0.04   0.07     0.31  -0.08   0.14    -0.29   0.15  -0.21
    20   1    -0.02   0.00  -0.02     0.09   0.39  -0.05    -0.04  -0.25   0.07
    21   1    -0.00   0.04  -0.03    -0.16  -0.33   0.26     0.09   0.11  -0.10
    22   1    -0.03  -0.07   0.03    -0.05   0.15   0.12     0.06   0.01  -0.09
    23   1     0.21   0.16  -0.15    -0.07   0.05  -0.00    -0.15   0.18  -0.15
    24   1    -0.02  -0.24   0.13    -0.03   0.03  -0.15    -0.02   0.01  -0.18
    25   1     0.02  -0.20  -0.13    -0.12  -0.22   0.11    -0.16  -0.34   0.10
    26   1    -0.01   0.18  -0.06     0.02  -0.11   0.16     0.00  -0.14   0.15
    27   1    -0.10  -0.09   0.26     0.06   0.12   0.05     0.07   0.11   0.04
                     31                     32                     33
                      A                      A                      A
 Frequencies --   1055.8708              1099.0167              1106.7072
 Red. masses --      1.6245                 1.9645                 2.1687
 Frc consts  --      1.0670                 1.3980                 1.5650
 IR Inten    --      1.1856                 3.8571                 4.5374
  Atom  AN      X      Y      Z        X      Y      Z        X      Y      Z
     1   8     0.01  -0.00   0.00     0.01  -0.00   0.02     0.00   0.01   0.01
     2   6    -0.01  -0.02   0.00     0.02  -0.05  -0.10    -0.01  -0.04  -0.03
     3   6    -0.04   0.02  -0.06    -0.05   0.03   0.06    -0.04  -0.02   0.07
     4   6    -0.04   0.05   0.10    -0.02   0.17  -0.04     0.22  -0.07  -0.02
     5   6     0.01  -0.06  -0.07    -0.01  -0.11   0.04    -0.13   0.04  -0.05
     6   6     0.01  -0.05   0.04    -0.03   0.03   0.01     0.02  -0.07   0.04
     7   6     0.01   0.01  -0.04    -0.01  -0.02   0.02    -0.02   0.01  -0.03
     8   6    -0.03   0.03  -0.03     0.02  -0.05  -0.07    -0.04   0.04  -0.01
     9   6     0.04   0.03  -0.02     0.03   0.01   0.07    -0.03   0.05   0.05
    10   6    -0.07  -0.03  -0.02    -0.03   0.05  -0.02     0.03   0.02  -0.03
    11   6     0.07   0.00   0.05     0.02  -0.06  -0.01    -0.05  -0.01  -0.02
    12   1     0.04   0.08  -0.13    -0.05  -0.24   0.20    -0.11  -0.22   0.22
    13   1    -0.00   0.35   0.27     0.20   0.12  -0.06     0.44   0.03   0.05
    14   1    -0.06   0.20   0.12     0.36  -0.22  -0.05    -0.02   0.27   0.10
    15   1     0.03   0.02   0.15    -0.14   0.25  -0.04    -0.20   0.35   0.12
    16   1     0.28  -0.33   0.06     0.20  -0.01  -0.11     0.21  -0.12  -0.02
    17   1    -0.16   0.03  -0.05     0.11  -0.01   0.08    -0.05   0.01  -0.03
    18   1     0.10  -0.06   0.13    -0.05   0.06  -0.06     0.00  -0.02   0.01
    19   1    -0.12  -0.02  -0.01     0.01   0.04  -0.03    -0.04  -0.01  -0.01
    20   1     0.04  -0.07   0.08     0.07   0.25  -0.02     0.02  -0.14   0.09
    21   1     0.05  -0.06   0.04    -0.12  -0.26   0.18     0.11   0.02  -0.02
    22   1     0.08   0.18  -0.08    -0.03   0.11   0.08     0.10   0.17  -0.11
    23   1     0.21   0.10  -0.10    -0.02  -0.09   0.22     0.12   0.10   0.03
    24   1    -0.01  -0.27   0.14     0.06   0.14   0.12    -0.03  -0.13  -0.09
    25   1     0.08   0.01  -0.16     0.05   0.02  -0.11    -0.03   0.03   0.03
    26   1    -0.02   0.21   0.06    -0.03   0.03  -0.27    -0.00  -0.11   0.13
    27   1    -0.11  -0.14   0.20    -0.04  -0.12  -0.05     0.05   0.04  -0.30
                     34                     35                     36
                      A                      A                      A
 Frequencies --   1131.6608              1168.4736              1193.1241
 Red. masses --      1.2391                 2.2236                 1.5546
 Frc consts  --      0.9350                 1.7887                 1.3039
 IR Inten    --      3.3736                34.2194                 1.9072
  Atom  AN      X      Y      Z        X      Y      Z        X      Y      Z
     1   8     0.03  -0.03   0.01    -0.01  -0.03  -0.03     0.02  -0.00   0.01
     2   6     0.01   0.02   0.03     0.05   0.19   0.17    -0.01  -0.03  -0.01
     3   6    -0.03  -0.00  -0.03    -0.04  -0.10  -0.06     0.05  -0.02  -0.03
     4   6    -0.02   0.06  -0.01     0.01   0.07   0.02    -0.02  -0.01   0.02
     5   6    -0.00  -0.03   0.01    -0.03  -0.05  -0.01     0.00  -0.00  -0.01
     6   6     0.01  -0.00  -0.06     0.02   0.01  -0.01    -0.08   0.03   0.03
     7   6    -0.01   0.02   0.04     0.00  -0.02  -0.00     0.05  -0.00  -0.03
     8   6     0.00  -0.00   0.03    -0.02  -0.00  -0.00     0.04  -0.01   0.00
     9   6    -0.03   0.02  -0.02    -0.02  -0.05  -0.07    -0.05   0.06  -0.11
    10   6    -0.02  -0.02   0.01     0.04  -0.05   0.04     0.03  -0.07   0.04
    11   6    -0.03   0.02   0.01    -0.02   0.03  -0.05    -0.04   0.03   0.02
    12   1     0.44  -0.28  -0.13     0.06  -0.49   0.08    -0.33  -0.00   0.15
    13   1    -0.10  -0.07  -0.09     0.25   0.25   0.14     0.11   0.14   0.12
    14   1     0.11  -0.08  -0.02     0.13   0.00   0.02    -0.02   0.03   0.01
    15   1    -0.03   0.05  -0.01    -0.09   0.15   0.03     0.01  -0.01   0.02
    16   1     0.06  -0.00  -0.03     0.17  -0.10  -0.03     0.01  -0.04   0.01
    17   1     0.03  -0.03  -0.07     0.03  -0.00   0.03    -0.10   0.04   0.04
    18   1    -0.07  -0.02  -0.09     0.00   0.03   0.00     0.15  -0.04   0.18
    19   1     0.16  -0.04   0.08    -0.04   0.04  -0.05    -0.11  -0.01  -0.01
    20   1    -0.04  -0.07  -0.02    -0.00  -0.05   0.03    -0.01   0.12  -0.08
    21   1     0.02   0.09  -0.07     0.02  -0.03   0.01    -0.08   0.03  -0.01
    22   1    -0.01  -0.10  -0.01     0.02   0.03  -0.03    -0.07  -0.09   0.09
    23   1     0.40  -0.01   0.16    -0.41  -0.04  -0.21     0.42  -0.16   0.44
    24   1    -0.07  -0.27  -0.01     0.03   0.28  -0.07     0.01   0.14  -0.07
    25   1     0.07   0.32   0.03    -0.03   0.04   0.15     0.00   0.22   0.17
    26   1    -0.01  -0.02   0.30     0.02  -0.08  -0.10     0.02  -0.15  -0.30
    27   1     0.02   0.02  -0.31     0.02   0.10   0.21     0.05   0.10  -0.05
                     37                     38                     39
                      A                      A                      A
 Frequencies --   1201.0421              1203.8484              1231.1804
 Red. masses --      1.9073                 2.0688                 1.8698
 Frc consts  --      1.6210                 1.7665                 1.6699
 IR Inten    --      1.1792                 4.2837                 4.1384
  Atom  AN      X      Y      Z        X      Y      Z        X      Y      Z
     1   8     0.01  -0.01  -0.00    -0.01   0.01   0.01    -0.02   0.02  -0.02
     2   6    -0.03  -0.01   0.04     0.02  -0.00  -0.04    -0.02   0.02   0.04
     3   6    -0.04   0.07  -0.06    -0.03  -0.11   0.02     0.08  -0.09   0.03
     4   6     0.02  -0.11   0.02     0.09   0.04   0.08     0.01   0.03  -0.06
     5   6     0.00   0.06  -0.04    -0.05  -0.03  -0.04    -0.01  -0.02   0.04
     6   6     0.03   0.15   0.02     0.04   0.14  -0.13     0.02   0.05   0.16
     7   6    -0.02  -0.08  -0.01    -0.02  -0.06   0.05    -0.01  -0.03  -0.05
     8   6    -0.03  -0.04  -0.02    -0.03  -0.04   0.04    -0.01  -0.02  -0.07
     9   6     0.09   0.03  -0.03    -0.04  -0.01  -0.02     0.06  -0.05  -0.04
    10   6    -0.08  -0.03   0.01    -0.01   0.01   0.05    -0.02  -0.02   0.01
    11   6     0.03  -0.01   0.04     0.04   0.04  -0.06    -0.05   0.05  -0.04
    12   1     0.18  -0.33   0.03    -0.22   0.48  -0.19    -0.12   0.33  -0.08
    13   1     0.06  -0.18  -0.02    -0.15  -0.17  -0.05    -0.15   0.00  -0.08
    14   1    -0.19   0.14   0.03     0.04   0.14   0.07     0.13  -0.12  -0.04
    15   1     0.07  -0.10   0.04    -0.09   0.18   0.11    -0.06   0.06  -0.06
    16   1    -0.06  -0.03   0.05     0.19  -0.15  -0.02     0.01   0.07  -0.04
    17   1     0.19   0.00   0.22     0.28  -0.05   0.16    -0.04   0.04   0.09
    18   1    -0.01   0.16   0.01    -0.10   0.14  -0.11     0.04   0.07   0.07
    19   1    -0.12   0.13  -0.18     0.08   0.09  -0.09    -0.19   0.07  -0.12
    20   1     0.04  -0.04   0.09    -0.04  -0.17   0.04     0.10   0.14   0.07
    21   1    -0.02  -0.18   0.12     0.02  -0.03   0.01    -0.05  -0.22   0.15
    22   1     0.01   0.09   0.02    -0.00  -0.09  -0.01    -0.00   0.20   0.05
    23   1    -0.26  -0.18   0.25     0.15  -0.12   0.23     0.01   0.01  -0.16
    24   1     0.04   0.10   0.19    -0.03  -0.03   0.03    -0.09  -0.37  -0.02
    25   1     0.12   0.30  -0.09    -0.03  -0.14   0.02     0.09   0.35   0.03
    26   1     0.00   0.05  -0.05     0.02   0.11   0.09     0.01  -0.04   0.38
    27   1    -0.05  -0.12  -0.28    -0.03   0.02   0.24     0.06   0.14  -0.11
                     40                     41                     42
                      A                      A                      A
 Frequencies --   1250.0760              1273.9508              1292.8624
 Red. masses --      1.9263                 1.3652                 1.6351
 Frc consts  --      1.7736                 1.3054                 1.6103
 IR Inten    --      3.0592                 1.4492                 0.9680
  Atom  AN      X      Y      Z        X      Y      Z        X      Y      Z
     1   8     0.00   0.01   0.00     0.00   0.00   0.00     0.01  -0.02   0.01
     2   6    -0.01  -0.05  -0.03    -0.00   0.00   0.01     0.01   0.00  -0.01
     3   6     0.02  -0.00  -0.02     0.02  -0.05   0.01    -0.14   0.03   0.05
     4   6    -0.07   0.01  -0.01    -0.01   0.01  -0.04     0.05  -0.02  -0.05
     5   6     0.03  -0.00   0.03    -0.00  -0.01   0.03    -0.00   0.02   0.01
     6   6     0.21  -0.06  -0.00     0.05  -0.07   0.04     0.00  -0.02   0.11
     7   6    -0.07   0.01   0.02    -0.01   0.02  -0.01     0.01   0.00  -0.03
     8   6    -0.09   0.03  -0.00    -0.02   0.02  -0.01    -0.00  -0.00  -0.03
     9   6    -0.01   0.06  -0.00    -0.03   0.06  -0.08    -0.05   0.02  -0.06
    10   6     0.05  -0.02   0.01    -0.04  -0.01   0.03     0.04  -0.01   0.03
    11   6    -0.05   0.02   0.03     0.05   0.01  -0.00     0.03   0.01  -0.05
    12   1    -0.14   0.07   0.02     0.05   0.16  -0.12     0.53   0.02  -0.29
    13   1    -0.05   0.15   0.07    -0.05   0.12   0.02    -0.07  -0.25  -0.19
    14   1     0.02  -0.11  -0.04     0.06  -0.07  -0.02    -0.03  -0.01  -0.01
    15   1     0.03  -0.05  -0.06    -0.02   0.00  -0.04     0.00  -0.01  -0.04
    16   1    -0.05   0.05   0.01    -0.01   0.05  -0.02    -0.01   0.03  -0.01
    17   1     0.09  -0.05  -0.08    -0.07   0.00  -0.06    -0.09   0.03   0.01
    18   1    -0.18   0.06  -0.21    -0.02  -0.02  -0.03     0.04   0.00   0.04
    19   1     0.09   0.06  -0.05    -0.02  -0.01   0.01    -0.10   0.00  -0.03
    20   1     0.02  -0.25   0.19     0.01  -0.04   0.04     0.04   0.08   0.03
    21   1     0.19  -0.04   0.00     0.06   0.01  -0.02    -0.00  -0.05   0.03
    22   1     0.13   0.19  -0.17     0.05   0.09  -0.06     0.01   0.12   0.01
    23   1    -0.16  -0.11   0.27    -0.14  -0.20   0.35     0.17  -0.07   0.18
    24   1    -0.06  -0.23  -0.11     0.10   0.46   0.15    -0.01   0.03  -0.06
    25   1     0.01   0.25   0.15    -0.06  -0.37  -0.07    -0.04  -0.07   0.10
    26   1     0.01  -0.15  -0.42     0.01   0.13   0.32    -0.00   0.05  -0.20
    27   1     0.04   0.11   0.16    -0.04  -0.12  -0.39    -0.03   0.04   0.55
                     43                     44                     45
                      A                      A                      A
 Frequencies --   1308.0611              1337.3973              1348.2556
 Red. masses --      1.7543                 1.3952                 1.4791
 Frc consts  --      1.7685                 1.4703                 1.5842
 IR Inten    --      3.1246                 1.4012                 1.4782
  Atom  AN      X      Y      Z        X      Y      Z        X      Y      Z
     1   8     0.01  -0.01   0.01    -0.00   0.01   0.00     0.01   0.00   0.01
     2   6     0.01   0.02   0.01    -0.01  -0.03  -0.02    -0.01  -0.03  -0.03
     3   6     0.03   0.05  -0.05     0.01   0.02  -0.04     0.04   0.08   0.03
     4   6    -0.05  -0.01   0.01     0.05   0.03   0.03    -0.04  -0.03  -0.01
     5   6     0.01   0.01   0.00    -0.01  -0.01   0.00     0.02   0.00   0.01
     6   6     0.12   0.09   0.06     0.02  -0.04   0.02    -0.01   0.00  -0.04
     7   6    -0.02  -0.03  -0.02    -0.01   0.01   0.00    -0.00  -0.00   0.01
     8   6    -0.03  -0.02  -0.02    -0.01   0.01  -0.00    -0.00   0.00   0.01
     9   6    -0.14  -0.06  -0.01    -0.01   0.03   0.07     0.03   0.02  -0.03
    10   6     0.03   0.05  -0.01    -0.02  -0.13  -0.03    -0.01  -0.01   0.04
    11   6     0.00  -0.04   0.00     0.01   0.01  -0.04    -0.02  -0.04  -0.14
    12   1    -0.15  -0.28   0.22    -0.19  -0.07   0.12    -0.06  -0.21   0.25
    13   1    -0.06  -0.01   0.01    -0.42  -0.23  -0.14     0.16   0.23   0.15
    14   1    -0.02  -0.04  -0.03     0.04   0.01   0.02    -0.07  -0.02  -0.01
    15   1     0.04  -0.06  -0.02    -0.02   0.04   0.02     0.00   0.01  -0.04
    16   1    -0.02  -0.00   0.02     0.02   0.01  -0.02    -0.07   0.03   0.02
    17   1     0.04   0.00   0.07    -0.02  -0.01  -0.04     0.03  -0.01   0.00
    18   1    -0.03   0.12  -0.03    -0.03  -0.02  -0.03    -0.00  -0.00   0.00
    19   1    -0.05   0.08  -0.11     0.01  -0.01   0.01     0.03  -0.00   0.01
    20   1     0.06   0.00   0.10     0.00  -0.01   0.02    -0.02  -0.03  -0.01
    21   1     0.05  -0.11   0.05     0.04   0.00  -0.01    -0.00   0.03  -0.02
    22   1     0.02   0.11  -0.01     0.02   0.03  -0.03     0.00  -0.02  -0.01
    23   1     0.62   0.18  -0.19     0.08   0.19  -0.18    -0.10  -0.13   0.21
    24   1     0.02   0.10  -0.04     0.14   0.57   0.06    -0.03  -0.09   0.04
    25   1    -0.12  -0.42  -0.03     0.08   0.41   0.06     0.01   0.04   0.03
    26   1    -0.02   0.01   0.15     0.01   0.04   0.14    -0.02   0.05   0.63
    27   1    -0.00  -0.06  -0.03    -0.02   0.01   0.16     0.00   0.07   0.50
                     46                     47                     48
                      A                      A                      A
 Frequencies --   1368.3110              1397.9001              1430.3189
 Red. masses --      1.4219                 1.3241                 1.2540
 Frc consts  --      1.5686                 1.5245                 1.5115
 IR Inten    --      0.4275                 3.5889                 4.4822
  Atom  AN      X      Y      Z        X      Y      Z        X      Y      Z
[...]
 2900,-0.00004968,0.00024306,0.00006286,-0.00002303,-0.00000455,0.00001
 731,0.00033939,-0.00014086,0.00020591,0.00006215,0.00003583,0.00004572
 ,-0.00011155,-0.00002638,0.00000736,0.00005289,0.00004566,0.00002119,0
 .00019408,-0.00007913,-0.00011846,0.00026187,0.00024396,0.00011663,-0.
 00009707,0.00006491,0.00007635,0.04057992,0.07975967,0.00043366,-0.000
 37054,0.00006960,-0.00098134,0.00156779,0.00009253,0.00010837,-0.00011
 455,0.00037528,-0.00036662,0.00138969,0.00059506,0.00014986,-0.0003519
 7,-0.00008317,0.01170117,0.00801189,-0.02307062,0.00174677,0.00007990,
 0.00047212,0.09265867,0.07217718,-0.23426941,-0.00422097,-0.00281898,-
 0.00341601,0.00164095,0.00048040,-0.00097042,-0.00010483,0.00022669,0.
 00017451,-0.00003290,-0.00010221,0.00002284,0.00050857,-0.00069821,0.0
 0055213,0.00004977,0.00005896,0.00007266,-0.00031008,-0.00013744,0.000
 12480,-0.00011179,-0.00002490,0.00005931,-0.00009848,-0.00025968,0.000
 44180,-0.00107503,0.00012969,0.00059263,-0.00004033,-0.00008596,0.0000
 4254,-0.10038691,-0.07839358,0.25690316,0.00033933,0.00000273,0.000403
 29,-0.00077643,-0.00015357,-0.00029206,-0.00001155,-0.00073276,-0.0000
 1794,-0.00084716,-0.00020588,-0.00313175,0.00039160,-0.00039272,0.0001
 6063,-0.00079373,-0.01691025,0.00046924,0.00061230,-0.00109927,0.00022
 185,-0.05017806,0.00485091,0.00042138,0.00010469,0.00072980,0.00054914
 ,-0.00003389,-0.00008284,0.00009386,0.00004082,0.00000207,0.00002395,0
 .00012527,-0.00006732,-0.00021274,0.00009476,-0.00015113,0.00015213,0.
 00006811,0.00004534,-0.00006478,0.00002724,0.00004924,0.00005417,-0.00
 015791,-0.00011043,0.00007895,0.00023595,0.00025486,0.00020360,-0.0001
 0832,-0.00008801,0.00010141,-0.00028562,0.00032693,-0.00048449,-0.0002
 4609,-0.01461597,-0.00070614,0.04985476,0.00006574,0.00022417,-0.00005
 411,-0.00003378,-0.00043758,0.00022569,-0.00038974,-0.00031648,0.00011
 822,-0.00096274,0.00022889,-0.00179141,0.00036524,-0.00026836,-0.00046
 573,0.00058320,-0.01182465,0.00055065,0.00094578,0.00028233,0.00078677
 ,0.00404531,-0.30887808,-0.00057457,-0.00043573,0.00006647,0.00072443,
 0.00000065,0.00032845,-0.00016803,0.00017992,-0.00002905,0.00007960,0.
 00014505,0.00002861,-0.00020727,-0.00045174,0.00061630,-0.00040054,-0.
 00018391,-0.00009256,-0.00005734,0.00002614,0.00004871,0.00007560,-0.0
 0020154,-0.00010603,0.00003236,0.00003538,0.00049074,-0.00002157,-0.00
 012194,-0.00009816,-0.00004291,-0.00056563,0.00078831,-0.00017028,0.00
 057469,-0.00949246,0.00003183,-0.00392888,0.33664865,0.00008932,0.0001
 7459,0.00000968,-0.00013048,-0.00043802,0.00014178,0.00024408,-0.00061
 781,0.00031732,-0.00311997,-0.00074029,-0.00309107,0.00053555,-0.00094
 409,-0.00035344,0.00077475,-0.02635121,-0.00078433,0.00098715,-0.00052
 462,0.00081739,0.00053060,0.00017792,-0.04968662,-0.00048128,-0.000984
 02,0.00141045,-0.00014169,0.00026265,0.00004023,0.00003718,0.00005948,
 0.00019378,0.00016890,-0.00009852,-0.00028779,-0.00000097,-0.00013064,
 0.00002536,-0.00004578,0.00002385,-0.00001049,-0.00010277,0.00000567,0
 .00003274,-0.00030800,-0.00023201,0.00008724,0.00037357,0.00014497,-0.
 00003929,-0.00010030,0.00023997,-0.00000597,-0.00036090,0.00047113,0.0
 0005010,-0.00167886,0.02858060,0.00113975,0.00219096,0.00162934,0.0512
 2373,0.00056047,0.00015409,0.00092014,-0.00067521,-0.00003812,-0.00073
 297,0.00018886,-0.00026754,0.00002379,0.00010373,0.00147637,-0.0005158
 8,0.00011735,-0.00020556,0.00040741,-0.01507061,0.00501285,0.00097688,
 -0.00107772,-0.00239251,-0.00361047,-0.28773415,0.07551643,0.00577571,
 0.00060229,-0.00007458,0.00103693,-0.00002191,-0.00005686,-0.00011162,
 -0.00005223,0.00010910,0.00002217,0.00003603,-0.00004006,-0.00005842,0
 .00043704,-0.00087771,0.00057542,0.00021628,0.00013939,0.00005289,0.00
 004694,0.00007484,-0.00008153,-0.00000209,-0.00006295,-0.00001270,-0.0
 0099823,0.00067461,-0.00011833,0.00051939,-0.00007274,-0.00001138,0.00
 020566,0.00009842,0.00006452,-0.01185798,0.00406256,0.00010960,0.00141
 104,-0.00010990,0.00020929,0.31272948,-0.00001260,-0.00049590,-0.00023
 287,0.00023341,0.00045856,-0.00061158,-0.00005301,0.00000761,0.0000098
 9,-0.00117382,0.00095761,0.00011410,0.00005205,0.00006222,0.00010417,-
 0.01161399,0.00210635,0.00095066,-0.00084174,-0.00060791,-0.00143766,0
 .07642742,-0.07464532,-0.00166625,0.00030924,0.00057575,0.00036436,-0.
 00009456,-0.00013012,0.00015687,-0.00003966,0.00001129,-0.00000121,-0.
 00001837,-0.00000602,0.00003272,-0.00018533,-0.00041529,0.00017296,0.0
 0002990,0.00002385,-0.00003346,0.00004505,0.00002986,-0.00003941,-0.00
 000048,-0.00000510,-0.00002689,-0.00053923,0.00069687,-0.00026452,0.00
 015549,-0.00021263,-0.00017253,-0.00027919,0.00045288,-0.00022462,-0.0
 1157490,0.00305320,-0.00037707,0.03218954,-0.00877990,-0.00126962,-0.0
 8319661,0.07713154,0.00123534,0.00015239,0.00040073,-0.00172721,-0.000
 89611,-0.00157329,0.00003995,-0.00015267,-0.00016121,0.00014605,0.0013
 8420,0.00025408,0.00009921,0.00001104,-0.00000998,-0.02569700,0.008654
 80,0.00031046,-0.00197735,-0.00264270,-0.00459335,0.00757207,-0.002392
 08,-0.04952740,-0.00032945,0.00040969,0.00127480,-0.00003172,-0.000061
 40,0.00021167,0.00002590,0.00001763,-0.00005149,0.00004895,0.00002248,
 -0.00003169,0.00039493,0.00000567,0.00028059,0.00004429,0.00010259,0.0
 0006369,-0.00001208,-0.00000472,0.00000436,0.00001174,-0.00002009,0.00
 005083,-0.00192672,0.00053540,0.00013419,-0.00018134,-0.00017846,0.000
 26966,0.00028843,-0.00007223,-0.00005898,0.02686422,-0.00988161,0.0002
 4105,-0.00031678,0.00042878,-0.00082244,-0.00487134,0.00430653,0.05316
 077,0.00115056,-0.00397107,0.00002251,0.01338577,0.02073653,-0.0001388
 6,-0.00226439,0.00500666,0.00015866,-0.00131452,0.00080004,0.00261393,
 0.00036281,-0.00065248,-0.00010077,-0.00541919,-0.01478893,-0.00083395
 ,0.00059137,-0.00089008,-0.00009825,0.00056974,-0.00003054,-0.00143599
 ,-0.09273086,-0.10271468,0.00063564,-0.00523377,-0.01538463,0.00158528
 ,-0.00114706,0.00087376,-0.00314702,0.00107591,0.00087029,-0.00000384,
 -0.00001020,-0.00043850,0.00001867,0.00001170,0.00002855,-0.00004226,0
 .00008082,0.00004203,0.00001681,-0.00023191,-0.00018197,0.00001813,0.0
 0007650,0.00003987,0.00001077,-0.00005792,0.00041295,0.00006698,-0.000
 29942,0.00054691,0.00003227,-0.00010356,0.00020675,-0.00015982,0.00018
 958,0.00052286,0.00030991,0.00009881,0.00015440,0.00011525,0.09074173,
 0.00137047,0.00361844,0.00002051,-0.01467610,-0.01620447,0.00015207,0.
 00170204,-0.00409599,-0.00018559,0.00001070,0.00003851,-0.00046554,0.0
 0012655,-0.00010750,0.00007801,0.00046919,-0.00284709,-0.00048382,-0.0
 0002163,0.00014682,0.00009486,0.00001891,0.00045822,-0.00065391,-0.097
 67786,-0.27821400,0.00074258,0.00051258,-0.00113153,0.00080392,0.00039
 846,-0.00022035,0.00050141,-0.00082761,-0.00065885,0.00005122,0.000006
 00,-0.00020830,0.00018995,-0.00003090,-0.00000937,-0.00002935,-0.00010
 096,-0.00000514,0.00007262,-0.00012208,0.00006421,0.00003726,0.0000714
 7,0.00002589,-0.00000378,-0.00012582,0.00001326,0.00004378,-0.00031553
 ,0.00017388,0.00008741,0.00019896,0.00029253,-0.00001999,0.00004120,0.
 00044686,0.00046534,0.00013531,-0.00021439,0.00023032,0.10909989,0.298
 46787,-0.00000105,0.00000093,-0.00069399,-0.00000002,0.00011292,-0.001
 62489,-0.00020639,0.00013756,-0.00070987,0.00254475,0.00109599,-0.0034
 1122,-0.00072542,0.00122238,-0.00002256,0.00731297,0.02280062,0.000265
 85,-0.00088298,0.00041470,0.00003077,0.00034903,0.00111347,0.00131316,
 0.00057418,0.00096973,-0.04802623,-0.00699237,-0.02361408,0.00165568,-
 0.00280239,-0.00156768,-0.00341171,0.00003528,0.00001658,0.00041834,-0
 .00005979,0.00078960,-0.00011470,0.00012123,-0.00007132,0.00002494,-0.
 00001511,-0.00006002,0.00002695,0.00046444,0.00026623,-0.00007241,0.00
 005086,-0.00002094,-0.00000266,0.00008368,-0.00025492,-0.00003381,0.00
 013979,-0.00044641,0.00018539,-0.00011772,-0.00022165,0.00036575,0.000
 12812,-0.00054835,-0.00039108,-0.00026244,0.00007270,-0.00010667,-0.00
 018030,-0.00071142,0.05326713,0.00005788,-0.00035470,0.00021582,0.0011
 9220,0.00002527,-0.00058711,-0.00021488,0.00052001,-0.00002466,-0.0000
 2711,-0.00028394,0.00010202,-0.00008565,0.00008499,-0.00001806,-0.0030
 6714,-0.00057310,-0.00224561,-0.00078995,-0.00041981,0.00020462,0.0007
 8090,0.00031048,-0.00085818,0.00944301,0.00629544,-0.01614481,-0.11699
 566,-0.03982330,0.10642322,-0.00112114,0.00069809,-0.00002159,-0.00005
 146,0.00005940,-0.00004298,-0.00001499,-0.00003150,0.00006912,0.000092
 95,0.00006030,-0.00000325,-0.00000783,-0.00001214,0.00001741,0.0000539
 2,-0.00000209,0.00001383,0.00063580,0.00025735,0.00028252,0.00026159,0
 .00008135,0.00023271,0.00007115,-0.00000045,-0.00001512,-0.00011454,-0
 .00014059,-0.00038120,-0.00001430,-0.00003697,0.00000896,0.00005542,0.
 00002263,0.00005764,0.00087672,0.00001671,0.00086239,0.12179744,0.0008
 0180,0.00025374,-0.00027609,-0.00102174,-0.00077578,0.00087770,-0.0001
 2699,-0.00291230,-0.00082220,0.00010419,-0.00007657,-0.00051240,-0.000
 13300,0.00017512,0.00000575,-0.00143582,0.00015416,-0.00186291,-0.0000
 5319,0.00028093,-0.00008899,0.00027333,0.00035416,-0.00053579,0.005802
 18,0.00323016,-0.00824539,-0.03972059,-0.07297015,0.06884474,-0.015734
 60,-0.01202116,0.02372737,0.00050325,-0.00016141,0.00077861,0.00000126
 ,0.00009159,0.00005647,0.00013458,-0.00006054,-0.00003979,0.00001840,-
 0.00001849,0.00010053,0.00004058,0.00006546,-0.00004157,-0.00015720,-0
 .00016867,-0.00002589,-0.00009084,-0.00003999,-0.00012344,-0.00001109,
 0.00002012,0.00007209,-0.00012481,-0.00012595,-0.00023286,0.00003065,-
 0.00000132,0.00003237,-0.00003325,0.00000433,-0.00000065,0.00069007,0.
 00029340,0.00021269,0.04382361,0.08198119,-0.00123290,-0.00004746,0.00
 045410,0.00253873,-0.00061908,-0.00056632,-0.00007743,0.00038885,-0.00
 001195,0.00017855,-0.00050764,0.00038858,-0.00009776,0.00013053,0.0000
 3883,-0.00472848,-0.00195831,-0.00266309,-0.00066214,0.00013168,0.0003
 0550,0.00125101,0.00086466,-0.00121129,0.01272677,0.00870055,-0.022275
 91,0.10574108,0.06853735,-0.21999708,-0.00191480,-0.00180353,0.0025976
 1,0.00004076,0.00009261,-0.00011465,-0.00005826,0.00001767,0.00005177,
 0.00003874,-0.00001330,-0.00001396,-0.00000541,-0.00002583,0.00001819,
 0.00004809,0.00006508,-0.00001227,0.00001755,0.00003189,0.00010884,0.0
 0006573,-0.00001469,-0.00003088,0.00003746,-0.00007525,-0.00000984,-0.
 00029041,-0.00027051,-0.00058947,0.00000726,-0.00008749,-0.00000560,-0
 .00002282,0.00003491,0.00004195,0.00022339,-0.00056463,0.00110715,-0.1
 1330272,-0.07161128,0.23927178,-0.00069780,0.00131499,0.00034881,-0.00
 122851,-0.00402524,-0.00271205,0.00055771,-0.00064818,0.00096423,-0.00
 007070,-0.00010985,0.00016695,-0.00001725,-0.00000241,-0.00004805,-0.0
 0038137,-0.00032131,0.00180335,-0.00045799,-0.00019403,0.00123692,0.00
 007691,0.00006048,0.00005549,-0.01329310,0.00702173,-0.00268933,-0.273
 04110,0.10156865,-0.00130503,0.00506127,-0.00274103,0.00035425,0.00011
 734,-0.00002202,0.00015195,0.00001121,-0.00002649,-0.00000605,0.000014
 12,0.00003555,0.00001832,0.00002349,0.00001260,-0.00003990,0.00003155,
 -0.00000326,0.00000866,0.00016221,0.00047997,0.00188541,0.00057508,-0.
 00018720,0.00038648,-0.00007218,-0.00024432,-0.00027334,0.00007041,0.0
 0001027,-0.00011416,-0.00002999,-0.00003425,-0.00000633,0.00009880,-0.
 00002278,0.00006371,-0.00036783,-0.00018568,-0.00031143,-0.01489286,0.
 00629038,0.00043954,0.29587522,-0.00087725,0.00102315,0.00037453,0.000
 16781,-0.00310299,-0.00181983,0.00008569,-0.00372996,-0.00088188,0.000
 32029,-0.00030984,-0.00002118,0.00009652,0.00008932,0.00015499,0.00119
 071,0.00000196,0.00056889,0.00077360,0.00088375,-0.00013454,-0.0002205
 4,0.00003073,0.00021136,-0.01054989,0.00587680,-0.00007781,0.09953447,
 -0.09131609,0.00213083,0.02698650,-0.01200569,-0.00020903,0.00065200,0
 .00008666,0.00120398,-0.00011900,0.00008238,0.00012675,-0.00007014,-0.
 00010671,-0.00001633,-0.00007532,-0.00000667,0.00002702,-0.00000157,0.
 00006259,-0.00006396,-0.00047730,0.00003181,-0.00020532,-0.00023307,-0
 .00023035,-0.00023325,0.00002665,-0.00023830,-0.00014829,0.00004830,0.
 00000009,0.00003396,0.00000796,0.00000647,-0.00000450,-0.00003477,-0.0
 0002786,-0.00000894,0.00014380,-0.00005166,0.00031989,-0.00995537,0.00
 493417,-0.00064274,-0.10776751,0.09932621,-0.00197151,0.00197503,0.001
 33908,-0.00170607,-0.00494053,-0.00532077,0.00061178,0.00103341,0.0005
 2785,-0.00023428,0.00026145,0.00014042,-0.00010156,-0.00001797,-0.0001
 4540,0.00012347,0.00038335,0.00228377,0.00003868,-0.00014106,-0.001589
 01,0.00001661,-0.00031893,0.00034148,-0.02569330,0.01333133,-0.0018365
 2,0.00036258,0.00121222,-0.04783352,0.00015245,0.00064215,-0.00164379,
 0.00003291,0.00008825,-0.00015819,0.00002392,-0.00009458,0.00000949,0.
 00009343,0.00009272,0.00005451,0.00005945,0.00003347,-0.00002832,0.000
 04313,-0.00004597,0.00003569,0.00178322,0.00024502,-0.00194006,0.00018
 520,0.00007865,0.00042992,0.00014343,-0.00018081,-0.00009307,0.0001020
 9,0.00004710,0.00005076,-0.00002760,-0.00002782,-0.00002709,0.00017262
 ,0.00000485,0.00019160,0.00014549,-0.00029419,0.00014310,0.02566959,-0
 .01131913,0.00119281,0.00013522,-0.00136143,0.05264935,-0.00024275,0.0
 0026438,0.00026843,0.00148575,0.00029427,-0.00049069,0.00833364,-0.007
 85087,-0.01676223,-0.00315981,0.00053066,-0.00243952,-0.00055127,0.000
 16397,0.00015705,-0.00015314,0.00018522,0.00008076,-0.00016845,-0.0000
 7489,-0.00014907,0.00002470,-0.00001985,0.00005156,-0.00008567,-0.0009
 3105,-0.00014091,-0.00041612,-0.00194831,-0.00150188,-0.09763720,0.041
 31621,0.09206734,0.00099096,0.00002378,0.00084901,0.00063208,-0.000193
 43,-0.00110252,0.00063824,0.00001728,0.00010092,0.00022912,-0.00003207
 ,0.00019303,0.00009984,-0.00003769,0.00008121,0.00016921,-0.00008193,0
 .00001369,0.00001468,0.00001906,0.00003942,0.00006461,0.00002397,0.000
 05579,-0.00001168,0.00002734,0.00003116,-0.00001271,-0.00002485,0.0000
 1232,0.00002723,0.00001711,0.00001050,-0.00007599,-0.00009710,-0.00014
 487,0.00159901,-0.00023454,-0.00031457,0.00029599,0.00045980,-0.000201
 84,0.10068517,-0.00073583,0.00027628,0.00026900,0.00102702,-0.00102651
 ,-0.00054700,-0.00494241,0.00386013,0.00887108,0.00162542,0.00007526,0
 .00202632,0.00009545,0.00019584,-0.00002159,-0.00010880,-0.00017602,0.
 00053675,0.00002414,0.00010463,-0.00003754,0.00002034,0.00011960,-0.00
 004138,0.00006002,-0.00382382,0.00088987,0.01218344,-0.01341227,-0.024
 34362,0.04094423,-0.08443766,-0.08511258,-0.00069029,0.00039125,-0.000
 20583,-0.00019592,0.00021383,0.00069807,0.00016751,-0.00004590,-0.0000
 9819,0.00006537,-0.00003111,0.00007633,0.00002997,-0.00002001,0.000012
 36,-0.00008945,-0.00006180,0.00008969,0.00002138,-0.00000502,-0.000085
 30,-0.00003820,0.00009688,0.00004930,0.00001743,0.00002417,-0.00010765
 ,0.00001262,0.00007864,0.00003649,-0.00001287,-0.00002209,0.00001118,-
 0.00059850,-0.00017471,-0.00099649,0.00014128,0.00178500,-0.00005133,-
 0.00044783,-0.00355529,-0.00072283,-0.04419069,0.09457419,-0.00109482,
 -0.00004191,0.00033563,0.00213854,0.00089197,-0.00037247,0.01064945,-0
 .00977439,-0.02105385,-0.00475092,0.00170053,-0.00304740,-0.00057173,-
 0.00022635,0.00035768,0.00009555,0.00056511,0.00036575,-0.00008405,-0.
 00008582,0.00001672,-0.00001509,-0.00004416,0.00011434,0.00009785,-0.0
 0013803,0.00016458,-0.00204734,0.00234869,0.00368415,0.09108544,-0.084
 58320,-0.22925709,0.00028467,0.00057030,0.00110761,0.00088008,-0.00047
 814,-0.00159078,0.00004569,-0.00002535,0.00018668,0.00006314,0.0000146
 2,-0.00002498,0.00002179,0.00008193,-0.00003653,0.00002238,0.00002436,
 -0.00002363,0.00000079,0.00000565,0.00000668,0.00004586,-0.00007466,-0
 .00000775,-0.00000909,0.00004210,0.00006135,-0.00001940,-0.00009216,0.
 00000435,0.00002509,0.00002050,-0.00001540,0.00009079,-0.00005727,-0.0
 0007738,-0.00031587,0.00004350,0.00179530,-0.00053680,0.00065837,-0.00
 000312,-0.09769111,0.08900813,0.24842793,-0.00087984,-0.00144903,0.000
 41087,-0.00120181,0.00424396,-0.00266018,-0.01472165,-0.00653389,-0.00
 213614,-0.00000714,0.00022781,0.00220083,-0.00035737,0.00002858,0.0006
 6535,-0.00020475,-0.00000520,0.00006166,-0.00007164,0.00000765,-0.0001
 6064,0.00001286,0.00001811,-0.00000372,0.00045897,0.00014879,0.0009162
 6,0.00342784,0.00161635,-0.00005306,-0.28220769,-0.08679098,0.01992099
 ,-0.00051828,0.00011414,-0.00041000,0.00008028,0.00001499,0.00001918,0
 .00069656,-0.00037025,0.00134808,0.00055051,0.00019702,0.00027513,0.00
 000970,0.00006802,-0.00012450,0.00011596,-0.00012323,-0.00000307,0.000
 03144,-0.00000438,-0.00002085,0.00004569,0.00003493,0.00004740,0.00001
 724,0.00000295,-0.00004794,0.00000029,-0.00000837,0.00000479,0.0000353
 0,0.00001002,0.00005279,0.00004462,0.00000283,0.00003559,0.00047950,0.
 00036339,-0.00064696,0.00157936,-0.00011238,0.00004087,-0.01277547,-0.
 00438485,0.00158912,0.30535949,0.00083993,0.00095152,-0.00029536,-0.00
 022715,-0.00287261,0.00160892,0.01035043,0.00508377,-0.00096870,-0.001
 27267,0.00029595,-0.00057809,-0.00050239,0.00039306,0.00012138,-0.0003
 8824,-0.00026086,0.00009393,-0.00024746,0.00000796,-0.00033131,0.00020
 102,0.00006123,-0.00014625,-0.00020543,-0.00295816,0.00085977,-0.02816
 027,-0.01062568,0.00355350,-0.08516823,-0.07852589,0.00514978,-0.00005
 097,-0.00011335,-0.00016111,0.00017360,-0.00010345,-0.00025179,0.00018
 846,0.00025553,0.00046741,0.00011248,-0.00012708,0.00006997,0.00008302
 ,-0.00019076,0.00016824,0.00019379,-0.00012553,-0.00001238,0.00009752,
 0.00003206,0.00003350,0.00002993,0.00009418,0.00012245,-0.00002365,-0.
 00000979,-0.00009240,-0.00000482,0.00004105,0.00003098,0.00002207,-0.0
 0000939,0.00003895,-0.00052399,0.00010345,-0.00103268,-0.00076293,-0.0
 0429119,-0.00070268,0.00018876,0.00224531,0.00003623,0.01237423,0.0049
 9655,-0.00035430,0.09268299,0.08565214,-0.00186177,-0.00203891,0.00121
 481,-0.00197396,0.00485780,-0.00482743,-0.02610733,-0.01135565,-0.0001
 2110,0.00031968,-0.00029968,0.00207796,-0.00011050,0.00027740,-0.00124
 964,-0.00028093,-0.00027577,0.00002574,-0.00012227,-0.00005564,-0.0001
 6870,-0.00001305,0.00004910,-0.00004917,0.00050755,-0.00071967,0.00051
 815,0.00105649,0.00013304,-0.00172792,0.02087251,0.00552849,-0.0499247
 7,-0.00005154,0.00024905,-0.00006885,0.00009164,0.00025915,0.00060082,
 0.00153847,0.00028635,-0.00187972,0.00024827,-0.00014272,0.00042220,0.
 00005747,0.00001758,0.00004816,0.00014563,-0.00013070,0.00005602,0.000
 06434,-0.00000959,-0.00000523,0.00004974,0.00006687,0.00004287,0.00001
 219,-0.00000728,-0.00005051,0.00001373,0.00002630,0.00001133,0.0000374
 3,0.00001248,0.00006147,0.00007657,-0.00010180,-0.00010501,-0.00019870
 ,0.00098654,0.00012989,0.00002318,0.00001845,0.00122905,0.02692702,0.0
 0979676,-0.00111837,-0.02132186,-0.00742795,0.05485797\\0.00003650,-0.
 00000537,0.00000777,0.00001569,-0.00004151,0.00001788,0.00002219,0.000
 00615,-0.00001094,0.00001254,0.00004119,0.00001691,-0.00001118,-0.0000
 5369,-0.00002158,0.00000963,-0.00003236,-0.00000398,-0.00003914,-0.000
 01216,-0.00002109,0.00001064,0.00001827,0.00002222,-0.00002840,0.00000
 035,-0.00002107,-0.00002721,0.00001766,0.00007483,0.00000833,0.0000106
 2,-0.00002731,-0.00001871,-0.00000130,0.00000161,0.00000882,0.00000049
 ,-0.00001340,0.00001443,0.00000441,-0.00001412,-0.00000008,0.00000404,
 -0.00000636,-0.00000265,0.00000698,0.00000114,0.00000452,0.00000172,-0
 .00001359,-0.00000005,0.00000867,-0.00000430,0.00002214,0.00000180,-0.
 00000766,0.00000068,0.00000939,-0.00000682,0.00000109,0.00000037,-0.00
 000491,-0.00000913,0.00000649,0.00000884,-0.00000918,-0.00000091,0.000
 00007,0.00000926,-0.00000443,0.00000520,-0.00000322,0.00000392,-0.0000
 0052,-0.00001698,0.00000479,-0.00000067,-0.00001053,0.00000440,0.00002
 182\\\@


 IN THE WOODS WE RETURN TO REASON AND FAITH.

                                 -- EMERSON
 Job cpu time:       0 days  0 hours  2 minutes 49.4 seconds.
 Elapsed time:       0 days  0 hours 53 minutes 27.4 seconds.
 File lengths (MBytes):  RWF=    127 Int=      0 D2E=      0 Chk=      5 Scr=      1
 Normal termination of Gaussian 16 at Thu Feb 22 09:50:13 2024.
