 Entering Gaussian System, Link 0=g16
 Input=/Volumes/SSD-PMU3/b3lyp_6-31gd_freq/ZRYDPLOWJSFQAE-MRVPVSSYSA-N_calculating/gaussianinput0.gjf
 Output=/Volumes/SSD-PMU3/b3lyp_6-31gd_freq/ZRYDPLOWJSFQAE-MRVPVSSYSA-N_calculating/gaussianinput0.log
 Initial command:
 /Applications/g16/l1.exe "/Users/macmini_m1_2022/PycharmProjects/sphere_model/sphere_model_lib/Gau-60924.inp" -scrdir="/Users/macmini_m1_2022/PycharmProjects/sphere_model/sphere_model_lib/"
 Entering Link 1 = /Applications/g16/l1.exe PID=     60925.
  
 Copyright (c) 1988,1990,1992,1993,1995,1998,2003,2009,2016,
            Gaussian, Inc.  All Rights Reserved.
  
 This is part of the Gaussian(R) 16 program.  It is based on
 the Gaussian(R) 09 system (copyright 2009, Gaussian, Inc.),
 the Gaussian(R) 03 system (copyright 2003, Gaussian, Inc.),
 the Gaussian(R) 98 system (copyright 1998, Gaussian, Inc.),
 the Gaussian(R) 94 system (copyright 1995, Gaussian, Inc.),
 the Gaussian 92(TM) system (copyright 1992, Gaussian, Inc.),
 the Gaussian 90(TM) system (copyright 1990, Gaussian, Inc.),
 the Gaussian 88(TM) system (copyright 1988, Gaussian, Inc.),
 the Gaussian 86(TM) system (copyright 1986, Carnegie Mellon
 University), and the Gaussian 82(TM) system (copyright 1983,
 Carnegie Mellon University). Gaussian is a federally registered
 trademark of Gaussian, Inc.
  
 This software contains proprietary and confidential information,
 including trade secrets, belonging to Gaussian, Inc.
  
 This software is provided under written license and may be
 used, copied, transmitted, or stored only in accord with that
 written license.
  
 The following legend is applicable only to US Government
 contracts under FAR:
  
                    RESTRICTED RIGHTS LEGEND
  
 Use, reproduction and disclosure by the US Government is
 subject to restrictions as set forth in subparagraphs (a)
 and (c) of the Commercial Computer Software - Restricted
 Rights clause in FAR 52.227-19.
  
 Gaussian, Inc.
 340 Quinnipiac St., Bldg. 40, Wallingford CT 06492
  
  
 ---------------------------------------------------------------
 Warning -- This program may not be used in any manner that
 competes with the business of Gaussian, Inc. or will provide
 assistance to any competitor of Gaussian, Inc.  The licensee
 of this program is prohibited from giving any competitor of
 Gaussian, Inc. access to this program.  By using this program,
 the user acknowledges that Gaussian, Inc. is engaged in the
 business of creating and licensing software in the field of
 computational chemistry and represents and warrants to the
 licensee that it is not a competitor of Gaussian, Inc. and that
 it will not use this program in any manner prohibited above.
 ---------------------------------------------------------------
  

 Cite this work as:
 Gaussian 16, Revision A.03,
 M. J. Frisch, G. W. Trucks, H. B. Schlegel, G. E. Scuseria, 
 M. A. Robb, J. R. Cheeseman, G. Scalmani, V. Barone, 
 G. A. Petersson, H. Nakatsuji, X. Li, M. Caricato, A. V. Marenich, 
 J. Bloino, B. G. Janesko, R. Gomperts, B. Mennucci, H. P. Hratchian, 
 J. V. Ortiz, A. F. Izmaylov, J. L. Sonnenberg, D. Williams-Young, 
 F. Ding, F. Lipparini, F. Egidi, J. Goings, B. Peng, A. Petrone, 
 T. Henderson, D. Ranasinghe, V. G. Zakrzewski, J. Gao, N. Rega, 
 G. Zheng, W. Liang, M. Hada, M. Ehara, K. Toyota, R. Fukuda, 
 J. Hasegawa, M. Ishida, T. Nakajima, Y. Honda, O. Kitao, H. Nakai, 
 T. Vreven, K. Throssell, J. A. Montgomery, Jr., J. E. Peralta, 
 F. Ogliaro, M. J. Bearpark, J. J. Heyd, E. N. Brothers, K. N. Kudin, 
 V. N. Staroverov, T. A. Keith, R. Kobayashi, J. Normand, 
 K. Raghavachari, A. P. Rendell, J. C. Burant, S. S. Iyengar, 
 J. Tomasi, M. Cossi, J. M. Millam, M. Klene, C. Adamo, R. Cammi, 
 J. W. Ochterski, R. L. Martin, K. Morokuma, O. Farkas, 
 J. B. Foresman, and D. J. Fox, Gaussian, Inc., Wallingford CT, 2016.
 
 ******************************************
 Gaussian 16:  EM64M-G16RevA.03 25-Dec-2016
                22-Feb-2024 
 ******************************************
 %nprocshared=8
 Will use up to    8 processors via shared memory.
 %mem=8GB
 %chk= 0.chk
 ---------------------
 # freq b3lyp/6-31g(d)
 ---------------------
 1/10=4,30=1,38=1/1,3;
 2/12=2,17=6,18=5,40=1/2;
 3/5=1,6=6,7=1,11=2,25=1,30=1,71=2,74=-5,140=1/1,2,3;
 4//1;
 5/5=2,38=5,98=1/2;
 8/6=4,10=90,11=11/1;
 11/6=1,8=1,9=11,15=111,16=1/1,2,10;
 10/6=1/2;
 6/7=2,8=2,9=2,10=2,28=1/1;
 7/8=1,10=1,25=1/1,2,3,16;
 1/10=4,30=1/3;
 99//99;
 ---------
 good luck
 ---------
 Symbolic Z-matrix:
 Charge =  0 Multiplicity = 1
 O                     1.21848   0.        0. 
 C                     0.        0.        0. 
 C                    -0.8746   -1.26331  -0.02809 
 C                    -0.13087  -2.62344   0.17079 
 C                    -1.16826  -3.76595   0.24501 
 C                     0.62958  -2.59856   1.51538 
 C                     0.85881  -2.92471  -0.97368 
 C                    -1.76372  -1.1686   -1.30375 
 C                    -2.59491   0.12287  -1.34152 
 C                    -1.70633   1.36951  -1.26234 
 C                    -0.78262   1.31017  -0.02809 
 H                    -1.56437  -1.15524   0.82649 
 H                    -1.93241  -3.56794   1.00806 
 H                    -0.66974  -4.70481   0.51341 
 H                    -1.67859  -3.93347  -0.70948 
 H                     1.09482  -3.57374   1.70369 
 H                     1.41499  -1.84045   1.51826 
 H                    -0.05381  -2.39423   2.35051 
 H                     1.35423  -3.88698  -0.79466 
 H                     1.62701  -2.15171  -1.04441 
 H                     0.34848  -2.99897  -1.94149 
 H                    -2.43201  -2.03403  -1.34897 
 H                    -1.12717  -1.21575  -2.19748 
 H                    -3.19896   0.14773  -2.25723 
 H                    -3.30311   0.12372  -0.49987 
 H                    -1.0873    1.43555  -2.16771 
 H                    -2.31399   2.28192  -1.22989 
 H                    -0.0665    2.1368   -0.01456 
 H                    -1.39524   1.37266   0.88331 
 

 GradGradGradGradGradGradGradGradGradGradGradGradGradGradGradGradGradGrad
 Berny optimization.
 Initialization pass.
 Trust Radius=3.00D-01 FncErr=1.00D-07 GrdErr=1.00D-07 EigMax=2.50D+02 EigMin=1.00D-04
 Number of steps in this run=      2 maximum allowed number of steps=      2.
 GradGradGradGradGradGradGradGradGradGradGradGradGradGradGradGradGradGrad

                          Input orientation:                          
 ---------------------------------------------------------------------
 Center     Atomic      Atomic             Coordinates (Angstroms)
 Number     Number       Type             X           Y           Z
 ---------------------------------------------------------------------
      1          8           0        1.218481    0.000000    0.000000
      2          6           0        0.000000    0.000000    0.000000
      3          6           0       -0.874595   -1.263309   -0.028092
      4          6           0       -0.130872   -2.623435    0.170792
      5          6           0       -1.168259   -3.765949    0.245007
      6          6           0        0.629575   -2.598563    1.515384
      7          6           0        0.858809   -2.924711   -0.973684
      8          6           0       -1.763723   -1.168602   -1.303748
      9          6           0       -2.594909    0.122872   -1.341515
     10          6           0       -1.706328    1.369509   -1.262339
     11          6           0       -0.782618    1.310174   -0.028092
     12          1           0       -1.564367   -1.155238    0.826489
     13          1           0       -1.932407   -3.567943    1.008058
     14          1           0       -0.669740   -4.704811    0.513407
     15          1           0       -1.678586   -3.933474   -0.709481
     16          1           0        1.094821   -3.573739    1.703686
     17          1           0        1.414985   -1.840447    1.518258
     18          1           0       -0.053808   -2.394231    2.350506
     19          1           0        1.354227   -3.886976   -0.794660
     20          1           0        1.627009   -2.151710   -1.044407
     21          1           0        0.348476   -2.998973   -1.941494
     22          1           0       -2.432007   -2.034030   -1.348974
     23          1           0       -1.127166   -1.215750   -2.197476
     24          1           0       -3.198955    0.147734   -2.257230
     25          1           0       -3.303114    0.123724   -0.499871
     26          1           0       -1.087295    1.435548   -2.167709
     27          1           0       -2.313989    2.281918   -1.229887
     28          1           0       -0.066495    2.136798   -0.014557
     29          1           0       -1.395244    1.372662    0.883313
 ---------------------------------------------------------------------
                    Distance matrix (angstroms):
                    1          2          3          4          5
     1  O    0.000000
     2  C    1.218481   0.000000
     3  C    2.444935   1.536768   0.000000
     4  C    2.955052   2.632244   1.562889   0.000000
     5  C    4.465303   3.950599   2.534567   1.544998   0.000000
     6  C    3.065245   3.073318   2.535301   1.544936   2.491757
     7  C    3.103443   3.199929   2.580521   1.542745   2.510357
     8  C    3.458169   2.485178   1.557824   2.637614   3.082115
     9  C    4.044342   2.923750   2.570225   3.987575   4.435686
    10  C    3.467501   2.525987   3.024380   4.525431   5.379083
    11  C    2.392016   1.526380   2.575126   3.992193   5.098071
    12  H    3.124404   2.113032   1.103528   2.154170   2.703856
    13  H    4.865644   4.180980   2.739327   2.199690   1.097896
    14  H    5.095509   4.779894   3.489860   2.177129   1.096367
    15  H    4.936454   4.335116   2.870623   2.210543   1.095238
    16  H    3.960991   4.107650   3.495102   2.180634   2.699300
    17  H    2.393944   2.773902   2.822492   2.195087   3.464372
    18  H    3.588306   3.355610   2.758696   2.193086   2.748952
    19  H    3.969697   4.192135   3.526883   2.175811   2.731024
    20  H    2.426425   2.892715   2.842565   2.188465   3.475900
    21  H    3.676975   3.589523   2.858241   2.198307   2.769391
    22  H    4.391249   3.445529   2.182721   2.819984   2.671587
    23  H    3.436424   2.752717   2.184555   2.929654   3.531420
    24  H    4.962928   3.917936   3.516070   4.794560   5.069697
    25  H    4.550824   3.343014   2.836219   4.249681   4.499112
    26  H    3.475106   2.818150   3.450657   4.781075   5.734398
    27  H    4.381565   3.474812   4.010586   5.548909   6.329669
    28  H    2.493448   2.137882   3.494844   4.764275   6.010298
    29  H    3.081558   2.147359   2.837266   4.251484   5.183076
                    6          7          8          9         10
     6  C    0.000000
     7  C    2.520790   0.000000
     8  C    3.964867   3.173411   0.000000
     9  C    5.095623   4.620739   1.536295   0.000000
    10  C    5.377526   5.010347   2.539098   1.532954   0.000000
    11  C    4.433377   4.639254   2.955367   2.533607   1.542766
    12  H    2.714985   3.499063   2.139587   2.719526   3.279894
    13  H    2.785826   3.483093   3.336126   4.425101   5.439140
    14  H    2.669917   2.777887   4.123545   5.518472   6.412890
    15  H    3.472696   2.743315   2.829297   4.206312   5.331796
    16  H    1.096759   2.765004   4.795896   6.045849   6.409325
    17  H    1.091612   2.773939   4.303403   5.302091   5.270496
    18  H    1.098268   3.487767   4.216580   5.140430   5.472587
    19  H    2.742523   1.097015   4.167774   5.654521   6.100521
    20  H    2.783358   1.092091   3.539890   4.804850   4.853619
    21  H    3.491325   1.096636   2.866769   4.332367   4.875152
    22  H    4.230429   3.429814   1.094356   2.163058   3.481120
    23  H    4.334010   2.891766   1.098261   2.163064   2.809533
    24  H    6.035926   5.249082   2.168354   1.097280   2.170363
    25  H    5.190197   5.180643   2.164728   1.099963   2.164039
    26  H    5.725982   4.921877   2.825877   2.163011   1.098753
    27  H    6.326150   6.102563   3.494901   2.180105   1.096720
    28  H    5.024826   5.234022   3.932972   3.494223   2.198805
    29  H    4.502225   5.195826   3.372986   2.819757   2.168088
                   11         12         13         14         15
    11  C    0.000000
    12  H    2.723912   0.000000
    13  H    5.117778   2.447359   0.000000
    14  H    6.040365   3.673942   1.769598   0.000000
    15  H    5.363105   3.176609   1.774254   1.763005   0.000000
    16  H    5.511482   3.699987   3.106130   2.410345   3.693856
    17  H    4.140902   3.134421   3.801260   3.682443   4.348996
    18  H    4.462231   2.477805   2.590155   3.015474   3.791133
    19  H    5.671340   4.313781   3.762119   2.544865   3.034365
    20  H    4.338645   3.831199   4.346006   3.770963   3.770122
    21  H    4.848632   3.836673   3.771738   3.158035   2.549535
    22  H    3.955871   2.501542   2.856237   3.702313   2.141140
    23  H    3.347422   3.056006   4.056683   4.442035   3.147097
    24  H    3.486977   3.725445   5.106124   6.133559   4.622046
    25  H    2.825445   2.533420   4.216763   5.592508   4.375372
    26  H    2.164834   3.988106   5.986204   6.713177   5.594859
    27  H    2.175706   4.074881   6.274940   7.386272   6.269422
    28  H    1.093765   3.713284   6.088632   6.888415   6.319016
    29  H    1.099943   2.534188   4.971286   6.131791   5.547284
                   16         17         18         19         20
    16  H    0.000000
    17  H    1.772340   0.000000
    18  H    1.768888   1.776701   0.000000
    19  H    2.531233   3.088942   3.755385   0.000000
    20  H    3.139651   2.590191   3.795971   1.774241   0.000000
    21  H    3.764933   3.801251   4.353023   1.765025   1.776870
    22  H    4.912021   4.801858   4.412678   4.251616   4.072127
    23  H    5.071134   4.545268   4.819238   3.906488   3.129068
    24  H    6.926379   6.284554   6.130642   6.256953   5.481634
    25  H    6.153757   5.494658   5.002273   6.153328   5.457127
    26  H    6.696438   5.529910   6.012451   6.014612   4.636558
    27  H    7.383397   6.200923   6.308249   7.190305   5.934891
    28  H    6.075463   4.512514   5.111155   6.238018   4.724389
    29  H    5.598242   4.315624   4.259294   6.167575   5.027058
                   21         22         23         24         25
    21  H    0.000000
    22  H    3.002213   0.000000
    23  H    2.328719   1.758450   0.000000
    24  H    4.752444   2.484599   2.480921   0.000000
    25  H    5.016336   2.477036   3.067703   1.760607   0.000000
    26  H    4.666646   3.810059   2.651765   2.474992   3.067967
    27  H    5.956754   4.319203   3.818175   2.528505   2.483766
    28  H    5.501039   4.977160   4.138809   4.335696   3.842356
    29  H    5.489197   4.202801   4.032741   3.823197   2.667023
                   26         27         28         29
    26  H    0.000000
    27  H    1.760861   0.000000
    28  H    2.483918   2.559163   0.000000
    29  H    3.067168   2.477187   1.776414   0.000000
 Stoichiometry    C10H18O
 Framework group  C1[X(C10H18O)]
 Deg. of freedom    81
 Full point group                 C1      NOp   1
 Largest Abelian subgroup         C1      NOp   1
 Largest concise Abelian subgroup C1      NOp   1
                         Standard orientation:                         
 ---------------------------------------------------------------------
 Center     Atomic      Atomic             Coordinates (Angstroms)
 Number     Number       Type             X           Y           Z
 ---------------------------------------------------------------------
      1          8           0        0.256890    2.059214    0.501331
      2          6           0        0.699342    1.072887   -0.060890
      3          6           0       -0.101120   -0.209753   -0.336121
      4          6           0       -1.637296   -0.139062   -0.057218
      5          6           0       -2.298867   -1.460532   -0.507837
      6          6           0       -2.257400    1.000427   -0.896183
      7          6           0       -1.953480    0.091061    1.435139
      8          6           0        0.653491   -1.373731    0.372774
      9          6           0        2.116381   -1.484419   -0.083190
     10          6           0        2.882998   -0.178417    0.154733
     11          6           0        2.158624    1.013552   -0.504523
     12          1           0        0.012943   -0.393924   -1.418176
     13          1           0       -2.052736   -1.699669   -1.550722
     14          1           0       -3.389561   -1.373754   -0.437999
     15          1           0       -2.002925   -2.312454    0.113607
     16          1           0       -3.346559    1.013512   -0.767964
     17          1           0       -1.867847    1.975729   -0.598436
     18          1           0       -2.054584    0.856979   -1.965988
     19          1           0       -3.039564    0.130794    1.584419
     20          1           0       -1.524374    1.031007    1.788741
     21          1           0       -1.570805   -0.724312    2.060709
     22          1           0        0.137319   -2.318281    0.175276
     23          1           0        0.623698   -1.220370    1.459867
     24          1           0        2.607225   -2.311531    0.444998
     25          1           0        2.145120   -1.736310   -1.153538
     26          1           0        2.963595    0.006847    1.234751
     27          1           0        3.907829   -0.250608   -0.229069
     28          1           0        2.631478    1.967416   -0.253777
     29          1           0        2.188582    0.893152   -1.597447
 ---------------------------------------------------------------------
 Rotational constants (GHZ):           1.7137081           0.8416290           0.6788050
 Standard basis: 6-31G(d) (6D, 7F)
 There are   201 symmetry adapted cartesian basis functions of A   symmetry.
 There are   201 symmetry adapted basis functions of A   symmetry.
   201 basis functions,   380 primitive gaussians,   201 cartesian basis functions
    43 alpha electrons       43 beta electrons
       nuclear repulsion energy       674.2935967124 Hartrees.
 NAtoms=   29 NActive=   29 NUniq=   29 SFac= 1.00D+00 NAtFMM=   60 NAOKFM=F Big=F
 Integral buffers will be    131072 words long.
 Raffenetti 2 integral format.
 Two-electron integral symmetry is turned on.
 One-electron integrals computed using PRISM.
 NBasis=   201 RedAO= T EigKep=  2.37D-03  NBF=   201
 NBsUse=   201 1.00D-06 EigRej= -1.00D+00 NBFU=   201
 ExpMin= 1.61D-01 ExpMax= 5.48D+03 ExpMxC= 8.25D+02 IAcc=3 IRadAn=         5 AccDes= 0.00D+00
 Harris functional with IExCor=  402 and IRadAn=       5 diagonalized for initial guess.
 HarFok:  IExCor=  402 AccDes= 0.00D+00 IRadAn=         5 IDoV= 1 UseB2=F ITyADJ=14
 ICtDFT=  3500011 ScaDFX=  1.000000  1.000000  1.000000  1.000000
 FoFCou: FMM=F IPFlag=           0 FMFlag=      100000 FMFlg1=           0
         NFxFlg=           0 DoJE=T BraDBF=F KetDBF=T FulRan=T
         wScrn=  0.000000 ICntrl=       500 IOpCl=  0 I1Cent=   200000004 NGrid=           0
         NMat0=    1 NMatS0=      1 NMatT0=    0 NMatD0=    1 NMtDS0=    0 NMtDT0=    0
 Petite list used in FoFCou.
 Requested convergence on RMS density matrix=1.00D-08 within 128 cycles.
 Requested convergence on MAX density matrix=1.00D-06.
 Requested convergence on             energy=1.00D-06.
 No special actions if energy rises.
 Integral accuracy reduced to 1.0D-05 until final iterations.
 Initial convergence to 1.0D-05 achieved.  Increase integral accuracy.
 SCF Done:  E(RB3LYP) =  -467.141480005     A.U. after   13 cycles
            NFock= 13  Conv=0.74D-08     -V/T= 2.0099
 DoSCS=F DFT=T ScalE2(SS,OS)=  1.000000  1.000000
 Range of M.O.s used for correlation:     1   201
 NBasis=   201 NAE=    43 NBE=    43 NFC=     0 NFV=     0
 NROrb=    201 NOA=    43 NOB=    43 NVA=   158 NVB=   158
 Symmetrizing basis deriv contribution to polar:
 IMax=3 JMax=2 DiffMx= 0.00D+00
 G2DrvN: will do    30 centers at a time, making    1 passes.
 Calling FoFCou, ICntrl=  3107 FMM=F I1Cent=   0 AccDes= 0.00D+00.
 End of G2Drv F.D. properties file   721 does not exist.
 End of G2Drv F.D. properties file   722 does not exist.
 End of G2Drv F.D. properties file   788 does not exist.
          IDoAtm=11111111111111111111111111111
          Differentiating once with respect to electric field.
                with respect to dipole field.
          Differentiating once with respect to nuclear coordinates.
 Keep R1 ints in memory in canonical form, NReq=214321484.
          There are    90 degrees of freedom in the 1st order CPHF.  IDoFFX=6 NUNeed=     3.
     87 vectors produced by pass  0 Test12= 7.55D-15 1.11D-09 XBig12= 7.15D+01 2.03D+00.
 AX will form    87 AO Fock derivatives at one time.
     87 vectors produced by pass  1 Test12= 7.55D-15 1.11D-09 XBig12= 6.77D+00 4.76D-01.
     87 vectors produced by pass  2 Test12= 7.55D-15 1.11D-09 XBig12= 3.45D-02 2.43D-02.
     87 vectors produced by pass  3 Test12= 7.55D-15 1.11D-09 XBig12= 7.70D-05 1.66D-03.
     87 vectors produced by pass  4 Test12= 7.55D-15 1.11D-09 XBig12= 7.04D-08 3.18D-05.
     38 vectors produced by pass  5 Test12= 7.55D-15 1.11D-09 XBig12= 3.88D-11 5.52D-07.
      3 vectors produced by pass  6 Test12= 7.55D-15 1.11D-09 XBig12= 2.38D-14 1.97D-08.
 InvSVY:  IOpt=1 It=  1 EMax= 1.07D-14
 Solved reduced A of dimension   476 with    90 vectors.
 Isotropic polarizability for W=    0.000000      103.33 Bohr**3.
 End of Minotr F.D. properties file   721 does not exist.
 End of Minotr F.D. properties file   722 does not exist.
 End of Minotr F.D. properties file   788 does not exist.

 **********************************************************************

            Population analysis using the SCF density.

 **********************************************************************

 Orbital symmetries:
       Occupied  (A) (A) (A) (A) (A) (A) (A) (A) (A) (A) (A) (A)
                 (A) (A) (A) (A) (A) (A) (A) (A) (A) (A) (A) (A)
                 (A) (A) (A) (A) (A) (A) (A) (A) (A) (A) (A) (A)
                 (A) (A) (A) (A) (A) (A) (A)
       Virtual   (A) (A) (A) (A) (A) (A) (A) (A) (A) (A) (A) (A)
                 (A) (A) (A) (A) (A) (A) (A) (A) (A) (A) (A) (A)
                 (A) (A) (A) (A) (A) (A) (A) (A) (A) (A) (A) (A)
                 (A) (A) (A) (A) (A) (A) (A) (A) (A) (A) (A) (A)
                 (A) (A) (A) (A) (A) (A) (A) (A) (A) (A) (A) (A)
                 (A) (A) (A) (A) (A) (A) (A) (A) (A) (A) (A) (A)
                 (A) (A) (A) (A) (A) (A) (A) (A) (A) (A) (A) (A)
                 (A) (A) (A) (A) (A) (A) (A) (A) (A) (A) (A) (A)
                 (A) (A) (A) (A) (A) (A) (A) (A) (A) (A) (A) (A)
                 (A) (A) (A) (A) (A) (A) (A) (A) (A) (A) (A) (A)
                 (A) (A) (A) (A) (A) (A) (A) (A) (A) (A) (A) (A)
                 (A) (A) (A) (A) (A) (A) (A) (A) (A) (A) (A) (A)
                 (A) (A) (A) (A) (A) (A) (A) (A) (A) (A) (A) (A)
                 (A) (A)
 The electronic state is 1-A.
 Alpha  occ. eigenvalues --  -19.13557 -10.26942 -10.19588 -10.19526 -10.19411
 Alpha  occ. eigenvalues --  -10.19141 -10.19044 -10.18964 -10.17030 -10.16121
 Alpha  occ. eigenvalues --  -10.16072  -1.03416  -0.83885  -0.80492  -0.74218
 Alpha  occ. eigenvalues --   -0.71971  -0.67715  -0.67398  -0.62523  -0.58994
 Alpha  occ. eigenvalues --   -0.55077  -0.51489  -0.47126  -0.46791  -0.44971
 Alpha  occ. eigenvalues --   -0.44073  -0.43118  -0.42511  -0.41920  -0.40235
 Alpha  occ. eigenvalues --   -0.39430  -0.37973  -0.37070  -0.36376  -0.35691
 Alpha  occ. eigenvalues --   -0.35048  -0.34626  -0.33253  -0.32726  -0.32065
 Alpha  occ. eigenvalues --   -0.30961  -0.30206  -0.23243
 Alpha virt. eigenvalues --   -0.01430   0.08133   0.09728   0.10498   0.12940
 Alpha virt. eigenvalues --    0.13294   0.13992   0.14685   0.15109   0.15491
 Alpha virt. eigenvalues --    0.16513   0.17243   0.17644   0.18320   0.18538
 Alpha virt. eigenvalues --    0.19689   0.20131   0.21195   0.21850   0.23003
 Alpha virt. eigenvalues --    0.23216   0.24004   0.24261   0.25798   0.26304
 Alpha virt. eigenvalues --    0.27602   0.28700   0.28856   0.33775   0.38504
 Alpha virt. eigenvalues --    0.49477   0.50735   0.51281   0.52586   0.53545
 Alpha virt. eigenvalues --    0.53891   0.54916   0.57162   0.57687   0.58637
 Alpha virt. eigenvalues --    0.61826   0.62876   0.63755   0.66392   0.67462
 Alpha virt. eigenvalues --    0.69227   0.69960   0.71186   0.71803   0.74234
 Alpha virt. eigenvalues --    0.75816   0.78794   0.81520   0.83411   0.83556
 Alpha virt. eigenvalues --    0.84553   0.86008   0.86862   0.86902   0.88231
 Alpha virt. eigenvalues --    0.89094   0.90165   0.90898   0.91640   0.91774
 Alpha virt. eigenvalues --    0.92817   0.93397   0.94232   0.94356   0.95431
 Alpha virt. eigenvalues --    0.97245   0.97549   0.97877   0.99714   1.01646
 Alpha virt. eigenvalues --    1.02094   1.04797   1.09258   1.11656   1.13146
 Alpha virt. eigenvalues --    1.16989   1.20236   1.21330   1.27097   1.34050
 Alpha virt. eigenvalues --    1.39483   1.43235   1.43935   1.47917   1.49517
 Alpha virt. eigenvalues --    1.51578   1.57109   1.60731   1.64065   1.67483
 Alpha virt. eigenvalues --    1.70203   1.71869   1.73221   1.73936   1.77114
 Alpha virt. eigenvalues --    1.79608   1.83184   1.83949   1.85510   1.87744
 Alpha virt. eigenvalues --    1.89134   1.89941   1.92660   1.94810   1.95155
 Alpha virt. eigenvalues --    1.96912   1.99644   2.01362   2.05428   2.05698
 Alpha virt. eigenvalues --    2.09161   2.10948   2.11535   2.12912   2.15768
 Alpha virt. eigenvalues --    2.16844   2.19643   2.25424   2.27102   2.27852
 Alpha virt. eigenvalues --    2.28229   2.28699   2.34123   2.34338   2.37231
 Alpha virt. eigenvalues --    2.39134   2.42039   2.43278   2.48415   2.52099
 Alpha virt. eigenvalues --    2.56800   2.61065   2.61488   2.64656   2.64855
 Alpha virt. eigenvalues --    2.72055   2.74139   2.77925   2.79963   2.85933
 Alpha virt. eigenvalues --    2.99955   3.04315   4.04696   4.11509   4.21026
 Alpha virt. eigenvalues --    4.26014   4.31682   4.32459   4.34683   4.53895
 Alpha virt. eigenvalues --    4.57667   4.61475   4.72857
          Condensed to atoms (all electrons):
               1          2          3          4          5          6
     1  O    8.024043   0.558845  -0.085484   0.006418   0.000115  -0.009436
     2  C    0.558845   4.552124   0.287062  -0.026775   0.004267  -0.002798
     3  C   -0.085484   0.287062   5.309032   0.359114  -0.047518  -0.049121
     4  C    0.006418  -0.026775   0.359114   4.736389   0.377038   0.381632
     5  C    0.000115   0.004267  -0.047518   0.377038   5.174876  -0.064732
     6  C   -0.009436  -0.002798  -0.049121   0.381632  -0.064732   5.184551
     7  C   -0.008953  -0.004941  -0.049302   0.383946  -0.064885  -0.057081
     8  C   -0.000505  -0.025243   0.351050  -0.030937  -0.007415   0.004162
     9  C    0.000160  -0.013558  -0.033933   0.003390   0.000150  -0.000120
    10  C    0.000420  -0.027916  -0.003749   0.000043  -0.000004   0.000000
    11  C   -0.072879   0.341411  -0.124119   0.004817  -0.000153  -0.000267
    12  H    0.002116  -0.036820   0.342523  -0.038028  -0.006324  -0.005482
    13  H    0.000002   0.000046  -0.005842  -0.029491   0.363317  -0.004044
    14  H    0.000002  -0.000072   0.004868  -0.029055   0.366468  -0.006285
    15  H    0.000001  -0.000066  -0.005699  -0.026670   0.364146   0.005812
    16  H    0.000224   0.000124   0.004908  -0.029156  -0.005975   0.362466
    17  H    0.012447   0.003539  -0.008334  -0.024948   0.005292   0.365999
    18  H    0.000140  -0.000156  -0.006095  -0.031462  -0.004954   0.361571
    19  H    0.000232   0.000077   0.005291  -0.031421  -0.004862  -0.005891
    20  H    0.014669   0.002044  -0.007579  -0.025790   0.005170  -0.004911
    21  H    0.000097   0.000066  -0.006677  -0.029371  -0.005224   0.005554
    22  H   -0.000066   0.003234  -0.033570  -0.005227   0.003428   0.000086
    23  H    0.000719  -0.004700  -0.041639  -0.004358  -0.000272   0.000018
    24  H    0.000001   0.000288   0.004142  -0.000102  -0.000001   0.000002
    25  H   -0.000007  -0.001839  -0.004865   0.000023  -0.000014  -0.000005
    26  H    0.000696  -0.002898  -0.000069  -0.000024  -0.000000   0.000000
    27  H   -0.000063   0.003562  -0.000271   0.000007  -0.000000  -0.000000
    28  H    0.005694  -0.024157   0.006498  -0.000122   0.000002   0.000002
    29  H    0.001709  -0.030723   0.003074  -0.000109  -0.000001   0.000036
               7          8          9         10         11         12
     1  O   -0.008953  -0.000505   0.000160   0.000420  -0.072879   0.002116
     2  C   -0.004941  -0.025243  -0.013558  -0.027916   0.341411  -0.036820
     3  C   -0.049302   0.351050  -0.033933  -0.003749  -0.124119   0.342523
     4  C    0.383946  -0.030937   0.003390   0.000043   0.004817  -0.038028
     5  C   -0.064885  -0.007415   0.000150  -0.000004  -0.000153  -0.006324
     6  C   -0.057081   0.004162  -0.000120   0.000000  -0.000267  -0.005482
     7  C    5.178052  -0.006309   0.000174  -0.000024  -0.000073   0.006083
     8  C   -0.006309   5.059053   0.366633  -0.044706  -0.007848  -0.045224
     9  C    0.000174   0.366633   5.012511   0.379417  -0.046712  -0.003071
    10  C   -0.000024  -0.044706   0.379417   5.011824   0.344641  -0.002121
    11  C   -0.000073  -0.007848  -0.046712   0.344641   5.276811   0.001527
    12  H    0.006083  -0.045224  -0.003071  -0.002121   0.001527   0.634561
    13  H    0.005897  -0.000444  -0.000055  -0.000000   0.000002   0.005866
    14  H   -0.003787   0.000245  -0.000000   0.000000   0.000002  -0.000068
    15  H   -0.005051   0.000289  -0.000060  -0.000001   0.000002  -0.000099
    16  H   -0.005114  -0.000114   0.000002   0.000000   0.000006  -0.000097
    17  H   -0.004975   0.000056  -0.000002  -0.000001   0.000297  -0.000327
    18  H    0.005775   0.000021  -0.000003  -0.000000  -0.000016   0.005754
    19  H    0.363198   0.000043  -0.000001  -0.000000   0.000004  -0.000141
    20  H    0.365242  -0.000138  -0.000012  -0.000021   0.000253   0.000049
    21  H    0.362977   0.002264  -0.000036   0.000002   0.000011  -0.000067
    22  H   -0.000662   0.370402  -0.030356   0.004689  -0.000253  -0.005634
    23  H    0.002833   0.371194  -0.039158  -0.005204   0.000187   0.006419
    24  H    0.000002  -0.031141   0.366985  -0.031998   0.004819   0.000041
    25  H    0.000001  -0.041219   0.373131  -0.042116  -0.003197   0.005914
    26  H   -0.000000  -0.004518  -0.039323   0.376292  -0.043372   0.000130
    27  H    0.000000   0.004817  -0.030562   0.369342  -0.029585  -0.000039
    28  H    0.000004  -0.000084   0.004263  -0.024691   0.342769  -0.000122
    29  H    0.000002  -0.000958  -0.003488  -0.035412   0.348563   0.002193
              13         14         15         16         17         18
     1  O    0.000002   0.000002   0.000001   0.000224   0.012447   0.000140
     2  C    0.000046  -0.000072  -0.000066   0.000124   0.003539  -0.000156
     3  C   -0.005842   0.004868  -0.005699   0.004908  -0.008334  -0.006095
     4  C   -0.029491  -0.029055  -0.026670  -0.029156  -0.024948  -0.031462
     5  C    0.363317   0.366468   0.364146  -0.005975   0.005292  -0.004954
     6  C   -0.004044  -0.006285   0.005812   0.362466   0.365999   0.361571
     7  C    0.005897  -0.003787  -0.005051  -0.005114  -0.004975   0.005775
     8  C   -0.000444   0.000245   0.000289  -0.000114   0.000056   0.000021
     9  C   -0.000055  -0.000000  -0.000060   0.000002  -0.000002  -0.000003
    10  C   -0.000000   0.000000  -0.000001   0.000000  -0.000001  -0.000000
    11  C    0.000002   0.000002   0.000002   0.000006   0.000297  -0.000016
    12  H    0.005866  -0.000068  -0.000099  -0.000097  -0.000327   0.005754
    13  H    0.590272  -0.029932  -0.032461  -0.000123  -0.000070   0.003771
    14  H   -0.029932   0.576594  -0.030005   0.005216   0.000051  -0.000055
    15  H   -0.032461  -0.030005   0.581272  -0.000001  -0.000186  -0.000055
    16  H   -0.000123   0.005216  -0.000001   0.586386  -0.026031  -0.031180
    17  H   -0.000070   0.000051  -0.000186  -0.026031   0.526654  -0.028805
    18  H    0.003771  -0.000055  -0.000055  -0.031180  -0.028805   0.600115
    19  H   -0.000028   0.004051  -0.000126   0.004357   0.000067  -0.000017
    20  H   -0.000184  -0.000026  -0.000012   0.000036   0.003159  -0.000015
    21  H   -0.000033  -0.000131   0.004126  -0.000048  -0.000008  -0.000198
    22  H    0.000456  -0.000147   0.003910  -0.000005  -0.000007  -0.000009
    23  H    0.000057  -0.000025   0.000248   0.000002  -0.000005   0.000002
    24  H    0.000001  -0.000000   0.000005  -0.000000   0.000000   0.000000
    25  H    0.000012  -0.000000   0.000006   0.000000  -0.000000   0.000000
    26  H   -0.000000  -0.000000  -0.000000  -0.000000  -0.000001  -0.000000
    27  H   -0.000000  -0.000000  -0.000000   0.000000   0.000000   0.000000
    28  H    0.000000  -0.000000   0.000000  -0.000000  -0.000000   0.000000
    29  H   -0.000002  -0.000000  -0.000000  -0.000001  -0.000051  -0.000004
              19         20         21         22         23         24
     1  O    0.000232   0.014669   0.000097  -0.000066   0.000719   0.000001
     2  C    0.000077   0.002044   0.000066   0.003234  -0.004700   0.000288
     3  C    0.005291  -0.007579  -0.006677  -0.033570  -0.041639   0.004142
     4  C   -0.031421  -0.025790  -0.029371  -0.005227  -0.004358  -0.000102
     5  C   -0.004862   0.005170  -0.005224   0.003428  -0.000272  -0.000001
     6  C   -0.005891  -0.004911   0.005554   0.000086   0.000018   0.000002
     7  C    0.363198   0.365242   0.362977  -0.000662   0.002833   0.000002
     8  C    0.000043  -0.000138   0.002264   0.370402   0.371194  -0.031141
     9  C   -0.000001  -0.000012  -0.000036  -0.030356  -0.039158   0.366985
    10  C   -0.000000  -0.000021   0.000002   0.004689  -0.005204  -0.031998
    11  C    0.000004   0.000253   0.000011  -0.000253   0.000187   0.004819
    12  H   -0.000141   0.000049  -0.000067  -0.005634   0.006419   0.000041
    13  H   -0.000028  -0.000184  -0.000033   0.000456   0.000057   0.000001
    14  H    0.004051  -0.000026  -0.000131  -0.000147  -0.000025  -0.000000
    15  H   -0.000126  -0.000012   0.004126   0.003910   0.000248   0.000005
    16  H    0.004357   0.000036  -0.000048  -0.000005   0.000002  -0.000000
    17  H    0.000067   0.003159  -0.000008  -0.000007  -0.000005   0.000000
    18  H   -0.000017  -0.000015  -0.000198  -0.000009   0.000002   0.000000
    19  H    0.588830  -0.025612  -0.031529  -0.000041  -0.000071  -0.000000
    20  H   -0.025612   0.525897  -0.028861   0.000009   0.000356  -0.000000
    21  H   -0.031529  -0.028861   0.592476   0.000176   0.002760   0.000005
    22  H   -0.000041   0.000009   0.000176   0.584520  -0.036408  -0.002414
    23  H   -0.000071   0.000356   0.002760  -0.036408   0.593973  -0.003659
    24  H   -0.000000  -0.000000   0.000005  -0.002414  -0.003659   0.595745
    25  H    0.000000  -0.000000  -0.000001  -0.003999   0.005724  -0.036035
    26  H    0.000000  -0.000003  -0.000005  -0.000003   0.004502  -0.004483
    27  H    0.000000   0.000000  -0.000000  -0.000182  -0.000020  -0.001952
    28  H   -0.000000  -0.000001   0.000000   0.000017  -0.000045  -0.000147
    29  H    0.000000  -0.000005  -0.000001  -0.000013   0.000117  -0.000046
              25         26         27         28         29
     1  O   -0.000007   0.000696  -0.000063   0.005694   0.001709
     2  C   -0.001839  -0.002898   0.003562  -0.024157  -0.030723
     3  C   -0.004865  -0.000069  -0.000271   0.006498   0.003074
     4  C    0.000023  -0.000024   0.000007  -0.000122  -0.000109
     5  C   -0.000014  -0.000000  -0.000000   0.000002  -0.000001
     6  C   -0.000005   0.000000  -0.000000   0.000002   0.000036
     7  C    0.000001  -0.000000   0.000000   0.000004   0.000002
     8  C   -0.041219  -0.004518   0.004817  -0.000084  -0.000958
     9  C    0.373131  -0.039323  -0.030562   0.004263  -0.003488
    10  C   -0.042116   0.376292   0.369342  -0.024691  -0.035412
    11  C   -0.003197  -0.043372  -0.029585   0.342769   0.348563
    12  H    0.005914   0.000130  -0.000039  -0.000122   0.002193
    13  H    0.000012  -0.000000  -0.000000   0.000000  -0.000002
    14  H   -0.000000  -0.000000  -0.000000  -0.000000  -0.000000
    15  H    0.000006  -0.000000  -0.000000   0.000000  -0.000000
    16  H    0.000000  -0.000000   0.000000  -0.000000  -0.000001
    17  H   -0.000000  -0.000001   0.000000  -0.000000  -0.000051
    18  H    0.000000  -0.000000   0.000000   0.000000  -0.000004
    19  H    0.000000   0.000000   0.000000  -0.000000   0.000000
    20  H   -0.000000  -0.000003   0.000000  -0.000001  -0.000005
    21  H   -0.000001  -0.000005  -0.000000   0.000000  -0.000001
    22  H   -0.003999  -0.000003  -0.000182   0.000017  -0.000013
    23  H    0.005724   0.004502  -0.000020  -0.000045   0.000117
    24  H   -0.036035  -0.004483  -0.001952  -0.000147  -0.000046
    25  H    0.609838   0.005803  -0.004415  -0.000040   0.004492
    26  H    0.005803   0.595176  -0.036570  -0.003343   0.005836
    27  H   -0.004415  -0.036570   0.591592  -0.002699  -0.006280
    28  H   -0.000040  -0.003343  -0.002699   0.562094  -0.027402
    29  H    0.004492   0.005836  -0.006280  -0.027402   0.589083
 Mulliken charges:
               1
     1  O   -0.451357
     2  C    0.445973
     3  C   -0.163695
     4  C    0.110230
     5  C   -0.451935
     6  C   -0.461716
     7  C   -0.463029
     8  C   -0.283423
     9  C   -0.266364
    10  C   -0.268704
    11  C   -0.337647
    12  H    0.130487
    13  H    0.133009
    14  H    0.142093
    15  H    0.140674
    16  H    0.134120
    17  H    0.176189
    18  H    0.125875
    19  H    0.133589
    20  H    0.176285
    21  H    0.131677
    22  H    0.148068
    23  H    0.146453
    24  H    0.139942
    25  H    0.132809
    26  H    0.146178
    27  H    0.143317
    28  H    0.161510
    29  H    0.149393
 Sum of Mulliken charges =  -0.00000
 Mulliken charges with hydrogens summed into heavy atoms:
               1
     1  O   -0.451357
     2  C    0.445973
     3  C   -0.033209
     4  C    0.110230
     5  C   -0.036158
     6  C   -0.025532
     7  C   -0.021479
     8  C    0.011099
     9  C    0.006387
    10  C    0.020791
    11  C   -0.026744
 APT charges:
               1
     1  O   -0.636848
     2  C    0.694776
     3  C   -0.068647
     4  C    0.139854
     5  C    0.039757
     6  C    0.024441
     7  C    0.015843
     8  C    0.093774
     9  C    0.118689
    10  C    0.143992
    11  C   -0.065295
    12  H   -0.040588
    13  H   -0.029224
    14  H   -0.029427
    15  H   -0.022913
    16  H   -0.034844
    17  H    0.026293
    18  H   -0.032481
    19  H   -0.029849
    20  H    0.027348
    21  H   -0.027156
    22  H   -0.032858
    23  H   -0.030370
    24  H   -0.057674
    25  H   -0.049566
    26  H   -0.039543
    27  H   -0.053947
    28  H   -0.028702
    29  H   -0.014836
 Sum of APT charges =   0.00000
 APT charges with hydrogens summed into heavy atoms:
               1
     1  O   -0.636848
     2  C    0.694776
     3  C   -0.109234
     4  C    0.139854
     5  C   -0.041806
     6  C   -0.016591
     7  C   -0.013815
     8  C    0.030546
     9  C    0.011450
    10  C    0.050503
    11  C   -0.108834
 Electronic spatial extent (au):  <R**2>=           1914.0620
 Charge=             -0.0000 electrons
 Dipole moment (field-independent basis, Debye):
    X=              1.2489    Y=             -2.2529    Z=             -0.9928  Tot=              2.7606
 Quadrupole moment (field-independent basis, Debye-Ang):
   XX=            -66.7132   YY=            -75.1852   ZZ=            -69.3013
   XY=             -0.0072   XZ=             -0.4986   YZ=             -2.2009
 Traceless Quadrupole moment (field-independent basis, Debye-Ang):
   XX=              3.6867   YY=             -4.7853   ZZ=              1.0986
   XY=             -0.0072   XZ=             -0.4986   YZ=             -2.2009
 Octapole moment (field-independent basis, Debye-Ang**2):
  XXX=              8.1891  YYY=             -6.0228  ZZZ=              0.2166  XYY=              2.5805
  XXY=              4.9482  XXZ=              1.2140  XZZ=              4.1314  YZZ=              1.5134
  YYZ=             -2.4877  XYZ=             -1.2361
 Hexadecapole moment (field-independent basis, Debye-Ang**3):
 XXXX=          -1573.6976 YYYY=           -696.5826 ZZZZ=           -315.0807 XXXY=              3.2015
 XXXZ=             -6.0130 YYYX=             -2.7828 YYYZ=             -8.1311 ZZZX=              1.6154
 ZZZY=              4.7258 XXYY=           -380.3126 XXZZ=           -324.9947 YYZZ=           -166.5007
 XXYZ=              0.7920 YYXZ=             -2.1988 ZZXY=              0.6727
 N-N= 6.742935967124D+02 E-N=-2.431526984071D+03  KE= 4.625839932454D+02
  Exact polarizability: 117.666  -2.037 101.693  -1.500   1.080  90.632
 Approx polarizability: 146.173  -5.808 150.858  -4.213   7.533 140.801
 Calling FoFJK, ICntrl=    100127 FMM=F ISym2X=0 I1Cent= 0 IOpClX= 0 NMat=1 NMatS=1 NMatT=0.
 Full mass-weighted force constant matrix:
 Low frequencies ---   -5.1172   -0.0011   -0.0009   -0.0008    4.4293    6.3578
 Low frequencies ---   65.7613   90.4716  135.1266
 Diagonal vibrational polarizability:
        7.9690459       4.0259689       8.0821907
 Harmonic frequencies (cm**-1), IR intensities (KM/Mole), Raman scattering
 activities (A**4/AMU), depolarization ratios for plane and unpolarized
 incident light, reduced masses (AMU), force constants (mDyne/A),
 and normal coordinates:
                      1                      2                      3
                      A                      A                      A
 Frequencies --     65.7539                90.4703               135.1261
 Red. masses --      2.6497                 3.6033                 2.8060
 Frc consts  --      0.0067                 0.0174                 0.0302
 IR Inten    --      0.2206                 1.6077                 1.0925
  Atom  AN      X      Y      Z        X      Y      Z        X      Y      Z
     1   8     0.06  -0.04   0.06     0.05  -0.08   0.26     0.06  -0.12   0.13
     2   6    -0.00  -0.01  -0.03    -0.00  -0.01   0.10    -0.00  -0.04  -0.06
     3   6    -0.00  -0.02   0.03    -0.00   0.01   0.05    -0.02  -0.02  -0.10
     4   6    -0.01  -0.01  -0.01    -0.01   0.01  -0.02    -0.00   0.01  -0.02
     5   6    -0.01   0.03  -0.14     0.03  -0.05   0.08    -0.07   0.02   0.05
     6   6     0.04   0.06   0.06     0.05  -0.08  -0.17    -0.01   0.01  -0.01
     7   6    -0.05  -0.12  -0.01    -0.10   0.15  -0.06     0.07   0.05  -0.01
     8   6     0.01   0.07   0.17     0.02   0.02   0.05    -0.02  -0.05  -0.13
     9   6    -0.01   0.01   0.12    -0.02   0.01  -0.07     0.06   0.05   0.09
    10   6     0.01   0.05  -0.09     0.02   0.00  -0.16    -0.05   0.12   0.13
    11   6    -0.04  -0.02  -0.17    -0.04   0.03  -0.04    -0.03  -0.01  -0.13
    12   1     0.03  -0.12   0.05     0.03   0.01   0.05    -0.05   0.00  -0.10
    13   1    -0.05   0.16  -0.18     0.14  -0.19   0.14    -0.14  -0.01   0.04
    14   1    -0.01   0.01  -0.09     0.02  -0.03  -0.05    -0.06   0.05   0.12
    15   1     0.03  -0.04  -0.26    -0.04   0.04   0.23    -0.05   0.03   0.05
    16   1     0.03   0.03  -0.03     0.05   0.01  -0.18     0.00   0.08   0.08
    17   1    -0.00   0.04   0.18     0.10  -0.05  -0.30     0.07   0.00  -0.07
    18   1     0.12   0.18   0.06     0.05  -0.23  -0.15    -0.11  -0.03  -0.02
    19   1    -0.05  -0.03  -0.04    -0.12   0.05  -0.12     0.08   0.06   0.04
    20   1     0.02  -0.18   0.09    -0.21   0.23  -0.15     0.10   0.04  -0.04
    21   1    -0.14  -0.20  -0.06    -0.05   0.26   0.05     0.08   0.05  -0.01
    22   1    -0.00   0.04   0.32    -0.00   0.02   0.10     0.06  -0.06  -0.30
    23   1     0.05   0.22   0.15     0.09   0.05   0.05    -0.18  -0.16  -0.12
    24   1     0.02   0.09   0.22     0.03   0.01  -0.10     0.04   0.11   0.20
    25   1    -0.05  -0.14   0.16    -0.12  -0.01  -0.07     0.25   0.01   0.11
    26   1     0.09   0.17  -0.12     0.16  -0.01  -0.16    -0.26   0.24   0.12
    27   1    -0.02   0.00  -0.16    -0.03  -0.01  -0.28     0.02   0.14   0.32
    28   1    -0.03   0.00  -0.29    -0.02   0.02  -0.03    -0.06   0.04  -0.28
    29   1    -0.13  -0.13  -0.16    -0.14   0.08  -0.05    -0.01  -0.23  -0.10
                      4                      5                      6
                      A                      A                      A
 Frequencies --    193.8544               230.9338               238.0447
 Red. masses --      2.1143                 1.8626                 1.3682
 Frc consts  --      0.0468                 0.0585                 0.0457
 IR Inten    --      2.2350                 0.5850                 1.4930
  Atom  AN      X      Y      Z        X      Y      Z        X      Y      Z
     1   8    -0.12  -0.06  -0.03    -0.01  -0.04   0.05     0.08   0.04   0.03
     2   6    -0.04  -0.05   0.01     0.00   0.00  -0.01     0.02   0.03   0.01
     3   6     0.01  -0.09   0.02    -0.00   0.02  -0.09    -0.01   0.04  -0.00
     4   6     0.01  -0.00   0.01    -0.00  -0.00  -0.06    -0.01  -0.01   0.00
     5   6    -0.11   0.06   0.04    -0.05  -0.00  -0.00     0.05  -0.05   0.03
     6   6     0.14   0.03  -0.04    -0.10  -0.04  -0.04    -0.06  -0.05  -0.02
     7   6     0.02   0.05   0.00     0.14   0.00  -0.04    -0.04   0.01  -0.01
     8   6     0.06  -0.06   0.02    -0.01   0.09   0.05    -0.02   0.02  -0.03
     9   6     0.06   0.02  -0.03    -0.03  -0.00   0.03    -0.02   0.00  -0.02
    10   6     0.02   0.04  -0.03     0.03  -0.03  -0.02    -0.01  -0.02   0.02
    11   6    -0.04   0.04   0.04     0.03   0.02   0.07     0.02  -0.02  -0.02
    12   1     0.01  -0.10   0.03     0.05  -0.03  -0.07    -0.02   0.07  -0.01
    13   1    -0.38   0.17  -0.05    -0.34   0.13  -0.10    -0.13   0.06  -0.03
    14   1    -0.09   0.07   0.32    -0.03  -0.06   0.33     0.05  -0.17   0.25
    15   1     0.03  -0.01  -0.13     0.17  -0.06  -0.18     0.25  -0.06  -0.09
    16   1     0.11  -0.02  -0.28    -0.08   0.02   0.18    -0.09  -0.30  -0.30
    17   1     0.03   0.03   0.10    -0.00  -0.03  -0.20    -0.34   0.00   0.21
    18   1     0.38   0.11  -0.01    -0.32  -0.15  -0.07     0.26   0.14   0.02
    19   1     0.02   0.32  -0.04     0.16   0.11   0.06    -0.04   0.34  -0.07
    20   1     0.24  -0.07   0.05     0.26  -0.05  -0.05     0.22  -0.13   0.06
    21   1    -0.22  -0.08  -0.01     0.11  -0.05  -0.09    -0.32  -0.13  -0.02
    22   1     0.09  -0.08   0.03    -0.04   0.07   0.22    -0.02   0.03  -0.07
    23   1     0.08  -0.06   0.02     0.03   0.26   0.03    -0.04  -0.02  -0.03
    24   1     0.11   0.02  -0.08    -0.06  -0.01   0.06    -0.05  -0.02  -0.03
    25   1     0.02   0.05  -0.04    -0.07  -0.05   0.04    -0.01   0.03  -0.02
    26   1     0.05   0.01  -0.02     0.13  -0.06  -0.02    -0.06  -0.01   0.03
    27   1     0.01   0.08  -0.06    -0.00  -0.06  -0.10     0.00  -0.03   0.07
    28   1    -0.09   0.05   0.10     0.02  -0.00   0.19     0.05  -0.02  -0.05
    29   1    -0.02   0.11   0.03     0.08   0.13   0.06     0.01  -0.06  -0.01
                      7                      8                      9
                      A                      A                      A
 Frequencies --    264.4145               273.6221               296.2062
 Red. masses --      1.1374                 1.7352                 2.0188
 Frc consts  --      0.0469                 0.0765                 0.1044
 IR Inten    --      0.0196                 0.7376                 0.3117
  Atom  AN      X      Y      Z        X      Y      Z        X      Y      Z
     1   8    -0.00   0.03   0.01    -0.07  -0.04   0.03    -0.03  -0.08  -0.01
     2   6    -0.01   0.02   0.01    -0.03  -0.00  -0.01     0.02  -0.05  -0.02
     3   6     0.00   0.01   0.01     0.01   0.00  -0.05    -0.01  -0.01  -0.06
     4   6     0.01  -0.01  -0.00     0.04   0.02  -0.03    -0.03   0.02  -0.01
     5   6     0.01  -0.01   0.00     0.08  -0.01   0.01    -0.03   0.00   0.02
     6   6     0.04  -0.01  -0.02     0.02   0.03   0.00    -0.12   0.04   0.07
     7   6     0.05  -0.04   0.01     0.16   0.03  -0.00    -0.09   0.04  -0.03
     8   6    -0.02  -0.00   0.00    -0.05   0.01   0.01     0.03   0.01  -0.04
     9   6    -0.03   0.00  -0.00    -0.06  -0.03   0.03     0.08   0.00   0.07
    10   6    -0.03   0.01  -0.01    -0.06  -0.02  -0.02     0.13   0.00  -0.05
    11   6    -0.02   0.01  -0.01    -0.04   0.02   0.00     0.06   0.01   0.05
    12   1     0.01   0.02   0.01     0.03  -0.02  -0.04    -0.04  -0.01  -0.06
    13   1     0.22  -0.16   0.09     0.29  -0.16   0.09     0.20  -0.19   0.12
    14   1    -0.00   0.08  -0.25     0.06   0.03  -0.23    -0.04   0.08  -0.25
    15   1    -0.20   0.04   0.18    -0.08   0.07   0.18    -0.22   0.09   0.24
    16   1     0.06   0.14   0.12    -0.02  -0.23  -0.30    -0.12  -0.08   0.07
    17   1     0.20  -0.03  -0.17    -0.26   0.06   0.29    -0.22   0.05   0.18
    18   1    -0.12  -0.15  -0.03     0.35   0.28   0.03    -0.10   0.19   0.05
    19   1     0.06   0.41  -0.02     0.17  -0.06   0.11    -0.09   0.24  -0.12
    20   1     0.42  -0.25   0.13     0.12   0.06  -0.07     0.04  -0.03   0.02
    21   1    -0.32  -0.28  -0.08     0.29   0.07  -0.03    -0.29  -0.03  -0.00
    22   1    -0.04   0.01  -0.02    -0.08   0.02   0.05     0.08  -0.01  -0.06
    23   1    -0.03  -0.01   0.00    -0.06   0.07   0.00    -0.05   0.02  -0.04
    24   1    -0.02   0.00  -0.01    -0.06   0.00   0.08     0.04   0.05   0.19
    25   1    -0.03   0.00  -0.00    -0.06  -0.09   0.05     0.15  -0.13   0.10
    26   1    -0.04   0.01  -0.01    -0.03  -0.01  -0.02     0.31   0.01  -0.06
    27   1    -0.03   0.00   0.00    -0.07  -0.03  -0.04     0.07  -0.03  -0.21
    28   1    -0.01   0.01  -0.01    -0.02  -0.00   0.05    -0.00   0.02   0.14
    29   1    -0.03   0.01  -0.01    -0.03   0.06  -0.00     0.09   0.12   0.04
                     10                     11                     12
                      A                      A                      A
 Frequencies --    304.6153               321.7420               360.3364
 Red. masses --      1.8728                 2.2926                 2.2977
 Frc consts  --      0.1024                 0.1398                 0.1758
 IR Inten    --      0.2631                 1.3225                 0.5905
  Atom  AN      X      Y      Z        X      Y      Z        X      Y      Z
     1   8    -0.05   0.08  -0.00    -0.08  -0.10  -0.01    -0.05  -0.06  -0.01
     2   6    -0.02   0.03   0.09    -0.01  -0.06  -0.03     0.01   0.01  -0.08
     3   6     0.02   0.02   0.04     0.01  -0.04   0.02     0.00   0.03  -0.09
     4   6     0.02   0.01   0.01     0.03   0.04   0.03     0.04   0.03  -0.00
     5   6     0.06   0.01  -0.04     0.19   0.01  -0.07     0.11  -0.04   0.14
     6   6     0.00  -0.01  -0.01    -0.05   0.04   0.07     0.12   0.09   0.01
     7   6     0.03   0.03   0.01    -0.02   0.15   0.00    -0.10  -0.09  -0.01
     8   6    -0.04  -0.09  -0.08     0.02  -0.03   0.04    -0.06   0.05  -0.05
     9   6     0.03  -0.07   0.12    -0.01  -0.00  -0.05    -0.06  -0.01   0.03
    10   6     0.01  -0.01  -0.10    -0.05  -0.00   0.03    -0.03  -0.02  -0.02
    11   6    -0.06  -0.00  -0.00    -0.02  -0.02  -0.02     0.03   0.04   0.00
    12   1     0.04   0.14   0.02    -0.01  -0.09   0.03    -0.04   0.00  -0.09
    13   1    -0.06   0.17  -0.10     0.21   0.20  -0.11    -0.08  -0.08   0.11
    14   1     0.06  -0.08   0.12     0.18  -0.20  -0.04     0.11  -0.18   0.38
    15   1     0.21  -0.04  -0.19     0.36  -0.02  -0.21     0.34   0.05   0.14
    16   1     0.01   0.02   0.07    -0.02   0.08   0.31     0.13   0.27   0.08
    17   1     0.04  -0.00  -0.09     0.04   0.03  -0.04     0.30   0.02  -0.01
    18   1    -0.08  -0.08  -0.01    -0.29  -0.01   0.04     0.04   0.04   0.01
    19   1     0.03   0.05   0.02    -0.02   0.35  -0.08    -0.12  -0.17  -0.16
    20   1     0.05   0.04  -0.02     0.11   0.10  -0.04    -0.20  -0.11   0.17
    21   1     0.03   0.05   0.02    -0.20   0.13   0.09    -0.15  -0.15  -0.05
    22   1     0.00  -0.06  -0.33     0.02  -0.04   0.10    -0.07   0.06  -0.04
    23   1    -0.21  -0.29  -0.05     0.08   0.01   0.04    -0.12   0.10  -0.06
    24   1     0.00   0.06   0.35     0.03  -0.04  -0.16    -0.11   0.03   0.13
    25   1     0.16  -0.31   0.18    -0.07   0.10  -0.08    -0.02  -0.11   0.06
    26   1     0.22   0.05  -0.12    -0.16  -0.02   0.04     0.00  -0.01  -0.03
    27   1    -0.06  -0.04  -0.28    -0.01   0.03   0.13    -0.04  -0.07  -0.04
    28   1     0.00  -0.02  -0.05    -0.04  -0.01  -0.04     0.02   0.01   0.13
    29   1    -0.19   0.02  -0.01     0.00  -0.05  -0.02     0.11   0.14  -0.01
                     13                     14                     15
                      A                      A                      A
 Frequencies --    405.1371               418.7841               445.9991
 Red. masses --      2.5179                 2.6489                 2.7468
 Frc consts  --      0.2435                 0.2737                 0.3219
 IR Inten    --      0.1007                 0.7360                 0.4402
  Atom  AN      X      Y      Z        X      Y      Z        X      Y      Z
     1   8    -0.05  -0.09  -0.01     0.10  -0.04  -0.02    -0.01  -0.01   0.01
     2   6     0.03  -0.03  -0.04     0.07  -0.01  -0.08    -0.06  -0.01  -0.04
     3   6    -0.00   0.03   0.02     0.01  -0.06   0.02    -0.10   0.05  -0.09
     4   6     0.01   0.13   0.09     0.01  -0.07   0.05    -0.06  -0.07   0.11
     5   6     0.06   0.17  -0.00    -0.03  -0.02  -0.07    -0.00  -0.06  -0.09
     6   6    -0.07  -0.07  -0.14     0.03  -0.09   0.05     0.13  -0.07   0.03
     7   6    -0.01  -0.08   0.14    -0.01   0.05   0.04    -0.01   0.07   0.13
     8   6    -0.02   0.00  -0.01    -0.12  -0.08   0.02    -0.01   0.16  -0.10
     9   6    -0.01   0.02   0.01    -0.12   0.06   0.04     0.02   0.03   0.01
    10   6     0.03  -0.00   0.00    -0.05   0.06  -0.05     0.08  -0.03   0.03
    11   6     0.05   0.00  -0.02     0.10   0.17   0.00    -0.02  -0.08   0.04
    12   1    -0.09  -0.01   0.02    -0.02  -0.11   0.02    -0.23   0.09  -0.11
    13   1     0.15   0.26  -0.00    -0.00   0.10  -0.09     0.13   0.16  -0.11
    14   1     0.05   0.15  -0.09    -0.03   0.03  -0.11    -0.01  -0.12  -0.21
    15   1     0.01   0.12  -0.05    -0.10  -0.12  -0.17    -0.03  -0.16  -0.22
    16   1    -0.08  -0.22  -0.27     0.03  -0.08   0.02     0.11   0.11  -0.13
    17   1    -0.25   0.08  -0.37     0.03  -0.09   0.05     0.25  -0.11   0.01
    18   1     0.06  -0.33  -0.08     0.06  -0.09   0.06     0.26  -0.18   0.07
    19   1    -0.02  -0.17   0.15    -0.01   0.08   0.02     0.00   0.14   0.17
    20   1    -0.05  -0.14   0.35    -0.01   0.10  -0.08     0.04   0.11  -0.03
    21   1     0.02  -0.20  -0.03    -0.02   0.14   0.16    -0.00   0.15   0.24
    22   1    -0.01   0.00  -0.06    -0.06  -0.07  -0.15    -0.01   0.14   0.02
    23   1    -0.04  -0.04  -0.01    -0.24  -0.20   0.03    -0.01   0.28  -0.12
    24   1    -0.02   0.01   0.01    -0.03   0.11   0.04    -0.14  -0.01   0.09
    25   1     0.00   0.02   0.01    -0.15   0.02   0.05     0.10  -0.01   0.02
    26   1     0.03   0.02  -0.00    -0.00   0.08  -0.06     0.17  -0.05   0.02
    27   1     0.03  -0.04   0.00    -0.07  -0.08  -0.06     0.05  -0.01  -0.08
    28   1     0.04   0.01  -0.01    -0.01   0.13   0.36    -0.06  -0.05  -0.01
    29   1     0.08  -0.00  -0.02     0.31   0.47  -0.02    -0.01  -0.13   0.05
                     16                     17                     18
                      A                      A                      A
 Frequencies --    463.2316               516.7631               591.7873
 Red. masses --      2.3702                 2.1643                 3.4644
 Frc consts  --      0.2997                 0.3405                 0.7148
 IR Inten    --      1.0719                 3.9411                 7.2498
  Atom  AN      X      Y      Z        X      Y      Z        X      Y      Z
     1   8     0.06  -0.02  -0.05     0.12   0.03  -0.00    -0.18  -0.02   0.05
     2   6    -0.00  -0.10   0.05    -0.05  -0.02  -0.05     0.08   0.12  -0.01
     3   6    -0.09  -0.04   0.06    -0.07  -0.04   0.01     0.02   0.06   0.09
     4   6    -0.10   0.03  -0.04    -0.12   0.04   0.01    -0.14  -0.01   0.00
     5   6     0.05  -0.06   0.01     0.03  -0.03  -0.01    -0.07  -0.14  -0.04
     6   6    -0.01   0.10  -0.06    -0.03   0.09  -0.07    -0.02   0.09  -0.05
     7   6     0.06  -0.02  -0.01     0.00  -0.00   0.06     0.00   0.02   0.06
     8   6    -0.08  -0.04   0.03     0.08  -0.04   0.01     0.01  -0.02   0.02
     9   6    -0.06   0.15   0.02     0.09  -0.09  -0.01     0.01  -0.05  -0.01
    10   6     0.11   0.05   0.02    -0.07   0.01  -0.03     0.05  -0.05   0.00
    11   6    -0.01  -0.05   0.04    -0.06   0.04   0.04     0.22   0.07  -0.13
    12   1    -0.05  -0.04   0.06    -0.11  -0.06   0.01     0.02   0.03   0.09
    13   1     0.08  -0.08   0.02     0.13  -0.01   0.01    -0.02  -0.12  -0.04
    14   1     0.03  -0.26   0.03     0.01  -0.24  -0.06    -0.08  -0.28  -0.06
    15   1     0.22   0.03   0.05     0.17   0.03   0.01     0.03  -0.11  -0.04
    16   1    -0.02   0.21  -0.10    -0.04   0.19  -0.15    -0.03   0.28  -0.13
    17   1     0.08   0.05  -0.03     0.04   0.06  -0.08     0.12   0.02  -0.01
    18   1     0.02   0.10  -0.05     0.03   0.04  -0.05     0.04   0.08  -0.04
    19   1     0.08  -0.04   0.19     0.03  -0.01   0.23     0.04   0.08   0.31
    20   1     0.12  -0.05  -0.02     0.08  -0.03   0.05     0.14   0.00  -0.06
    21   1     0.17  -0.06  -0.12     0.10  -0.04  -0.05     0.12   0.02   0.00
    22   1     0.08  -0.08  -0.16     0.06  -0.06   0.16    -0.02   0.02  -0.08
    23   1    -0.18  -0.20   0.05     0.20   0.06  -0.00     0.03  -0.15   0.04
    24   1    -0.04   0.02  -0.21     0.11   0.05   0.19     0.00  -0.04   0.02
    25   1    -0.16   0.36  -0.04     0.19  -0.28   0.04     0.01  -0.09   0.00
    26   1     0.35   0.07  -0.01    -0.23  -0.03  -0.01    -0.15  -0.01   0.01
    27   1     0.02  -0.05  -0.22    -0.01   0.14   0.11     0.13  -0.15   0.22
    28   1    -0.11   0.03  -0.09    -0.16   0.00   0.37     0.39   0.01  -0.21
    29   1    -0.06  -0.15   0.04     0.13   0.33   0.01     0.17  -0.02  -0.12
                     19                     20                     21
                      A                      A                      A
 Frequencies --    685.5705               741.5185               783.7876
 Red. masses --      2.9775                 2.5086                 2.8228
 Frc consts  --      0.8245                 0.8127                 1.0217
 IR Inten    --      1.8931                 2.5496                 1.0284
  Atom  AN      X      Y      Z        X      Y      Z        X      Y      Z
     1   8     0.00  -0.07  -0.11    -0.01  -0.06   0.00     0.02  -0.06  -0.03
     2   6     0.14  -0.18   0.24    -0.08  -0.04  -0.08     0.03  -0.03  -0.05
     3   6     0.02   0.03   0.06    -0.07   0.12   0.20     0.17   0.11   0.02
     4   6    -0.01  -0.00  -0.00    -0.01  -0.00   0.00     0.09  -0.00  -0.02
     5   6    -0.02  -0.03  -0.01     0.02   0.04   0.02    -0.05  -0.14  -0.05
     6   6    -0.01   0.00  -0.00     0.03  -0.05   0.04    -0.04   0.10  -0.08
     7   6     0.00  -0.00  -0.01     0.03  -0.02  -0.14    -0.01   0.02   0.15
     8   6    -0.04   0.11  -0.08     0.03   0.12   0.01     0.07   0.08   0.02
     9   6    -0.04   0.04  -0.05     0.03   0.02  -0.00     0.01   0.01   0.04
    10   6    -0.05   0.06  -0.07     0.04  -0.04  -0.02    -0.08  -0.02  -0.01
    11   6     0.03   0.01  -0.00    -0.01  -0.07  -0.05    -0.11  -0.06   0.03
    12   1     0.06   0.29   0.02    -0.05   0.03   0.22     0.27   0.03   0.04
    13   1    -0.05  -0.04  -0.01    -0.03   0.03   0.01    -0.18  -0.20  -0.07
    14   1    -0.02  -0.00   0.01     0.02   0.10   0.05    -0.04   0.02   0.02
    15   1    -0.03  -0.03  -0.01    -0.01   0.04   0.03    -0.17  -0.19  -0.06
    16   1    -0.01   0.01  -0.01     0.03  -0.05   0.07    -0.03   0.03  -0.01
    17   1     0.01  -0.01   0.01     0.04  -0.06   0.06    -0.09   0.12  -0.08
    18   1     0.00   0.01  -0.00     0.02  -0.04   0.04    -0.11   0.14  -0.10
    19   1     0.01   0.02   0.03     0.05  -0.00  -0.04    -0.03   0.01   0.04
    20   1     0.03  -0.00  -0.03     0.09  -0.03  -0.19    -0.07   0.04   0.19
    21   1     0.02   0.00  -0.01     0.09  -0.02  -0.18    -0.08   0.04   0.22
    22   1    -0.06   0.07   0.17     0.02   0.21  -0.41    -0.01   0.22  -0.39
    23   1     0.12   0.27  -0.09    -0.04  -0.32   0.07    -0.15  -0.22   0.06
    24   1    -0.13   0.22   0.32    -0.10  -0.01   0.07     0.05  -0.07  -0.14
    25   1     0.14  -0.30   0.04     0.01  -0.06   0.01    -0.15   0.16  -0.00
    26   1    -0.39   0.05  -0.04    -0.17  -0.00  -0.01     0.03   0.01  -0.02
    27   1     0.07   0.03   0.28     0.11   0.02   0.16    -0.13   0.07  -0.14
    28   1    -0.01   0.04  -0.03    -0.16  -0.09   0.33    -0.12  -0.09   0.16
    29   1    -0.25   0.09  -0.02     0.26   0.25  -0.07    -0.03   0.05   0.02
                     22                     23                     24
                      A                      A                      A
 Frequencies --    850.1368               867.6656               881.4698
 Red. masses --      1.7272                 2.7285                 2.1664
 Frc consts  --      0.7355                 1.2103                 0.9918
 IR Inten    --     10.1269                 0.3618                 6.3389
  Atom  AN      X      Y      Z        X      Y      Z        X      Y      Z
     1   8    -0.01   0.06   0.01    -0.03   0.05   0.03     0.01   0.04   0.03
     2   6    -0.06  -0.03   0.09    -0.02   0.04   0.03    -0.10   0.01  -0.04
     3   6    -0.03  -0.03  -0.10    -0.01  -0.10  -0.05    -0.06  -0.10   0.09
     4   6     0.03  -0.01  -0.02    -0.01  -0.02  -0.01     0.14  -0.02  -0.00
     5   6     0.01   0.00  -0.00    -0.00   0.04   0.01     0.01  -0.07  -0.02
     6   6     0.00   0.01  -0.01    -0.00   0.00  -0.00     0.00   0.09  -0.07
     7   6     0.01   0.00   0.05    -0.00   0.00   0.01     0.03   0.00   0.06
     8   6    -0.04   0.00   0.05     0.13   0.02  -0.01    -0.05   0.01  -0.04
     9   6     0.04  -0.02   0.05    -0.03   0.23   0.03    -0.06   0.05  -0.08
    10   6     0.11  -0.02  -0.05    -0.14  -0.08  -0.09     0.10  -0.00   0.02
    11   6     0.01  -0.04  -0.09     0.08  -0.15   0.02     0.03   0.01  -0.01
    12   1     0.07   0.06  -0.10     0.01  -0.14  -0.04    -0.07  -0.16   0.10
    13   1    -0.00  -0.01  -0.00     0.07   0.04   0.02    -0.13  -0.12  -0.05
    14   1     0.01   0.02   0.00    -0.01  -0.05  -0.04     0.04   0.15   0.06
    15   1     0.00   0.01   0.00     0.07   0.07   0.02    -0.14  -0.14  -0.04
    16   1     0.00  -0.02   0.01    -0.00  -0.01   0.01     0.02  -0.16   0.13
    17   1    -0.02   0.02  -0.01    -0.01   0.00  -0.00    -0.20   0.18  -0.11
    18   1    -0.02   0.03  -0.02    -0.01   0.01  -0.01    -0.19   0.16  -0.12
    19   1    -0.01  -0.02  -0.07    -0.01   0.00   0.00    -0.00  -0.03  -0.19
    20   1    -0.07   0.03   0.09    -0.01   0.01   0.01    -0.10   0.03   0.13
    21   1    -0.07   0.02   0.12    -0.01   0.01   0.03    -0.10   0.02   0.17
    22   1     0.05  -0.03  -0.06     0.44  -0.12  -0.15    -0.01  -0.04   0.08
    23   1    -0.28   0.02   0.03     0.01  -0.10   0.01     0.16   0.00  -0.03
    24   1     0.05  -0.18  -0.22     0.04   0.37   0.19    -0.26   0.17   0.31
    25   1    -0.22   0.16  -0.01    -0.01   0.02   0.08     0.18  -0.30   0.01
    26   1    -0.34   0.18  -0.04    -0.20  -0.07  -0.09    -0.02  -0.14   0.05
    27   1     0.28   0.01   0.40    -0.12  -0.25   0.00     0.13  -0.06   0.12
    28   1    -0.08  -0.08   0.24     0.34  -0.32   0.17    -0.10   0.08  -0.06
    29   1    -0.04   0.39  -0.13     0.06   0.02   0.01     0.14  -0.08   0.00
                     25                     26                     27
                      A                      A                      A
 Frequencies --    914.8716               938.8657               945.4127
 Red. masses --      1.4644                 1.9621                 1.7242
 Frc consts  --      0.7221                 1.0190                 0.9080
 IR Inten    --      1.0660                 0.4255                 1.1421
  Atom  AN      X      Y      Z        X      Y      Z        X      Y      Z
     1   8     0.01  -0.01   0.00    -0.01  -0.00   0.00    -0.00  -0.01  -0.00
     2   6     0.02   0.02  -0.04     0.02   0.01  -0.01     0.02   0.00  -0.00
     3   6     0.02  -0.01  -0.06    -0.04   0.04  -0.01    -0.01   0.01  -0.01
     4   6    -0.03   0.01  -0.02     0.04   0.14   0.07     0.02  -0.08   0.12
     5   6    -0.00   0.02  -0.00    -0.10  -0.12  -0.02     0.03  -0.02   0.09
     6   6     0.00  -0.03   0.02     0.05   0.01   0.07    -0.10   0.09  -0.04
     7   6    -0.01   0.01   0.02     0.06   0.06  -0.08     0.06  -0.06  -0.08
     8   6    -0.03   0.04   0.09    -0.04  -0.04   0.03    -0.01  -0.00   0.02
     9   6     0.01  -0.00  -0.07     0.04   0.01  -0.01     0.02  -0.00   0.00
    10   6     0.05   0.02  -0.06    -0.02   0.03  -0.03    -0.01   0.01  -0.02
    11   6    -0.01   0.02   0.10     0.02  -0.05   0.03     0.01  -0.01   0.02
    12   1     0.07  -0.28   0.00    -0.13   0.04  -0.02    -0.09  -0.01  -0.02
    13   1     0.03   0.01   0.01     0.07  -0.00  -0.01     0.11   0.37   0.01
    14   1    -0.01  -0.05  -0.01    -0.12  -0.34  -0.14     0.04   0.19  -0.10
    15   1     0.05   0.06   0.02     0.03  -0.13  -0.10    -0.21  -0.32  -0.21
    16   1     0.00   0.03  -0.01     0.04  -0.22   0.02    -0.12   0.34  -0.29
    17   1     0.05  -0.06   0.05    -0.17   0.19  -0.23     0.09   0.04  -0.09
    18   1     0.03  -0.01   0.02     0.06  -0.29   0.12     0.14  -0.06   0.03
    19   1    -0.01  -0.01   0.05     0.02  -0.17  -0.32     0.03   0.02  -0.37
    20   1    -0.00  -0.00   0.03    -0.14  -0.01   0.35    -0.05   0.04  -0.22
    21   1     0.01  -0.01  -0.01    -0.05  -0.14  -0.27    -0.12   0.07   0.20
    22   1     0.03   0.08  -0.29    -0.04  -0.04   0.07    -0.02   0.01  -0.03
    23   1    -0.22  -0.26   0.12    -0.05   0.01   0.02    -0.08  -0.01   0.02
    24   1     0.04   0.14   0.13     0.15   0.06  -0.03     0.09   0.02  -0.03
    25   1    -0.16  -0.34   0.01     0.02   0.00  -0.01    -0.05  -0.01  -0.00
    26   1    -0.25  -0.26   0.01    -0.05   0.03  -0.03    -0.05  -0.01  -0.01
    27   1     0.16   0.25   0.20     0.00   0.11   0.00     0.00   0.06   0.01
    28   1     0.02   0.09  -0.24     0.08  -0.09   0.05     0.06  -0.02  -0.03
    29   1    -0.21  -0.25   0.12     0.01  -0.02   0.02    -0.04  -0.04   0.02
                     28                     29                     30
                      A                      A                      A
 Frequencies --    954.4742               973.1391              1021.5131
 Red. masses --      2.2038                 1.2009                 1.8838
 Frc consts  --      1.1829                 0.6700                 1.1582
 IR Inten    --      1.9475                 0.4306                 1.7803
  Atom  AN      X      Y      Z        X      Y      Z        X      Y      Z
     1   8     0.02   0.01  -0.01    -0.00   0.00   0.00    -0.02   0.03   0.02
     2   6    -0.01  -0.02   0.02    -0.00  -0.00   0.00    -0.01   0.03  -0.01
     3   6     0.08  -0.11   0.00     0.00  -0.00   0.00     0.15  -0.08   0.03
     4   6    -0.03   0.02   0.05    -0.00   0.00  -0.01    -0.03  -0.03  -0.01
     5   6    -0.07  -0.00   0.03     0.01  -0.02   0.07    -0.06   0.05   0.03
     6   6    -0.00   0.03   0.02    -0.00  -0.06  -0.06    -0.02   0.00   0.00
     7   6     0.02   0.01  -0.06    -0.00   0.08  -0.00     0.01  -0.02   0.01
     8   6     0.12   0.09  -0.06     0.00  -0.00  -0.00    -0.10   0.03  -0.03
     9   6    -0.09  -0.02   0.04    -0.00   0.00  -0.00    -0.01  -0.01  -0.06
    10   6     0.04  -0.09   0.05     0.00  -0.00   0.00     0.03   0.09   0.01
    11   6    -0.06   0.14  -0.05     0.00  -0.00  -0.00    -0.00  -0.12  -0.01
    12   1     0.08  -0.15   0.01     0.02  -0.01   0.00     0.38  -0.15   0.06
    13   1     0.22   0.18   0.05     0.11   0.34   0.01     0.23   0.17   0.07
    14   1    -0.11  -0.33  -0.17     0.00   0.07  -0.13    -0.10  -0.35  -0.13
    15   1     0.13   0.00  -0.06    -0.14  -0.27  -0.20     0.19   0.10  -0.01
    16   1    -0.01  -0.05  -0.04     0.02   0.09   0.14    -0.02   0.06  -0.05
    17   1    -0.08   0.11  -0.13     0.14  -0.23   0.32     0.02  -0.01  -0.00
    18   1     0.03  -0.14   0.05    -0.12   0.37  -0.13     0.02  -0.02   0.01
    19   1     0.01  -0.06  -0.12    -0.00  -0.15   0.06    -0.00   0.01  -0.06
    20   1    -0.03  -0.01   0.05    -0.05  -0.05   0.39    -0.02   0.01  -0.03
    21   1    -0.01  -0.05  -0.11     0.05  -0.17  -0.35    -0.04   0.03   0.09
    22   1     0.23   0.07  -0.22    -0.02   0.01   0.00    -0.28   0.12   0.04
    23   1     0.03  -0.07  -0.04     0.02  -0.01  -0.00     0.05   0.05  -0.03
    24   1    -0.35  -0.20   0.01    -0.01   0.00   0.01    -0.16  -0.01   0.07
    25   1    -0.14   0.02   0.03     0.02   0.01  -0.00     0.18  -0.04  -0.04
    26   1     0.03  -0.08   0.05     0.01   0.01  -0.00     0.08   0.21  -0.02
    27   1     0.03  -0.25   0.07    -0.00  -0.02  -0.00     0.01   0.28  -0.09
    28   1    -0.17   0.21  -0.13    -0.01  -0.00   0.01     0.03  -0.19   0.22
    29   1    -0.19   0.09  -0.05     0.01   0.01  -0.01     0.24   0.06  -0.02
                     31                     32                     33
                      A                      A                      A
 Frequencies --   1023.6217              1055.7374              1070.1388
 Red. masses --      1.6786                 1.7045                 1.3595
 Frc consts  --      1.0363                 1.1193                 0.9173
 IR Inten    --      5.6958                 7.3659                 1.1844
  Atom  AN      X      Y      Z        X      Y      Z        X      Y      Z
     1   8     0.00   0.00  -0.00    -0.01   0.01   0.02     0.00  -0.00   0.00
     2   6    -0.06  -0.03   0.00     0.04   0.05  -0.05    -0.04  -0.01  -0.01
     3   6     0.05   0.11  -0.05     0.10  -0.02  -0.01     0.05   0.06  -0.02
     4   6    -0.02   0.03  -0.04    -0.00   0.04   0.04     0.00  -0.03   0.03
     5   6    -0.01   0.00  -0.02     0.05  -0.06  -0.00    -0.04   0.00   0.06
     6   6    -0.06  -0.04   0.05    -0.02   0.02   0.05     0.06   0.04  -0.03
     7   6     0.04   0.02   0.02    -0.08   0.02  -0.05    -0.05  -0.04  -0.02
     8   6     0.04  -0.10   0.04    -0.01  -0.05  -0.03     0.01  -0.05   0.01
     9   6    -0.06   0.06  -0.04    -0.05   0.05   0.00    -0.02   0.03   0.00
    10   6     0.05  -0.02   0.03     0.08  -0.01  -0.02     0.02  -0.00  -0.01
    11   6    -0.02  -0.01  -0.04    -0.07  -0.06   0.02    -0.00  -0.01  -0.00
    12   1     0.32   0.22  -0.04    -0.03  -0.12  -0.01     0.05   0.36  -0.08
    13   1    -0.02  -0.05  -0.00    -0.16  -0.05  -0.06     0.17   0.24   0.05
    14   1    -0.01  -0.02   0.01     0.08   0.28   0.07    -0.06  -0.15  -0.12
    15   1     0.02   0.05   0.03    -0.22  -0.19  -0.05     0.03  -0.09  -0.10
    16   1    -0.08   0.29  -0.23    -0.04   0.06  -0.13     0.08  -0.26   0.18
    17   1     0.21  -0.15   0.04    -0.01   0.07  -0.13    -0.20   0.15  -0.06
    18   1     0.22  -0.14   0.11     0.12  -0.20   0.10    -0.18   0.08  -0.08
    19   1     0.00  -0.04  -0.21    -0.02   0.04   0.41    -0.01   0.08   0.25
    20   1    -0.11   0.03   0.16     0.18  -0.08  -0.10     0.14  -0.03  -0.26
    21   1    -0.10  -0.02   0.06     0.20  -0.04  -0.30     0.10   0.05   0.01
    22   1     0.01  -0.09   0.09    -0.00  -0.09   0.13    -0.00  -0.06   0.07
    23   1     0.19  -0.07   0.04     0.11   0.07  -0.04    -0.12   0.12  -0.01
    24   1    -0.01   0.22   0.16    -0.18   0.01   0.07     0.19   0.16   0.01
    25   1     0.06  -0.16   0.02     0.03   0.01   0.02    -0.18  -0.11   0.03
    26   1     0.04  -0.15   0.05    -0.12   0.13  -0.02    -0.05  -0.21   0.03
    27   1     0.04  -0.25   0.05     0.14   0.03   0.15     0.04  -0.06   0.06
    28   1    -0.30   0.12   0.02    -0.05  -0.09   0.11    -0.19   0.09  -0.03
    29   1     0.17  -0.01  -0.03    -0.22   0.15  -0.01     0.19  -0.11   0.02
                     34                     35                     36
                      A                      A                      A
 Frequencies --   1085.8921              1092.0564              1121.9722
 Red. masses --      1.9471                 1.7980                 1.5249
 Frc consts  --      1.3528                 1.2634                 1.1310
 IR Inten    --      2.9005                12.3833                 4.7649
  Atom  AN      X      Y      Z        X      Y      Z        X      Y      Z
     1   8    -0.00   0.01   0.00     0.00   0.04   0.00     0.00  -0.01   0.01
     2   6    -0.04  -0.03   0.03    -0.10  -0.07   0.08     0.01   0.03  -0.05
     3   6    -0.03   0.01  -0.03     0.03  -0.09  -0.03     0.06  -0.07   0.11
     4   6     0.00   0.00   0.01    -0.01   0.02   0.00     0.00  -0.01   0.01
     5   6     0.02  -0.01  -0.01     0.05  -0.03  -0.00    -0.01   0.01  -0.04
     6   6    -0.00   0.00   0.01    -0.02   0.02   0.05    -0.04  -0.02  -0.00
     7   6    -0.00   0.02  -0.00    -0.04   0.04  -0.02     0.03   0.03  -0.01
     8   6     0.14  -0.01  -0.01    -0.03   0.08   0.02    -0.04   0.01  -0.07
     9   6    -0.13  -0.10   0.02     0.07  -0.02  -0.03     0.03   0.03   0.05
    10   6     0.00   0.16  -0.02    -0.06  -0.00   0.03     0.01  -0.04  -0.04
    11   6     0.07  -0.05   0.02     0.06   0.03  -0.06    -0.04   0.01   0.01
    12   1    -0.05   0.19  -0.06     0.18  -0.05  -0.02    -0.09   0.35   0.02
    13   1    -0.06  -0.05  -0.02    -0.12  -0.03  -0.04    -0.04  -0.14  -0.01
    14   1     0.03   0.10   0.03     0.08   0.23   0.06    -0.00  -0.02   0.06
    15   1    -0.05  -0.02   0.01    -0.16  -0.12  -0.02     0.06   0.12   0.08
    16   1    -0.01   0.02  -0.03    -0.04   0.04  -0.13    -0.05   0.18  -0.09
    17   1     0.00   0.01  -0.02    -0.01   0.08  -0.14     0.11  -0.10   0.07
    18   1     0.03  -0.04   0.02     0.12  -0.22   0.11     0.06   0.04   0.01
    19   1    -0.00  -0.02   0.02    -0.01  -0.03   0.21     0.01  -0.07  -0.09
    20   1     0.00  -0.01   0.05     0.07  -0.05   0.07    -0.05   0.01   0.14
    21   1     0.02  -0.03  -0.07     0.10  -0.06  -0.24    -0.04  -0.04  -0.05
    22   1     0.26  -0.07  -0.07    -0.13   0.17  -0.16     0.21  -0.18   0.15
    23   1     0.07  -0.07  -0.01    -0.24   0.03   0.01    -0.33   0.37  -0.13
    24   1    -0.31  -0.22  -0.00     0.23   0.08  -0.03     0.08  -0.02  -0.07
    25   1    -0.46  -0.21   0.04     0.01  -0.05  -0.03    -0.29  -0.00   0.04
    26   1     0.02   0.17  -0.02     0.14  -0.24   0.05    -0.11  -0.30   0.02
    27   1     0.00   0.41  -0.07    -0.13  -0.06  -0.14     0.06   0.24   0.03
    28   1     0.07  -0.05   0.01    -0.03   0.07  -0.04    -0.02   0.01  -0.02
    29   1     0.33  -0.18   0.04     0.42  -0.15  -0.03     0.16  -0.12   0.03
                     37                     38                     39
                      A                      A                      A
 Frequencies --   1153.4859              1211.1579              1250.0196
 Red. masses --      1.9132                 1.5630                 2.3611
 Frc consts  --      1.4998                 1.3509                 2.1737
 IR Inten    --     33.3328                 6.2451                 0.5720
  Atom  AN      X      Y      Z        X      Y      Z        X      Y      Z
     1   8    -0.03   0.00  -0.01     0.03  -0.03  -0.01     0.02   0.01  -0.00
     2   6     0.15   0.04   0.06    -0.07  -0.02  -0.03    -0.11  -0.07   0.02
     3   6    -0.06   0.01  -0.05    -0.03   0.02   0.03     0.05  -0.00  -0.02
     4   6     0.00   0.01  -0.01    -0.04  -0.00  -0.13     0.10   0.24   0.08
     5   6     0.00  -0.01   0.02     0.02  -0.02   0.06    -0.04  -0.05  -0.01
     6   6     0.02  -0.00  -0.00     0.03   0.02   0.05    -0.03  -0.09  -0.04
     7   6    -0.01  -0.02   0.00    -0.00  -0.00   0.04    -0.03  -0.10  -0.02
     8   6    -0.03   0.01   0.07    -0.04  -0.01  -0.01    -0.01  -0.02   0.02
     9   6     0.03   0.03  -0.07     0.04   0.02   0.03     0.03   0.03   0.01
    10   6     0.00  -0.06   0.10    -0.01  -0.04  -0.04    -0.01  -0.02  -0.02
    11   6    -0.09  -0.00  -0.11     0.00   0.06   0.03     0.00   0.05  -0.01
    12   1    -0.06   0.01  -0.05     0.48   0.20   0.04    -0.11  -0.06  -0.02
    13   1     0.01   0.05  -0.00     0.04   0.22   0.01    -0.03  -0.08  -0.01
    14   1     0.00   0.06  -0.03     0.02   0.13  -0.09    -0.06  -0.16  -0.06
    15   1    -0.03  -0.06  -0.04    -0.08  -0.16  -0.10    -0.02  -0.08  -0.05
    16   1     0.02  -0.06   0.04     0.02  -0.13  -0.03    -0.01   0.21   0.09
    17   1    -0.03   0.02  -0.00    -0.06   0.10  -0.12     0.17  -0.24   0.24
    18   1    -0.03   0.02  -0.01     0.03  -0.20   0.08     0.07   0.23  -0.06
    19   1    -0.00   0.03   0.02    -0.01   0.02   0.00    -0.00   0.22   0.07
    20   1     0.01   0.00  -0.07    -0.03   0.02   0.02     0.09  -0.01  -0.38
    21   1     0.00   0.03   0.05    -0.03   0.02   0.08     0.10   0.14   0.19
    22   1     0.40  -0.21  -0.02     0.19  -0.16   0.10    -0.02  -0.01   0.01
    23   1    -0.11  -0.10   0.08     0.07   0.01  -0.00     0.01  -0.00   0.02
    24   1    -0.27  -0.02   0.13    -0.29  -0.19  -0.01    -0.26  -0.13   0.03
    25   1     0.04  -0.17  -0.02     0.14   0.14  -0.00     0.11   0.08  -0.00
    26   1     0.18  -0.27   0.11    -0.07  -0.01  -0.04    -0.03  -0.07  -0.01
    27   1    -0.08   0.46  -0.22     0.02   0.21   0.00     0.01   0.14  -0.01
    28   1    -0.07  -0.09   0.21     0.37  -0.08  -0.11     0.34  -0.11  -0.05
    29   1     0.23   0.14  -0.11    -0.07  -0.06   0.04     0.10  -0.08   0.01
                     40                     41                     42
                      A                      A                      A
 Frequencies --   1253.9742              1277.1280              1280.6086
 Red. masses --      1.8168                 1.5678                 2.1537
 Frc consts  --      1.6832                 1.5066                 2.0810
 IR Inten    --      4.1727                 1.8121                17.0561
  Atom  AN      X      Y      Z        X      Y      Z        X      Y      Z
     1   8    -0.03   0.02   0.02    -0.01   0.01  -0.00    -0.01  -0.00   0.01
     2   6     0.08   0.03   0.02     0.03  -0.01   0.04     0.03   0.03  -0.02
     3   6    -0.02  -0.02   0.03    -0.03   0.06  -0.04    -0.08  -0.01   0.04
     4   6    -0.08   0.14  -0.10     0.06  -0.09   0.05     0.22  -0.00  -0.12
     5   6     0.03  -0.04   0.04    -0.02   0.03  -0.02    -0.07   0.00   0.04
     6   6     0.03  -0.03   0.02    -0.02   0.02  -0.01    -0.07  -0.00   0.04
     7   6     0.03  -0.06   0.03    -0.03   0.03  -0.01    -0.08  -0.00   0.02
     8   6     0.01   0.01  -0.09    -0.03  -0.02  -0.02    -0.02   0.04   0.01
[...]
 ,-0.00001005,0.00000366,-0.00003020,0.00011952,-0.00002502,-0.00004578
 ,-0.00013100,-0.00012301,0.00000752,0.00000762,-0.00085141,0.00073732,
 -0.00046164,-0.01198650,0.00125976,0.01639934,0.14994757,0.00023994,0.
 00005786,0.00017124,0.00019200,-0.00015427,-0.00094243,-0.00098589,-0.
 00009019,0.00076980,-0.00060756,0.00028825,0.00032726,0.00010105,-0.00
 026131,0.00005183,0.00020674,-0.00001811,-0.00009220,0.00062810,-0.000
 02543,0.00067025,0.00214748,-0.05160100,-0.00735935,0.01813264,-0.0024
 1037,-0.02387827,0.00062208,0.00186588,-0.00103676,-0.00020805,-0.0001
 3534,0.00012688,0.00049962,0.00066853,0.00011421,0.00003679,0.00008242
 ,-0.00022653,0.00008253,-0.00005836,0.00005180,-0.00013692,0.00008115,
 0.00010163,0.00001497,-0.00003029,0.00000855,-0.00001517,0.00001138,-0
 .00000375,-0.00002645,-0.00000894,-0.00010238,-0.00015048,-0.00002982,
 -0.00015979,-0.00008895,0.00006933,-0.00009159,0.00082403,-0.00079498,
 -0.00011195,-0.01546357,0.00182273,0.02228388,-0.00804938,0.05414581,-
 0.00164397,-0.00032553,0.00046014,0.00315519,0.00195312,-0.00059912,0.
 01321504,-0.00198652,-0.02313746,0.00106085,-0.00095570,0.00002266,-0.
 00019634,0.00017380,-0.00005995,-0.00018059,0.00019650,0.00002324,-0.0
 0010239,-0.00042646,-0.00057968,0.12067575,-0.00702464,-0.21527602,-0.
 00064105,0.00008290,0.00121642,-0.00020830,0.00022204,-0.00006459,-0.0
 0006923,-0.00040328,-0.00031232,-0.00366783,-0.00017425,-0.00404226,-0
 .00010902,-0.00014619,0.00015545,-0.00001546,0.00010918,-0.00001699,0.
 00007759,0.00004991,-0.00005882,-0.00015412,0.00011315,-0.00002250,0.0
 0000813,-0.00002098,-0.00001582,-0.00005818,0.00000636,0.00029946,0.00
 010695,-0.00003273,0.00057661,-0.00015619,-0.00002316,-0.00005640,0.00
 024445,0.00046782,0.00101116,-0.00038709,0.00059143,0.00123705,-0.1303
 2567,0.00807130,0.23657547,-0.00049441,0.00010860,0.00004119,0.0011419
 0,-0.00017100,0.00037776,-0.00105699,0.00323385,0.00132282,-0.00022693
 ,-0.00060311,-0.00098604,-0.00012734,-0.00005553,0.00000145,-0.0001601
 3,0.00041599,0.00009802,0.00003199,-0.00003036,-0.00011679,-0.01044853
 ,0.00081870,-0.01522499,-0.12474890,0.00305761,-0.11583192,-0.01117196
 ,0.00041219,-0.01644388,-0.00168488,-0.00361829,0.00096087,0.00025547,
 -0.00001181,-0.00018707,0.00001608,-0.00000023,-0.00001019,0.00001755,
 0.00005694,-0.00001277,0.00003192,-0.00000145,0.00003081,-0.00008960,0
 .00003698,-0.00014353,0.00001973,-0.00002826,0.00002052,0.00002589,-0.
 00000984,0.00000183,-0.00001619,0.00003604,0.00003274,0.00001288,-0.00
 002095,-0.00001551,0.00002987,0.00000818,0.00005521,0.00074854,-0.0000
 8374,0.00033940,0.00016629,-0.00068164,0.00017698,0.13445438,-0.000009
 99,0.00089838,0.00000154,-0.00004597,-0.00241671,0.00009758,0.00305722
 ,-0.00476298,-0.00120372,0.00092442,0.00090205,0.00139290,0.00010224,0
 .00017933,0.00002528,0.00019060,-0.00066130,-0.00011898,-0.00008001,-0
 .00002972,0.00016288,0.01563648,-0.00106876,0.02532492,0.00310094,-0.0
 4793356,0.00484277,-0.01512815,0.00099335,-0.02477292,-0.00353081,-0.0
 0450139,0.00087230,-0.00039008,-0.00004519,-0.00040625,-0.00001791,0.0
 0000637,0.00000087,-0.00000722,-0.00005350,0.00000255,-0.00003468,-0.0
 0001131,-0.00005221,0.00015171,-0.00003339,0.00022410,0.00002283,0.000
 01028,0.00000454,-0.00003551,0.00001119,-0.00000010,0.00005737,-0.0000
 3841,-0.00005036,0.00002814,-0.00001245,-0.00002404,-0.00001655,0.0000
 0786,-0.00005102,-0.00079802,0.00085976,0.00020976,-0.00052122,0.00115
 274,-0.00045665,-0.00318830,0.05482221,-0.00010553,0.00001938,-0.00007
 540,0.00034193,-0.00004398,0.00017768,0.00029717,0.00067807,0.00101075
 ,-0.00010891,-0.00044142,0.00014932,-0.00004389,0.00000068,-0.00003175
 ,-0.00000479,0.00008165,0.00004092,-0.00004472,0.00013035,-0.00006574,
 0.00116454,-0.00008366,0.00021693,-0.11673241,0.00481177,-0.23294317,0
 .00070305,0.00014505,-0.00058574,0.00003896,-0.00092079,0.00135052,0.0
 0002661,-0.00006111,0.00052541,0.00000239,-0.00001694,0.00000422,-0.00
 000701,0.00003627,-0.00000511,0.00000090,-0.00001382,0.00001346,-0.000
 01514,0.00001804,-0.00002908,0.00000733,-0.00000819,0.00000781,0.00000
 520,-0.00001376,-0.00000236,-0.00004365,0.00003671,0.00002490,0.000010
 67,-0.00001282,-0.00000494,0.00001435,-0.00002090,-0.00000413,0.000052
 91,0.00053136,0.00005703,-0.00022223,0.00031309,0.00077663,0.12843727,
 -0.00522912,0.24974604,0.00023535,0.00002821,0.00007307,-0.00032139,-0
 .00009728,-0.00005927,0.00039045,-0.00063087,0.00154557,0.00021103,0.0
 0013106,-0.00022756,-0.00001420,0.00005000,0.00011112,-0.00001189,0.00
 000412,0.00000295,0.00005667,0.00000556,0.00018036,-0.01259214,0.00114
 699,0.01432913,-0.15172937,-0.00020182,0.12025965,-0.01321132,-0.00088
 358,0.01567160,0.00047610,0.00076373,0.00106870,-0.00006634,0.00017446
 ,-0.00105066,0.00003126,0.00002425,-0.00005868,0.00000288,-0.00001556,
 -0.00003614,-0.00003553,-0.00004900,-0.00003081,0.00000878,-0.00001466
 ,-0.00000887,-0.00000253,0.00000149,0.00000371,0.00000704,0.00000654,-
 0.00005112,-0.00000466,-0.00001143,-0.00011397,0.00001504,0.00000286,0
 .00000039,-0.00002220,-0.00008642,-0.00016027,0.00088666,-0.00010738,-
 0.00044613,-0.00112007,0.00329560,-0.00033621,0.01267316,-0.00006258,-
 0.01349630,0.16448402,-0.00005276,0.00021013,-0.00000405,0.00000878,-0
 .00062722,-0.00003796,-0.00076580,0.00105763,-0.00133557,-0.00019209,-
 0.00009772,-0.00003302,0.00000901,-0.00001352,-0.00009619,-0.00003886,
 0.00000194,0.00001985,-0.00004700,-0.00016591,-0.00020229,0.02009945,-
 0.00175275,-0.02335002,-0.00015972,-0.04804003,-0.00007985,-0.01940273
 ,-0.00158987,0.02336310,0.00088741,0.00095920,0.00070265,-0.00019154,0
 .00016974,0.00079653,-0.00002260,-0.00001702,0.00007857,-0.00001802,0.
 00000117,0.00002918,0.00004268,0.00002929,-0.00000696,0.00000347,0.000
 00331,-0.00000375,0.00000347,0.00000037,-0.00000022,0.00000034,0.00000
 229,0.00003295,0.00005947,-0.00000185,0.00013245,-0.00000577,-0.000003
 41,0.00000443,0.00002470,0.00012433,0.00022627,-0.00073723,0.00115439,
 -0.00016073,0.00376457,-0.00469933,0.00062905,-0.00048988,-0.00039870,
 0.00053331,0.00004257,0.05695322,0.00014083,-0.00003849,-0.00010696,-0
 .00036661,0.00004167,0.00015411,-0.00054763,0.00030490,0.00087352,-0.0
 0003033,0.00005251,0.00025932,0.00005127,-0.00004539,-0.00006749,0.000
 02813,-0.00007941,-0.00002185,-0.00010121,0.00007833,-0.00009733,-0.00
 070519,-0.00055541,-0.00035838,0.12096349,-0.00013831,-0.19942641,-0.0
 0144546,0.00059385,0.00058278,-0.00031934,-0.00016455,0.00092169,0.000
 25680,0.00001493,0.00055769,-0.00001301,0.00000389,0.00004953,-0.00000
 829,-0.00001109,0.00002780,0.00002124,0.00002601,0.00000520,0.00002375
 ,-0.00001593,0.00002765,-0.00001161,0.00001026,-0.00001308,-0.00000847
 ,0.00000484,0.00000846,-0.00002269,-0.00000727,0.00002780,-0.00001128,
 0.00000304,0.00000957,0.00002229,0.00002299,0.00001853,-0.00000338,-0.
 00054955,0.00015519,-0.00054900,-0.00017126,0.00137433,0.01787198,-0.0
 0003758,-0.02157421,-0.13502630,0.00011010,0.21431958,0.00002973,-0.00
 037707,0.00036456,0.00155265,-0.00056745,-0.00046936,0.00005539,-0.000
 00028,-0.00020943,0.00004597,0.00004122,0.00002078,-0.00000569,0.00000
 637,0.00001185,0.00002444,-0.00002985,-0.00000520,0.00001762,-0.000010
 26,0.00001074,0.00046213,0.00120688,-0.00023553,-0.01363720,-0.0018421
 0,0.01708163,-0.13110045,-0.00534841,0.11911011,0.01117303,0.00136667,
 -0.01876908,-0.00014400,0.00000627,-0.00004569,0.00000035,0.00000349,-
 0.00001523,0.00001169,-0.00000899,0.00000562,-0.00000080,0.00001730,0.
 00000859,0.00000456,-0.00000527,0.00001717,0.00000210,-0.00000099,-0.0
 0000922,-0.00001133,-0.00000655,0.00000386,0.00000615,-0.00001152,-0.0
 0000025,-0.00000271,0.00001123,0.00000853,-0.00001093,0.00000179,0.000
 01065,0.00004186,0.00008776,-0.00029668,0.00071283,-0.00052588,-0.0002
 1612,0.00029044,0.00057459,-0.00021408,-0.00150015,-0.00408240,-0.0006
 8675,0.14363061,-0.00005628,0.00015789,-0.00022602,-0.00057399,-0.0002
 4936,0.00086114,0.00020881,-0.00015901,-0.00005588,0.00003460,0.000007
 33,0.00002672,-0.00001672,0.00002304,0.00001997,-0.00000294,-0.0000108
 3,-0.00000611,-0.00000476,0.00000252,0.00002980,-0.00062808,0.00176973
 ,0.00106529,-0.01697104,-0.00260079,0.02333604,-0.00484952,-0.05318881
 ,0.01096418,-0.00067503,-0.00026788,0.00091610,-0.00002190,0.00008851,
 -0.00021723,0.00000726,0.00000058,-0.00001566,-0.00000045,0.00000300,-
 0.00000730,-0.00000698,-0.00000872,-0.00000410,0.00000323,0.00000921,0
 .00000164,0.00001467,-0.00000773,0.00001935,0.00000491,0.00000073,-0.0
 0000809,0.00000017,0.00001611,-0.00002112,0.00002820,-0.00000861,0.000
 00100,-0.00000872,-0.00002626,-0.00002095,0.00011097,0.00030617,-0.000
 37991,0.00050355,-0.00037567,-0.00054246,0.00072987,0.00114805,-0.0003
 0244,-0.00340109,-0.00439830,-0.00006651,0.00994291,0.05441030,-0.0015
 1861,0.00031301,0.00049690,0.00269557,-0.00184186,-0.00058078,-0.00001
 705,0.00035488,-0.00026967,0.00011646,-0.00001370,-0.00000522,-0.00004
 662,0.00003371,-0.00000218,0.00000121,0.00000481,-0.00000341,0.0000043
 0,0.00002401,-0.00003669,-0.00025106,-0.00005193,-0.00009156,-0.001377
 96,-0.00025727,0.00232969,0.11879803,0.01100724,-0.21949368,0.01253304
 ,0.00220137,-0.02349231,-0.00008019,-0.00006144,0.00014496,-0.00001298
 ,-0.00001046,0.00000736,0.00000867,0.00002713,-0.00000165,0.00001174,0
 .00000594,0.00001003,-0.00000607,0.00002576,-0.00000330,0.00002068,-0.
 00001791,0.00000383,-0.00001229,-0.00001195,0.00002603,-0.00001556,-0.
 00000003,0.00002711,-0.00002272,-0.00000089,-0.00002912,0.00001911,0.0
 0003164,0.00003086,-0.00019445,0.00011008,0.00022464,-0.00018282,0.000
 55314,0.00014265,0.00021497,0.00046988,0.00086241,-0.00054888,-0.00081
 831,0.00144629,-0.12717039,-0.01170319,0.24154171,-0.00149686,0.001359
 88,0.00065741,-0.00007265,-0.00395804,-0.00364762,-0.00018584,0.000059
 37,0.00053707,0.00011695,0.00001065,0.00014526,-0.00004752,-0.00002833
 ,-0.00006331,-0.00001640,-0.00004726,0.00000202,-0.00008080,-0.0000072
 0,-0.00002298,-0.00260072,-0.00262372,-0.00023986,0.01306773,-0.018353
 70,-0.00059734,-0.13076205,0.12121688,0.00805438,-0.01163436,0.0170805
 8,-0.00151839,-0.00003025,-0.00001945,0.00000671,0.00000871,0.00000353
 ,-0.00000719,0.00003067,0.00003194,0.00002709,0.00002974,0.00005193,0.
 00005982,0.00001304,0.00003714,0.00001264,0.00004898,-0.00002773,0.000
 05275,0.00000897,-0.00000351,-0.00000160,0.00001476,0.00005016,0.00000
 910,0.00009415,-0.00006533,-0.00004646,0.00000425,0.00001401,0.0000389
 3,0.00073218,-0.00117144,0.00004903,0.00003449,-0.00006562,-0.00020433
 ,0.00068139,0.00088704,-0.00000573,0.00096040,0.00077320,0.00004384,-0
 .01073361,0.01553589,0.00089582,0.14042959,0.00011103,0.00000737,0.000
 09802,-0.00042277,0.00078843,-0.00002690,-0.00028594,0.00066126,-0.000
 23539,0.00000931,0.00011621,0.00006007,0.00001252,-0.00009245,-0.00010
 182,0.00003278,-0.00006294,-0.00003657,-0.00000842,-0.00004373,-0.0000
 1620,-0.00570884,-0.00323954,-0.00042441,0.01602095,-0.02168649,-0.001
 11556,0.11986617,-0.22672137,-0.00856071,0.00000972,0.00077183,0.00006
 738,0.00001671,-0.00002850,0.00005917,-0.00000771,0.00001794,-0.000005
 30,0.00004811,-0.00001397,0.00005402,0.00002972,0.00008771,0.00009103,
 0.00002560,-0.00001995,0.00003279,0.00000873,0.00001436,-0.00000088,-0
 .00001426,0.00000213,0.00000527,0.00002733,-0.00002989,0.00000995,0.00
 000474,-0.00000163,0.00000585,-0.00001866,0.00002934,0.00004883,0.0010
 7858,-0.00159456,0.00006760,-0.00006021,0.00035755,-0.00009797,-0.0000
 0532,0.00072605,-0.00048261,0.00009308,0.00107979,0.00060762,-0.001095
 56,0.00217108,-0.00068535,-0.12989999,0.24618565,-0.00271688,0.0019183
 4,0.00118491,-0.00104813,-0.00416011,-0.00512080,0.00014746,-0.0001308
 3,0.00061097,0.00013661,0.00003367,0.00009694,-0.00004871,0.00001419,-
 0.00002229,-0.00003417,-0.00004008,0.00000807,-0.00006603,-0.00001210,
 -0.00000821,-0.00035612,-0.00007868,0.00038625,0.00166531,-0.00046070,
 -0.00096396,0.00812397,-0.00919817,-0.04962899,-0.01719168,0.02561006,
 -0.00240966,-0.00003866,-0.00003353,-0.00000576,0.00000386,0.00000136,
 -0.00000946,0.00002142,0.00002408,0.00001065,0.00002018,0.00002073,0.0
 0003028,0.00001273,0.00003056,0.00000480,0.00003844,-0.00002125,0.0000
 4205,0.00000913,-0.00000126,0.00000085,0.00001221,0.00002927,0.0000232
 7,0.00005486,-0.00004899,-0.00007165,0.00002363,0.00003922,0.00003285,
 0.00007843,-0.00013858,0.00057735,-0.00029890,0.00040429,0.00022306,0.
 00029220,-0.00011784,-0.00003612,-0.00042752,0.00022547,0.00024737,0.0
 1522936,-0.02337611,-0.00068923,-0.00510101,0.00979893,0.05304522,0.00
 194287,-0.00089447,-0.00007745,0.01091127,0.01520938,0.00013454,-0.001
 92513,0.00244207,-0.00001437,0.00071871,0.00056731,0.00003851,-0.00019
 654,0.00020148,-0.00006478,0.00005892,-0.00003484,0.00008395,0.0000584
 7,-0.00006381,-0.00007001,-0.00020177,0.00023822,-0.00003298,-0.001262
 31,0.00175918,-0.00402102,-0.01141389,-0.01392194,0.00127326,-0.165641
 72,-0.13600326,0.00113613,0.00000267,0.00004613,-0.00012036,0.00000685
 ,-0.00000237,-0.00001773,0.00008187,0.00008009,0.00000345,0.00001293,0
 .00002190,0.00003070,0.00000029,-0.00000505,-0.00000122,0.00000268,-0.
 00000981,-0.00001531,-0.00000424,0.00000105,-0.00001524,-0.00000712,-0
 .00000902,0.00000831,-0.00000730,-0.00000698,0.00001865,-0.00000652,0.
 00001627,0.00002790,0.00005354,-0.00007402,0.00003730,0.00005878,-0.00
 005828,0.00001399,-0.00054766,-0.00124600,-0.00022618,0.00035749,0.000
 38527,0.00006338,0.00108407,0.00028002,0.00008544,0.00002400,0.0002655
 6,0.00050023,0.17681189,-0.00015087,0.00616087,-0.00006795,-0.02320296
 ,-0.02650872,0.00043441,0.00511843,-0.00374910,0.00013028,-0.00175259,
 -0.00044702,-0.00039085,0.00051620,-0.00044232,0.00011169,-0.00012445,
 0.00000918,-0.00019082,-0.00009094,-0.00005957,0.00018017,0.00041519,0
 .00025880,0.00045122,0.00062916,0.00075267,0.00060853,0.00287632,0.003
 63770,-0.00082383,-0.13076590,-0.20151977,-0.00047300,0.00020893,0.000
 48210,0.00011949,-0.00000637,0.00003452,0.00000986,-0.00013426,-0.0002
 2313,0.00001098,-0.00002193,0.00000754,-0.00003144,0.00005725,-0.00002
 175,0.00005458,0.00005485,0.00001551,0.00006011,-0.00000129,0.00001078
 ,0.00001078,0.00008712,-0.00003893,-0.00005322,0.00006087,-0.00000349,
 -0.00006574,0.00000601,0.00001197,-0.00002092,-0.00008971,0.00001119,-
 0.00008794,-0.00004088,0.00000022,-0.00012337,0.00011105,0.00028029,0.
 00020712,-0.00004423,-0.00008083,0.00004436,-0.00007283,0.00017862,-0.
 00041082,-0.00020159,0.00035786,-0.00049575,0.14391166,0.21803006,-0.0
 0013568,0.00019469,-0.00128259,0.00066897,-0.00059556,-0.00052960,0.00
 024575,0.00076644,0.00105924,-0.00004281,0.00002553,0.00044647,-0.0000
 2327,-0.00003236,-0.00004553,0.00003829,-0.00001893,-0.00001166,-0.000
 03796,0.00006641,-0.00006253,-0.00009957,0.00068957,-0.00012762,-0.002
 64255,0.00171000,-0.00471429,-0.01744229,-0.02211143,0.00033603,0.0012
 0231,-0.00036795,-0.05069659,-0.00054137,-0.00017728,0.00027670,0.0000
 0805,-0.00000263,-0.00000240,0.00001068,0.00000753,0.00000133,0.000005
 12,0.00001363,0.00002241,-0.00000493,0.00000568,0.00000951,-0.00000224
 ,-0.00000511,0.00001723,0.00000350,-0.00000569,0.00000795,-0.00002118,
 0.00001192,0.00002867,0.00000672,-0.00000288,0.00000877,0.00000199,0.0
 0000522,0.00001932,0.00012809,-0.00005057,0.00009419,0.00005056,-0.000
 02987,-0.00000679,-0.00111751,-0.00139105,-0.00002713,-0.00028729,-0.0
 0004633,0.00018325,0.00088126,-0.00037887,0.00102375,0.00049526,0.0004
 1122,0.00084790,0.00179407,0.00003238,0.05217373,-0.00159478,0.0047176
 8,-0.00254169,-0.01262350,-0.00139755,0.01473230,-0.00023060,-0.000453
 17,-0.00064679,0.00010524,0.00003742,-0.00036943,-0.00002360,0.0000531
 3,0.00000533,-0.00014583,0.00000456,-0.00002142,-0.00001565,-0.0001378
 1,0.00004502,-0.00007960,-0.00032338,-0.00007805,0.00139241,0.00029772
 ,-0.00002154,0.01124240,-0.00178290,-0.01960155,-0.12675076,0.00564408
 ,0.12340536,0.00093614,-0.00000310,-0.00043752,0.00000995,0.00000589,-
 0.00000432,-0.00000072,0.00001928,-0.00000062,0.00000080,-0.00000482,-
 0.00000853,0.00004472,0.00002777,-0.00004536,0.00006516,-0.00001840,0.
 00015246,0.00007494,0.00005816,-0.00006015,0.00003337,0.00000961,-0.00
 003675,0.00003740,-0.00004233,-0.00005166,0.00001038,0.00000951,-0.000
 01480,-0.00002235,-0.00001978,-0.00004409,-0.00012033,0.00004029,-0.00
 006282,0.00017604,0.00037945,0.00016730,-0.00016453,0.00010199,0.00036
 955,-0.00199876,-0.00018755,-0.00394738,0.00136107,-0.00013296,0.00095
 780,-0.01097312,0.00264776,0.01685805,0.13925411,0.00369432,-0.0036618
 4,0.00349890,0.01522656,0.00324775,-0.02660325,-0.00125865,-0.00025912
 ,0.00240685,-0.00002460,0.00010594,0.00044119,0.00000024,-0.00001834,-
 0.00003309,0.00013082,0.00002801,0.00003924,0.00002901,0.00011403,-0.0
 0002762,0.00049336,0.00019081,0.00030480,0.00052568,0.00007115,-0.0009
 2981,-0.00204404,0.00047097,0.00302390,0.00669897,-0.05362216,-0.01690
 382,-0.00047702,-0.00177468,-0.00000636,0.00000476,-0.00000108,0.00000
 670,0.00000383,-0.00000684,-0.00001292,-0.00001033,-0.00002172,-0.0000
 0913,-0.00004855,-0.00003956,0.00002441,-0.00009415,0.00006620,-0.0001
 6725,-0.00005869,-0.00004986,0.00004645,-0.00003715,0.00000582,0.00001
 866,-0.00003908,0.00004694,0.00006531,-0.00001788,-0.00002040,-0.00000
 945,0.00004438,-0.00000448,0.00002245,0.00001576,0.00008956,0.00007334
 ,-0.00002628,-0.00003054,0.00010869,-0.00016461,0.00013965,-0.00003855
 ,0.00071892,0.00100909,0.00072252,-0.00063930,0.00016045,0.00016379,-0
 .01309575,0.00285474,0.02127630,-0.00955054,0.05090950,-0.00050637,-0.
 00030535,-0.00100485,-0.00051868,0.00084021,0.00165418,0.00093575,0.00
 011259,-0.00061221,-0.00018509,-0.00016485,0.00021610,0.00002185,-0.00
 004783,-0.00001386,0.00008651,0.00001605,-0.00000733,-0.00000610,0.000
 10925,-0.00006184,-0.00052868,-0.00007952,-0.00020607,0.00155771,0.000
 43353,0.00099610,0.01454716,-0.00132702,-0.02650238,0.11963554,-0.0131
 7575,-0.21378228,-0.00047055,0.00016924,0.00065769,-0.00001332,-0.0000
 1395,0.00001688,-0.00001001,-0.00000315,0.00000676,0.00000102,0.000004
 27,0.00000526,-0.00002601,-0.00000696,-0.00000656,-0.00004230,-0.00001
 744,0.00000913,-0.00000406,0.00000805,0.00002249,-0.00003564,-0.000006
 18,0.00003532,-0.00004003,0.00002084,0.00000872,0.00000382,0.00000298,
 0.00000636,0.00000723,-0.00005732,0.00000370,-0.00001881,0.00018698,0.
 00015437,-0.00018579,0.00027996,0.00042083,-0.00088029,-0.00070867,0.0
 0041604,-0.00442171,0.00009073,-0.00361942,0.00036868,0.00037192,0.001
 59335,-0.00057316,0.00076969,0.00095026,-0.12869867,0.01249773,0.23864
 326\\0.00006050,0.00002396,0.00000139,-0.00002875,-0.00000726,-0.00000
 158,0.00003563,-0.00002686,0.00005236,-0.00004132,0.00001228,-0.000019
 14,0.00001841,-0.00000427,0.00000223,-0.00002285,-0.00000642,0.0000482
 0,0.00003589,0.00000299,-0.00002018,-0.00001152,0.00001478,-0.00003528
 ,-0.00001852,-0.00001043,0.00000031,0.00002680,0.00002896,0.00000952,-
 0.00003098,0.00000673,-0.00001970,0.00000818,-0.00001347,-0.00000531,-
 0.00000659,0.00000332,-0.00000104,-0.00000156,0.00000283,0.00000011,0.
 00000831,-0.00000843,0.00000183,0.00000163,-0.00000207,-0.00000194,0.0
 0001313,0.00000040,-0.00000330,-0.00000391,0.00000144,-0.00000359,-0.0
 0000882,0.00000357,0.00000454,0.00000484,-0.00002077,0.00000339,-0.000
 01822,0.00000135,-0.00000742,0.00000174,0.00001988,0.00000041,0.000007
 88,-0.00001760,-0.00000122,-0.00000290,-0.00000418,0.00000174,-0.00001
 323,0.00000389,-0.00000181,-0.00000952,-0.00000225,0.00000348,-0.00000
 968,-0.00000425,-0.00000518,-0.00000376,0.00000698,0.00000417,0.000009
 19,-0.00000510,-0.00000700\\\@


 THERE IS NO SUBJECT, HOWEVER COMPLEX,
 WHICH, IF STUDIED WITH PATIENCE AND INTELLIGIENCE
 WILL NOT BECOME
 MORE COMPLEX
                        QUOTED BY D. GORDON ROHMAN
 Job cpu time:       0 days  0 hours  2 minutes 52.5 seconds.
 Elapsed time:       0 days  0 hours  2 minutes 54.4 seconds.
 File lengths (MBytes):  RWF=    140 Int=      0 D2E=      0 Chk=      5 Scr=      1
 Normal termination of Gaussian 16 at Thu Feb 22 10:46:22 2024.
