 Entering Gaussian System, Link 0=g16
 Input=/Volumes/SSD-PMU3/b3lyp_6-31gd_freq/VMNRNUNYBVFVQI-QYXZOKGRSA-N_calculating/gaussianinput0.gjf
 Output=/Volumes/SSD-PMU3/b3lyp_6-31gd_freq/VMNRNUNYBVFVQI-QYXZOKGRSA-N_calculating/gaussianinput0.log
 Initial command:
 /Applications/g16/l1.exe "/Users/macmini_m1_2022/PycharmProjects/sphere_model/sphere_model_lib/Gau-73983.inp" -scrdir="/Users/macmini_m1_2022/PycharmProjects/sphere_model/sphere_model_lib/"
 Entering Link 1 = /Applications/g16/l1.exe PID=     73984.
  
 Copyright (c) 1988,1990,1992,1993,1995,1998,2003,2009,2016,
            Gaussian, Inc.  All Rights Reserved.
  
 This is part of the Gaussian(R) 16 program.  It is based on
 the Gaussian(R) 09 system (copyright 2009, Gaussian, Inc.),
 the Gaussian(R) 03 system (copyright 2003, Gaussian, Inc.),
 the Gaussian(R) 98 system (copyright 1998, Gaussian, Inc.),
 the Gaussian(R) 94 system (copyright 1995, Gaussian, Inc.),
 the Gaussian 92(TM) system (copyright 1992, Gaussian, Inc.),
 the Gaussian 90(TM) system (copyright 1990, Gaussian, Inc.),
 the Gaussian 88(TM) system (copyright 1988, Gaussian, Inc.),
 the Gaussian 86(TM) system (copyright 1986, Carnegie Mellon
 University), and the Gaussian 82(TM) system (copyright 1983,
 Carnegie Mellon University). Gaussian is a federally registered
 trademark of Gaussian, Inc.
  
 This software contains proprietary and confidential information,
 including trade secrets, belonging to Gaussian, Inc.
  
 This software is provided under written license and may be
 used, copied, transmitted, or stored only in accord with that
 written license.
  
 The following legend is applicable only to US Government
 contracts under FAR:
  
                    RESTRICTED RIGHTS LEGEND
  
 Use, reproduction and disclosure by the US Government is
 subject to restrictions as set forth in subparagraphs (a)
 and (c) of the Commercial Computer Software - Restricted
 Rights clause in FAR 52.227-19.
  
 Gaussian, Inc.
 340 Quinnipiac St., Bldg. 40, Wallingford CT 06492
  
  
 ---------------------------------------------------------------
 Warning -- This program may not be used in any manner that
 competes with the business of Gaussian, Inc. or will provide
 assistance to any competitor of Gaussian, Inc.  The licensee
 of this program is prohibited from giving any competitor of
 Gaussian, Inc. access to this program.  By using this program,
 the user acknowledges that Gaussian, Inc. is engaged in the
 business of creating and licensing software in the field of
 computational chemistry and represents and warrants to the
 licensee that it is not a competitor of Gaussian, Inc. and that
 it will not use this program in any manner prohibited above.
 ---------------------------------------------------------------
  

 Cite this work as:
 Gaussian 16, Revision A.03,
 M. J. Frisch, G. W. Trucks, H. B. Schlegel, G. E. Scuseria, 
 M. A. Robb, J. R. Cheeseman, G. Scalmani, V. Barone, 
 G. A. Petersson, H. Nakatsuji, X. Li, M. Caricato, A. V. Marenich, 
 J. Bloino, B. G. Janesko, R. Gomperts, B. Mennucci, H. P. Hratchian, 
 J. V. Ortiz, A. F. Izmaylov, J. L. Sonnenberg, D. Williams-Young, 
 F. Ding, F. Lipparini, F. Egidi, J. Goings, B. Peng, A. Petrone, 
 T. Henderson, D. Ranasinghe, V. G. Zakrzewski, J. Gao, N. Rega, 
 G. Zheng, W. Liang, M. Hada, M. Ehara, K. Toyota, R. Fukuda, 
 J. Hasegawa, M. Ishida, T. Nakajima, Y. Honda, O. Kitao, H. Nakai, 
 T. Vreven, K. Throssell, J. A. Montgomery, Jr., J. E. Peralta, 
 F. Ogliaro, M. J. Bearpark, J. J. Heyd, E. N. Brothers, K. N. Kudin, 
 V. N. Staroverov, T. A. Keith, R. Kobayashi, J. Normand, 
 K. Raghavachari, A. P. Rendell, J. C. Burant, S. S. Iyengar, 
 J. Tomasi, M. Cossi, J. M. Millam, M. Klene, C. Adamo, R. Cammi, 
 J. W. Ochterski, R. L. Martin, K. Morokuma, O. Farkas, 
 J. B. Foresman, and D. J. Fox, Gaussian, Inc., Wallingford CT, 2016.
 
 ******************************************
 Gaussian 16:  EM64M-G16RevA.03 25-Dec-2016
                23-Feb-2024 
 ******************************************
 %nprocshared=10
 Will use up to   10 processors via shared memory.
 %mem=12GB
 %chk= 0.chk
 ---------------------
 # freq b3lyp/6-31g(d)
 ---------------------
 1/10=4,30=1,38=1/1,3;
 2/12=2,17=6,18=5,40=1/2;
 3/5=1,6=6,7=1,11=2,25=1,30=1,71=2,74=-5,140=1/1,2,3;
 4//1;
 5/5=2,38=5,98=1/2;
 8/6=4,10=90,11=11/1;
 11/6=1,8=1,9=11,15=111,16=1/1,2,10;
 10/6=1/2;
 6/7=2,8=2,9=2,10=2,28=1/1;
 7/8=1,10=1,25=1/1,2,3,16;
 1/10=4,30=1/3;
 99//99;
 ---------
 good luck
 ---------
 Symbolic Z-matrix:
 Charge =  0 Multiplicity = 1
 O                     1.217     0.        0. 
 C                     0.        0.        0. 
 C                    -0.81746  -1.28279  -0.00279 
 C                    -1.97276  -1.25343  -1.02674 
 C                    -2.87598   0.0059   -0.93295 
 C                    -3.63901  -0.01091   0.41154 
 C                    -3.87022   0.03855  -2.14894 
 C                    -4.8035   -1.19419  -2.23914 
 C                    -5.752    -1.15913  -3.45575 
 C                    -6.56537   0.14299  -3.50055 
 C                    -7.58431   0.18198  -2.33896 
 C                    -7.31391   0.42652  -4.82257 
 C                    -7.47606   1.97615  -4.86436 
 C                    -6.43204   2.54959  -3.8557 
 C                    -5.56723   1.33045  -3.48454 
 C                    -4.66802   1.37625  -2.24145 
 C                    -3.71924   2.58706  -2.26735 
 C                    -2.71634   2.57538  -1.10852 
 C                    -1.94066   1.2522   -1.06243 
 C                    -0.81734   1.28263  -0.00279 
 H                    -1.22511  -1.41594   1.01015 
 H                    -0.14224  -2.12348  -0.18911 
 H                    -1.5455   -1.30349  -2.03843 
 H                    -2.56927  -2.16314  -0.89752 
 H                    -4.34541   0.81913   0.50164 
 H                    -4.20855  -0.93966   0.52313 
 H                    -2.96347   0.05117   1.27043 
 H                    -3.23294   0.0104   -3.04991 
 H                    -5.39933  -1.28019  -1.32248 
 H                    -4.20303  -2.10908  -2.29527 
 H                    -5.15853  -1.23933  -4.37844 
 H                    -6.41141  -2.03781  -3.4314 
 H                    -7.11341   0.13362  -1.35264 
 H                    -8.26577  -0.67409  -2.41901 
 H                    -8.19826   1.08846  -2.36143 
 H                    -6.70247   0.08748  -5.66897 
 H                    -8.27376  -0.09887  -4.89012 
 H                    -7.30657   2.35932  -5.87601 
 H                    -8.49233   2.27601  -4.58748 
 H                    -6.92887   2.96024  -2.96769 
 H                    -5.84219   3.3633   -4.2898 
 H                    -4.8938    1.15789  -4.34245 
 H                    -5.30819   1.47279  -1.35241 
 H                    -3.16508   2.58397  -3.21881 
 H                    -4.30089   3.51716  -2.25237 
 H                    -3.23707   2.73968  -0.15466 
 H                    -2.00947   3.40875  -1.21691 
 H                    -1.44075   1.14795  -2.03976 
 H                    -1.24838   1.42142   0.9999 
 H                    -0.13713   2.12238  -0.17865 
 

 GradGradGradGradGradGradGradGradGradGradGradGradGradGradGradGradGradGrad
 Berny optimization.
 Initialization pass.
 Trust Radius=3.00D-01 FncErr=1.00D-07 GrdErr=1.00D-07 EigMax=2.50D+02 EigMin=1.00D-04
 Number of steps in this run=      2 maximum allowed number of steps=      2.
 GradGradGradGradGradGradGradGradGradGradGradGradGradGradGradGradGradGrad

                          Input orientation:                          
 ---------------------------------------------------------------------
 Center     Atomic      Atomic             Coordinates (Angstroms)
 Number     Number       Type             X           Y           Z
 ---------------------------------------------------------------------
      1          8           0        1.216997    0.000000    0.000000
      2          6           0        0.000000    0.000000    0.000000
      3          6           0       -0.817456   -1.282787   -0.002791
      4          6           0       -1.972758   -1.253434   -1.026742
      5          6           0       -2.875982    0.005898   -0.932951
      6          6           0       -3.639013   -0.010906    0.411541
      7          6           0       -3.870224    0.038549   -2.148941
      8          6           0       -4.803498   -1.194193   -2.239142
      9          6           0       -5.751998   -1.159133   -3.455754
     10          6           0       -6.565374    0.142992   -3.500549
     11          6           0       -7.584311    0.181980   -2.338959
     12          6           0       -7.313915    0.426523   -4.822572
     13          6           0       -7.476059    1.976151   -4.864358
     14          6           0       -6.432039    2.549588   -3.855698
     15          6           0       -5.567226    1.330452   -3.484537
     16          6           0       -4.668016    1.376250   -2.241453
     17          6           0       -3.719240    2.587055   -2.267347
     18          6           0       -2.716342    2.575375   -1.108516
     19          6           0       -1.940655    1.252200   -1.062430
     20          6           0       -0.817338    1.282630   -0.002791
     21          1           0       -1.225106   -1.415935    1.010154
     22          1           0       -0.142244   -2.123476   -0.189108
     23          1           0       -1.545502   -1.303488   -2.038426
     24          1           0       -2.569274   -2.163139   -0.897522
     25          1           0       -4.345412    0.819125    0.501638
     26          1           0       -4.208549   -0.939657    0.523126
     27          1           0       -2.963470    0.051173    1.270428
     28          1           0       -3.232940    0.010397   -3.049907
     29          1           0       -5.399334   -1.280185   -1.322483
     30          1           0       -4.203032   -2.109075   -2.295274
     31          1           0       -5.158526   -1.239333   -4.378437
     32          1           0       -6.411413   -2.037805   -3.431404
     33          1           0       -7.113412    0.133617   -1.352641
     34          1           0       -8.265768   -0.674086   -2.419014
     35          1           0       -8.198262    1.088460   -2.361433
     36          1           0       -6.702471    0.087483   -5.668972
     37          1           0       -8.273759   -0.098871   -4.890118
     38          1           0       -7.306568    2.359316   -5.876008
     39          1           0       -8.492330    2.276006   -4.587480
     40          1           0       -6.928866    2.960241   -2.967692
     41          1           0       -5.842194    3.363297   -4.289799
     42          1           0       -4.893797    1.157894   -4.342454
     43          1           0       -5.308188    1.472791   -1.352412
     44          1           0       -3.165077    2.583966   -3.218807
     45          1           0       -4.300893    3.517163   -2.252365
     46          1           0       -3.237072    2.739682   -0.154659
     47          1           0       -2.009473    3.408750   -1.216910
     48          1           0       -1.440753    1.147947   -2.039764
     49          1           0       -1.248379    1.421415    0.999895
     50          1           0       -0.137125    2.122378   -0.178648
 ---------------------------------------------------------------------
                    Distance matrix (angstroms):
                    1          2          3          4          5
     1  O    0.000000
     2  C    1.216997   0.000000
     3  C    2.405109   1.521113   0.000000
     4  C    3.577685   2.552855   1.544040   0.000000
     5  C    4.197965   3.023525   2.600661   1.552587   0.000000
     6  C    4.873430   3.662226   3.122585   2.527635   1.546013
     7  C    5.522613   4.426970   3.958697   2.555177   1.571055
     8  C    6.533469   5.432628   4.571394   3.080018   2.619479
     9  C    7.864650   6.809648   6.023948   4.493512   3.999162
    10  C    8.534611   7.441668   6.877915   5.400171   4.496995
    11  C    9.108615   7.938868   7.307089   5.939011   4.916933
    12  C    9.808954   8.771116   8.267769   6.764506   5.916192
    13  C   10.155608   9.135568   8.865241   7.446062   6.363848
    14  C    8.937257   7.920728   7.813804   6.507777   5.259121
    15  C    7.741950   6.701202   6.442972   5.063341   3.937998
    16  C    6.446049   5.358036   5.187379   3.956662   2.607955
    17  C    6.016656   5.066208   5.340809   4.397574   3.025569
    18  C    4.830375   3.903829   4.440024   3.901203   2.580411
    19  C    3.559147   2.542224   2.968260   2.506094   1.563608
    20  C    2.404925   1.520917   2.565417   2.969022   2.594852
    21  H    2.998191   2.127479   1.099984   2.175853   2.919359
    22  H    2.528329   2.136620   1.094250   2.193031   3.544130
    23  H    3.672283   2.871034   2.162010   1.099344   2.169503
    24  H    4.452029   3.476476   2.155094   1.095487   2.190901
    25  H    5.644732   4.450305   4.137506   3.501562   2.208757
    26  H    5.531109   4.343789   3.448744   2.738486   2.188600
    27  H    4.369543   3.224711   2.829472   2.821436   2.205580
    28  H    5.394810   4.444541   4.097780   2.697874   2.146845
    29  H    6.867581   5.704441   4.768144   3.439419   2.858855
    30  H    6.252455   5.232777   4.171373   2.704703   2.844309
    31  H    7.832876   6.878739   6.163851   4.624195   4.316478
    32  H    8.609287   7.552046   6.604377   5.108747   4.787302
    33  H    8.440569   7.242108   6.592978   5.334458   4.260078
    34  H    9.809631   8.638804   7.854044   6.471170   5.632100
    35  H    9.767713   8.600733   8.103228   6.784008   5.615974
    36  H    9.739757   8.778839   8.283517   6.761549   6.089217
    37  H   10.676960   9.611354   8.993558   7.480729   6.693739
    38  H   10.618145   9.668494   9.479882   8.063304   7.042903
    39  H   10.977076   9.916897   9.622270   8.224392   7.074768
    40  H    9.161076   8.098111   8.008949   6.788619   5.412410
    41  H    8.918874   7.990330   8.075427   6.850860   5.598122
    42  H    7.585475   6.644311   6.434761   5.033976   4.125940
    43  H    6.824674   5.672300   5.438875   4.320122   2.871123
    44  H    6.019981   5.201472   5.550303   4.577381   3.457622
    45  H    6.920310   5.995103   6.343062   5.448023   4.012506
    46  H    5.231492   4.243632   4.696580   4.278317   2.865257
    47  H    4.848768   4.139858   4.990542   4.666205   3.522907
    48  H    3.541476   2.748488   3.232062   2.660051   2.142240
    49  H    3.016337   2.139781   2.916125   3.433191   2.896321
    50  H    2.523896   2.134293   3.476913   3.935088   3.542569
                    6          7          8          9         10
     6  C    0.000000
     7  C    2.571376   0.000000
     8  C    3.127669   1.548803   0.000000
     9  C    4.554020   2.585203   1.543057   0.000000
    10  C    4.887916   3.016883   2.546256   1.535942   0.000000
    11  C    4.813297   3.721709   3.104309   2.530452   1.545653
    12  C    6.410319   4.376966   3.950066   2.611911   1.545461
    13  C    6.819562   4.912213   4.907690   3.845329   2.459633
    14  C    5.706702   3.972560   4.391047   3.791704   2.436311
    15  C    4.549359   2.516475   2.916868   2.496598   1.551328
    16  C    3.165664   1.560280   2.574012   3.012924   2.589636
    17  C    3.732597   2.555719   3.933732   4.424742   3.949014
    18  C    3.138590   2.974796   4.454680   5.354557   5.143283
    19  C    2.579234   2.525211   3.945296   5.105768   5.344417
    20  C    3.131574   3.933676   5.198595   6.498925   6.824442
    21  H    2.856465   4.369446   4.838593   6.364199   7.162064
    22  H    4.129301   4.734251   5.176243   6.562795   7.573580
    23  H    3.472160   2.686561   3.266002   4.441201   5.424871
    24  H    2.736804   2.847095   2.780388   4.205034   5.297434
    25  H    1.093649   2.803689   3.431496   4.642514   4.626326
    26  H    1.095172   2.865535   2.837054   4.273393   4.787140
    27  H    1.094486   3.537576   4.153760   5.619388   5.978659
    28  H    3.485251   1.103931   2.138932   2.806807   3.365379
    29  H    2.777884   2.181804   1.096667   2.165611   2.851150
    30  H    3.470919   2.178179   1.095773   2.156015   3.479246
    31  H    5.173185   2.874606   2.169024   1.099993   2.158873
    32  H    5.153906   3.523294   2.172225   1.098856   2.187318
    33  H    3.899317   3.340868   2.807965   2.819173   2.216741
    34  H    5.464313   4.461120   3.505735   2.762090   2.174551
    35  H    5.448371   4.458630   4.092662   3.497631   2.204046
    36  H    6.809339   4.518256   4.124624   2.712155   2.173462
    37  H    7.042457   5.188840   4.502234   3.088824   2.215396
    38  H    7.655206   5.575433   5.667414   4.544645   3.332306
    39  H    7.333135   5.684765   5.582513   4.537665   3.073162
    40  H    5.574053   4.308356   4.723060   4.311898   2.890148
    41  H    6.192080   4.418811   5.104390   4.599580   3.393563
    42  H    5.053815   2.666858   3.156642   2.625140   2.129084
    43  H    2.845880   2.181570   2.855487   3.398241   2.821945
    44  H    4.487472   2.849736   4.233043   4.556215   4.195206
    45  H    4.470095   3.506698   4.738107   5.041983   4.250984
    46  H    2.836877   3.416747   4.719548   5.694106   5.386592
    47  H    4.123263   3.960976   5.480750   6.315415   6.052802
    48  H    3.490585   2.673016   4.102856   5.090627   5.422690
    49  H    2.848304   4.324530   5.474636   6.840659   7.082288
    50  H    4.142758   4.707486   6.084432   7.282482   7.501692
                   11         12         13         14         15
    11  C    0.000000
    12  C    2.510229   0.000000
    13  C    3.099743   1.558648   0.000000
    14  C    3.038716   2.493984   1.560834   0.000000
    15  C    2.588430   2.378728   2.442228   1.540115   0.000000
    16  C    3.152866   3.816404   3.889038   2.663510   1.534905
    17  C    4.552833   4.911086   4.607750   3.143810   2.544731
    18  C    5.562324   6.288836   6.092645   4.621047   3.914441
    19  C    5.884365   6.610018   6.754218   5.445924   4.361736
    20  C    7.242999   8.134416   8.273716   6.926395   5.889506
    21  H    7.362702   8.630697   9.224454   8.155614   6.826338
    22  H    8.082162   8.910912   9.615079   8.651181   7.226334
    23  H    6.226086   6.634681   7.342577   6.482817   5.020273
    24  H    5.720832   6.680119   7.546261   6.773592   5.280676
    25  H    4.354930   6.108466   6.319302   5.131753   4.200461
    26  H    4.565673   6.331369   6.942877   6.024354   4.802162
    27  H    5.864892   7.496126   7.855227   6.674595   5.570080
    28  H    4.412405   4.468765   5.016022   4.163055   2.716678
    29  H    2.818736   4.339251   5.240362   4.706466   3.393831
    30  H    4.084592   4.742793   5.831121   5.395047   3.886607
    31  H    3.473332   2.760079   3.993296   4.031255   2.751343
    32  H    2.737987   2.970315   4.393025   4.607019   3.472842
    33  H    1.094033   3.488039   3.982286   3.544923   2.892764
    34  H    1.097106   2.809707   3.691491   3.977273   3.526420
    35  H    1.095056   2.697672   2.752128   2.736287   2.870936
    36  H    3.446093   1.097818   2.193834   3.069700   2.757809
    37  H    2.657561   1.096313   2.223220   3.387668   3.368077
    38  H    4.162769   2.201243   1.094979   2.209673   3.130975
    39  H    3.203949   2.205565   1.095163   2.203441   3.266005
    40  H    2.922952   3.163632   2.205719   1.097282   2.185727
    41  H    4.118437   3.327830   2.218965   1.094753   2.203750
    42  H    3.493604   2.573400   2.758624   2.130712   1.104221
    43  H    2.796463   4.142418   4.157740   2.947707   2.152514
    44  H    5.106202   4.943630   4.654229   3.328641   2.722541
    45  H    4.681002   5.023577   4.390775   2.837016   2.811326
    46  H    5.496498   6.615192   6.382261   4.893019   4.301585
    47  H    6.538338   7.073301   6.726052   5.221154   4.703091
    48  H    6.226228   6.538999   6.714847   5.493191   4.375895
    49  H    7.268300   8.466502   8.572117   7.191654   6.226624
    50  H    7.993289   8.714830   8.708456   7.302681   6.406407
                   16         17         18         19         20
    16  C    0.000000
    17  C    1.538472   0.000000
    18  C    2.555480   1.532589   0.000000
    19  C    2.973883   2.529235   1.534473   0.000000
    20  C    4.455120   3.905224   2.549516   1.544539   0.000000
    21  H    5.497533   5.743400   4.758477   3.453485   2.911114
    22  H    6.078060   6.269217   5.436036   3.923285   3.477359
    23  H    4.119746   4.462496   4.157064   2.764101   3.370762
    24  H    4.328758   5.075745   4.745489   3.476621   3.967764
    25  H    2.817625   3.344390   2.886326   2.901158   3.593966
    26  H    3.635579   4.523700   4.152636   3.530095   4.088455
    27  H    4.122452   4.417888   3.477361   2.816175   2.782707
    28  H    2.139765   2.736431   3.258065   2.676217   4.091287
    29  H    2.904476   4.320999   4.702082   4.294539   5.413344
    30  H    3.516617   4.721067   5.055958   4.235142   5.312444
    31  H    3.413001   4.601031   5.586470   5.249603   6.659766
    32  H    4.013874   5.476509   6.350653   6.035217   7.353526
    33  H    2.883416   4.286776   5.035475   5.300270   6.540862
    34  H    4.144783   5.597228   6.562967   6.749663   8.071306
    35  H    3.543989   4.724011   5.816542   6.393111   7.751060
    36  H    4.189011   5.169002   6.548022   6.726937   8.256438
    37  H    4.710923   5.902268   7.234431   7.522287   9.021792
    38  H    4.597648   5.093449   6.621619   7.293097   8.818392
    39  H    4.575891   5.316216   6.749433   7.509900   8.995092
    40  H    2.854451   3.306274   4.620608   5.606218   6.996842
    41  H    3.085899   3.033117   4.529054   5.485859   6.925084
    42  H    2.124350   2.779956   4.148363   4.414578   5.955313
    43  H    1.099788   2.145564   2.827162   3.387186   4.693120
    44  H    2.161625   1.101082   2.157490   2.814742   4.189047
    45  H    2.172189   1.097108   2.169368   3.480909   4.710507
    46  H    2.874240   2.172379   1.099090   2.171946   2.828635
    47  H    3.499799   2.168387   1.098147   2.163171   2.723170
    48  H    3.241609   2.704502   2.128826   1.102702   2.134489
    49  H    4.711931   4.258960   2.816369   2.181986   1.100199
    50  H    5.033969   4.172546   2.778888   2.188835   1.094894
                   21         22         23         24         25
    21  H    0.000000
    22  H    1.763926   0.000000
    23  H    3.067432   2.462009   0.000000
    24  H    2.450373   2.528616   1.757490   0.000000
    25  H    3.871743   5.177128   4.335540   3.742488   0.000000
    26  H    3.060224   4.294594   3.712915   2.490456   1.764230
    27  H    2.289554   3.849501   3.846330   3.123872   1.757997
    28  H    4.748675   4.721227   2.365763   3.130091   3.808557
    29  H    4.783702   5.443590   3.919839   2.994902   2.974100
    30  H    4.502704   4.574510   2.788800   2.150767   4.051832
    31  H    6.673822   6.595094   4.305080   4.435585   5.358501
    32  H    6.856525   7.058492   5.114362   4.604161   5.281972
    33  H    6.531161   7.419263   5.791131   5.111889   3.401484
    34  H    7.866413   8.547798   6.760397   6.081304   5.111661
    35  H    8.140301   8.940635   7.077073   6.663440   4.807720
    36  H    8.767697   8.829146   6.458327   6.701892   6.645860
    37  H    9.286085   9.608333   7.406260   7.262450   6.733919
    38  H    9.932569  10.186451   7.831542   8.226778   7.198264
    39  H    9.888199  10.412735   8.220029   8.270695   6.724474
    40  H    8.216268   8.923169   6.929901   7.038513   4.826475
    41  H    8.499886   8.911216   6.731205   7.263680   5.627703
    42  H    6.980996   7.113011   4.751634   5.319795   4.886790
    43  H    5.531547   6.401046   4.726113   4.574775   2.188999
    44  H    6.135699   6.362123   4.373628   5.317739   4.283639
    45  H    6.666330   7.305354   5.556674   6.090972   3.855635
    46  H    4.761717   5.764499   4.770452   5.003544   2.312506
    47  H    5.371465   5.928612   4.805762   5.609040   3.887953
    48  H    3.990237   3.976589   2.453672   3.679887   3.873486
    49  H    2.837464   3.899168   4.092038   4.265440   3.194155
    50  H    3.888009   4.245870   4.144739   4.979737   4.457683
                   26         27         28         29         30
    26  H    0.000000
    27  H    1.757961   0.000000
    28  H    3.823739   4.328923   0.000000
    29  H    2.222656   3.798570   3.056609   0.000000
    30  H    3.051385   4.349416   2.450043   1.750577   0.000000
    31  H    5.001758   6.196237   2.652301   3.065699   2.451324
    32  H    4.657987   6.193494   3.800442   2.458829   2.484516
    33  H    3.620587   4.910123   4.237211   2.222118   3.793222
    34  H    5.018739   6.500181   5.118193   3.128287   4.310491
    35  H    5.324636   6.455186   5.127440   3.811023   5.117663
    36  H    6.754017   7.882685   4.347768   4.739267   4.738555
    37  H    6.821735   8.134741   5.367324   4.731368   5.229240
    38  H    7.837720   8.675343   5.486229   6.133360   6.513072
    39  H    7.403348   8.356630   5.929443   5.733526   6.548375
    40  H    5.898740   6.492203   4.729504   4.798687   5.794850
    41  H    6.659464   7.083314   4.425774   5.528383   6.050772
    42  H    5.342579   6.037834   2.397055   3.914080   3.916783
    43  H    3.247577   3.794468   3.053971   2.754647   3.865245
    44  H    5.244694   5.158383   2.579998   4.849702   4.894374
    45  H    5.251202   5.119752   3.751534   5.008573   5.627253
    46  H    3.865320   3.055129   3.978879   4.711531   5.387556
    47  H    5.174196   4.286057   4.050377   5.786918   6.034978
    48  H    4.311286   3.805122   2.350818   4.699008   4.278278
    49  H    3.816356   2.211852   4.725500   5.470147   5.661490
    50  H    5.142474   3.791825   4.721087   6.369979   6.238341
                   31         32         33         34         35
    31  H    0.000000
    32  H    1.761861   0.000000
    33  H    3.855128   3.086929   0.000000
    34  H    3.716691   2.514616   1.765633   0.000000
    35  H    4.327461   3.756488   1.762466   1.764778   0.000000
    36  H    2.410329   3.099722   4.336094   3.685934   3.765523
    37  H    3.356657   3.058700   3.730174   2.537182   2.794585
    38  H    4.450514   5.109997   5.044987   4.698127   3.842191
    39  H    4.849284   4.927037   4.117697   3.668326   2.540084
    40  H    4.770820   5.046112   3.260713   3.911098   2.341470
    41  H    4.653973   5.498432   4.546837   5.066953   3.800597
    42  H    2.412068   3.653172   3.861970   4.292547   3.853408
    43  H    4.066306   4.226535   2.247715   3.807099   3.085184
    44  H    4.464997   5.651961   5.007608   6.105049   5.320205
    45  H    5.280149   6.058226   4.490896   5.771878   4.593471
    46  H    6.112679   6.605897   4.822110   6.486054   5.675367
    47  H    6.443327   7.344795   6.065897   7.566758   6.707815
    48  H    4.999033   6.065735   5.803453   7.074211   6.765422
    49  H    7.162073   7.632793   6.449144   8.082315   7.727241
    50  H    7.358926   8.200868   7.348606   8.883371   8.415193
                   36         37         38         39         40
    36  H    0.000000
    37  H    1.763601   0.000000
    38  H    2.359878   2.819596   0.000000
    39  H    3.027021   2.404039   1.753076   0.000000
    40  H    3.949798   3.855208   2.993672   2.352937   0.000000
    41  H    3.656932   4.273113   2.380846   2.879937   1.758203
    42  H    2.485303   3.647401   3.101075   3.776195   3.046298
    43  H    4.742973   4.876484   5.024179   4.609727   2.729145
    44  H    4.974826   6.007456   4.925762   5.508877   3.790877
    45  H    5.404025   5.984740   4.848245   4.955944   2.779945
    46  H    7.032126   7.473297   7.031309   6.890764   4.646627
    47  H    7.271582   8.064561   7.132161   7.394003   5.240880
    48  H    6.479306   7.507932   7.112803   7.582092   5.853618
    49  H    8.717814   9.292981   9.211914   9.188249   7.097722
    50  H    8.797058   9.661093   9.160620   9.448325   7.389758
                   41         42         43         44         45
    41  H    0.000000
    42  H    2.401256   0.000000
    43  H    3.533754   3.035001   0.000000
    44  H    2.986861   2.506938   3.051404   0.000000
    45  H    2.559379   3.207204   2.450309   1.759246   0.000000
    46  H    4.926960   4.773303   2.707240   3.068947   2.477209
    47  H    4.912684   4.811933   3.827247   2.454237   2.516848
    48  H    5.416929   4.150421   3.941450   2.534874   3.720052
    49  H    7.270138   6.472960   4.692338   4.777311   4.928204
    50  H    7.140676   6.394798   5.342245   4.315568   4.856201
                   46         47         48         49         50
    46  H    0.000000
    47  H    1.755855   0.000000
    48  H    3.051885   2.472198   0.000000
    49  H    2.650608   3.072945   3.057993   0.000000
    50  H    3.160904   2.497685   2.472390   1.764992   0.000000
 Stoichiometry    C19H30O
 Framework group  C1[X(C19H30O)]
 Deg. of freedom   144
 Full point group                 C1      NOp   1
 Largest Abelian subgroup         C1      NOp   1
 Largest concise Abelian subgroup C1      NOp   1
                         Standard orientation:                         
 ---------------------------------------------------------------------
 Center     Atomic      Atomic             Coordinates (Angstroms)
 Number     Number       Type             X           Y           Z
 ---------------------------------------------------------------------
      1          8           0        5.429653    0.254494   -0.960999
      2          6           0        4.395378    0.035128   -0.358308
      3          6           0        3.851199   -1.370411   -0.153091
      4          6           0        2.340057   -1.476148   -0.451970
      5          6           0        1.471412   -0.410326    0.269145
      6          6           0        1.515362   -0.661140    1.794044
      7          6           0       -0.001859   -0.469970   -0.273192
      8          6           0       -0.695283   -1.840999   -0.077665
      9          6           0       -2.130285   -1.889991   -0.642816
     10          6           0       -2.998809   -0.756017   -0.078115
     11          6           0       -3.272877   -0.985061    1.425704
     12          6           0       -4.347442   -0.517631   -0.794221
     13          6           0       -4.690289    0.976308   -0.511403
     14          6           0       -3.352987    1.654412   -0.077812
     15          6           0       -2.282985    0.587626   -0.376167
     16          6           0       -0.885858    0.705147    0.248460
     17          6           0       -0.236278    2.065809   -0.057384
     18          6           0        1.212513    2.151700    0.435016
     19          6           0        2.052163    0.990191   -0.113153
     20          6           0        3.547367    1.146239    0.241273
     21          1           0        4.040700   -1.647430    0.894437
     22          1           0        4.428955   -2.059991   -0.776038
     23          1           0        2.189571   -1.375403   -1.536296
     24          1           0        2.007236   -2.485378   -0.185933
     25          1           0        0.862954    0.019290    2.348524
     26          1           0        1.198671   -1.682922    2.028713
     27          1           0        2.523181   -0.540305    2.203433
     28          1           0        0.080410   -0.317853   -1.363493
     29          1           0       -0.720746   -2.098748    0.987979
     30          1           0       -0.105409   -2.626206   -0.563687
     31          1           0       -2.090235   -1.795266   -1.737991
     32          1           0       -2.574091   -2.872566   -0.430527
     33          1           0       -2.360453   -1.018629    2.028418
     34          1           0       -3.791708   -1.941918    1.563112
     35          1           0       -3.913582   -0.204868    1.849901
     36          1           0       -4.222280   -0.679076   -1.872866
     37          1           0       -5.135615   -1.201185   -0.457412
     38          1           0       -5.111146    1.455567   -1.401442
     39          1           0       -5.447317    1.067342    0.274729
     40          1           0       -3.367860    1.903773    0.990657
     41          1           0       -3.171026    2.590219   -0.615993
     42          1           0       -2.130782    0.601499   -1.469760
     43          1           0       -0.984808    0.620456    1.340509
     44          1           0       -0.253549    2.231164   -1.145843
     45          1           0       -0.833100    2.872305    0.386477
     46          1           0        1.240327    2.150351    1.533754
     47          1           0        1.658855    3.104445    0.120401
     48          1           0        1.987477    1.048389   -1.212416
     49          1           0        3.679503    1.132503    1.333422
     50          1           0        3.935657    2.105287   -0.116846
 ---------------------------------------------------------------------
 Rotational constants (GHZ):           0.8296982           0.1914730           0.1723764
 Standard basis: 6-31G(d) (6D, 7F)
 There are   360 symmetry adapted cartesian basis functions of A   symmetry.
 There are   360 symmetry adapted basis functions of A   symmetry.
   360 basis functions,   680 primitive gaussians,   360 cartesian basis functions
    76 alpha electrons       76 beta electrons
       nuclear repulsion energy      1720.8057880163 Hartrees.
 NAtoms=   50 NActive=   50 NUniq=   50 SFac= 1.00D+00 NAtFMM=   60 NAOKFM=F Big=F
 Integral buffers will be    131072 words long.
 Raffenetti 2 integral format.
 Two-electron integral symmetry is turned on.
 One-electron integrals computed using PRISM.
 NBasis=   360 RedAO= T EigKep=  1.81D-03  NBF=   360
 NBsUse=   360 1.00D-06 EigRej= -1.00D+00 NBFU=   360
 ExpMin= 1.61D-01 ExpMax= 5.48D+03 ExpMxC= 8.25D+02 IAcc=3 IRadAn=         5 AccDes= 0.00D+00
 Harris functional with IExCor=  402 and IRadAn=       5 diagonalized for initial guess.
 HarFok:  IExCor=  402 AccDes= 0.00D+00 IRadAn=         5 IDoV= 1 UseB2=F ITyADJ=14
 ICtDFT=  3500011 ScaDFX=  1.000000  1.000000  1.000000  1.000000
 FoFCou: FMM=F IPFlag=           0 FMFlag=      100000 FMFlg1=           0
         NFxFlg=           0 DoJE=T BraDBF=F KetDBF=T FulRan=T
         wScrn=  0.000000 ICntrl=       500 IOpCl=  0 I1Cent=   200000004 NGrid=           0
         NMat0=    1 NMatS0=      1 NMatT0=    0 NMatD0=    1 NMtDS0=    0 NMtDT0=    0
 Petite list used in FoFCou.
 Requested convergence on RMS density matrix=1.00D-08 within 128 cycles.
 Requested convergence on MAX density matrix=1.00D-06.
 Requested convergence on             energy=1.00D-06.
 No special actions if energy rises.
 Integral accuracy reduced to 1.0D-05 until final iterations.
 Initial convergence to 1.0D-05 achieved.  Increase integral accuracy.
 SCF Done:  E(RB3LYP) =  -817.335780528     A.U. after   14 cycles
            NFock= 14  Conv=0.43D-08     -V/T= 2.0098
 DoSCS=F DFT=T ScalE2(SS,OS)=  1.000000  1.000000
 Range of M.O.s used for correlation:     1   360
 NBasis=   360 NAE=    76 NBE=    76 NFC=     0 NFV=     0
 NROrb=    360 NOA=    76 NOB=    76 NVA=   284 NVB=   284
 Symmetrizing basis deriv contribution to polar:
 IMax=3 JMax=2 DiffMx= 0.00D+00
 G2DrvN: will do    51 centers at a time, making    1 passes.
 Calling FoFCou, ICntrl=  3107 FMM=F I1Cent=   0 AccDes= 0.00D+00.
 End of G2Drv F.D. properties file   721 does not exist.
 End of G2Drv F.D. properties file   722 does not exist.
 End of G2Drv F.D. properties file   788 does not exist.
          IDoAtm=11111111111111111111111111111111111111111111111111
          Differentiating once with respect to electric field.
                with respect to dipole field.
          Differentiating once with respect to nuclear coordinates.
 CalDSu exits because no D1Ps are significant.
          There are   153 degrees of freedom in the 1st order CPHF.  IDoFFX=6 NUNeed=     3.
    150 vectors produced by pass  0 Test12= 2.16D-14 1.00D-09 XBig12= 1.34D+02 1.66D+00.
 AX will form   150 AO Fock derivatives at one time.
    150 vectors produced by pass  1 Test12= 2.16D-14 1.00D-09 XBig12= 1.14D+01 7.54D-01.
    150 vectors produced by pass  2 Test12= 2.16D-14 1.00D-09 XBig12= 1.06D-01 3.51D-02.
    150 vectors produced by pass  3 Test12= 2.16D-14 1.00D-09 XBig12= 3.49D-04 1.58D-03.
    150 vectors produced by pass  4 Test12= 2.16D-14 1.00D-09 XBig12= 3.65D-07 4.16D-05.
     65 vectors produced by pass  5 Test12= 2.16D-14 1.00D-09 XBig12= 2.22D-10 1.07D-06.
      5 vectors produced by pass  6 Test12= 2.16D-14 1.00D-09 XBig12= 1.24D-13 2.69D-08.
 InvSVY:  IOpt=1 It=  1 EMax= 7.11D-15
 Solved reduced A of dimension   820 with   153 vectors.
 Isotropic polarizability for W=    0.000000      188.64 Bohr**3.
 End of Minotr F.D. properties file   721 does not exist.
 End of Minotr F.D. properties file   722 does not exist.
 End of Minotr F.D. properties file   788 does not exist.

 **********************************************************************

            Population analysis using the SCF density.

 **********************************************************************

 Orbital symmetries:
       Occupied  (A) (A) (A) (A) (A) (A) (A) (A) (A) (A) (A) (A)
                 (A) (A) (A) (A) (A) (A) (A) (A) (A) (A) (A) (A)
                 (A) (A) (A) (A) (A) (A) (A) (A) (A) (A) (A) (A)
                 (A) (A) (A) (A) (A) (A) (A) (A) (A) (A) (A) (A)
                 (A) (A) (A) (A) (A) (A) (A) (A) (A) (A) (A) (A)
                 (A) (A) (A) (A) (A) (A) (A) (A) (A) (A) (A) (A)
                 (A) (A) (A) (A)
       Virtual   (A) (A) (A) (A) (A) (A) (A) (A) (A) (A) (A) (A)
                 (A) (A) (A) (A) (A) (A) (A) (A) (A) (A) (A) (A)
                 (A) (A) (A) (A) (A) (A) (A) (A) (A) (A) (A) (A)
                 (A) (A) (A) (A) (A) (A) (A) (A) (A) (A) (A) (A)
                 (A) (A) (A) (A) (A) (A) (A) (A) (A) (A) (A) (A)
                 (A) (A) (A) (A) (A) (A) (A) (A) (A) (A) (A) (A)
                 (A) (A) (A) (A) (A) (A) (A) (A) (A) (A) (A) (A)
                 (A) (A) (A) (A) (A) (A) (A) (A) (A) (A) (A) (A)
                 (A) (A) (A) (A) (A) (A) (A) (A) (A) (A) (A) (A)
                 (A) (A) (A) (A) (A) (A) (A) (A) (A) (A) (A) (A)
                 (A) (A) (A) (A) (A) (A) (A) (A) (A) (A) (A) (A)
                 (A) (A) (A) (A) (A) (A) (A) (A) (A) (A) (A) (A)
                 (A) (A) (A) (A) (A) (A) (A) (A) (A) (A) (A) (A)
                 (A) (A) (A) (A) (A) (A) (A) (A) (A) (A) (A) (A)
                 (A) (A) (A) (A) (A) (A) (A) (A) (A) (A) (A) (A)
                 (A) (A) (A) (A) (A) (A) (A) (A) (A) (A) (A) (A)
                 (A) (A) (A) (A) (A) (A) (A) (A) (A) (A) (A) (A)
                 (A) (A) (A) (A) (A) (A) (A) (A) (A) (A) (A) (A)
                 (A) (A) (A) (A) (A) (A) (A) (A) (A) (A) (A) (A)
                 (A) (A) (A) (A) (A) (A) (A) (A) (A) (A) (A) (A)
                 (A) (A) (A) (A) (A) (A) (A) (A) (A) (A) (A) (A)
                 (A) (A) (A) (A) (A) (A) (A) (A) (A) (A) (A) (A)
                 (A) (A) (A) (A) (A) (A) (A) (A) (A) (A) (A) (A)
                 (A) (A) (A) (A) (A) (A) (A) (A)
 The electronic state is 1-A.
 Alpha  occ. eigenvalues --  -19.12898 -10.26524 -10.20122 -10.19331 -10.18862
 Alpha  occ. eigenvalues --  -10.18780 -10.18772 -10.18677 -10.18536 -10.18362
 Alpha  occ. eigenvalues --  -10.18162 -10.17931 -10.17918 -10.17841 -10.17804
 Alpha  occ. eigenvalues --  -10.17799 -10.17716 -10.17622 -10.17441 -10.17183
 Alpha  occ. eigenvalues --   -1.02779  -0.86543  -0.84492  -0.79621  -0.78757
 Alpha  occ. eigenvalues --   -0.76098  -0.74572  -0.72484  -0.71097  -0.68475
 Alpha  occ. eigenvalues --   -0.67734  -0.66763  -0.63298  -0.61074  -0.58769
 Alpha  occ. eigenvalues --   -0.57336  -0.55415  -0.53893  -0.52386  -0.51563
 Alpha  occ. eigenvalues --   -0.47727  -0.47708  -0.46952  -0.46018  -0.45712
 Alpha  occ. eigenvalues --   -0.44022  -0.43817  -0.43409  -0.43363  -0.41921
 Alpha  occ. eigenvalues --   -0.40869  -0.40603  -0.40207  -0.39278  -0.38617
 Alpha  occ. eigenvalues --   -0.38528  -0.37744  -0.37270  -0.37139  -0.36495
 Alpha  occ. eigenvalues --   -0.35243  -0.34791  -0.34300  -0.34126  -0.33553
 Alpha  occ. eigenvalues --   -0.33048  -0.32535  -0.32358  -0.31327  -0.31203
 Alpha  occ. eigenvalues --   -0.30689  -0.30341  -0.30049  -0.27950  -0.27008
 Alpha  occ. eigenvalues --   -0.23108
 Alpha virt. eigenvalues --   -0.00854   0.07353   0.07580   0.08122   0.09570
 Alpha virt. eigenvalues --    0.10123   0.11063   0.11774   0.11901   0.12779
 Alpha virt. eigenvalues --    0.12940   0.13618   0.14114   0.14978   0.15448
 Alpha virt. eigenvalues --    0.15945   0.16019   0.16287   0.16526   0.17317
 Alpha virt. eigenvalues --    0.17480   0.18036   0.18813   0.18948   0.19373
 Alpha virt. eigenvalues --    0.19473   0.20071   0.20505   0.21268   0.21437
 Alpha virt. eigenvalues --    0.22322   0.22571   0.22948   0.23656   0.23786
 Alpha virt. eigenvalues --    0.24013   0.25014   0.25142   0.25735   0.26491
 Alpha virt. eigenvalues --    0.26572   0.27093   0.28146   0.28556   0.28895
 Alpha virt. eigenvalues --    0.30016   0.30397   0.30982   0.31513   0.32555
 Alpha virt. eigenvalues --    0.34350   0.35045   0.36746   0.38720   0.48737
 Alpha virt. eigenvalues --    0.50150   0.50609   0.51337   0.51444   0.51720
 Alpha virt. eigenvalues --    0.52778   0.54264   0.55056   0.55994   0.57890
 Alpha virt. eigenvalues --    0.58020   0.58826   0.59621   0.60816   0.61415
 Alpha virt. eigenvalues --    0.62295   0.62937   0.64248   0.64762   0.65576
 Alpha virt. eigenvalues --    0.66324   0.66846   0.67955   0.68267   0.69041
 Alpha virt. eigenvalues --    0.69975   0.70274   0.70547   0.72284   0.72848
 Alpha virt. eigenvalues --    0.74547   0.74673   0.75233   0.76296   0.77908
 Alpha virt. eigenvalues --    0.78101   0.78662   0.80559   0.81838   0.82255
 Alpha virt. eigenvalues --    0.83259   0.84564   0.85023   0.85277   0.85779
 Alpha virt. eigenvalues --    0.86291   0.86572   0.87182   0.87792   0.88105
 Alpha virt. eigenvalues --    0.88520   0.88732   0.88953   0.89451   0.90467
 Alpha virt. eigenvalues --    0.90959   0.91418   0.92042   0.92766   0.93090
 Alpha virt. eigenvalues --    0.93496   0.94007   0.94625   0.95340   0.95789
 Alpha virt. eigenvalues --    0.96119   0.96375   0.97211   0.97775   0.98009
 Alpha virt. eigenvalues --    0.98619   0.99700   1.00295   1.00550   1.01718
 Alpha virt. eigenvalues --    1.02180   1.03054   1.03478   1.05298   1.06861
 Alpha virt. eigenvalues --    1.09350   1.10769   1.12441   1.13622   1.14208
 Alpha virt. eigenvalues --    1.19001   1.20117   1.21154   1.26067   1.28412
 Alpha virt. eigenvalues --    1.29997   1.31049   1.32772   1.34545   1.37359
 Alpha virt. eigenvalues --    1.38983   1.40821   1.42901   1.43583   1.47613
 Alpha virt. eigenvalues --    1.50225   1.51730   1.52345   1.55699   1.56554
 Alpha virt. eigenvalues --    1.60154   1.61902   1.63309   1.64641   1.64963
 Alpha virt. eigenvalues --    1.67576   1.70049   1.70205   1.71559   1.73432
 Alpha virt. eigenvalues --    1.74814   1.76578   1.76704   1.77781   1.78860
 Alpha virt. eigenvalues --    1.79318   1.80481   1.82257   1.83609   1.84181
 Alpha virt. eigenvalues --    1.84929   1.86040   1.87295   1.88345   1.89561
 Alpha virt. eigenvalues --    1.90192   1.90542   1.92668   1.93595   1.94046
 Alpha virt. eigenvalues --    1.94501   1.96560   1.96681   1.97420   1.98107
 Alpha virt. eigenvalues --    1.99684   2.00284   2.00517   2.01200   2.02157
 Alpha virt. eigenvalues --    2.02547   2.02960   2.04546   2.04666   2.06720
 Alpha virt. eigenvalues --    2.07422   2.08023   2.10339   2.11353   2.12969
 Alpha virt. eigenvalues --    2.13863   2.15199   2.15550   2.17837   2.19100
 Alpha virt. eigenvalues --    2.20378   2.21456   2.23491   2.24739   2.26241
 Alpha virt. eigenvalues --    2.28250   2.29443   2.31681   2.33142   2.34304
 Alpha virt. eigenvalues --    2.34742   2.36602   2.36955   2.38479   2.38595
 Alpha virt. eigenvalues --    2.40913   2.41233   2.42677   2.45271   2.46001
 Alpha virt. eigenvalues --    2.48713   2.50168   2.52463   2.53510   2.54778
 Alpha virt. eigenvalues --    2.55737   2.57527   2.59758   2.60679   2.61849
 Alpha virt. eigenvalues --    2.62918   2.64059   2.66605   2.68887   2.71310
 Alpha virt. eigenvalues --    2.72212   2.75911   2.76669   2.77751   2.79821
 Alpha virt. eigenvalues --    2.83009   2.85130   2.87259   2.89394   2.90599
 Alpha virt. eigenvalues --    2.94191   2.99159   3.01056   3.03798   4.00804
 Alpha virt. eigenvalues --    4.10814   4.15996   4.22855   4.23451   4.25991
 Alpha virt. eigenvalues --    4.28572   4.29815   4.32867   4.38103   4.44837
 Alpha virt. eigenvalues --    4.45280   4.53012   4.59616   4.59877   4.66140
 Alpha virt. eigenvalues --    4.67209   4.75335   4.78768   4.80156
          Condensed to atoms (all electrons):
               1          2          3          4          5          6
     1  O    8.003601   0.590286  -0.079885   0.001737   0.000058  -0.000003
     2  C    0.590286   4.465294   0.326708  -0.023795  -0.011190  -0.002247
     3  C   -0.079885   0.326708   5.339199   0.315008  -0.032750  -0.003074
     4  C    0.001737  -0.023795   0.315008   5.134727   0.369578  -0.064780
     5  C    0.000058  -0.011190  -0.032750   0.369578   4.858683   0.366397
     6  C   -0.000003  -0.002247  -0.003074  -0.064780   0.366397   5.203768
     7  C   -0.000000   0.000152   0.003710  -0.039591   0.365489  -0.052018
     8  C   -0.000000  -0.000007   0.000259  -0.006342  -0.034322  -0.008334
     9  C   -0.000000   0.000000  -0.000001   0.000156   0.003475   0.000150
    10  C    0.000000   0.000000   0.000000  -0.000004   0.000232  -0.000013
    11  C   -0.000000  -0.000000  -0.000000  -0.000001   0.000036  -0.000058
    12  C    0.000000   0.000000  -0.000000  -0.000000   0.000002   0.000000
    13  C   -0.000000   0.000000   0.000000  -0.000000   0.000001   0.000000
    14  C   -0.000000  -0.000000  -0.000000   0.000001  -0.000093  -0.000000
    15  C    0.000000   0.000000   0.000001  -0.000100   0.003445   0.000227
    16  C    0.000000  -0.000002  -0.000107   0.004022  -0.024426  -0.008451
    17  C    0.000000  -0.000081   0.000007   0.000138  -0.011719  -0.000863
    18  C   -0.000055   0.002376   0.000032   0.005044  -0.031161  -0.006679
    19  C    0.000946  -0.018217  -0.004836  -0.047925   0.374684  -0.059836
    20  C   -0.078071   0.320078  -0.141235  -0.003459  -0.032010  -0.005606
    21  H    0.001139  -0.027333   0.347387  -0.033706  -0.004832   0.003202
    22  H    0.004771  -0.024797   0.344296  -0.025060   0.003348   0.000068
    23  H    0.000352  -0.002514  -0.042278   0.366609  -0.034373   0.006523
    24  H   -0.000068   0.003125  -0.029121   0.357718  -0.026803  -0.006982
    25  H    0.000000   0.000051  -0.000005   0.005434  -0.029142   0.367839
    26  H    0.000000   0.000096  -0.000399  -0.005264  -0.029111   0.367721
    27  H   -0.000003  -0.001108   0.002555  -0.005357  -0.029013   0.364357
    28  H    0.000000  -0.000032   0.000039  -0.008949  -0.041383   0.006650
    29  H   -0.000000   0.000000  -0.000024  -0.000697  -0.006704   0.002835
    30  H   -0.000000  -0.000006  -0.000059   0.002761  -0.005445  -0.000324
    31  H   -0.000000  -0.000000  -0.000000  -0.000024   0.000011   0.000002
    32  H    0.000000  -0.000000  -0.000000  -0.000001  -0.000098   0.000001
    33  H    0.000000   0.000000  -0.000000   0.000003  -0.000051   0.000128
    34  H    0.000000   0.000000   0.000000  -0.000000  -0.000001  -0.000000
    35  H    0.000000  -0.000000   0.000000   0.000000  -0.000001   0.000000
    36  H    0.000000  -0.000000  -0.000000  -0.000000   0.000000  -0.000000
    37  H    0.000000   0.000000  -0.000000   0.000000  -0.000000  -0.000000
    38  H    0.000000   0.000000  -0.000000   0.000000  -0.000000  -0.000000
    39  H    0.000000  -0.000000  -0.000000   0.000000  -0.000000  -0.000000
    40  H   -0.000000   0.000000   0.000000   0.000000   0.000002  -0.000002
    41  H   -0.000000   0.000000   0.000000  -0.000000   0.000001   0.000000
    42  H   -0.000000   0.000000   0.000000  -0.000011   0.000144  -0.000002
    43  H   -0.000000  -0.000000   0.000001  -0.000016  -0.006269   0.001437
    44  H   -0.000000  -0.000000   0.000001  -0.000060  -0.000891   0.000051
    45  H   -0.000000   0.000001  -0.000000   0.000008   0.000141  -0.000011
    46  H    0.000000   0.000008  -0.000004   0.000062  -0.009497   0.003137
    47  H   -0.000002   0.000021  -0.000011  -0.000148   0.004939   0.000014
    48  H    0.000499  -0.001091   0.000313  -0.007375  -0.046787   0.006809
    49  H    0.001285  -0.025697   0.002999  -0.000885  -0.007444   0.002519
    50  H    0.004659  -0.023550   0.006889  -0.000278   0.003851   0.000115
               7          8          9         10         11         12
     1  O   -0.000000  -0.000000  -0.000000   0.000000  -0.000000   0.000000
     2  C    0.000152  -0.000007   0.000000   0.000000  -0.000000   0.000000
     3  C    0.003710   0.000259  -0.000001   0.000000  -0.000000  -0.000000
     4  C   -0.039591  -0.006342   0.000156  -0.000004  -0.000001  -0.000000
     5  C    0.365489  -0.034322   0.003475   0.000232   0.000036   0.000002
     6  C   -0.052018  -0.008334   0.000150  -0.000013  -0.000058   0.000000
     7  C    5.025852   0.370763  -0.033069  -0.012969  -0.002315   0.000368
     8  C    0.370763   5.084273   0.357991  -0.032534  -0.004912   0.004350
     9  C   -0.033069   0.357991   5.071924   0.389494  -0.060908  -0.039298
    10  C   -0.012969  -0.032534   0.389494   4.817516   0.372189   0.382192
    11  C   -0.002315  -0.004912  -0.060908   0.372189   5.188086  -0.060472
    12  C    0.000368   0.004350  -0.039298   0.382192  -0.060472   5.110696
    13  C   -0.000131  -0.000203   0.004728  -0.052805  -0.002862   0.362629
    14  C    0.003973   0.000354   0.006369  -0.053510  -0.005807  -0.073093
    15  C   -0.028122  -0.016991  -0.046608   0.388158  -0.059616  -0.063024
    16  C    0.374042  -0.038338  -0.012229  -0.025147  -0.006178   0.005177
    17  C   -0.038626   0.004559   0.000085   0.004406   0.000143  -0.000192
    18  C   -0.013400   0.000159  -0.000008  -0.000116  -0.000000   0.000002
    19  C   -0.034440   0.003950  -0.000096  -0.000006  -0.000001   0.000000
    20  C    0.004094  -0.000116   0.000001   0.000000  -0.000000   0.000000
    21  H    0.000036  -0.000018  -0.000000   0.000000   0.000000  -0.000000
    22  H   -0.000086   0.000001  -0.000000  -0.000000   0.000000  -0.000000
    23  H   -0.006239  -0.000870  -0.000054  -0.000000   0.000000  -0.000000
    24  H   -0.006126   0.001569  -0.000061  -0.000002  -0.000000  -0.000000
    25  H   -0.005444  -0.000165  -0.000018   0.000003  -0.000057  -0.000000
    26  H   -0.005245   0.001418  -0.000055   0.000009  -0.000037  -0.000000
    27  H    0.004777   0.000144  -0.000001  -0.000000   0.000001   0.000000
    28  H    0.355587  -0.049744  -0.002374  -0.001570   0.000085  -0.000058
    29  H   -0.038229   0.368391  -0.037451  -0.006945   0.002620  -0.000001
    30  H   -0.033152   0.363988  -0.031222   0.004349   0.000118  -0.000119
    31  H   -0.005071  -0.038285   0.361791  -0.033910   0.006510  -0.007494
    32  H    0.004155  -0.033936   0.358935  -0.032903  -0.006936  -0.002845
    33  H    0.000084   0.001565  -0.004581  -0.029042   0.365669   0.005721
    34  H    0.000060  -0.000309  -0.005114  -0.028435   0.364891  -0.005383
    35  H    0.000037   0.000059   0.005277  -0.030119   0.369247  -0.006016
    36  H   -0.000027   0.000121  -0.007365  -0.033066   0.006320   0.363305
    37  H   -0.000003  -0.000103   0.000462  -0.029025  -0.007485   0.360115
    38  H    0.000003   0.000003  -0.000129   0.002587   0.000117  -0.028419
    39  H    0.000002   0.000004  -0.000074   0.000751   0.000795  -0.032645
    40  H    0.000054  -0.000029   0.000010  -0.005782   0.002086   0.002192
    41  H   -0.000076  -0.000006  -0.000200   0.005353   0.000172   0.003700
    42  H   -0.009097  -0.001593  -0.006922  -0.051472   0.007020  -0.004258
    43  H   -0.045857  -0.005190   0.000152  -0.009733   0.003118   0.000158
    44  H   -0.006793  -0.000011  -0.000020   0.000033   0.000003  -0.000002
    45  H    0.004643  -0.000142  -0.000007  -0.000023  -0.000006  -0.000003
    46  H   -0.000520  -0.000006  -0.000000   0.000004  -0.000001  -0.000000
    47  H    0.000091   0.000008  -0.000000   0.000001   0.000000  -0.000000
    48  H   -0.007221   0.000045  -0.000003   0.000001  -0.000000  -0.000000
    49  H    0.000027   0.000001   0.000000   0.000000   0.000000   0.000000
    50  H   -0.000094   0.000001  -0.000000  -0.000000   0.000000  -0.000000
              13         14         15         16         17         18
     1  O   -0.000000  -0.000000   0.000000   0.000000   0.000000  -0.000055
     2  C    0.000000  -0.000000   0.000000  -0.000002  -0.000081   0.002376
     3  C    0.000000  -0.000000   0.000001  -0.000107   0.000007   0.000032
     4  C   -0.000000   0.000001  -0.000100   0.004022   0.000138   0.005044
     5  C    0.000001  -0.000093   0.003445  -0.024426  -0.011719  -0.031161
     6  C    0.000000  -0.000000   0.000227  -0.008451  -0.000863  -0.006679
     7  C   -0.000131   0.003973  -0.028122   0.374042  -0.038626  -0.013400
     8  C   -0.000203   0.000354  -0.016991  -0.038338   0.004559   0.000159
     9  C    0.004728   0.006369  -0.046608  -0.012229   0.000085  -0.000008
    10  C   -0.052805  -0.053510   0.388158  -0.025147   0.004406  -0.000116
    11  C   -0.002862  -0.005807  -0.059616  -0.006178   0.000143  -0.000000
    12  C    0.362629  -0.073093  -0.063024   0.005177  -0.000192   0.000002
    13  C    5.051031   0.362434  -0.064534   0.004431   0.000091  -0.000001
    14  C    0.362434   5.078103   0.369779  -0.031999  -0.004474   0.000169
    15  C   -0.064534   0.369779   5.023692   0.377859  -0.038491   0.003868
    16  C    0.004431  -0.031999   0.377859   4.966953   0.374867  -0.035057
    17  C    0.000091  -0.004474  -0.038491   0.374867   5.052343   0.361927
    18  C   -0.000001   0.000169   0.003868  -0.035057   0.361927   5.051994
    19  C    0.000000  -0.000004   0.000219  -0.015253  -0.036257   0.371123
    20  C   -0.000000  -0.000000   0.000002   0.000295   0.003696  -0.037179
    21  H    0.000000   0.000000  -0.000000   0.000002  -0.000000  -0.000010
    22  H   -0.000000   0.000000  -0.000000   0.000001  -0.000000   0.000011
    23  H   -0.000000   0.000000  -0.000005   0.000116  -0.000043   0.000007
    24  H    0.000000  -0.000000   0.000000  -0.000048  -0.000000  -0.000171
    25  H   -0.000000   0.000006  -0.000092   0.001890  -0.000174   0.001301
    26  H    0.000000   0.000000  -0.000016   0.000099   0.000010   0.000044
    27  H    0.000000  -0.000000  -0.000001   0.000111   0.000014  -0.000085
    28  H   -0.000002  -0.000002  -0.006614  -0.049889  -0.006111  -0.000915
    29  H   -0.000001  -0.000013  -0.000547  -0.005548   0.000013  -0.000024
    30  H    0.000003   0.000009   0.000207   0.004667  -0.000129  -0.000006
    31  H    0.000143   0.000048  -0.007396  -0.000573  -0.000025   0.000000
    32  H   -0.000096  -0.000228   0.006021   0.000039   0.000008  -0.000000
    33  H   -0.000183  -0.000120  -0.005261   0.001339  -0.000105   0.000008
    34  H   -0.000251  -0.000082   0.005338   0.000110  -0.000000  -0.000000
    35  H    0.003133   0.002724  -0.005308  -0.000156  -0.000025   0.000000
    36  H   -0.032774   0.000657  -0.004115  -0.000010   0.000003  -0.000000
    37  H   -0.031510   0.004440   0.006095  -0.000166   0.000002  -0.000000
    38  H    0.371221  -0.030281   0.001878  -0.000075  -0.000006  -0.000000
    39  H    0.372741  -0.030398   0.002575  -0.000128   0.000003   0.000000
    40  H   -0.033876   0.371353  -0.037604  -0.004552  -0.001060  -0.000028
    41  H   -0.031267   0.365602  -0.024323  -0.001291   0.001968  -0.000013
    42  H   -0.000987  -0.048973   0.363215  -0.047215  -0.007504   0.000013
    43  H   -0.000039  -0.004411  -0.043190   0.362602  -0.047716  -0.002611
    44  H   -0.000031  -0.001017  -0.005771  -0.041405   0.367765  -0.039802
    45  H   -0.000011   0.004245  -0.006400  -0.029589   0.362926  -0.031746
    46  H   -0.000000  -0.000011   0.000036  -0.005026  -0.035548   0.367405
    47  H   -0.000000  -0.000001  -0.000114   0.004292  -0.030810   0.364004
    48  H   -0.000000  -0.000000  -0.000033  -0.001961  -0.002528  -0.051182
    49  H   -0.000000  -0.000000   0.000000  -0.000021   0.000084  -0.006440
    50  H   -0.000000  -0.000000  -0.000000  -0.000004   0.000048  -0.004139
              19         20         21         22         23         24
     1  O    0.000946  -0.078071   0.001139   0.004771   0.000352  -0.000068
     2  C   -0.018217   0.320078  -0.027333  -0.024797  -0.002514   0.003125
     3  C   -0.004836  -0.141235   0.347387   0.344296  -0.042278  -0.029121
     4  C   -0.047925  -0.003459  -0.033706  -0.025060   0.366609   0.357718
     5  C    0.374684  -0.032010  -0.004832   0.003348  -0.034373  -0.026803
     6  C   -0.059836  -0.005606   0.003202   0.000068   0.006523  -0.006982
     7  C   -0.034440   0.004094   0.000036  -0.000086  -0.006239  -0.006126
     8  C    0.003950  -0.000116  -0.000018   0.000001  -0.000870   0.001569
     9  C   -0.000096   0.000001  -0.000000  -0.000000  -0.000054  -0.000061
    10  C   -0.000006   0.000000   0.000000  -0.000000  -0.000000  -0.000002
    11  C   -0.000001  -0.000000   0.000000   0.000000   0.000000  -0.000000
    12  C    0.000000   0.000000  -0.000000  -0.000000  -0.000000  -0.000000
    13  C    0.000000  -0.000000   0.000000  -0.000000  -0.000000   0.000000
    14  C   -0.000004  -0.000000   0.000000   0.000000   0.000000  -0.000000
    15  C    0.000219   0.000002  -0.000000  -0.000000  -0.000005   0.000000
    16  C   -0.015253   0.000295   0.000002   0.000001   0.000116  -0.000048
    17  C   -0.036257   0.003696  -0.000000  -0.000000  -0.000043  -0.000000
    18  C    0.371123  -0.037179  -0.000010   0.000011   0.000007  -0.000171
    19  C    5.029066   0.319659  -0.001448  -0.000072  -0.007598   0.005582
    20  C    0.319659   5.373317   0.003695   0.006806   0.000349  -0.000276
    21  H   -0.001448   0.003695   0.578308  -0.026683   0.005519  -0.006524
    22  H   -0.000072   0.006806  -0.026683   0.561312  -0.003904  -0.002102
    23  H   -0.007598   0.000349   0.005519  -0.003904   0.604124  -0.037194
    24  H    0.005582  -0.000276  -0.006524  -0.002102  -0.037194   0.596796
    25  H   -0.003966  -0.000141  -0.000103   0.000001  -0.000172  -0.000039
    26  H    0.005130  -0.000017   0.000306  -0.000035   0.000031   0.004795
    27  H   -0.006764   0.003088   0.002991  -0.000033  -0.000060  -0.000123
    28  H   -0.008022   0.000073   0.000002  -0.000005   0.007247  -0.000105
    29  H    0.000061   0.000002  -0.000002   0.000000   0.000095   0.000385
    30  H    0.000052  -0.000002   0.000009   0.000005   0.000874   0.003487
    31  H   -0.000003   0.000000  -0.000000   0.000000   0.000008   0.000006
    32  H    0.000001  -0.000000  -0.000000   0.000000   0.000000   0.000006
    33  H    0.000002   0.000000   0.000000  -0.000000  -0.000000  -0.000000
    34  H    0.000000   0.000000  -0.000000  -0.000000   0.000000   0.000000
    35  H    0.000000   0.000000  -0.000000   0.000000   0.000000   0.000000
    36  H    0.000000  -0.000000  -0.000000   0.000000   0.000000   0.000000
    37  H   -0.000000  -0.000000  -0.000000   0.000000   0.000000   0.000000
    38  H   -0.000000   0.000000   0.000000   0.000000  -0.000000  -0.000000
    39  H   -0.000000   0.000000  -0.000000   0.000000   0.000000   0.000000
    40  H   -0.000000  -0.000000   0.000000   0.000000  -0.000000  -0.000000
    41  H   -0.000001   0.000000  -0.000000   0.000000   0.000000  -0.000000
    42  H   -0.000049   0.000000  -0.000000  -0.000000  -0.000001  -0.000000
    43  H   -0.000750  -0.000003  -0.000000   0.000000   0.000005  -0.000002
    44  H   -0.005762   0.000030  -0.000000  -0.000000  -0.000003   0.000001
    45  H    0.004493  -0.000128  -0.000000   0.000000   0.000000  -0.000000
    46  H   -0.037915  -0.004392  -0.000005  -0.000000  -0.000002   0.000003
    47  H   -0.033356  -0.004367   0.000000  -0.000000  -0.000001   0.000003
    48  H    0.370426  -0.053796   0.000072  -0.000095   0.005430   0.000018
    49  H   -0.032306   0.341973  -0.000065  -0.000118   0.000040  -0.000003
    50  H   -0.026004   0.339590  -0.000118  -0.000181  -0.000042   0.000019
              25         26         27         28         29         30
     1  O    0.000000   0.000000  -0.000003   0.000000  -0.000000  -0.000000
     2  C    0.000051   0.000096  -0.001108  -0.000032   0.000000  -0.000006
     3  C   -0.000005  -0.000399   0.002555   0.000039  -0.000024  -0.000059
     4  C    0.005434  -0.005264  -0.005357  -0.008949  -0.000697   0.002761
     5  C   -0.029142  -0.029111  -0.029013  -0.041383  -0.006704  -0.005445
     6  C    0.367839   0.367721   0.364357   0.006650   0.002835  -0.000324
     7  C   -0.005444  -0.005245   0.004777   0.355587  -0.038229  -0.033152
     8  C   -0.000165   0.001418   0.000144  -0.049744   0.368391   0.363988
     9  C   -0.000018  -0.000055  -0.000001  -0.002374  -0.037451  -0.031222
    10  C    0.000003   0.000009  -0.000000  -0.001570  -0.006945   0.004349
    11  C   -0.000057  -0.000037   0.000001   0.000085   0.002620   0.000118
    12  C   -0.000000  -0.000000   0.000000  -0.000058  -0.000001  -0.000119
    13  C   -0.000000   0.000000   0.000000  -0.000002  -0.000001   0.000003
    14  C    0.000006   0.000000  -0.000000  -0.000002  -0.000013   0.000009
    15  C   -0.000092  -0.000016  -0.000001  -0.006614  -0.000547   0.000207
    16  C    0.001890   0.000099   0.000111  -0.049889  -0.005548   0.004667
    17  C   -0.000174   0.000010   0.000014  -0.006111   0.000013  -0.000129
    18  C    0.001301   0.000044  -0.000085  -0.000915  -0.000024  -0.000006
    19  C   -0.003966   0.005130  -0.006764  -0.008022   0.000061   0.000052
    20  C   -0.000141  -0.000017   0.003088   0.000073   0.000002  -0.000002
    21  H   -0.000103   0.000306   0.002991   0.000002  -0.000002   0.000009
    22  H    0.000001  -0.000035  -0.000033  -0.000005   0.000000   0.000005
    23  H   -0.000172   0.000031  -0.000060   0.007247   0.000095   0.000874
    24  H   -0.000039   0.004795  -0.000123  -0.000105   0.000385   0.003487
    25  H    0.564326  -0.030221  -0.030665   0.000025   0.000189   0.000038
    26  H   -0.030221   0.569391  -0.031043  -0.000008   0.003765   0.000236
    27  H   -0.030665  -0.031043   0.579376  -0.000150  -0.000071  -0.000033
    28  H    0.000025  -0.000008  -0.000150   0.665397   0.006351  -0.005652
    29  H    0.000189   0.003765  -0.000071   0.006351   0.606294  -0.038531
    30  H    0.000038   0.000236  -0.000033  -0.005652  -0.038531   0.605844
    31  H   -0.000000   0.000000   0.000000   0.004671   0.005675  -0.004751
    32  H    0.000000   0.000006  -0.000000  -0.000048  -0.004111  -0.002079
    33  H    0.000192   0.000014  -0.000001  -0.000014   0.003295  -0.000058
    34  H    0.000000   0.000001  -0.000000   0.000003   0.000439  -0.000036
    35  H   -0.000000   0.000000  -0.000000   0.000001  -0.000114   0.000000
    36  H   -0.000000  -0.000000   0.000000  -0.000005   0.000004  -0.000007
    37  H    0.000000   0.000000  -0.000000   0.000001   0.000001   0.000002
    38  H    0.000000  -0.000000  -0.000000   0.000000  -0.000000  -0.000000
    39  H    0.000000  -0.000000  -0.000000  -0.000000  -0.000000  -0.000000
    40  H   -0.000001   0.000000   0.000000   0.000010  -0.000004  -0.000000
    41  H   -0.000000   0.000000   0.000000  -0.000006   0.000000  -0.000000
    42  H    0.000001   0.000000   0.000000   0.007911   0.000131  -0.000109
    43  H    0.004753   0.000126  -0.000068   0.006877   0.002328  -0.000075
    44  H    0.000001   0.000001   0.000001   0.005433   0.000001  -0.000000
    45  H    0.000019  -0.000000  -0.000001  -0.000029   0.000002   0.000002
    46  H    0.002917  -0.000068   0.000273   0.000106  -0.000007   0.000000
    47  H   -0.000066   0.000001  -0.000030  -0.000054   0.000000  -0.000000
    48  H   -0.000043  -0.000147   0.000016   0.007323   0.000003  -0.000011
    49  H    0.000091  -0.000109   0.004495  -0.000000  -0.000001   0.000000
    50  H   -0.000023   0.000002  -0.000075  -0.000001   0.000000   0.000000
              31         32         33         34         35         36
     1  O   -0.000000   0.000000   0.000000   0.000000   0.000000   0.000000
     2  C   -0.000000  -0.000000   0.000000   0.000000  -0.000000  -0.000000
     3  C   -0.000000  -0.000000  -0.000000   0.000000   0.000000  -0.000000
     4  C   -0.000024  -0.000001   0.000003  -0.000000   0.000000  -0.000000
     5  C    0.000011  -0.000098  -0.000051  -0.000001  -0.000001   0.000000
     6  C    0.000002   0.000001   0.000128  -0.000000   0.000000  -0.000000
     7  C   -0.005071   0.004155   0.000084   0.000060   0.000037  -0.000027
     8  C   -0.038285  -0.033936   0.001565  -0.000309   0.000059   0.000121
     9  C    0.361791   0.358935  -0.004581  -0.005114   0.005277  -0.007365
    10  C   -0.033910  -0.032903  -0.029042  -0.028435  -0.030119  -0.033066
    11  C    0.006510  -0.006936   0.365669   0.364891   0.369247   0.006320
    12  C   -0.007494  -0.002845   0.005721  -0.005383  -0.006016   0.363305
    13  C    0.000143  -0.000096  -0.000183  -0.000251   0.003133  -0.032774
    14  C    0.000048  -0.000228  -0.000120  -0.000082   0.002724   0.000657
    15  C   -0.007396   0.006021  -0.005261   0.005338  -0.005308  -0.004115
    16  C   -0.000573   0.000039   0.001339   0.000110  -0.000156  -0.000010
    17  C   -0.000025   0.000008  -0.000105  -0.000000  -0.000025   0.000003
    18  C    0.000000  -0.000000   0.000008  -0.000000   0.000000  -0.000000
    19  C   -0.000003   0.000001   0.000002   0.000000   0.000000   0.000000
    20  C    0.000000  -0.000000   0.000000   0.000000   0.000000  -0.000000
    21  H   -0.000000  -0.000000   0.000000  -0.000000  -0.000000  -0.000000
    22  H    0.000000   0.000000  -0.000000  -0.000000   0.000000   0.000000
    23  H    0.000008   0.000000  -0.000000   0.000000   0.000000   0.000000
    24  H    0.000006   0.000006  -0.000000   0.000000   0.000000   0.000000
    25  H   -0.000000   0.000000   0.000192   0.000000  -0.000000  -0.000000
    26  H    0.000000   0.000006   0.000014   0.000001   0.000000  -0.000000
    27  H    0.000000  -0.000000  -0.000001  -0.000000  -0.000000   0.000000
    28  H    0.004671  -0.000048  -0.000014   0.000003   0.000001  -0.000005
    29  H    0.005675  -0.004111   0.003295   0.000439  -0.000114   0.000004
    30  H   -0.004751  -0.002079  -0.000058  -0.000036   0.000000  -0.000007
    31  H    0.619767  -0.036864  -0.000060   0.000003  -0.000176   0.006953
    32  H   -0.036864   0.619638  -0.000191   0.005175  -0.000029  -0.000105
    33  H   -0.000060  -0.000191   0.575321  -0.031283  -0.031137  -0.000197
    34  H    0.000003   0.005175  -0.031283   0.580480  -0.030403  -0.000043
    35  H   -0.000176  -0.000029  -0.031137  -0.030403   0.574868   0.000063
    36  H    0.006953  -0.000105  -0.000197  -0.000043   0.000063   0.610411
    37  H   -0.000208   0.001454   0.000061   0.004336   0.000156  -0.037156
    38  H   -0.000019   0.000002   0.000002  -0.000002  -0.000058  -0.009141
    39  H    0.000000   0.000000  -0.000035   0.000029   0.000899   0.004620
    40  H   -0.000005   0.000004   0.000202  -0.000043   0.001568  -0.000153
    41  H   -0.000001   0.000003  -0.000012  -0.000000  -0.000046   0.000036
    42  H    0.006064   0.000000  -0.000040  -0.000158  -0.000024   0.003461
    43  H    0.000060  -0.000003   0.003903  -0.000075   0.000285  -0.000006
    44  H   -0.000006   0.000000  -0.000000   0.000000   0.000000  -0.000001
    45  H    0.000001  -0.000000   0.000002  -0.000000  -0.000002  -0.000000
    46  H   -0.000000  -0.000000  -0.000004   0.000000   0.000000   0.000000
    47  H   -0.000000   0.000000  -0.000000   0.000000  -0.000000   0.000000
    48  H   -0.000000   0.000000  -0.000000   0.000000   0.000000   0.000000
    49  H   -0.000000  -0.000000   0.000000  -0.000000  -0.000000  -0.000000
    50  H    0.000000   0.000000  -0.000000   0.000000  -0.000000   0.000000
              37         38         39         40         41         42
     1  O    0.000000   0.000000   0.000000  -0.000000  -0.000000  -0.000000
     2  C    0.000000   0.000000  -0.000000   0.000000   0.000000   0.000000
     3  C   -0.000000  -0.000000  -0.000000   0.000000   0.000000   0.000000
     4  C    0.000000   0.000000   0.000000   0.000000  -0.000000  -0.000011
     5  C   -0.000000  -0.000000  -0.000000   0.000002   0.000001   0.000144
     6  C   -0.000000  -0.000000  -0.000000  -0.000002   0.000000  -0.000002
     7  C   -0.000003   0.000003   0.000002   0.000054  -0.000076  -0.009097
     8  C   -0.000103   0.000003   0.000004  -0.000029  -0.000006  -0.001593
     9  C    0.000462  -0.000129  -0.000074   0.000010  -0.000200  -0.006922
    10  C   -0.029025   0.002587   0.000751  -0.005782   0.005353  -0.051472
    11  C   -0.007485   0.000117   0.000795   0.002086   0.000172   0.007020
    12  C    0.360115  -0.028419  -0.032645   0.002192   0.003700  -0.004258
    13  C   -0.031510   0.371221   0.372741  -0.033876  -0.031267  -0.000987
    14  C    0.004440  -0.030281  -0.030398   0.371353   0.365602  -0.048973
    15  C    0.006095   0.001878   0.002575  -0.037604  -0.024323   0.363215
    16  C   -0.000166  -0.000075  -0.000128  -0.004552  -0.001291  -0.047215
    17  C    0.000002  -0.000006   0.000003  -0.001060   0.001968  -0.007504
    18  C   -0.000000  -0.000000   0.000000  -0.000028  -0.000013   0.000013
    19  C   -0.000000  -0.000000  -0.000000  -0.000000  -0.000001  -0.000049
    20  C   -0.000000   0.000000   0.000000  -0.000000   0.000000   0.000000
    21  H   -0.000000   0.000000  -0.000000   0.000000  -0.000000  -0.000000
    22  H    0.000000   0.000000   0.000000   0.000000   0.000000  -0.000000
    23  H    0.000000  -0.000000   0.000000  -0.000000   0.000000  -0.000001
    24  H    0.000000  -0.000000   0.000000  -0.000000  -0.000000  -0.000000
    25  H    0.000000   0.000000   0.000000  -0.000001  -0.000000   0.000001
    26  H    0.000000  -0.000000  -0.000000   0.000000   0.000000   0.000000
    27  H   -0.000000  -0.000000  -0.000000   0.000000   0.000000   0.000000
    28  H    0.000001   0.000000  -0.000000   0.000010  -0.000006   0.007911
    29  H    0.000001  -0.000000  -0.000000  -0.000004   0.000000   0.000131
    30  H    0.000002  -0.000000  -0.000000  -0.000000  -0.000000  -0.000109
    31  H   -0.000208  -0.000019   0.000000  -0.000005  -0.000001   0.006064
    32  H    0.001454   0.000002   0.000000   0.000004   0.000003   0.000000
    33  H    0.000061   0.000002  -0.000035   0.000202  -0.000012  -0.000040
    34  H    0.004336  -0.000002   0.000029  -0.000043  -0.000000  -0.000158
    35  H    0.000156  -0.000058   0.000899   0.001568  -0.000046  -0.000024
    36  H   -0.037156  -0.009141   0.004620  -0.000153   0.000036   0.003461
    37  H    0.604202   0.003037  -0.007317  -0.000076  -0.000094  -0.000010
    38  H    0.003037   0.593527  -0.038187   0.004356  -0.007650   0.000610
    39  H   -0.007317  -0.038187   0.596236  -0.010224   0.003589  -0.000078
    40  H   -0.000076   0.004356  -0.010224   0.606959  -0.039363   0.006227
    41  H   -0.000094  -0.007650   0.003589  -0.039363   0.595065  -0.007121
    42  H   -0.000010   0.000610  -0.000078   0.006227  -0.007121   0.668017
    43  H    0.000003   0.000003  -0.000006   0.004441  -0.000181   0.007286
    44  H    0.000000   0.000000   0.000000   0.000149   0.000606   0.006570
    45  H   -0.000000   0.000003   0.000001   0.001087   0.000406  -0.000139
    46  H    0.000000   0.000000  -0.000000   0.000001   0.000003   0.000004
    47  H    0.000000   0.000000   0.000000   0.000001   0.000001   0.000000
    48  H    0.000000   0.000000   0.000000  -0.000000   0.000000  -0.000014
    49  H   -0.000000   0.000000  -0.000000  -0.000000  -0.000000  -0.000000
    50  H    0.000000  -0.000000   0.000000   0.000000   0.000000   0.000000
              43         44         45         46         47         48
     1  O   -0.000000  -0.000000  -0.000000   0.000000  -0.000002   0.000499
     2  C   -0.000000  -0.000000   0.000001   0.000008   0.000021  -0.001091
     3  C    0.000001   0.000001  -0.000000  -0.000004  -0.000011   0.000313
     4  C   -0.000016  -0.000060   0.000008   0.000062  -0.000148  -0.007375
     5  C   -0.006269  -0.000891   0.000141  -0.009497   0.004939  -0.046787
     6  C    0.001437   0.000051  -0.000011   0.003137   0.000014   0.006809
     7  C   -0.045857  -0.006793   0.004643  -0.000520   0.000091  -0.007221
     8  C   -0.005190  -0.000011  -0.000142  -0.000006   0.000008   0.000045
     9  C    0.000152  -0.000020  -0.000007  -0.000000  -0.000000  -0.000003
    10  C   -0.009733   0.000033  -0.000023   0.000004   0.000001   0.000001
    11  C    0.003118   0.000003  -0.000006  -0.000001   0.000000  -0.000000
    12  C    0.000158  -0.000002  -0.000003  -0.000000  -0.000000  -0.000000
    13  C   -0.000039  -0.000031  -0.000011  -0.000000  -0.000000  -0.000000
    14  C   -0.004411  -0.001017   0.004245  -0.000011  -0.000001  -0.000000
    15  C   -0.043190  -0.005771  -0.006400   0.000036  -0.000114  -0.000033
    16  C    0.362602  -0.041405  -0.029589  -0.005026   0.004292  -0.001961
    17  C   -0.047716   0.367765   0.362926  -0.035548  -0.030810  -0.002528
    18  C   -0.002611  -0.039802  -0.031746   0.367405   0.364004  -0.051182
    19  C   -0.000750  -0.005762   0.004493  -0.037915  -0.033356   0.370426
    20  C   -0.000003   0.000030  -0.000128  -0.004392  -0.004367  -0.053796
    21  H   -0.000000  -0.000000  -0.000000  -0.000005   0.000000   0.000072
    22  H    0.000000  -0.000000   0.000000  -0.000000  -0.000000  -0.000095
    23  H    0.000005  -0.000003   0.000000  -0.000002  -0.000001   0.005430
    24  H   -0.000002   0.000001  -0.000000   0.000003   0.000003   0.000018
    25  H    0.004753   0.000001   0.000019   0.002917  -0.000066  -0.000043
    26  H    0.000126   0.000001  -0.000000  -0.000068   0.000001  -0.000147
    27  H   -0.000068   0.000001  -0.000001   0.000273  -0.000030   0.000016
    28  H    0.006877   0.005433  -0.000029   0.000106  -0.000054   0.007323
    29  H    0.002328   0.000001   0.000002  -0.000007   0.000000   0.000003
    30  H   -0.000075  -0.000000   0.000002   0.000000  -0.000000  -0.000011
    31  H    0.000060  -0.000006   0.000001  -0.000000  -0.000000  -0.000000
    32  H   -0.000003   0.000000  -0.000000  -0.000000   0.000000   0.000000
    33  H    0.003903  -0.000000   0.000002  -0.000004  -0.000000  -0.000000
    34  H   -0.000075   0.000000  -0.000000   0.000000   0.000000   0.000000
    35  H    0.000285   0.000000  -0.000002   0.000000  -0.000000   0.000000
    36  H   -0.000006  -0.000001  -0.000000   0.000000   0.000000   0.000000
    37  H    0.000003   0.000000  -0.000000   0.000000   0.000000   0.000000
    38  H    0.000003   0.000000   0.000003   0.000000   0.000000   0.000000
    39  H   -0.000006   0.000000   0.000001  -0.000000   0.000000   0.000000
    40  H    0.004441   0.000149   0.001087   0.000001   0.000001  -0.000000
    41  H   -0.000181   0.000606   0.000406   0.000003   0.000001   0.000000
    42  H    0.007286   0.006570  -0.000139   0.000004   0.000000  -0.000014
    43  H    0.646897   0.006496  -0.004838   0.002947  -0.000071   0.000126
    44  H    0.006496   0.619862  -0.037163   0.005746  -0.004935   0.005557
    45  H   -0.004838  -0.037163   0.602566  -0.004284  -0.002016   0.000004
    46  H    0.002947   0.005746  -0.004284   0.611974  -0.038080   0.006394
    47  H   -0.000071  -0.004935  -0.002016  -0.038080   0.607714  -0.004616
    48  H    0.000126   0.005557   0.000004   0.006394  -0.004616   0.647971
    49  H   -0.000009   0.000004   0.000001   0.004278  -0.000405   0.006311
    50  H    0.000000   0.000000  -0.000005  -0.000253   0.005062  -0.003717
              49         50
     1  O    0.001285   0.004659
     2  C   -0.025697  -0.023550
     3  C    0.002999   0.006889
     4  C   -0.000885  -0.000278
     5  C   -0.007444   0.003851
     6  C    0.002519   0.000115
     7  C    0.000027  -0.000094
     8  C    0.000001   0.000001
     9  C    0.000000  -0.000000
    10  C    0.000000  -0.000000
    11  C    0.000000   0.000000
    12  C    0.000000  -0.000000
    13  C   -0.000000  -0.000000
    14  C   -0.000000  -0.000000
    15  C    0.000000  -0.000000
    16  C   -0.000021  -0.000004
    17  C    0.000084   0.000048
    18  C   -0.006440  -0.004139
    19  C   -0.032306  -0.026004
    20  C    0.341973   0.339590
    21  H   -0.000065  -0.000118
    22  H   -0.000118  -0.000181
    23  H    0.000040  -0.000042
    24  H   -0.000003   0.000019
    25  H    0.000091  -0.000023
    26  H   -0.000109   0.000002
    27  H    0.004495  -0.000075
    28  H   -0.000000  -0.000001
    29  H   -0.000001   0.000000
    30  H    0.000000   0.000000
    31  H   -0.000000   0.000000
    32  H   -0.000000   0.000000
    33  H    0.000000  -0.000000
    34  H   -0.000000   0.000000
    35  H   -0.000000  -0.000000
    36  H   -0.000000   0.000000
    37  H   -0.000000   0.000000
    38  H    0.000000  -0.000000
    39  H   -0.000000   0.000000
    40  H   -0.000000   0.000000
    41  H   -0.000000   0.000000
    42  H   -0.000000   0.000000
    43  H   -0.000009   0.000000
    44  H    0.000004   0.000000
    45  H    0.000001  -0.000005
    46  H    0.004278  -0.000253
    47  H   -0.000405   0.005062
    48  H    0.006311  -0.003717
    49  H    0.582814  -0.027273
    50  H   -0.027273   0.566279
 Mulliken charges:
               1
     1  O   -0.451244
     2  C    0.453472
     3  C   -0.355613
     4  C   -0.289175
     5  C    0.100998
     6  C   -0.484668
     7  C   -0.094037
     8  C   -0.291471
     9  C   -0.273133
    10  C    0.101851
    11  C   -0.471576
    12  C   -0.277287
    13  C   -0.281022
    14  C   -0.285747
    15  C   -0.088338
    16  C   -0.098071
    17  C   -0.272617
    18  C   -0.268658
    19  C   -0.104508
    20  C   -0.355949
    21  H    0.158179
    22  H    0.162552
    23  H    0.138024
    24  H    0.142241
    25  H    0.151458
    26  H    0.148573
    27  H    0.142486
    28  H    0.107953
    29  H    0.136149
    30  H    0.135152
    31  H    0.123158
    32  H    0.125023
    33  H    0.144863
    34  H    0.140754
    35  H    0.145297
    36  H    0.128217
    37  H    0.128784
    38  H    0.136617
    39  H    0.136848
    40  H    0.132100
    41  H    0.135144
    42  H    0.109099
    43  H    0.117118
    44  H    0.125361
    45  H    0.135991
    46  H    0.130324
    47  H    0.132933
    48  H    0.123301
    49  H    0.153854
    50  H    0.159241
 Sum of Mulliken charges =  -0.00000
 Mulliken charges with hydrogens summed into heavy atoms:
               1
     1  O   -0.451244
     2  C    0.453472
     3  C   -0.034883
     4  C   -0.008911
     5  C    0.100998
     6  C   -0.042150
     7  C    0.013916
     8  C   -0.020171
     9  C   -0.024952
    10  C    0.101851
    11  C   -0.040663
    12  C   -0.020286
    13  C   -0.007558
    14  C   -0.018503
[...]
 8,-0.00002031,-0.00002029,-0.00008410,-0.00000101,-0.00001588,0.000011
 51,0.00002126,0.00003696,0.00002645,0.00000235,0.00000693,-0.00001297,
 -0.00003867,-0.00001329,-0.00003111,0.00000721,-0.00000567,-0.00001425
 ,-0.00000324,-0.00000617,-0.00000120,-0.00001210,0.00001120,-0.0000011
 6,0.00000410,-0.00000150,-0.00000052,-0.00000921,-0.00000083,-0.000006
 86,-0.00000418,0.00000738,-0.00001487,-0.00001283,0.00000103,-0.000004
 39,-0.00000189,0.00000541,0.00000189,0.00000015,0.00001180,0.00000108,
 -0.00000110,-0.00001350,-0.00001006,-0.00005030,-0.00003739,0.00006514
 ,0.00000839,0.00014562,-0.00039160,-0.00022557,0.00048076,-0.00042950,
 0.00319412,0.00402587,0.00023675,0.13451058,0.21155526,0.00002753,-0.0
 0004213,-0.00002424,-0.00013448,-0.00002955,-0.00004745,0.00009985,-0.
 00006982,0.00004076,0.00013410,0.00014348,0.00017139,-0.00007618,0.000
 19523,0.00014292,0.00037909,-0.00004950,0.00014539,-0.00007848,0.00044
 964,-0.00005363,0.00013130,-0.00003164,0.00002584,-0.00004132,0.000085
 67,0.00001959,-0.00013812,0.00018582,-0.00048786,0.00002833,-0.0000206
 9,-0.00005855,-0.00012327,-0.00014772,0.00004101,-0.00000465,0.0000084
 7,0.00000321,0.00006005,-0.00013194,0.00004818,-0.00088757,-0.00129693
 ,0.00070651,-0.00253909,0.00166553,-0.00420691,-0.01828655,-0.02146716
 ,0.00198811,0.02008449,0.02153639,-0.05277869,0.00051123,-0.00047477,-
 0.00089625,0.00052803,0.00063105,0.00002703,0.00001150,-0.00001705,0.0
 0001354,-0.00002095,-0.00003303,0.00000811,-0.00005572,0.00002677,0.00
 000628,-0.00006660,0.00003100,-0.00000223,-0.00045320,0.00007752,0.000
 09527,-0.00017394,0.00017820,0.00004513,-0.00002786,-0.00003142,0.0000
 0519,0.00006684,-0.00003563,-0.00000136,-0.00003675,-0.00000516,0.0000
 0875,-0.00001933,-0.00006551,-0.00000408,0.00001108,-0.00000356,0.0000
 0180,0.00001150,-0.00003707,0.00000868,0.00001433,0.00001365,0.0000042
 7,-0.00002532,-0.00001231,0.00001058,-0.00000309,0.00000698,0.00000173
 ,0.00000568,-0.00000223,-0.00000947,-0.00005382,0.00000858,-0.00007282
 ,-0.00000964,0.00000572,-0.00001963,-0.00001911,0.00000072,-0.00000976
 ,-0.00000945,0.00001753,0.00000634,0.00000147,0.00004377,-0.00002079,0
 .00008545,-0.00001143,-0.00002830,-0.00028178,-0.00000271,0.00019330,0
 .00071216,-0.00034750,0.00106913,0.00069823,0.00037616,0.00082127,0.01
 889600,0.02222017,-0.00321921,-0.01812931,-0.02360127,0.05597479,-0.00
 008600,-0.00034149,0.00026345,0.00163235,-0.00035990,-0.00052053,0.000
 00400,-0.00007748,-0.00009492,0.00041893,0.00140722,0.00006412,-0.0119
 2418,-0.00058379,0.01895079,-0.00168669,-0.00384087,-0.00128109,-0.000
 21532,0.00033532,0.00208332,0.00020661,-0.00008907,-0.00033581,0.00000
 198,0.00000446,-0.00001499,-0.00001445,-0.00000339,-0.00002606,0.00001
 851,0.00000573,0.00002651,-0.00000353,-0.00000089,-0.00000291,-0.00000
 725,-0.00000111,-0.00000363,-0.00000474,-0.00000649,-0.00000868,-0.000
 06385,0.00001179,0.00004953,-0.00021627,0.00002259,-0.00032384,0.00021
 102,-0.00046419,0.00148559,-0.00969729,0.00388427,0.01601106,-0.097805
 22,0.01016871,0.09639697,0.00840689,-0.00197396,-0.02404416,-0.0000910
 7,-0.00002365,-0.00003078,0.00006879,0.00003627,0.00004075,0.00063698,
 -0.00032131,-0.00042290,-0.00000805,0.00012901,-0.00035073,0.00011801,
 0.00018949,-0.00013036,-0.00067458,-0.00012807,0.00128400,0.00014974,-
 0.00000754,0.00005061,-0.00011200,-0.00043928,-0.00109560,0.00020609,0
 .00016130,-0.00000148,-0.00001250,0.00000796,0.00001613,-0.00001337,-0
 .00001304,-0.00004330,0.00000972,0.00000502,0.00000457,-0.00000010,0.0
 0000071,-0.00000077,0.00000459,0.00000385,-0.00000520,0.00000156,-0.00
 000393,-0.00000271,-0.00000010,-0.00000177,-0.00000905,0.00000542,0.00
 000165,0.00000094,-0.00000141,0.00000110,-0.00000109,0.00000658,-0.000
 00036,-0.00000004,0.00001399,-0.00000816,-0.00000275,-0.00000491,0.000
 00985,-0.00000435,0.00000318,-0.00001271,-0.00009256,0.00030028,-0.000
 04644,-0.00006137,-0.00009001,0.00019912,-0.00088662,0.00036914,-0.000
 07419,-0.00024005,-0.00110896,0.00338912,-0.00034448,0.00071448,-0.000
 09545,-0.00054368,0.11251367,-0.00022863,0.00006617,-0.00002725,-0.000
 04107,-0.00003278,0.00067435,0.00022734,-0.00008339,-0.00022408,-0.000
 92015,0.00077065,0.00146930,-0.01402120,-0.00104687,0.02309858,-0.0026
 4518,-0.00441851,-0.00087784,0.00031975,0.00072156,0.00119789,0.000195
 78,-0.00007075,0.00003033,0.00004508,0.00003096,-0.00005153,0.00000023
 ,-0.00000881,0.00002713,0.00000552,-0.00000272,0.00001773,0.00000944,0
 .00000548,-0.00000489,-0.00000159,0.00000047,0.00000085,0.00000239,0.0
 0000653,-0.00002005,0.00003370,0.00010593,-0.00002410,-0.00000622,-0.0
 0012405,0.00006104,-0.00070405,0.00122226,-0.00123980,0.01657993,-0.00
 623361,-0.02669244,0.01085383,-0.05063948,-0.01977780,-0.00019238,0.00
 041958,-0.00020532,-0.00007685,0.00010476,-0.00014211,0.00005499,-0.00
 000705,0.00001587,0.00007952,-0.00054478,-0.00043678,0.00003221,0.0003
 7190,-0.00023083,-0.00016380,0.00009100,-0.00007228,-0.00098680,0.0000
 4620,0.00148652,0.00032840,0.00004309,-0.00005751,0.00001939,0.0000424
 0,-0.00057490,0.00011271,0.00006535,0.00001565,-0.00002407,-0.00002691
 ,0.00000324,-0.00001326,-0.00000077,-0.00002056,0.00000711,0.00000177,
 0.00001992,0.00000238,-0.00000709,-0.00000214,0.00000004,0.00000251,-0
 .00000051,-0.00000379,0.00000102,-0.00000747,-0.00000068,0.00000214,-0
 .00000098,0.00000286,0.00000008,0.00000446,0.00000192,-0.00000013,0.00
 000234,-0.00000083,-0.00000108,0.00000019,-0.00000646,-0.00000057,0.00
 000378,-0.00000037,-0.00000454,0.00000202,-0.00000012,0.00001539,0.000
 00672,-0.00004179,-0.00015475,0.00000079,-0.00001239,0.00005400,0.0009
 3561,-0.00053669,0.00000710,0.00004509,0.00351617,-0.00500233,0.000226
 54,-0.00075083,0.00103374,-0.00015048,-0.01127885,0.06240944,-0.001359
 81,0.00041219,0.00042960,0.00213200,-0.00159514,-0.00085536,-0.0002253
 7,0.00047033,-0.00034961,0.00002608,-0.00086940,-0.00029972,0.00346397
 ,0.00037228,-0.00567854,0.00021944,0.00118200,0.00122087,-0.00118995,-
 0.00092101,-0.00011177,-0.00010210,0.00017073,0.00046747,0.00001158,0.
 00003720,-0.00000871,0.00001018,-0.00001684,0.00002505,-0.00001149,0.0
 0000664,-0.00001570,0.00001032,0.00000719,-0.00000318,0.00000264,-0.00
 000241,-0.00000394,0.00000948,0.00001769,0.00000857,0.00003346,-0.0000
 0277,-0.00006237,0.00013905,-0.00005670,0.00018122,-0.00077922,0.00063
 981,0.00055659,0.00087581,-0.00064087,-0.00119723,0.09716205,-0.019508
 79,-0.23583834,0.00686281,-0.00091144,-0.02306955,0.00003868,-0.000083
 49,0.00015897,0.00000353,0.00013359,-0.00002777,-0.00034191,0.00057610
 ,0.00064786,-0.00021388,0.00008150,0.00043040,0.00000610,-0.00002432,-
 0.00008097,0.00025410,0.00000264,-0.00035418,-0.00014788,-0.00015426,0
 .00016179,-0.00019722,-0.00029303,0.00098915,-0.00020818,-0.00015562,0
 .00002607,0.00001889,0.00002367,-0.00001052,0.00000623,0.00000724,0.00
 002311,0.00001328,0.00000292,0.00000700,0.00000255,-0.00000462,0.00000
 252,0.00000208,0.00000006,0.00000408,-0.00000297,0.00000254,-0.0000001
 3,-0.00000182,0.00000233,0.00000801,0.00000075,0.00000027,0.00000320,0
 .00000292,-0.00000121,0.00000577,-0.00000048,0.00000189,0.00000246,-0.
 00000811,0.00000359,0.00000400,-0.00000050,-0.00000305,-0.00000280,-0.
 00000479,0.00000168,0.00004038,-0.00011453,0.00000889,-0.00006202,0.00
 032324,0.00008471,0.00069965,-0.00011200,-0.00005185,0.00032704,-0.000
 58058,-0.00007920,0.00107388,-0.00011469,-0.00048631,0.00024100,-0.102
 14184,0.02191455,0.26186921,-0.00100605,0.00343432,-0.00340481,-0.0106
 0814,0.00032542,0.01769871,0.00035848,0.00010393,-0.00135919,-0.000218
 86,-0.00034831,-0.00014313,0.00133741,-0.00015726,0.00063456,-0.000905
 04,-0.00060043,-0.00005752,-0.00001534,0.00026601,-0.00021520,-0.00005
 216,-0.00006920,0.00017914,0.00001315,0.00003500,-0.00000827,-0.000007
 58,-0.00000243,0.00000866,-0.00000395,0.00000119,-0.00000747,0.0000032
 7,0.00000071,-0.00000435,-0.00000136,-0.00000158,-0.00000243,0.0000012
 1,0.00000904,0.00000881,0.00000100,0.00000199,-0.00002026,0.00002739,-
 0.00001308,0.00004438,0.00007183,-0.00027571,-0.00021146,0.00181376,-0
 .00055323,0.00011283,0.01025205,-0.00305447,-0.02422725,-0.08412751,0.
 01198080,0.09766145,0.00035928,0.00042592,-0.00010695,-0.00010135,-0.0
 0009204,-0.00023203,-0.00007159,0.00005407,0.00003100,-0.00001360,-0.0
 0001067,-0.00002646,-0.00013195,0.00000642,0.00001572,0.00011243,0.000
 09970,0.00002327,-0.00144400,-0.00124542,0.00023790,-0.00000602,0.0000
 0971,0.00022205,-0.00004306,-0.00003614,-0.00003082,-0.00000013,0.0000
 1378,-0.00000586,0.00000152,-0.00000006,0.00000562,0.00001597,0.000004
 87,0.00001111,-0.00000320,-0.00000106,0.00000645,0.00000347,0.00000361
 ,0.00000266,0.00000188,-0.00000326,0.00000104,-0.00000123,0.00000032,0
 .00000119,0.00000509,0.00000218,0.00000259,0.00000086,-0.00000170,0.00
 000496,0.00000535,0.00000024,0.00000105,-0.00000179,0.00000035,-0.0000
 0097,-0.00000018,0.00000032,-0.00000266,0.00000265,0.00000180,0.000013
 90,-0.00003582,0.00000740,0.00000038,-0.00007771,0.00003933,0.00016661
 ,0.00001079,0.00000893,0.00014005,-0.00011510,0.00011721,0.00046561,-0
 .00010552,0.00008876,0.00010489,-0.00333735,-0.00007791,-0.00379850,0.
 09572047,0.00238717,-0.00251380,0.00348541,0.01119186,0.00087876,-0.02
 901684,-0.00135471,-0.00045532,0.00358646,0.00038588,0.00018084,0.0000
 5472,0.00045795,-0.00005258,-0.00068319,-0.00077913,0.00006005,-0.0006
 8216,-0.00014866,0.00006233,0.00003793,0.00001871,-0.00005131,0.000009
 39,-0.00001427,0.00001431,-0.00000384,-0.00000731,0.00001082,-0.000006
 35,-0.00000597,-0.00000318,-0.00001359,-0.00000469,-0.00000697,-0.0000
 0380,0.00000365,-0.00000258,0.00000337,0.00000446,0.00000949,0.0000056
 3,-0.00001753,-0.00003919,0.00000669,0.00000389,0.00006759,-0.00004633
 ,0.00001229,-0.00004890,0.00006515,-0.00070221,0.00032310,0.00080322,-
 0.00065699,0.00033448,-0.00033300,0.01343358,-0.05494566,-0.03299519,-
 0.00036209,-0.00151287,-0.00003265,0.00011073,0.00036749,0.00039721,-0
 .00002340,0.00007479,0.00005979,0.00003934,-0.00002047,0.00000685,0.00
 016084,0.00000333,0.00009218,0.00023743,0.00000016,0.00014374,-0.00105
 779,-0.00064703,0.00052748,0.00002284,-0.00001425,0.00008445,-0.000034
 89,-0.00001005,-0.00000172,-0.00000459,0.00000078,-0.00000041,0.000004
 22,-0.00000318,0.00000971,0.00001221,0.00000080,0.00000592,-0.00000398
 ,0.00000339,0.00000808,0.00000030,0.00000111,0.00000247,0.00000618,-0.
 00000429,0.00000282,-0.00000063,-0.00000079,0.00000049,0.00000170,-0.0
 0000047,-0.00000089,-0.00000008,-0.00000286,0.00000297,0.00000269,-0.0
 0000076,-0.00000013,0.00000430,-0.00000001,-0.00000280,-0.00000157,-0.
 00000672,0.00000621,0.00000318,-0.00000008,0.00000315,-0.00001807,0.00
 001250,-0.00000223,0.00003623,-0.00005425,-0.00005952,0.00000074,-0.00
 001793,-0.00001574,0.00015543,0.00028883,-0.00013825,-0.00008449,-0.00
 003591,0.00009717,0.00025074,0.00070269,0.00008878,-0.01390335,0.05268
 597,-0.00078297,-0.00056774,-0.00083429,0.00057549,-0.00008746,0.00144
 350,0.00057911,-0.00007153,-0.00063775,-0.00029719,-0.00002946,-0.0000
 8773,0.00128362,0.00083799,-0.00015885,0.00012438,0.00054306,-0.000368
 29,-0.00003210,-0.00010540,-0.00021471,0.00000381,0.00005337,0.0000363
 8,-0.00003294,-0.00001379,0.00002298,0.00000969,0.00000109,-0.00000416
 ,-0.00000907,-0.00000149,-0.00001487,-0.00000250,0.00000075,0.00000245
 ,0.00000154,0.00000243,0.00000036,-0.00000058,-0.00000297,-0.00000896,
 -0.00000548,0.00000840,0.00000830,0.00012818,-0.00003430,0.00000705,-0
 .00024807,-0.00006947,0.00015564,0.00150291,-0.00076494,0.00105375,0.0
 0826600,-0.00312794,-0.02433404,0.09340154,-0.02744937,-0.25045868,-0.
 00007239,0.00004386,0.00039464,-0.00002757,-0.00019414,0.00015528,-0.0
 0001890,0.00013678,0.00014746,0.00000214,-0.00008946,0.00003231,-0.000
 01973,-0.00002499,0.00003245,0.00019746,0.00004479,0.00048712,0.000571
 42,-0.00004985,0.00103477,-0.00007429,0.00000420,0.00028673,-0.0000890
 3,-0.00005478,0.00004799,0.00000164,0.00000178,-0.00000106,0.00000778,
 0.00000378,0.00001965,-0.00001121,-0.00000360,-0.00000980,0.00000164,-
 0.00000061,0.00000151,-0.00000195,-0.00000231,0.00000257,-0.00000051,0
 .00000235,0.00000103,0.00000008,0.00000038,0.00000450,-0.00000381,-0.0
 0000137,-0.00000206,0.00000011,-0.00000057,0.00000009,-0.00000481,0.00
 000014,-0.00000092,-0.00000385,0.00000362,0.00000225,0.,-0.00000292,0.
 00000269,0.00000013,0.00000198,0.00002785,-0.00008515,0.00002317,0.000
 03231,0.00011439,-0.00003792,0.00029005,-0.00008798,0.00003019,0.00003
 214,-0.00078206,0.00073115,0.00037765,-0.00007207,0.00004198,-0.000056
 79,-0.00446808,-0.00005853,-0.00242505,-0.10169091,0.03076243,0.278301
 79,0.00173117,-0.00116051,0.00018413,0.01136943,0.01548483,-0.00378861
 ,-0.00204593,0.00268987,0.00055076,-0.00027928,0.00022644,-0.00007261,
 -0.00189500,0.00201063,-0.00362935,0.00032214,-0.00003692,-0.00030979,
 -0.00048967,-0.00137822,0.00056737,-0.00025238,0.00030552,-0.00049131,
 -0.00005273,-0.00019890,0.00008687,0.00004433,-0.00005577,0.00002882,0
 .00000382,0.00001484,0.00001318,0.00001107,0.00002872,0.00001426,-0.00
 001015,0.00000886,-0.00001129,-0.00001942,-0.00002344,-0.00001942,0.00
 004349,0.00015302,-0.00000666,0.00014857,-0.00027650,0.00019949,0.0002
 2466,0.00031400,-0.00025458,0.00027481,-0.00151322,0.00085393,-0.01460
 215,-0.01717072,0.00471374,-0.15137246,-0.12843473,0.02893784,-0.00009
 737,-0.00010305,-0.00002018,0.00056701,0.00087972,0.00009865,0.0000572
 7,-0.00004521,0.00000556,0.00007011,-0.00011812,0.00003063,-0.00008343
 ,0.00001967,0.00001947,-0.00008513,-0.00002979,0.00000336,0.00004656,0
 .00013531,-0.00013993,0.00002819,0.00000912,-0.00007077,0.00001147,0.0
 0000294,0.00002259,0.00002429,-0.00000947,0.00000263,0.00000207,0.0000
 0800,-0.00001685,-0.00007325,-0.00000082,-0.00007082,0.00000862,-0.000
 00827,-0.00001555,0.00000303,-0.00000276,-0.00000419,-0.00001526,0.000
 01068,-0.00000071,0.00000166,-0.00000028,0.00000229,-0.00000214,0.0000
 0074,0.00000305,-0.00000123,0.00000770,-0.00000764,-0.00000563,0.00000
 319,-0.00000024,-0.00000788,0.00000138,0.00000506,0.00000239,0.0000202
 6,-0.00001561,-0.00000344,-0.00000811,0.00000121,-0.00000272,0.0000240
 0,-0.00000638,-0.00001241,-0.00001518,0.00000940,0.00001590,0.00002736
 ,-0.00000113,-0.00002168,0.00003205,-0.00003610,0.00001830,0.00112853,
 -0.00036389,0.00115668,0.00030526,0.00002662,-0.00768377,-0.00976210,0
 .00215215,0.16292747,-0.00001262,0.00598479,-0.00109692,-0.02201335,-0
 .02698755,0.00583725,0.00507383,-0.00314127,-0.00082532,0.00032437,0.0
 0029456,0.00038685,0.00094176,0.00088295,-0.00018994,0.00012558,0.0002
 3278,-0.00006490,0.00006260,-0.00003261,0.00017593,0.00002804,0.000015
 57,-0.00005261,0.00001076,-0.00001236,0.00004187,0.00000951,-0.0000017
 8,-0.00000393,0.00000140,0.00000550,0.00000317,-0.00000104,0.00000854,
 0.00000767,-0.00000311,0.00000238,-0.00000245,-0.00000679,-0.00001099,
 -0.00001041,-0.00000380,0.00004192,0.00000964,0.00004706,-0.00000269,0
 .00000461,-0.00003386,0.00016614,-0.00010519,0.00084728,0.00075412,0.0
 0015002,0.00020377,-0.00002335,-0.00102238,-0.12452105,-0.20265668,0.0
 3597609,0.00009842,0.00036777,0.00018911,-0.00089298,-0.00151500,-0.00
 003983,-0.00004053,-0.00001090,-0.00011359,-0.00007805,0.00000010,-0.0
 0007813,-0.00006138,0.00002321,0.00001705,0.00003947,-0.00000751,0.000
 04934,0.00002068,-0.00010146,0.00004418,-0.00000072,-0.00001301,-0.000
 00830,-0.00000196,-0.00000172,0.00001076,0.,0.00002933,0.00001570,0.00
 000088,0.00000182,-0.00000463,-0.00001110,-0.00000089,-0.00001098,0.00
 000221,-0.00000304,-0.00000632,0.00000076,-0.00000195,-0.00000087,-0.0
 0000506,0.00000443,-0.00000025,0.00000145,-0.00000081,0.00000032,-0.00
 000284,-0.00000074,-0.00000058,-0.00000108,0.00000320,-0.00000483,-0.0
 0000362,0.00000088,-0.00000085,-0.00000057,0.00000053,0.00000110,0.000
 00034,0.00000661,-0.00000254,0.00000069,-0.00000328,-0.00000250,0.0000
 0505,0.00002030,-0.00000387,-0.00000285,-0.00001155,-0.00002724,-0.000
 00849,0.00001598,-0.00001878,0.00005449,-0.00003170,-0.00002062,-0.000
 06902,0.00039219,0.00011297,-0.00002793,0.00006683,-0.00039067,0.00340
 398,0.00436781,-0.00043274,0.13649943,0.22088256,-0.00092527,0.0001106
 7,-0.00108231,0.00113117,-0.00258380,-0.00058547,-0.00015100,0.0001081
 8,0.00125751,-0.00010641,0.00053119,-0.00007471,-0.00253678,0.00161067
 ,-0.00355963,0.00001626,0.00021235,-0.00063422,-0.00067453,-0.00119728
 ,0.00050537,-0.00019306,0.00022700,-0.00045055,-0.00009037,-0.00016070
 ,0.00007505,0.00002905,-0.00003268,0.00000219,-0.00000247,0.00000759,-
 0.00000426,-0.00000048,0.00001363,0.00001080,-0.00000557,0.00000565,-0
 .00000545,-0.00000979,-0.00001307,-0.00001262,-0.00000533,0.00006294,0
 .00002729,0.00010285,-0.00017303,0.00001272,0.00017286,-0.00015596,-0.
 00005673,0.00041604,-0.00091780,0.00058824,-0.01545893,-0.01866780,0.0
 0397720,0.02849009,0.03617828,-0.05763481,-0.00022442,-0.00040669,0.00
 016893,0.00011052,0.00007012,0.00031743,0.00002047,-0.00002993,-0.0000
 0331,0.00007639,-0.00007472,0.00005788,0.00004637,-0.00001270,0.000079
 97,0.00008032,-0.00004610,0.00030084,0.00010361,-0.00011116,0.00055450
 ,0.00006089,-0.00000375,-0.00000048,-0.00002880,-0.00001170,0.00003914
 ,0.00002035,-0.00001325,0.00000347,0.00000851,0.00000406,-0.00000256,-
 0.00005599,-0.00000250,-0.00005922,0.00000369,-0.00000308,-0.00000521,
 0.00000178,-0.00000179,-0.00000078,-0.00000621,0.00000467,0.00000182,0
 .00000143,-0.00000153,0.00000154,-0.00000152,0.00000028,-0.00000080,-0
 .00000164,0.00000396,-0.00000387,-0.00000257,0.00000167,-0.00000114,-0
 .00000275,0.00000171,0.00000116,-0.00000012,0.00001063,-0.00000607,0.0
 0000259,-0.00000601,0.00000288,-0.00002961,0.00002885,0.00001562,-0.00
 001336,-0.00000999,-0.00004983,0.00006535,0.00001964,0.00002539,0.0000
 6972,0.00015403,0.00000482,0.00011814,0.00044225,0.00012294,0.00080806
 ,-0.00036033,0.00084252,0.01774992,0.02367876,-0.00482724,-0.02917947,
 -0.03849142,0.06006405\\0.00007033,0.00001600,0.00000453,-0.00002833,-
 0.00002096,0.00000220,-0.00000854,-0.00004303,-0.00000598,0.00002771,0
 .00000515,-0.00000166,-0.00006050,0.00001944,0.00000522,-0.00004579,-0
 .00000547,0.00004962,-0.00005731,-0.00002033,-0.00006347,0.00000084,0.
 00002733,0.00000225,0.00001150,-0.00003565,-0.00001331,0.00000167,-0.0
 0000493,-0.00001228,-0.00000939,-0.00002021,0.00002741,-0.00003741,0.0
 0000674,-0.00001840,-0.00000924,-0.00003375,0.00001226,0.00001493,0.00
 001816,-0.00001162,-0.00004937,-0.00000688,-0.00003270,-0.00000017,0.0
 0000097,-0.00000764,0.00004717,0.00001628,0.00002439,0.00001765,0.0000
 2729,0.00002967,0.00002405,-0.00004632,-0.00001742,-0.00003275,0.00003
 533,0.00000764,0.00000965,0.00001376,0.00000542,-0.00000257,0.00000522
 ,0.00000092,0.00000482,0.00000272,0.00000421,0.00000351,0.00000002,-0.
 00000012,0.00001443,0.00000701,-0.00001456,0.00000944,0.00001898,-0.00
 002607,0.00000547,-0.00000079,-0.00000478,-0.00000711,0.00000512,0.000
 00630,-0.00001921,0.00000136,-0.00001507,-0.00000566,0.00000396,-0.000
 00609,0.00000037,0.00001134,-0.00000318,0.00000532,0.00001148,0.000001
 22,0.00002294,0.00000550,-0.00000232,0.00000458,0.00000360,0.00000634,
 -0.00000447,-0.00001302,0.00000741,0.00001196,0.00000789,0.00000914,-0
 .00000001,-0.00000505,-0.00000425,0.00000733,-0.00000103,0.00000405,0.
 00000596,-0.00000130,-0.00000363,0.00001230,-0.00000755,-0.00001031,0.
 00000037,-0.00000431,0.00000182,-0.00001139,-0.00000261,0.00001084,0.0
 0001860,0.00000978,0.00002253,0.00000605,0.00000350,0.00000349,0.00000
 451,-0.00000146,0.00001036,0.00001175,0.00000661,-0.00000943,0.0000022
 5,-0.00000281,0.00000207,-0.00000525,-0.00001039,-0.00000881,0.0000227
 5,-0.00000208,0.00003419,-0.00000571,-0.00000063,-0.00000243\\\@


 NECESSARY EVIL: ONE WE LIKE TOO MUCH TO RELINQUISH.
 Job cpu time:       0 days  0 hours 12 minutes 40.3 seconds.
 Elapsed time:       0 days  0 hours 14 minutes  9.4 seconds.
 File lengths (MBytes):  RWF=    751 Int=      0 D2E=      0 Chk=     16 Scr=      1
 Normal termination of Gaussian 16 at Fri Feb 23 20:48:39 2024.
