 Entering Gaussian System, Link 0=g16
 Input=/Volumes/SSD-PMU3/b3lyp_6-31gd_freq/DEAYHXIERBJJJX-IDCUFUFFSA-N_calculating/gaussianinput0.gjf
 Output=/Volumes/SSD-PMU3/b3lyp_6-31gd_freq/DEAYHXIERBJJJX-IDCUFUFFSA-N_calculating/gaussianinput0.log
 Initial command:
 /Applications/g16/l1.exe "/Users/macmini_m1_2022/PycharmProjects/sphere_model/sphere_model_lib/Gau-87522.inp" -scrdir="/Users/macmini_m1_2022/PycharmProjects/sphere_model/sphere_model_lib/"
 Entering Link 1 = /Applications/g16/l1.exe PID=     87523.
  
 Copyright (c) 1988,1990,1992,1993,1995,1998,2003,2009,2016,
            Gaussian, Inc.  All Rights Reserved.
  
 This is part of the Gaussian(R) 16 program.  It is based on
 the Gaussian(R) 09 system (copyright 2009, Gaussian, Inc.),
 the Gaussian(R) 03 system (copyright 2003, Gaussian, Inc.),
 the Gaussian(R) 98 system (copyright 1998, Gaussian, Inc.),
 the Gaussian(R) 94 system (copyright 1995, Gaussian, Inc.),
 the Gaussian 92(TM) system (copyright 1992, Gaussian, Inc.),
 the Gaussian 90(TM) system (copyright 1990, Gaussian, Inc.),
 the Gaussian 88(TM) system (copyright 1988, Gaussian, Inc.),
 the Gaussian 86(TM) system (copyright 1986, Carnegie Mellon
 University), and the Gaussian 82(TM) system (copyright 1983,
 Carnegie Mellon University). Gaussian is a federally registered
 trademark of Gaussian, Inc.
  
 This software contains proprietary and confidential information,
 including trade secrets, belonging to Gaussian, Inc.
  
 This software is provided under written license and may be
 used, copied, transmitted, or stored only in accord with that
 written license.
  
 The following legend is applicable only to US Government
 contracts under FAR:
  
                    RESTRICTED RIGHTS LEGEND
  
 Use, reproduction and disclosure by the US Government is
 subject to restrictions as set forth in subparagraphs (a)
 and (c) of the Commercial Computer Software - Restricted
 Rights clause in FAR 52.227-19.
  
 Gaussian, Inc.
 340 Quinnipiac St., Bldg. 40, Wallingford CT 06492
  
  
 ---------------------------------------------------------------
 Warning -- This program may not be used in any manner that
 competes with the business of Gaussian, Inc. or will provide
 assistance to any competitor of Gaussian, Inc.  The licensee
 of this program is prohibited from giving any competitor of
 Gaussian, Inc. access to this program.  By using this program,
 the user acknowledges that Gaussian, Inc. is engaged in the
 business of creating and licensing software in the field of
 computational chemistry and represents and warrants to the
 licensee that it is not a competitor of Gaussian, Inc. and that
 it will not use this program in any manner prohibited above.
 ---------------------------------------------------------------
  

 Cite this work as:
 Gaussian 16, Revision A.03,
 M. J. Frisch, G. W. Trucks, H. B. Schlegel, G. E. Scuseria, 
 M. A. Robb, J. R. Cheeseman, G. Scalmani, V. Barone, 
 G. A. Petersson, H. Nakatsuji, X. Li, M. Caricato, A. V. Marenich, 
 J. Bloino, B. G. Janesko, R. Gomperts, B. Mennucci, H. P. Hratchian, 
 J. V. Ortiz, A. F. Izmaylov, J. L. Sonnenberg, D. Williams-Young, 
 F. Ding, F. Lipparini, F. Egidi, J. Goings, B. Peng, A. Petrone, 
 T. Henderson, D. Ranasinghe, V. G. Zakrzewski, J. Gao, N. Rega, 
 G. Zheng, W. Liang, M. Hada, M. Ehara, K. Toyota, R. Fukuda, 
 J. Hasegawa, M. Ishida, T. Nakajima, Y. Honda, O. Kitao, H. Nakai, 
 T. Vreven, K. Throssell, J. A. Montgomery, Jr., J. E. Peralta, 
 F. Ogliaro, M. J. Bearpark, J. J. Heyd, E. N. Brothers, K. N. Kudin, 
 V. N. Staroverov, T. A. Keith, R. Kobayashi, J. Normand, 
 K. Raghavachari, A. P. Rendell, J. C. Burant, S. S. Iyengar, 
 J. Tomasi, M. Cossi, J. M. Millam, M. Klene, C. Adamo, R. Cammi, 
 J. W. Ochterski, R. L. Martin, K. Morokuma, O. Farkas, 
 J. B. Foresman, and D. J. Fox, Gaussian, Inc., Wallingford CT, 2016.
 
 ******************************************
 Gaussian 16:  EM64M-G16RevA.03 25-Dec-2016
                24-Feb-2024 
 ******************************************
 %nprocshared=10
 Will use up to   10 processors via shared memory.
 %mem=12GB
 %chk= 0.chk
 ---------------------
 # freq b3lyp/6-31g(d)
 ---------------------
 1/10=4,30=1,38=1/1,3;
 2/12=2,17=6,18=5,40=1/2;
 3/5=1,6=6,7=1,11=2,25=1,30=1,71=2,74=-5,140=1/1,2,3;
 4//1;
 5/5=2,38=5,98=1/2;
 8/6=4,10=90,11=11/1;
 11/6=1,8=1,9=11,15=111,16=1/1,2,10;
 10/6=1/2;
 6/7=2,8=2,9=2,10=2,28=1/1;
 7/8=1,10=1,25=1/1,2,3,16;
 1/10=4,30=1/3;
 99//99;
 ---------
 good luck
 ---------
 Symbolic Z-matrix:
 Charge =  0 Multiplicity = 1
 O                     1.21558   0.        0. 
 C                     0.        0.        0. 
 C                    -0.85456  -1.26154   0.01224 
 C                    -1.73066  -1.27133  -1.26079 
 C                    -2.57304   0.       -1.45729 
 F                    -2.96278   0.       -2.81968 
 C                    -3.90078   0.       -0.69278 
 C                    -3.86353   0.        0.85979 
 C                    -1.73066   1.27133  -1.26079 
 C                    -0.85456   1.26154   0.01224 
 C                    -1.66067   1.27506   1.33477 
 C                    -2.50039   0.        1.58298 
 C                    -1.66067  -1.27506   1.33477 
 H                    -0.1846   -2.12734  -0.00915 
 H                    -1.07763  -1.35839  -2.13772 
 H                    -2.38566  -2.15199  -1.26438 
 H                    -4.4575   -0.87402  -1.04956 
 H                    -4.4575    0.87402  -1.04956 
 H                    -4.42049  -0.87283   1.22225 
 H                    -4.42049   0.87283   1.22225 
 H                    -2.38566   2.15199  -1.26438 
 H                    -1.07763   1.35839  -2.13772 
 H                    -0.1846    2.12734  -0.00915 
 H                    -0.94334   1.39004   2.15834 
 H                    -2.30785   2.1623    1.36101 
 H                    -2.75515   0.        2.65199 
 H                    -2.30785  -2.1623    1.36101 
 H                    -0.94334  -1.39004   2.15834 
 

 GradGradGradGradGradGradGradGradGradGradGradGradGradGradGradGradGradGrad
 Berny optimization.
 Initialization pass.
 Trust Radius=3.00D-01 FncErr=1.00D-07 GrdErr=1.00D-07 EigMax=2.50D+02 EigMin=1.00D-04
 Number of steps in this run=      2 maximum allowed number of steps=      2.
 GradGradGradGradGradGradGradGradGradGradGradGradGradGradGradGradGradGrad

                          Input orientation:                          
 ---------------------------------------------------------------------
 Center     Atomic      Atomic             Coordinates (Angstroms)
 Number     Number       Type             X           Y           Z
 ---------------------------------------------------------------------
      1          8           0        1.215581    0.000000    0.000000
      2          6           0        0.000000    0.000000    0.000000
      3          6           0       -0.854555   -1.261538    0.012240
      4          6           0       -1.730657   -1.271331   -1.260788
      5          6           0       -2.573041    0.000000   -1.457293
      6          9           0       -2.962778    0.000000   -2.819680
      7          6           0       -3.900784    0.000000   -0.692775
      8          6           0       -3.863532    0.000000    0.859789
      9          6           0       -1.730656    1.271331   -1.260788
     10          6           0       -0.854555    1.261538    0.012240
     11          6           0       -1.660672    1.275057    1.334767
     12          6           0       -2.500391    0.000000    1.582975
     13          6           0       -1.660672   -1.275057    1.334767
     14          1           0       -0.184601   -2.127336   -0.009150
     15          1           0       -1.077627   -1.358387   -2.137718
     16          1           0       -2.385657   -2.151988   -1.264382
     17          1           0       -4.457502   -0.874020   -1.049560
     18          1           0       -4.457501    0.874022   -1.049559
     19          1           0       -4.420492   -0.872833    1.222250
     20          1           0       -4.420493    0.872832    1.222250
     21          1           0       -2.385656    2.151988   -1.264383
     22          1           0       -1.077626    1.358387   -2.137718
     23          1           0       -0.184601    2.127336   -0.009149
     24          1           0       -0.943337    1.390036    2.158335
     25          1           0       -2.307846    2.162298    1.361005
     26          1           0       -2.755151    0.000000    2.651992
     27          1           0       -2.307846   -2.162298    1.361005
     28          1           0       -0.943336   -1.390036    2.158335
 ---------------------------------------------------------------------
                    Distance matrix (angstroms):
                    1          2          3          4          5
     1  O    0.000000
     2  C    1.215581   0.000000
     3  C    2.424271   1.523776   0.000000
     4  C    3.447635   2.490189   1.545397   0.000000
     5  C    4.059231   2.957067   2.589247   1.537696   0.000000
     6  F    5.040762   4.090067   3.749114   2.358930   1.417037
     7  C    5.163054   3.961824   3.371652   2.578444   1.532119
     8  C    5.151371   3.958045   3.371018   3.265315   2.652213
     9  C    3.447634   2.490189   2.967083   2.542662   1.537696
    10  C    2.424271   1.523776   2.523076   2.967083   2.589247
    11  C    3.417631   2.482983   2.972073   3.636742   3.202153
    12  C    4.039091   2.959352   2.601435   3.208701   3.041136
    13  C    3.417631   2.482983   1.548898   2.596501   3.202153
    14  H    2.546792   2.135350   1.094944   2.165556   3.511029
    15  H    3.416703   2.752514   2.163668   1.096829   2.131773
    16  H    4.381624   3.452691   2.183332   1.097540   2.168728
    17  H    5.835183   4.662061   3.776085   2.763722   2.116920
    18  H    5.835182   4.662060   4.320793   3.476037   2.116920
    19  H    5.832757   4.668670   3.785647   3.682321   3.369698
    20  H    5.832758   4.668671   4.328461   4.242420   3.369698
    21  H    4.381624   3.452690   3.952998   3.485420   2.168728
    22  H    3.416702   2.752514   3.396482   2.847959   2.131774
    23  H    2.546792   2.135350   3.454528   3.937998   3.511029
    24  H    3.354331   2.735049   3.412397   4.403765   4.202487
    25  H    4.352287   3.442967   3.956498   4.358527   3.562115
    26  H    4.774911   3.824123   3.488844   4.239778   4.113318
    27  H    4.352287   3.442967   2.177749   2.828563   3.562115
    28  H    3.354330   2.735049   2.151771   3.510608   4.202488
                    6          7          8          9         10
     6  F    0.000000
     7  C    2.324560   0.000000
     8  C    3.788120   1.553011   0.000000
     9  C    2.358930   2.578445   3.265316   0.000000
    10  C    3.749114   3.371652   3.371018   1.545396   0.000000
    11  C    4.536593   3.279451   2.589202   2.596501   1.548898
    12  C    4.426869   2.672104   1.543098   3.208701   2.601435
    13  C    4.536593   3.279451   2.589202   3.636742   2.972073
    14  H    4.488085   4.336233   4.337643   3.937997   3.454528
    15  H    2.421587   3.450115   4.311790   2.847959   3.396482
    16  H    2.717181   2.693213   3.365601   3.485420   3.952998
    17  H    2.476174   1.095966   2.182275   3.476038   4.320793
    18  H    2.476174   1.095967   2.182275   2.763721   3.776083
    19  H    4.384514   2.167776   1.097005   4.242421   4.328461
    20  H    4.384514   2.167776   1.097005   3.682323   3.785648
    21  H    2.717181   2.693214   3.365602   1.097540   2.183332
    22  H    2.421587   3.450115   4.311790   1.096829   2.163668
    23  H    4.488085   4.336233   4.337643   2.165556   1.094944
    24  H    5.548962   4.336764   3.485106   3.510607   2.151771
    25  H    4.752115   3.380976   2.710518   2.828563   2.177749
    26  H    5.475610   3.535526   2.107249   4.239778   3.488844
    27  H    4.752115   3.380976   2.710518   4.358527   3.956498
    28  H    5.548962   4.336765   3.485106   4.403765   3.412397
                   11         12         13         14         15
    11  C    0.000000
    12  C    1.546773   0.000000
    13  C    2.550114   1.546773   0.000000
    14  H    3.944766   3.524671   2.170548   0.000000
    15  H    4.396944   4.208685   3.522079   2.433019   0.000000
    16  H    4.361859   3.570946   2.837285   2.533942   1.761664
    17  H    4.257441   3.394766   3.697040   4.572848   3.583609
    18  H    3.697038   3.394765   4.257441   5.324310   4.194197
    19  H    3.498957   2.139801   2.791245   4.586164   4.764441
    20  H    2.791246   2.139801   3.498957   5.334804   5.238557
    21  H    2.837286   3.570947   4.361860   4.973215   3.846607
    22  H    3.522079   4.208685   4.396945   4.180737   2.716774
    23  H    2.170547   3.524670   3.944765   4.254672   4.180738
    24  H    1.098205   2.165100   2.880200   4.200664   5.101758
    25  H    1.098508   2.182173   3.497847   4.978600   5.113680
    26  H    2.135120   1.098954   2.135120   4.267899   5.253630
    27  H    3.497847   2.182173   1.098508   2.527195   3.794835
    28  H    2.880201   2.165100   1.098206   2.411904   4.298268
                   16         17         18         19         20
    16  H    0.000000
    17  H    2.443746   0.000000
    18  H    3.673612   1.748042   0.000000
    19  H    3.458342   2.272112   2.866006   0.000000
    20  H    4.412871   2.866005   2.272111   1.745665   0.000000
    21  H    4.303976   3.673611   2.443745   4.412872   3.458344
    22  H    3.846608   4.194197   3.583609   5.238557   4.764442
    23  H    4.973215   5.324310   4.572846   5.334804   4.586164
    24  H    5.132369   5.269335   4.786043   4.252933   3.637907
    25  H    5.050918   4.432953   3.477282   3.700614   2.478962
    26  H    4.483923   4.166941   4.166940   2.362067   2.362067
    27  H    2.626560   3.477284   4.432953   2.478961   3.700614
    28  H    3.791550   4.786045   5.269336   3.637907   4.252934
                   21         22         23         24         25
    21  H    0.000000
    22  H    1.761664   0.000000
    23  H    2.533942   2.433019   0.000000
    24  H    3.791550   4.298268   2.411904   0.000000
    25  H    2.626561   3.794836   2.527195   1.758979   0.000000
    26  H    4.483924   5.253630   4.267898   2.336358   2.557785
    27  H    5.050919   5.113680   4.978599   3.888020   4.324596
    28  H    5.132370   5.101758   4.200663   2.780072   3.888020
                   26         27         28
    26  H    0.000000
    27  H    2.557785   0.000000
    28  H    2.336358   1.758980   0.000000
 Stoichiometry    C11H15FO
 Framework group  C1[X(C11H15FO)]
 Deg. of freedom    78
 Full point group                 C1      NOp   1
 Largest Abelian subgroup         C1      NOp   1
 Largest concise Abelian subgroup C1      NOp   1
                         Standard orientation:                         
 ---------------------------------------------------------------------
 Center     Atomic      Atomic             Coordinates (Angstroms)
 Number     Number       Type             X           Y           Z
 ---------------------------------------------------------------------
      1          8           0        2.744362   -1.332696    0.000000
      2          6           0        1.687598   -0.731958    0.000000
      3          6           0        0.950740   -0.298997    1.261538
      4          6           0       -0.440027   -0.972735    1.271331
      5          6           0       -1.269465   -0.727261    0.000000
      6          9           0       -2.281572   -1.719044    0.000000
      7          6           0       -2.045914    0.593540   -0.000000
      8          6           0       -1.246254    1.924851   -0.000000
      9          6           0       -0.440026   -0.972735   -1.271331
     10          6           0        0.950740   -0.298997   -1.261538
     11          6           0        0.903534    1.249122   -1.275057
     12          6           0        0.296189    1.879889   -0.000000
     13          6           0        0.903534    1.249122    1.275057
     14          1           0        1.522593   -0.648683    2.127336
     15          1           0       -0.305693   -2.057819    1.358387
     16          1           0       -1.011227   -0.652159    2.151988
     17          1           0       -2.706219    0.558499    0.874020
     18          1           0       -2.706217    0.558499   -0.874022
     19          1           0       -1.551319    2.515205    0.872833
     20          1           0       -1.551320    2.515205   -0.872832
     21          1           0       -1.011226   -0.652161   -2.151988
     22          1           0       -0.305693   -2.057820   -1.358387
     23          1           0        1.522594   -0.648682   -2.127336
     24          1           0        1.934155    1.610584   -1.390036
     25          1           0        0.353881    1.591764   -2.162298
     26          1           0        0.603020    2.935140   -0.000000
     27          1           0        0.353880    1.591765    2.162298
     28          1           0        1.934155    1.610584    1.390036
 ---------------------------------------------------------------------
 Rotational constants (GHZ):           1.1302275           0.8740646           0.7056469
 Standard basis: 6-31G(d) (6D, 7F)
 There are   225 symmetry adapted cartesian basis functions of A   symmetry.
 There are   225 symmetry adapted basis functions of A   symmetry.
   225 basis functions,   424 primitive gaussians,   225 cartesian basis functions
    49 alpha electrons       49 beta electrons
       nuclear repulsion energy       891.2430973305 Hartrees.
 NAtoms=   28 NActive=   28 NUniq=   28 SFac= 1.00D+00 NAtFMM=   60 NAOKFM=F Big=F
 Integral buffers will be    131072 words long.
 Raffenetti 2 integral format.
 Two-electron integral symmetry is turned on.
 One-electron integrals computed using PRISM.
 NBasis=   225 RedAO= T EigKep=  2.06D-03  NBF=   225
 NBsUse=   225 1.00D-06 EigRej= -1.00D+00 NBFU=   225
 ExpMin= 1.61D-01 ExpMax= 7.00D+03 ExpMxC= 1.05D+03 IAcc=3 IRadAn=         5 AccDes= 0.00D+00
 Harris functional with IExCor=  402 and IRadAn=       5 diagonalized for initial guess.
 HarFok:  IExCor=  402 AccDes= 0.00D+00 IRadAn=         5 IDoV= 1 UseB2=F ITyADJ=14
 ICtDFT=  3500011 ScaDFX=  1.000000  1.000000  1.000000  1.000000
 FoFCou: FMM=F IPFlag=           0 FMFlag=      100000 FMFlg1=           0
         NFxFlg=           0 DoJE=T BraDBF=F KetDBF=T FulRan=T
         wScrn=  0.000000 ICntrl=       500 IOpCl=  0 I1Cent=   200000004 NGrid=           0
         NMat0=    1 NMatS0=      1 NMatT0=    0 NMatD0=    1 NMtDS0=    0 NMtDT0=    0
 Petite list used in FoFCou.
 Requested convergence on RMS density matrix=1.00D-08 within 128 cycles.
 Requested convergence on MAX density matrix=1.00D-06.
 Requested convergence on             energy=1.00D-06.
 No special actions if energy rises.
 Integral accuracy reduced to 1.0D-05 until final iterations.
 Initial convergence to 1.0D-05 achieved.  Increase integral accuracy.
 SCF Done:  E(RB3LYP) =  -603.275978948     A.U. after   14 cycles
            NFock= 14  Conv=0.60D-08     -V/T= 2.0090
 DoSCS=F DFT=T ScalE2(SS,OS)=  1.000000  1.000000
 Range of M.O.s used for correlation:     1   225
 NBasis=   225 NAE=    49 NBE=    49 NFC=     0 NFV=     0
 NROrb=    225 NOA=    49 NOB=    49 NVA=   176 NVB=   176

 **** Warning!!: The largest alpha MO coefficient is  0.11005220D+02

 Symmetrizing basis deriv contribution to polar:
 IMax=3 JMax=2 DiffMx= 0.00D+00
 G2DrvN: will do    29 centers at a time, making    1 passes.
 Calling FoFCou, ICntrl=  3107 FMM=F I1Cent=   0 AccDes= 0.00D+00.
 End of G2Drv F.D. properties file   721 does not exist.
 End of G2Drv F.D. properties file   722 does not exist.
 End of G2Drv F.D. properties file   788 does not exist.
          IDoAtm=1111111111111111111111111111
          Differentiating once with respect to electric field.
                with respect to dipole field.
          Differentiating once with respect to nuclear coordinates.
 Keep R1 ints in memory in canonical form, NReq=333771839.
          There are    87 degrees of freedom in the 1st order CPHF.  IDoFFX=6 NUNeed=     3.
     84 vectors produced by pass  0 Test12= 9.91D-15 1.15D-09 XBig12= 7.71D+01 2.98D+00.
 AX will form    84 AO Fock derivatives at one time.
     84 vectors produced by pass  1 Test12= 9.91D-15 1.15D-09 XBig12= 1.06D+01 1.01D+00.
     84 vectors produced by pass  2 Test12= 9.91D-15 1.15D-09 XBig12= 1.03D-01 5.09D-02.
     84 vectors produced by pass  3 Test12= 9.91D-15 1.15D-09 XBig12= 4.92D-04 5.55D-03.
     84 vectors produced by pass  4 Test12= 9.91D-15 1.15D-09 XBig12= 6.03D-07 9.25D-05.
     47 vectors produced by pass  5 Test12= 9.91D-15 1.15D-09 XBig12= 4.49D-10 2.83D-06.
      5 vectors produced by pass  6 Test12= 9.91D-15 1.15D-09 XBig12= 2.93D-13 6.96D-08.
      1 vectors produced by pass  7 Test12= 9.91D-15 1.15D-09 XBig12= 2.01D-16 2.10D-09.
 InvSVY:  IOpt=1 It=  1 EMax= 8.88D-15
 Solved reduced A of dimension   473 with    87 vectors.
 Isotropic polarizability for W=    0.000000      105.26 Bohr**3.
 End of Minotr F.D. properties file   721 does not exist.
 End of Minotr F.D. properties file   722 does not exist.
 End of Minotr F.D. properties file   788 does not exist.

 **********************************************************************

            Population analysis using the SCF density.

 **********************************************************************

 Orbital symmetries:
       Occupied  (A) (A) (A) (A) (A) (A) (A) (A) (A) (A) (A) (A)
                 (A) (A) (A) (A) (A) (A) (A) (A) (A) (A) (A) (A)
                 (A) (A) (A) (A) (A) (A) (A) (A) (A) (A) (A) (A)
                 (A) (A) (A) (A) (A) (A) (A) (A) (A) (A) (A) (A)
                 (A)
       Virtual   (A) (A) (A) (A) (A) (A) (A) (A) (A) (A) (A) (A)
                 (A) (A) (A) (A) (A) (A) (A) (A) (A) (A) (A) (A)
                 (A) (A) (A) (A) (A) (A) (A) (A) (A) (A) (A) (A)
                 (A) (A) (A) (A) (A) (A) (A) (A) (A) (A) (A) (A)
                 (A) (A) (A) (A) (A) (A) (A) (A) (A) (A) (A) (A)
                 (A) (A) (A) (A) (A) (A) (A) (A) (A) (A) (A) (A)
                 (A) (A) (A) (A) (A) (A) (A) (A) (A) (A) (A) (A)
                 (A) (A) (A) (A) (A) (A) (A) (A) (A) (A) (A) (A)
                 (A) (A) (A) (A) (A) (A) (A) (A) (A) (A) (A) (A)
                 (A) (A) (A) (A) (A) (A) (A) (A) (A) (A) (A) (A)
                 (A) (A) (A) (A) (A) (A) (A) (A) (A) (A) (A) (A)
                 (A) (A) (A) (A) (A) (A) (A) (A) (A) (A) (A) (A)
                 (A) (A) (A) (A) (A) (A) (A) (A) (A) (A) (A) (A)
                 (A) (A) (A) (A) (A) (A) (A) (A) (A) (A) (A) (A)
                 (A) (A) (A) (A) (A) (A) (A) (A)
 The electronic state is 1-A.
 Alpha  occ. eigenvalues --  -24.66357 -19.13752 -10.26855 -10.26771 -10.20224
 Alpha  occ. eigenvalues --  -10.19992 -10.19990 -10.19684 -10.19683 -10.19454
 Alpha  occ. eigenvalues --  -10.19453 -10.19364 -10.18935  -1.16844  -1.03575
 Alpha  occ. eigenvalues --   -0.86681  -0.79379  -0.78477  -0.78313  -0.69143
 Alpha  occ. eigenvalues --   -0.68503  -0.65887  -0.61110  -0.59123  -0.54169
 Alpha  occ. eigenvalues --   -0.51278  -0.50454  -0.47063  -0.46214  -0.45916
 Alpha  occ. eigenvalues --   -0.45720  -0.44510  -0.44164  -0.43081  -0.41430
 Alpha  occ. eigenvalues --   -0.39796  -0.39109  -0.38973  -0.38038  -0.37696
 Alpha  occ. eigenvalues --   -0.35853  -0.34843  -0.34188  -0.32184  -0.32140
 Alpha  occ. eigenvalues --   -0.31143  -0.30779  -0.30631  -0.23385
 Alpha virt. eigenvalues --   -0.01508   0.04882   0.09546   0.10097   0.10628
 Alpha virt. eigenvalues --    0.11535   0.12047   0.13423   0.15191   0.16273
 Alpha virt. eigenvalues --    0.16305   0.16959   0.17376   0.17384   0.18662
 Alpha virt. eigenvalues --    0.19162   0.19515   0.20052   0.20686   0.21442
 Alpha virt. eigenvalues --    0.22172   0.22911   0.25091   0.25428   0.25615
 Alpha virt. eigenvalues --    0.28972   0.31885   0.32057   0.33576   0.35585
 Alpha virt. eigenvalues --    0.37223   0.47986   0.48041   0.52609   0.53269
 Alpha virt. eigenvalues --    0.54947   0.56301   0.56776   0.58813   0.59963
 Alpha virt. eigenvalues --    0.61726   0.62861   0.63254   0.63833   0.66046
 Alpha virt. eigenvalues --    0.67557   0.68629   0.70234   0.70452   0.71135
 Alpha virt. eigenvalues --    0.72066   0.72682   0.75412   0.76457   0.76611
 Alpha virt. eigenvalues --    0.78244   0.80737   0.81861   0.82999   0.84608
 Alpha virt. eigenvalues --    0.84737   0.86462   0.87001   0.87132   0.87380
 Alpha virt. eigenvalues --    0.89463   0.89737   0.90733   0.93168   0.93280
 Alpha virt. eigenvalues --    0.95614   0.96114   0.96712   0.97194   0.98177
 Alpha virt. eigenvalues --    1.02025   1.04570   1.04766   1.09059   1.10574
 Alpha virt. eigenvalues --    1.15088   1.19284   1.22687   1.24226   1.25513
 Alpha virt. eigenvalues --    1.28504   1.28552   1.35471   1.40022   1.41030
 Alpha virt. eigenvalues --    1.42842   1.44864   1.47403   1.47821   1.49810
 Alpha virt. eigenvalues --    1.56420   1.57986   1.63418   1.66504   1.67618
 Alpha virt. eigenvalues --    1.70214   1.72217   1.73491   1.74142   1.76841
 Alpha virt. eigenvalues --    1.78385   1.78987   1.82233   1.82318   1.84506
 Alpha virt. eigenvalues --    1.84762   1.86475   1.86554   1.89844   1.91018
 Alpha virt. eigenvalues --    1.91300   1.95189   1.97664   1.98913   1.98971
 Alpha virt. eigenvalues --    2.00490   2.02100   2.02862   2.06586   2.07831
 Alpha virt. eigenvalues --    2.08992   2.13429   2.14447   2.17115   2.17860
 Alpha virt. eigenvalues --    2.19842   2.23668   2.26521   2.29840   2.30112
 Alpha virt. eigenvalues --    2.32628   2.33589   2.34255   2.34895   2.37620
 Alpha virt. eigenvalues --    2.38566   2.41689   2.42569   2.46343   2.46582
 Alpha virt. eigenvalues --    2.50937   2.51448   2.53174   2.57311   2.64879
 Alpha virt. eigenvalues --    2.68357   2.70097   2.71323   2.72216   2.72804
 Alpha virt. eigenvalues --    2.73689   2.75803   2.79511   2.81524   2.82279
 Alpha virt. eigenvalues --    3.00306   3.03297   3.16947   4.03861   4.11935
 Alpha virt. eigenvalues --    4.20681   4.25851   4.26680   4.47246   4.49690
 Alpha virt. eigenvalues --    4.55480   4.61291   4.69680   4.78776   4.83526
 Alpha virt. eigenvalues --    4.97512
          Condensed to atoms (all electrons):
               1          2          3          4          5          6
     1  O    8.003037   0.581786  -0.073800   0.000897   0.000128  -0.000000
     2  C    0.581786   4.542002   0.324205  -0.032661  -0.017437   0.000155
     3  C   -0.073800   0.324205   5.263424   0.283908  -0.021107   0.001983
     4  C    0.000897  -0.032661   0.283908   5.250871   0.361621  -0.032381
     5  C    0.000128  -0.017437  -0.021107   0.361621   4.541046   0.210687
     6  F   -0.000000   0.000155   0.001983  -0.032381   0.210687   9.228745
     7  C   -0.000004   0.000237   0.002290  -0.063570   0.372300  -0.033803
     8  C   -0.000005  -0.000407  -0.002794   0.003283  -0.023327   0.002598
     9  C    0.000897  -0.032661   0.001529  -0.078658   0.361621  -0.032381
    10  C   -0.073800   0.324205  -0.127472   0.001529  -0.021107   0.001983
    11  C    0.000701  -0.032746  -0.008530  -0.002292  -0.003745  -0.000004
    12  C    0.000049  -0.019099  -0.032139  -0.003613   0.001949  -0.000044
    13  C    0.000701  -0.032746   0.335922  -0.041208  -0.003745  -0.000004
    14  H    0.004635  -0.032492   0.342992  -0.027193   0.003466  -0.000029
    15  H    0.000750  -0.000531  -0.033879   0.353672  -0.028512   0.001813
    16  H   -0.000079   0.003599  -0.028004   0.353401  -0.028059   0.000760
    17  H    0.000000   0.000004   0.000242  -0.010197  -0.028321   0.001585
    18  H    0.000000   0.000004  -0.000215   0.006780  -0.028321   0.001585
    19  H    0.000000   0.000014  -0.000244   0.000720   0.001367  -0.000031
    20  H    0.000000   0.000014  -0.000080  -0.000301   0.001367  -0.000031
    21  H   -0.000079   0.003599  -0.000485   0.006031  -0.028059   0.000760
    22  H    0.000750  -0.000531   0.000820  -0.006012  -0.028512   0.001813
    23  H    0.004635  -0.032492   0.007082  -0.000023   0.003466  -0.000029
    24  H    0.000953  -0.000520  -0.000028   0.000077  -0.000029   0.000000
    25  H   -0.000079   0.003741  -0.000324   0.000024  -0.000454  -0.000002
    26  H   -0.000003   0.000324   0.004781  -0.000040  -0.000097   0.000000
    27  H   -0.000079   0.003741  -0.031497  -0.005876  -0.000454  -0.000002
    28  H    0.000953  -0.000520  -0.040099   0.005152  -0.000029   0.000000
               7          8          9         10         11         12
     1  O   -0.000004  -0.000005   0.000897  -0.073800   0.000701   0.000049
     2  C    0.000237  -0.000407  -0.032661   0.324205  -0.032746  -0.019099
     3  C    0.002290  -0.002794   0.001529  -0.127472  -0.008530  -0.032139
     4  C   -0.063570   0.003283  -0.078658   0.001529  -0.002292  -0.003613
     5  C    0.372300  -0.023327   0.361621  -0.021107  -0.003745   0.001949
     6  F   -0.033803   0.002598  -0.032381   0.001983  -0.000004  -0.000044
     7  C    5.202637   0.275547  -0.063570   0.002290  -0.000262  -0.040651
     8  C    0.275547   5.106450   0.003283  -0.002794  -0.049936   0.385912
     9  C   -0.063570   0.003283   5.250871   0.283908  -0.041208  -0.003613
    10  C    0.002290  -0.002794   0.283908   5.263424   0.335923  -0.032139
    11  C   -0.000262  -0.049936  -0.041208   0.335923   5.116368   0.368408
    12  C   -0.040651   0.385912  -0.003613  -0.032139   0.368408   4.923432
    13  C   -0.000262  -0.049936  -0.002292  -0.008530  -0.051308   0.368408
    14  H   -0.000215  -0.000046  -0.000023   0.007082   0.000058   0.004201
    15  H    0.006619  -0.000292  -0.006012   0.000820   0.000028  -0.000089
    16  H   -0.009946   0.000716   0.006031  -0.000485   0.000022  -0.000321
    17  H    0.358492  -0.029775   0.006780  -0.000215  -0.000216   0.002190
    18  H    0.358492  -0.029775  -0.010197   0.000242   0.000578   0.002190
    19  H   -0.030951   0.365973  -0.000301  -0.000080   0.005628  -0.034047
    20  H   -0.030951   0.365973   0.000720  -0.000244  -0.006223  -0.034047
    21  H   -0.009946   0.000716   0.353401  -0.028004  -0.006403  -0.000321
    22  H    0.006619  -0.000292   0.353672  -0.033879   0.005123  -0.000089
    23  H   -0.000215  -0.000046  -0.027193   0.342993  -0.031104   0.004201
    24  H   -0.000153   0.005386   0.005152  -0.040099   0.365004  -0.033056
    25  H    0.000065  -0.006412  -0.005876  -0.031497   0.361023  -0.034782
    26  H    0.005570  -0.040197  -0.000040   0.004781  -0.040171   0.367755
    27  H    0.000065  -0.006412   0.000024  -0.000324   0.005083  -0.034782
    28  H   -0.000153   0.005386   0.000077  -0.000028  -0.001576  -0.033056
              13         14         15         16         17         18
     1  O    0.000701   0.004635   0.000750  -0.000079   0.000000   0.000000
     2  C   -0.032746  -0.032492  -0.000531   0.003599   0.000004   0.000004
     3  C    0.335922   0.342992  -0.033879  -0.028004   0.000242  -0.000215
     4  C   -0.041208  -0.027193   0.353672   0.353401  -0.010197   0.006780
     5  C   -0.003745   0.003466  -0.028512  -0.028059  -0.028321  -0.028321
     6  F   -0.000004  -0.000029   0.001813   0.000760   0.001585   0.001585
     7  C   -0.000262  -0.000215   0.006619  -0.009946   0.358492   0.358492
     8  C   -0.049936  -0.000046  -0.000292   0.000716  -0.029775  -0.029775
     9  C   -0.002292  -0.000023  -0.006012   0.006031   0.006780  -0.010197
    10  C   -0.008530   0.007082   0.000820  -0.000485  -0.000215   0.000242
    11  C   -0.051308   0.000058   0.000028   0.000022  -0.000216   0.000578
    12  C    0.368408   0.004201  -0.000089  -0.000321   0.002190   0.002190
    13  C    5.116368  -0.031104   0.005123  -0.006403   0.000578  -0.000216
    14  H   -0.031104   0.593853  -0.004450  -0.003311  -0.000009   0.000005
    15  H    0.005123  -0.004450   0.573883  -0.033671  -0.000106  -0.000249
    16  H   -0.006403  -0.003311  -0.033671   0.589853   0.006497  -0.000003
    17  H    0.000578  -0.000009  -0.000106   0.006497   0.588694  -0.035780
    18  H   -0.000216   0.000005  -0.000249  -0.000003  -0.035780   0.588695
    19  H   -0.006223  -0.000008   0.000002  -0.000134  -0.011761   0.003993
    20  H    0.005628   0.000004   0.000003  -0.000000   0.003993  -0.011761
    21  H    0.000022   0.000022  -0.000139  -0.000191  -0.000003   0.006497
    22  H    0.000028  -0.000095   0.003373  -0.000139  -0.000249  -0.000106
    23  H    0.000058  -0.000195  -0.000095   0.000022   0.000005  -0.000009
    24  H   -0.001576  -0.000061  -0.000003   0.000002   0.000002   0.000002
    25  H    0.005083   0.000020   0.000002  -0.000005   0.000002  -0.000095
    26  H   -0.040171  -0.000160   0.000006  -0.000031  -0.000165  -0.000165
    27  H    0.361023  -0.003548  -0.000062   0.005024  -0.000095   0.000002
    28  H    0.365004  -0.003664  -0.000180  -0.000032   0.000002   0.000002
              19         20         21         22         23         24
     1  O    0.000000   0.000000  -0.000079   0.000750   0.004635   0.000953
     2  C    0.000014   0.000014   0.003599  -0.000531  -0.032492  -0.000520
     3  C   -0.000244  -0.000080  -0.000485   0.000820   0.007082  -0.000028
     4  C    0.000720  -0.000301   0.006031  -0.006012  -0.000023   0.000077
     5  C    0.001367   0.001367  -0.028059  -0.028512   0.003466  -0.000029
     6  F   -0.000031  -0.000031   0.000760   0.001813  -0.000029   0.000000
     7  C   -0.030951  -0.030951  -0.009946   0.006619  -0.000215  -0.000153
     8  C    0.365973   0.365973   0.000716  -0.000292  -0.000046   0.005386
     9  C   -0.000301   0.000720   0.353401   0.353672  -0.027193   0.005152
    10  C   -0.000080  -0.000244  -0.028004  -0.033879   0.342993  -0.040099
    11  C    0.005628  -0.006223  -0.006403   0.005123  -0.031104   0.365004
    12  C   -0.034047  -0.034047  -0.000321  -0.000089   0.004201  -0.033056
    13  C   -0.006223   0.005628   0.000022   0.000028   0.000058  -0.001576
    14  H   -0.000008   0.000004   0.000022  -0.000095  -0.000195  -0.000061
    15  H    0.000002   0.000003  -0.000139   0.003373  -0.000095  -0.000003
    16  H   -0.000134  -0.000000  -0.000191  -0.000139   0.000022   0.000002
    17  H   -0.011761   0.003993  -0.000003  -0.000249   0.000005   0.000002
    18  H    0.003993  -0.011761   0.006497  -0.000106  -0.000009   0.000002
    19  H    0.602197  -0.036636  -0.000000   0.000003   0.000004  -0.000204
    20  H   -0.036636   0.602197  -0.000134   0.000002  -0.000008  -0.000005
    21  H   -0.000000  -0.000134   0.589853  -0.033671  -0.003311  -0.000032
    22  H    0.000003   0.000002  -0.033671   0.573883  -0.004450  -0.000180
    23  H    0.000004  -0.000008  -0.003311  -0.004450   0.593853  -0.003664
    24  H   -0.000204  -0.000005  -0.000032  -0.000180  -0.003664   0.593896
    25  H    0.000026   0.005525   0.005024  -0.000062  -0.003548  -0.034552
    26  H   -0.004504  -0.004504  -0.000031   0.000006  -0.000160  -0.007698
    27  H    0.005525   0.000026  -0.000005   0.000002   0.000020  -0.000092
    28  H   -0.000005  -0.000204   0.000002  -0.000003  -0.000061   0.002663
              25         26         27         28
     1  O   -0.000079  -0.000003  -0.000079   0.000953
     2  C    0.003741   0.000324   0.003741  -0.000520
     3  C   -0.000324   0.004781  -0.031497  -0.040099
     4  C    0.000024  -0.000040  -0.005876   0.005152
     5  C   -0.000454  -0.000097  -0.000454  -0.000029
     6  F   -0.000002   0.000000  -0.000002   0.000000
     7  C    0.000065   0.005570   0.000065  -0.000153
     8  C   -0.006412  -0.040197  -0.006412   0.005386
     9  C   -0.005876  -0.000040   0.000024   0.000077
    10  C   -0.031497   0.004781  -0.000324  -0.000028
    11  C    0.361023  -0.040171   0.005083  -0.001576
    12  C   -0.034782   0.367755  -0.034782  -0.033056
    13  C    0.005083  -0.040171   0.361023   0.365004
    14  H    0.000020  -0.000160  -0.003548  -0.003664
    15  H    0.000002   0.000006  -0.000062  -0.000180
    16  H   -0.000005  -0.000031   0.005024  -0.000032
    17  H    0.000002  -0.000165  -0.000095   0.000002
    18  H   -0.000095  -0.000165   0.000002   0.000002
    19  H    0.000026  -0.004504   0.005525  -0.000005
    20  H    0.005525  -0.004504   0.000026  -0.000204
    21  H    0.005024  -0.000031  -0.000005   0.000002
    22  H   -0.000062   0.000006   0.000002  -0.000003
    23  H   -0.003548  -0.000160   0.000020  -0.000061
    24  H   -0.034552  -0.007698  -0.000092   0.002663
    25  H    0.599024  -0.001014  -0.000184  -0.000092
    26  H   -0.001014   0.632155  -0.001014  -0.007698
    27  H   -0.000184  -0.001014   0.599023  -0.034552
    28  H   -0.000092  -0.007698  -0.034552   0.593896
 Mulliken charges:
               1
     1  O   -0.452943
     2  C    0.447213
     3  C   -0.168481
     4  C   -0.323940
     5  C    0.402297
     6  F   -0.355729
     7  C   -0.306571
     8  C   -0.278778
     9  C   -0.323940
    10  C   -0.168481
    11  C   -0.288225
    12  C   -0.092804
    13  C   -0.288225
    14  H    0.150264
    15  H    0.162175
    16  H    0.144888
    17  H    0.147825
    18  H    0.147824
    19  H    0.139677
    20  H    0.139677
    21  H    0.144888
    22  H    0.162175
    23  H    0.150264
    24  H    0.148814
    25  H    0.139419
    26  H    0.132484
    27  H    0.139419
    28  H    0.148814
 Sum of Mulliken charges =  -0.00000
 Mulliken charges with hydrogens summed into heavy atoms:
               1
     1  O   -0.452943
     2  C    0.447213
     3  C   -0.018217
     4  C   -0.016877
     5  C    0.402297
     6  F   -0.355729
     7  C   -0.010922
     8  C    0.000576
     9  C   -0.016877
    10  C   -0.018217
    11  C    0.000007
    12  C    0.039680
    13  C    0.000007
 APT charges:
               1
     1  O   -0.624658
     2  C    0.682639
     3  C   -0.038314
     4  C    0.054619
     5  C    0.566928
     6  F   -0.539931
     7  C    0.051526
     8  C    0.116111
     9  C    0.054619
    10  C   -0.038314
    11  C    0.116250
    12  C    0.107394
    13  C    0.116250
    14  H   -0.044714
    15  H   -0.023167
    16  H   -0.036031
    17  H   -0.035509
    18  H   -0.035509
    19  H   -0.048088
    20  H   -0.048088
    21  H   -0.036031
    22  H   -0.023167
    23  H   -0.044714
    24  H   -0.043361
    25  H   -0.045203
    26  H   -0.072970
    27  H   -0.045203
    28  H   -0.043361
 Sum of APT charges =   0.00000
 APT charges with hydrogens summed into heavy atoms:
               1
     1  O   -0.624658
     2  C    0.682639
     3  C   -0.083028
     4  C   -0.004580
     5  C    0.566928
     6  F   -0.539931
     7  C   -0.019493
     8  C    0.019934
     9  C   -0.004579
    10  C   -0.083028
    11  C    0.027686
    12  C    0.034424
    13  C    0.027686
 Electronic spatial extent (au):  <R**2>=           1924.9828
 Charge=             -0.0000 electrons
 Dipole moment (field-independent basis, Debye):
    X=             -1.3123    Y=              2.9223    Z=             -0.0000  Tot=              3.2034
 Quadrupole moment (field-independent basis, Debye-Ang):
   XX=            -89.4719   YY=            -79.2511   ZZ=            -73.1952
   XY=              1.8557   XZ=             -0.0000   YZ=             -0.0000
 Traceless Quadrupole moment (field-independent basis, Debye-Ang):
   XX=             -8.8325   YY=              1.3883   ZZ=              7.4442
   XY=              1.8557   XZ=             -0.0000   YZ=             -0.0000
 Octapole moment (field-independent basis, Debye-Ang**2):
  XXX=            -29.2672  YYY=            -10.9479  ZZZ=             -0.0000  XYY=             -2.6039
  XXY=             22.9164  XXZ=             -0.0000  XZZ=             -3.3164  YZZ=             -6.5213
  YYZ=             -0.0000  XYZ=             -0.0000
 Hexadecapole moment (field-independent basis, Debye-Ang**3):
 XXXX=          -1162.7006 YYYY=           -824.9369 ZZZZ=           -526.9889 XXXY=             50.9442
 XXXZ=             -0.0000 YYYX=             18.0125 YYYZ=             -0.0000 ZZZX=             -0.0000
 ZZZY=             -0.0000 XXYY=           -352.0981 XXZZ=           -255.9300 YYZZ=           -223.9784
 XXYZ=             -0.0000 YYXZ=              0.0000 ZZXY=              2.4558
 N-N= 8.912430973305D+02 E-N=-3.188426964845D+03  KE= 5.978843088394D+02
  Exact polarizability: 110.284  -4.557 104.477   0.000   0.000 101.009
 Approx polarizability: 162.744  -8.589 151.458   0.000   0.000 148.862
 Calling FoFJK, ICntrl=    100127 FMM=F ISym2X=0 I1Cent= 0 IOpClX= 0 NMat=1 NMatS=1 NMatT=0.
 Full mass-weighted force constant matrix:
 Low frequencies ---   -0.0009   -0.0007    0.0001    6.2844   13.1521   17.0162
 Low frequencies ---   46.1519   93.4428  226.6039
 Diagonal vibrational polarizability:
        6.2312847      13.7595696       5.3760373
 Harmonic frequencies (cm**-1), IR intensities (KM/Mole), Raman scattering
 activities (A**4/AMU), depolarization ratios for plane and unpolarized
 incident light, reduced masses (AMU), force constants (mDyne/A),
 and normal coordinates:
                      1                      2                      3
                      A                      A                      A
 Frequencies --     46.1484                93.4325               226.6039
 Red. masses --      1.8737                 9.4339                 3.1591
 Frc consts  --      0.0024                 0.0485                 0.0956
 IR Inten    --      0.0046                 3.7593                 0.0028
  Atom  AN      X      Y      Z        X      Y      Z        X      Y      Z
     1   8    -0.00  -0.00  -0.00     0.33   0.53  -0.00    -0.00   0.00  -0.16
     2   6    -0.00   0.00  -0.00     0.03   0.01  -0.00    -0.00  -0.00  -0.06
     3   6     0.00   0.01   0.00    -0.06  -0.15  -0.00     0.03  -0.04  -0.01
     4   6    -0.03   0.08   0.02    -0.09  -0.08  -0.02     0.00   0.05   0.02
     5   6     0.00  -0.00  -0.02    -0.09   0.00  -0.00    -0.00  -0.00   0.01
     6   9     0.00   0.00  -0.00    -0.18   0.10  -0.00     0.00  -0.00   0.16
     7   6     0.00  -0.00  -0.16     0.01   0.07  -0.00    -0.00  -0.00  -0.19
     8   6    -0.00   0.00   0.16     0.09   0.02   0.00     0.00  -0.00  -0.13
     9   6     0.03  -0.08   0.02    -0.09  -0.08   0.02    -0.00  -0.05   0.02
    10   6    -0.00  -0.01   0.00    -0.06  -0.15   0.00    -0.03   0.04  -0.01
    11   6    -0.08  -0.00  -0.02     0.02  -0.14  -0.02     0.08   0.05   0.11
    12   6    -0.00   0.00   0.02     0.09  -0.10   0.00     0.00  -0.00   0.09
    13   6     0.08   0.00  -0.02     0.02  -0.14   0.02    -0.08  -0.05   0.11
    14   1    -0.01  -0.02  -0.00    -0.08  -0.18  -0.00     0.05  -0.08  -0.04
    15   1    -0.09   0.08   0.11    -0.16  -0.09  -0.05    -0.10   0.04   0.08
    16   1    -0.04   0.18  -0.02    -0.07  -0.08  -0.00     0.03   0.14   0.00
    17   1    -0.23  -0.05  -0.33     0.01   0.11  -0.00    -0.15   0.06  -0.30
    18   1     0.23   0.05  -0.33     0.01   0.11   0.00     0.15  -0.06  -0.30
    19   1     0.08  -0.23   0.35     0.13   0.04   0.00    -0.14   0.04  -0.21
    20   1    -0.08   0.23   0.35     0.13   0.04  -0.00     0.14  -0.04  -0.21
    21   1     0.04  -0.18  -0.02    -0.07  -0.08   0.00    -0.03  -0.14   0.00
    22   1     0.09  -0.08   0.11    -0.16  -0.09   0.05     0.10  -0.04   0.08
    23   1     0.01   0.02  -0.00    -0.08  -0.18   0.00    -0.05   0.08  -0.04
    24   1    -0.11   0.04  -0.10     0.04  -0.21  -0.05     0.13  -0.05   0.25
    25   1    -0.16  -0.05   0.02     0.01  -0.12  -0.00     0.21   0.18   0.08
    26   1    -0.00   0.00   0.01     0.17  -0.13   0.00    -0.00   0.00   0.15
    27   1     0.16   0.05   0.02     0.01  -0.12   0.00    -0.21  -0.18   0.08
    28   1     0.11  -0.04  -0.10     0.04  -0.21   0.05    -0.13   0.05   0.25
                      4                      5                      6
                      A                      A                      A
 Frequencies --    245.4816               297.0265               308.8731
 Red. masses --      2.9679                 2.6095                 5.6941
 Frc consts  --      0.1054                 0.1356                 0.3201
 IR Inten    --      0.9351                 3.2154                 0.8500
  Atom  AN      X      Y      Z        X      Y      Z        X      Y      Z
     1   8     0.00  -0.06  -0.00     0.00  -0.00   0.09     0.21  -0.11  -0.00
     2   6     0.05   0.03  -0.00     0.00  -0.00   0.02     0.19  -0.12  -0.00
     3   6     0.02   0.00  -0.00     0.01   0.06  -0.01     0.13  -0.08  -0.04
     4   6     0.09  -0.14  -0.05     0.08  -0.07  -0.13     0.03   0.12  -0.02
     5   6     0.06  -0.01   0.00     0.00   0.00  -0.06    -0.01   0.16  -0.00
     6   9    -0.08   0.14   0.00    -0.00   0.00   0.16     0.03   0.13  -0.00
     7   6     0.10   0.04  -0.00    -0.00  -0.00  -0.07    -0.19   0.05  -0.00
     8   6    -0.01   0.09  -0.00    -0.00   0.00   0.08    -0.22   0.02  -0.00
     9   6     0.09  -0.14   0.05    -0.08   0.07  -0.13     0.03   0.12   0.02
    10   6     0.02   0.00   0.00    -0.01  -0.06  -0.01     0.13  -0.08   0.04
    11   6    -0.13   0.00  -0.04     0.05  -0.05   0.01    -0.06  -0.08   0.04
    12   6    -0.04   0.04   0.00    -0.00   0.00  -0.03    -0.20  -0.11   0.00
    13   6    -0.13   0.00   0.04    -0.05   0.05   0.01    -0.06  -0.08  -0.04
    14   1     0.04   0.04   0.00    -0.01   0.06   0.00     0.06  -0.04   0.02
    15   1     0.19  -0.14  -0.22     0.22  -0.07  -0.33    -0.18   0.10   0.02
    16   1     0.08  -0.33   0.02     0.03  -0.31  -0.08     0.14   0.26   0.00
    17   1     0.10  -0.00  -0.01    -0.10  -0.03  -0.14    -0.19  -0.02   0.00
    18   1     0.10  -0.00   0.01     0.10   0.03  -0.14    -0.19  -0.02  -0.00
    19   1    -0.03   0.07   0.00     0.10  -0.16   0.22    -0.17   0.04   0.00
    20   1    -0.03   0.07  -0.00    -0.10   0.16   0.22    -0.17   0.04  -0.00
    21   1     0.08  -0.33  -0.02    -0.03   0.31  -0.08     0.14   0.26  -0.00
    22   1     0.19  -0.14   0.22    -0.22   0.07  -0.33    -0.18   0.10  -0.02
    23   1     0.04   0.04  -0.00     0.01  -0.06   0.00     0.06  -0.04  -0.02
    24   1    -0.18   0.09  -0.21     0.08  -0.09   0.10    -0.11   0.09   0.10
    25   1    -0.29  -0.09   0.02     0.14  -0.01  -0.03    -0.06  -0.21  -0.01
    26   1     0.04   0.02   0.00    -0.00   0.00  -0.07    -0.18  -0.11   0.00
    27   1    -0.29  -0.09  -0.02    -0.14   0.01  -0.03    -0.06  -0.21   0.01
    28   1    -0.18   0.09   0.21    -0.08   0.09   0.10    -0.11   0.09  -0.10
                      7                      8                      9
                      A                      A                      A
 Frequencies --    355.7981               361.7513               365.0357
 Red. masses --      3.0053                 2.4196                 3.8893
 Frc consts  --      0.2242                 0.1866                 0.3053
 IR Inten    --      1.0212                 1.1656                 1.1211
  Atom  AN      X      Y      Z        X      Y      Z        X      Y      Z
     1   8    -0.03   0.03   0.00     0.00  -0.00   0.06     0.00  -0.00   0.11
     2   6    -0.05  -0.01   0.00     0.00   0.00   0.02     0.00   0.00   0.02
     3   6    -0.03  -0.05   0.03     0.02   0.01   0.01    -0.08  -0.16  -0.00
     4   6    -0.03   0.05   0.04     0.01   0.06  -0.11    -0.06  -0.13   0.04
     5   6     0.05   0.06  -0.00    -0.00  -0.00  -0.12    -0.00  -0.00   0.06
     6   9     0.20  -0.07   0.00    -0.00   0.00   0.07    -0.00   0.00   0.14
     7   6     0.04   0.09  -0.00    -0.00  -0.00  -0.01    -0.00  -0.00  -0.07
     8   6     0.07   0.09  -0.00    -0.00  -0.00  -0.07    -0.00  -0.00  -0.07
     9   6    -0.03   0.05  -0.04    -0.01  -0.06  -0.11     0.06   0.13   0.04
    10   6    -0.03  -0.05  -0.03    -0.02  -0.01   0.01     0.08   0.16  -0.00
    11   6    -0.12  -0.07  -0.09    -0.14  -0.00   0.06    -0.04   0.16  -0.12
    12   6     0.05  -0.04   0.00    -0.00   0.00   0.13    -0.00   0.00  -0.05
    13   6    -0.12  -0.07   0.09     0.14   0.00   0.06     0.04  -0.16  -0.12
    14   1    -0.00  -0.07   0.00    -0.04  -0.08   0.01    -0.05  -0.12  -0.01
    15   1    -0.15   0.04   0.09     0.00   0.06  -0.10    -0.09  -0.15  -0.07
    16   1    -0.05   0.15  -0.01    -0.05   0.05  -0.15    -0.04  -0.19   0.07
    17   1     0.04   0.11   0.00     0.17  -0.04   0.12    -0.11   0.07  -0.15
    18   1     0.04   0.11  -0.00    -0.17   0.04   0.12     0.11  -0.07  -0.15
    19   1     0.09   0.10   0.00    -0.21   0.17  -0.26    -0.01  -0.00  -0.08
    20   1     0.09   0.10  -0.00     0.21  -0.17  -0.26     0.01   0.00  -0.08
    21   1    -0.05   0.15   0.01     0.05  -0.05  -0.15     0.04   0.19   0.07
    22   1    -0.15   0.04  -0.09    -0.00  -0.06  -0.10     0.09   0.15  -0.07
    23   1    -0.00  -0.07  -0.00     0.04   0.08   0.01     0.05   0.12  -0.01
    24   1    -0.18   0.02  -0.35    -0.19   0.07  -0.14    -0.10   0.30  -0.27
    25   1    -0.36  -0.17   0.03    -0.33  -0.06   0.16    -0.21   0.03  -0.06
    26   1     0.17  -0.07   0.00    -0.00   0.00   0.09    -0.00   0.00   0.13
    27   1    -0.36  -0.16  -0.03     0.33   0.06   0.16     0.21  -0.03  -0.06
    28   1    -0.18   0.02   0.35     0.19  -0.07  -0.14     0.10  -0.30  -0.27
                     10                     11                     12
                      A                      A                      A
 Frequencies --    406.4805               437.3559               459.2235
 Red. masses --      2.5105                 2.5146                 4.2720
 Frc consts  --      0.2444                 0.2834                 0.5308
 IR Inten    --      5.5890                 3.4125                 3.4367
  Atom  AN      X      Y      Z        X      Y      Z        X      Y      Z
     1   8    -0.00   0.00   0.09     0.01   0.00   0.00    -0.10   0.09   0.00
     2   6    -0.00  -0.00  -0.07    -0.01  -0.04   0.00    -0.17  -0.05   0.00
     3   6    -0.06  -0.03  -0.11    -0.04  -0.02  -0.03    -0.05  -0.06   0.05
     4   6    -0.08   0.09  -0.05    -0.00  -0.07  -0.09     0.02  -0.04   0.10
     5   6     0.00   0.00  -0.07    -0.05   0.08   0.00     0.20   0.02   0.00
     6   9     0.00   0.00   0.10     0.12  -0.09  -0.00     0.13   0.19  -0.00
     7   6     0.00   0.00   0.10    -0.07   0.13  -0.00     0.13  -0.04  -0.00
     8   6    -0.00   0.00   0.08    -0.04   0.15  -0.00    -0.11   0.03  -0.00
     9   6     0.08  -0.09  -0.05    -0.00  -0.07   0.09     0.02  -0.04  -0.10
    10   6     0.06   0.03  -0.11    -0.04  -0.02   0.03    -0.05  -0.06  -0.05
    11   6     0.07   0.05  -0.02     0.03  -0.01   0.06     0.00  -0.05   0.08
    12   6    -0.00  -0.00  -0.01    -0.03   0.05   0.00    -0.14  -0.04   0.00
    13   6    -0.07  -0.05  -0.02     0.03  -0.01  -0.06     0.00  -0.05  -0.08
    14   1    -0.07  -0.06  -0.12    -0.07  -0.01  -0.01     0.08  -0.00  -0.02
    15   1    -0.21   0.09   0.14     0.08  -0.08  -0.37    -0.03  -0.05   0.16
    16   1    -0.07   0.32  -0.13     0.01  -0.34   0.02    -0.09   0.02   0.00
    17   1     0.21  -0.09   0.26    -0.07   0.15   0.00     0.13  -0.17  -0.01
    18   1    -0.21   0.09   0.26    -0.07   0.15  -0.00     0.13  -0.17   0.01
    19   1     0.09  -0.04   0.14    -0.01   0.16   0.00    -0.13   0.01   0.00
    20   1    -0.09   0.04   0.14    -0.01   0.16  -0.00    -0.13   0.01  -0.00
    21   1     0.07  -0.32  -0.13     0.01  -0.34  -0.02    -0.09   0.02  -0.00
    22   1     0.21  -0.09   0.14     0.08  -0.08   0.37    -0.03  -0.05  -0.16
    23   1     0.07   0.06  -0.12    -0.07  -0.01   0.01     0.08  -0.00   0.02
    24   1     0.10   0.03   0.11     0.08  -0.10   0.22     0.07  -0.15   0.39
    25   1     0.17   0.13  -0.05     0.20   0.05  -0.02     0.28   0.08  -0.05
    26   1     0.00  -0.00   0.03     0.04   0.03   0.00    -0.08  -0.05   0.00
    27   1    -0.17  -0.13  -0.05     0.20   0.05   0.02     0.28   0.08   0.05
    28   1    -0.10  -0.03   0.11     0.08  -0.10  -0.22     0.07  -0.15  -0.39
                     13                     14                     15
                      A                      A                      A
 Frequencies --    479.3421               496.2676               620.4800
 Red. masses --      3.8681                 3.9486                 4.0088
 Frc consts  --      0.5236                 0.5730                 0.9093
 IR Inten    --      4.2589                 0.4003                 0.9076
  Atom  AN      X      Y      Z        X      Y      Z        X      Y      Z
     1   8     0.00  -0.00   0.26     0.13  -0.05   0.00     0.00  -0.00   0.07
     2   6     0.00   0.00  -0.16     0.06  -0.14   0.00     0.00  -0.00   0.14
     3   6     0.08   0.02  -0.17    -0.03  -0.03  -0.06     0.21  -0.10   0.12
     4   6     0.10   0.00   0.06    -0.05  -0.02   0.07     0.14   0.06  -0.05
     5   6    -0.00  -0.00   0.11     0.02  -0.14  -0.00     0.00   0.00  -0.08
     6   9    -0.00   0.00  -0.09    -0.06  -0.10   0.00     0.00   0.00  -0.04
     7   6     0.00  -0.00  -0.03     0.17   0.02   0.00     0.00  -0.00  -0.02
     8   6     0.00  -0.00  -0.03    -0.01   0.19   0.00     0.00  -0.00  -0.02
     9   6    -0.10  -0.00   0.06    -0.05  -0.02  -0.07    -0.14  -0.06  -0.05
    10   6    -0.08  -0.02  -0.17    -0.03  -0.03   0.06    -0.21   0.10   0.12
    11   6    -0.03   0.03   0.03    -0.06   0.04   0.10    -0.00   0.13  -0.08
    12   6     0.00  -0.00   0.08    -0.04   0.22   0.00     0.00   0.00  -0.08
    13   6     0.03  -0.03   0.03    -0.06   0.04  -0.10     0.00  -0.13  -0.08
    14   1     0.24  -0.06  -0.31    -0.05   0.13   0.02     0.16  -0.04   0.18
    15   1     0.13   0.00   0.07    -0.13  -0.01   0.39    -0.06   0.05   0.10
    16   1     0.24   0.03   0.14    -0.05   0.29  -0.04     0.16   0.26  -0.11
    17   1    -0.17   0.07  -0.15     0.16   0.03  -0.01     0.12  -0.03   0.07
    18   1     0.17  -0.07  -0.15     0.16   0.03   0.01    -0.12   0.03   0.07
    19   1    -0.10   0.07  -0.11    -0.10   0.14   0.01     0.09  -0.10   0.08
    20   1     0.10  -0.07  -0.11    -0.10   0.14  -0.01    -0.09   0.10   0.08
    21   1    -0.24  -0.03   0.14    -0.05   0.29   0.04    -0.16  -0.26  -0.11
    22   1    -0.13  -0.00   0.07    -0.13  -0.01  -0.39     0.06  -0.05   0.10
    23   1    -0.24   0.06  -0.31    -0.05   0.13  -0.02    -0.16   0.04   0.18
    24   1    -0.00  -0.03   0.07    -0.04  -0.00   0.11     0.09  -0.07   0.08
    25   1    -0.00   0.17   0.08     0.01  -0.04   0.03     0.19   0.22  -0.16
    26   1    -0.00  -0.00   0.07     0.08   0.19   0.00    -0.00   0.00   0.14
    27   1     0.00  -0.17   0.08     0.01  -0.04  -0.03    -0.19  -0.22  -0.16
    28   1     0.00   0.03   0.07    -0.04  -0.00  -0.11    -0.09   0.07   0.08
                     16                     17                     18
                      A                      A                      A
 Frequencies --    646.1880               691.8525               730.8819
 Red. masses --      4.5355                 4.6303                 3.2677
 Frc consts  --      1.1158                 1.3058                 1.0285
 IR Inten    --      4.3059                 1.1114                 0.7877
  Atom  AN      X      Y      Z        X      Y      Z        X      Y      Z
     1   8    -0.11   0.03   0.00     0.13  -0.06   0.00    -0.07   0.08  -0.00
     2   6    -0.02   0.15   0.00     0.06  -0.14   0.00    -0.17  -0.12  -0.00
     3   6     0.13  -0.01   0.09    -0.02  -0.02   0.21     0.06  -0.07  -0.10
     4   6     0.09  -0.04   0.13    -0.08  -0.08   0.13     0.07   0.01  -0.01
     5   6    -0.03  -0.07   0.00     0.01   0.02   0.00     0.01  -0.00   0.00
     6   9    -0.14  -0.13  -0.00     0.04   0.04   0.00    -0.01   0.02  -0.00
     7   6    -0.07   0.13   0.00    -0.11  -0.01  -0.00    -0.11  -0.08  -0.00
     8   6    -0.09   0.23   0.00    -0.10   0.02  -0.00    -0.11   0.04  -0.00
     9   6     0.09  -0.04  -0.13    -0.08  -0.08  -0.13     0.07   0.01   0.01
    10   6     0.13  -0.01  -0.09    -0.02  -0.02  -0.21     0.06  -0.07   0.10
    11   6     0.04  -0.06  -0.07     0.07   0.12  -0.17     0.08  -0.00  -0.03
    12   6    -0.06  -0.11  -0.00     0.04   0.09  -0.00     0.09   0.21   0.00
    13   6     0.04  -0.06   0.07     0.07   0.12   0.17     0.08  -0.00   0.03
    14   1     0.29  -0.09  -0.05    -0.02  -0.05   0.20     0.13  -0.13  -0.17
    15   1     0.07  -0.03   0.25    -0.05  -0.09  -0.02     0.03   0.00  -0.01
    16   1     0.12   0.08   0.10    -0.24  -0.25   0.09     0.14   0.04   0.02
    17   1    -0.08   0.13  -0.00    -0.10  -0.06   0.00    -0.10  -0.14   0.00
    18   1    -0.08   0.13   0.00    -0.10  -0.06  -0.00    -0.10  -0.14  -0.00
    19   1    -0.01   0.25   0.01    -0.12   0.02  -0.00    -0.19   0.00  -0.00
    20   1    -0.01   0.25  -0.01    -0.12   0.02   0.00    -0.19   0.00   0.00
    21   1     0.12   0.08  -0.10    -0.24  -0.25  -0.09     0.14   0.04  -0.02
    22   1     0.07  -0.03  -0.25    -0.05  -0.09   0.02     0.03   0.00   0.01
    23   1     0.29  -0.09   0.05    -0.02  -0.05  -0.20     0.13  -0.13   0.17
    24   1     0.04   0.01   0.12     0.08   0.07  -0.19     0.03   0.03  -0.34
    25   1     0.15   0.01  -0.10     0.04   0.24  -0.11    -0.12  -0.29  -0.02
    26   1     0.12  -0.17   0.00    -0.05   0.12   0.00     0.06   0.22   0.00
    27   1     0.15   0.01   0.10     0.04   0.24   0.11    -0.12  -0.29   0.02
    28   1     0.04   0.01  -0.12     0.08   0.07   0.19     0.03   0.03   0.34
                     19                     20                     21
                      A                      A                      A
 Frequencies --    768.4778               809.3086               827.3738
 Red. masses --      3.2561                 1.4458                 4.5873
 Frc consts  --      1.1329                 0.5579                 1.8502
 IR Inten    --      0.5501                 0.5671                16.3499
  Atom  AN      X      Y      Z        X      Y      Z        X      Y      Z
     1   8    -0.02  -0.04   0.00     0.00   0.00  -0.02    -0.02  -0.05  -0.00
     2   6     0.12   0.20  -0.00    -0.00  -0.00   0.05     0.15   0.26   0.00
     3   6    -0.03  -0.04  -0.02    -0.02   0.03  -0.00    -0.03  -0.02  -0.08
     4   6    -0.06   0.02  -0.14     0.02   0.03  -0.04    -0.03  -0.15   0.10
     5   6     0.05  -0.03  -0.00    -0.00   0.00   0.02    -0.05  -0.04   0.00
     6   9     0.01   0.00   0.00    -0.00  -0.00  -0.00     0.11   0.11  -0.00
     7   6     0.11  -0.08   0.00     0.00  -0.00   0.09    -0.23  -0.00   0.00
     8   6    -0.13   0.09   0.00    -0.00   0.00   0.11     0.04  -0.04   0.00
     9   6    -0.06   0.02   0.14    -0.02  -0.03  -0.04    -0.03  -0.15  -0.10
    10   6    -0.03  -0.04   0.02     0.02  -0.03  -0.00    -0.03  -0.02   0.08
    11   6     0.05  -0.05  -0.14     0.02   0.03  -0.06    -0.02  -0.03   0.07
    12   6    -0.02   0.05  -0.00    -0.00  -0.00   0.03     0.13   0.11   0.00
    13   6     0.05  -0.05   0.14    -0.02  -0.03  -0.06    -0.02  -0.03  -0.07
    14   1    -0.17  -0.25  -0.01    -0.11   0.10   0.08     0.06   0.12  -0.09
    15   1    -0.16   0.02   0.00     0.04   0.03   0.02    -0.19  -0.15   0.32
    16   1    -0.06   0.18  -0.20     0.03   0.06  -0.05     0.09   0.17   0.06
    17   1     0.11  -0.18  -0.01    -0.38  -0.08  -0.21    -0.22   0.02   0.01
    18   1     0.11  -0.18   0.01     0.38   0.08  -0.21    -0.22   0.02  -0.01
    19   1    -0.21   0.03   0.01    -0.18   0.39  -0.22     0.06  -0.01  -0.01
    20   1    -0.21   0.03  -0.01     0.18  -0.39  -0.22     0.06  -0.01   0.01
    21   1    -0.06   0.18   0.20    -0.03  -0.06  -0.05     0.09   0.17  -0.06
    22   1    -0.16   0.02  -0.00    -0.04  -0.03   0.02    -0.19  -0.15  -0.32
    23   1    -0.17  -0.25   0.01     0.11  -0.10   0.08     0.06   0.12   0.09
    24   1     0.10  -0.16  -0.02     0.02   0.04   0.01     0.04  -0.22  -0.02
    25   1     0.19   0.00  -0.20     0.06   0.06  -0.08     0.00   0.02   0.08
    26   1     0.08   0.02  -0.00    -0.00  -0.00   0.08     0.11   0.12   0.00
    27   1     0.19   0.00   0.20    -0.06  -0.06  -0.08     0.00   0.02  -0.08
    28   1     0.10  -0.16   0.02    -0.02  -0.04   0.01     0.04  -0.22   0.02
                     22                     23                     24
                      A                      A                      A
 Frequencies --    834.8956               888.1176               890.8117
 Red. masses --      2.1084                 1.5156                 2.6276
 Frc consts  --      0.8659                 0.7043                 1.2285
 IR Inten    --      1.1603                 0.3463                 9.3995
  Atom  AN      X      Y      Z        X      Y      Z        X      Y      Z
     1   8     0.00  -0.00  -0.03     0.00  -0.00   0.00     0.04  -0.02  -0.00
     2   6     0.00   0.00   0.03     0.00   0.00  -0.00     0.02  -0.04  -0.00
     3   6    -0.06   0.09  -0.01     0.01  -0.01   0.00    -0.10   0.10   0.03
     4   6     0.07   0.08   0.01     0.06  -0.08  -0.03     0.06   0.07   0.01
     5   6     0.00  -0.00   0.03     0.00  -0.00  -0.03     0.06  -0.07   0.00
     6   9    -0.00  -0.00  -0.02    -0.00   0.00   0.01    -0.02   0.02  -0.00
     7   6     0.00   0.00  -0.04    -0.00  -0.00   0.03    -0.09  -0.09  -0.00
     8   6    -0.00   0.00  -0.04    -0.00   0.00  -0.02    -0.07   0.13   0.00
     9   6    -0.07  -0.08   0.01    -0.06   0.08  -0.03     0.06   0.07  -0.01
    10   6     0.06  -0.09  -0.01    -0.01   0.01   0.00    -0.10   0.10  -0.03
    11   6     0.09   0.10  -0.03     0.09  -0.04   0.03    -0.00  -0.09   0.03
    12   6    -0.00  -0.00   0.09     0.00  -0.00   0.02     0.13  -0.06  -0.00
    13   6    -0.09  -0.10  -0.03    -0.09   0.04   0.03    -0.00  -0.09  -0.03
    14   1    -0.11   0.20   0.07     0.06   0.05  -0.01    -0.22   0.20   0.15
    15   1     0.23   0.09  -0.07    -0.17  -0.08   0.30     0.32   0.10   0.03
    16   1     0.10  -0.07   0.09     0.06   0.31  -0.17    -0.04  -0.07  -0.00
    17   1     0.18   0.06   0.10    -0.11   0.02  -0.05    -0.08  -0.21   0.00
    18   1    -0.18  -0.06   0.10     0.11  -0.02  -0.05    -0.08  -0.21  -0.00
    19   1     0.02  -0.19   0.10     0.06  -0.02   0.02    -0.04   0.12   0.01
    20   1    -0.02   0.19   0.10    -0.06   0.02   0.02    -0.04   0.12  -0.01
    21   1    -0.10   0.07   0.09    -0.06  -0.31  -0.17    -0.04  -0.07   0.00
    22   1    -0.23  -0.09  -0.07     0.17   0.08   0.30     0.32   0.10  -0.03
    23   1     0.11  -0.20   0.07    -0.06  -0.05  -0.01    -0.22   0.20  -0.15
    24   1     0.02   0.22  -0.25     0.00   0.10  -0.28     0.03  -0.22  -0.08
    25   1    -0.17   0.02   0.10    -0.21  -0.20   0.15    -0.04  -0.01   0.09
    26   1     0.00  -0.00   0.36     0.00  -0.00  -0.01     0.35  -0.13  -0.00
    27   1     0.17  -0.02   0.10     0.21   0.20   0.15    -0.04  -0.01  -0.09
    28   1    -0.02  -0.22  -0.25    -0.00  -0.10  -0.28     0.03  -0.22   0.08
                     25                     26                     27
                      A                      A                      A
 Frequencies --    937.4198               940.4419               956.6588
 Red. masses --      3.6208                 2.1316                 2.2597
 Frc consts  --      1.8747                 1.1108                 1.2185
 IR Inten    --     10.3137                 2.4421                 1.1942
  Atom  AN      X      Y      Z        X      Y      Z        X      Y      Z
     1   8    -0.03  -0.01  -0.00     0.00  -0.00  -0.01    -0.03   0.01   0.00
     2   6     0.05   0.10   0.00    -0.00  -0.00   0.02     0.01   0.06  -0.00
     3   6     0.04  -0.06   0.13    -0.06  -0.05  -0.00     0.07  -0.00   0.03
     4   6     0.01   0.09   0.06     0.04   0.08  -0.07    -0.11  -0.02  -0.02
     5   6     0.01   0.18   0.00    -0.00  -0.00   0.11     0.04   0.02   0.00
     6   9    -0.07  -0.07  -0.00     0.00   0.00  -0.02    -0.00  -0.01  -0.00
     7   6     0.04  -0.09   0.00    -0.00   0.00   0.12     0.03  -0.05   0.00
     8   6     0.04  -0.06  -0.00     0.00  -0.00  -0.11    -0.07   0.08  -0.00
     9   6     0.01   0.09  -0.06    -0.04  -0.08  -0.07    -0.11  -0.02   0.02
    10   6     0.04  -0.06  -0.13     0.06   0.05  -0.00     0.07  -0.00  -0.03
    11   6    -0.08  -0.10   0.07    -0.03   0.01   0.08     0.07   0.02   0.13
    12   6     0.05   0.22  -0.00    -0.00  -0.00  -0.11     0.05  -0.08  -0.00
    13   6    -0.08  -0.10  -0.07     0.03  -0.01   0.08     0.07   0.02  -0.13
    14   1     0.13   0.07   0.12    -0.24  -0.23   0.04     0.11   0.02   0.01
    15   1    -0.09   0.04  -0.33     0.09   0.08  -0.07    -0.15  -0.03  -0.11
    16   1     0.02  -0.19   0.17     0.14   0.05   0.01    -0.25  -0.10  -0.09
    17   1     0.05  -0.07   0.00    -0.30   0.18  -0.10     0.03  -0.16  -0.00
    18   1     0.05  -0.07  -0.00     0.30  -0.18  -0.10     0.03  -0.16   0.00
    19   1    -0.15  -0.15  -0.01     0.30  -0.13   0.08    -0.05   0.07   0.01
    20   1    -0.15  -0.15   0.01    -0.30   0.13   0.08    -0.05   0.07  -0.01
    21   1     0.02  -0.19  -0.17    -0.14  -0.05   0.01    -0.25  -0.10   0.09
    22   1    -0.09   0.04   0.33    -0.09  -0.08  -0.07    -0.15  -0.03   0.11
    23   1     0.13   0.07  -0.12     0.24   0.23   0.04     0.11   0.02  -0.01
    24   1    -0.03  -0.23   0.12    -0.06   0.08   0.06    -0.05   0.27  -0.16
    25   1     0.07  -0.03   0.00    -0.05  -0.01   0.09    -0.27  -0.07   0.30
    26   1     0.19   0.18  -0.00    -0.00  -0.00  -0.19     0.10  -0.09  -0.00
    27   1     0.07  -0.03  -0.00     0.05   0.01   0.09    -0.27  -0.07  -0.30
    28   1    -0.03  -0.23  -0.12     0.06  -0.08   0.06    -0.05   0.27   0.16
                     28                     29                     30
                      A                      A                      A
 Frequencies --    973.8027               994.4803              1026.8438
 Red. masses --      2.5160                 1.7586                 2.0012
 Frc consts  --      1.4057                 1.0247                 1.2432
 IR Inten    --      4.3566                18.2251                 0.0103
  Atom  AN      X      Y      Z        X      Y      Z        X      Y      Z
     1   8     0.03  -0.02   0.00    -0.00   0.00  -0.02    -0.00   0.00   0.00
     2   6     0.04   0.04  -0.00     0.00   0.00   0.10    -0.00  -0.00  -0.00
     3   6    -0.03   0.07  -0.10    -0.07   0.04  -0.05     0.07   0.11   0.00
     4   6    -0.08   0.02   0.14     0.05  -0.09  -0.01    -0.09  -0.04  -0.02
     5   6    -0.07   0.02  -0.00     0.00  -0.00   0.02    -0.00  -0.00  -0.01
     6   9     0.02   0.00   0.00     0.00   0.00   0.00     0.00   0.00   0.01
     7   6     0.12   0.04  -0.00    -0.00  -0.00  -0.05    -0.00  -0.00   0.11
     8   6    -0.07  -0.03   0.00    -0.00   0.00  -0.02     0.00   0.00  -0.11
     9   6    -0.08   0.02  -0.14    -0.05   0.09  -0.01     0.09   0.04  -0.02
    10   6    -0.03   0.07   0.10     0.07  -0.04  -0.05    -0.07  -0.11   0.00
    11   6     0.07  -0.06  -0.03    -0.09  -0.00  -0.01    -0.04   0.06  -0.01
    12   6    -0.06  -0.01   0.00     0.00  -0.00   0.03     0.00   0.00   0.04
    13   6     0.07  -0.06   0.03     0.09   0.00  -0.01     0.04  -0.06  -0.01
    14   1     0.02   0.06  -0.14    -0.23   0.15   0.10     0.13   0.19  -0.01
    15   1     0.22   0.04  -0.11     0.03  -0.06   0.31    -0.02  -0.02   0.07
    16   1    -0.03  -0.29   0.28     0.14   0.22  -0.06    -0.31  -0.03  -0.16
    17   1     0.10   0.07  -0.01     0.13   0.12   0.06    -0.27   0.15  -0.08
    18   1     0.10   0.07   0.01    -0.13  -0.12   0.06     0.27  -0.15  -0.08
    19   1    -0.11  -0.06  -0.00    -0.09  -0.13   0.04     0.20  -0.18   0.08
    20   1    -0.11  -0.06   0.00     0.09   0.13   0.04    -0.20   0.18   0.08
    21   1    -0.03  -0.29  -0.28    -0.14  -0.22  -0.06     0.31   0.03  -0.16
    22   1     0.22   0.04   0.11    -0.03   0.06   0.31     0.02   0.02   0.07
    23   1     0.02   0.06   0.14     0.23  -0.15   0.10    -0.13  -0.19  -0.01
    24   1     0.03   0.01  -0.14    -0.06   0.02   0.29     0.02  -0.10   0.00
    25   1     0.00  -0.33  -0.10     0.13   0.19  -0.07    -0.01   0.22   0.04
    26   1    -0.12  -0.00   0.00     0.00  -0.00  -0.07     0.00  -0.00   0.25
    27   1     0.00  -0.33   0.10    -0.13  -0.19  -0.07     0.01  -0.22   0.04
    28   1     0.03   0.01   0.14     0.06  -0.02   0.29    -0.02   0.10   0.00
                     31                     32                     33
                      A                      A                      A
 Frequencies --   1058.8893              1060.9831              1074.7173
 Red. masses --      2.7300                 3.1370                 2.2232
 Frc consts  --      1.8035                 2.0806                 1.5129
 IR Inten    --     28.0748                18.9284                19.6536
  Atom  AN      X      Y      Z        X      Y      Z        X      Y      Z
     1   8     0.03  -0.02   0.00    -0.01  -0.01  -0.00     0.00   0.00  -0.01
     2   6     0.00  -0.01  -0.00     0.03   0.03   0.00    -0.00  -0.00   0.11
     3   6    -0.04  -0.02  -0.13    -0.10  -0.02   0.02     0.06  -0.06  -0.06
     4   6    -0.01  -0.01   0.07     0.08  -0.05   0.00    -0.07   0.01  -0.06
     5   6     0.12   0.18  -0.00     0.15   0.14   0.00    -0.00   0.00   0.13
     6   9    -0.06  -0.06   0.00    -0.07  -0.08   0.00     0.00   0.00  -0.01
     7   6    -0.01  -0.09   0.00     0.04   0.20   0.00     0.00  -0.00   0.01
     8   6     0.01   0.07  -0.00    -0.15  -0.13  -0.00    -0.00   0.00  -0.01
     9   6    -0.01  -0.01  -0.07     0.08  -0.05  -0.00     0.07  -0.01  -0.06
    10   6    -0.04  -0.02   0.13    -0.10  -0.02  -0.02    -0.06   0.06  -0.06
    11   6    -0.04   0.09  -0.04     0.07   0.01   0.04     0.03  -0.09  -0.06
    12   6     0.07  -0.11  -0.00     0.03  -0.02   0.00     0.00  -0.00   0.13
    13   6    -0.04   0.09   0.04     0.07   0.01  -0.04    -0.03   0.09  -0.06
    14   1     0.12  -0.07  -0.26    -0.24   0.08   0.14    -0.16   0.01   0.11
    15   1    -0.19  -0.05  -0.16    -0.07  -0.05   0.12    -0.26  -0.02  -0.23
    16   1     0.16  -0.02   0.17     0.12   0.17  -0.05     0.24   0.02   0.14
    17   1     0.02  -0.30   0.01     0.05   0.13  -0.00     0.02   0.19   0.03
    18   1     0.02  -0.30  -0.01     0.05   0.13   0.00    -0.02  -0.19   0.03
    19   1     0.06   0.07   0.01    -0.12  -0.10  -0.01    -0.10  -0.13   0.04
    20   1     0.06   0.07  -0.01    -0.12  -0.10   0.01     0.10   0.13   0.04
    21   1     0.16  -0.02  -0.17     0.12   0.17   0.05    -0.24  -0.02   0.14
    22   1    -0.19  -0.05   0.16    -0.07  -0.05  -0.12     0.26   0.02  -0.23
    23   1     0.12  -0.07   0.26    -0.24   0.08  -0.14     0.16  -0.01   0.11
    24   1     0.02  -0.05   0.09     0.07  -0.11  -0.28     0.09  -0.27  -0.18
    25   1     0.04   0.30  -0.01    -0.17   0.02   0.19    -0.03   0.12   0.06
    26   1     0.14  -0.13   0.00    -0.30   0.08   0.00     0.00  -0.00   0.15
    27   1     0.04   0.30   0.01    -0.17   0.02  -0.19     0.03  -0.12   0.06
    28   1     0.02  -0.05  -0.09     0.07  -0.11   0.28    -0.09   0.27  -0.18
                     34                     35                     36
                      A                      A                      A
 Frequencies --   1090.4338              1119.1276              1120.5011
 Red. masses --      2.0065                 2.2064                 1.3506
 Frc consts  --      1.4057                 1.6282                 0.9991
 IR Inten    --     20.0417                 5.2821                 5.7997
  Atom  AN      X      Y      Z        X      Y      Z        X      Y      Z
     1   8     0.01   0.01  -0.00    -0.01  -0.01  -0.00    -0.00  -0.00   0.01
     2   6    -0.02  -0.04   0.00     0.05   0.08   0.00     0.00   0.00  -0.09
     3   6     0.04   0.10  -0.02    -0.06  -0.09  -0.00    -0.03  -0.02   0.05
     4   6    -0.04  -0.05  -0.02     0.01   0.05   0.03     0.03   0.01  -0.02
     5   6     0.16   0.07   0.00     0.15  -0.03  -0.00     0.00  -0.00   0.04
     6   9    -0.04  -0.03  -0.00    -0.03  -0.01   0.00    -0.00  -0.00  -0.01
     7   6    -0.07   0.03   0.00    -0.10  -0.02   0.00    -0.00  -0.00   0.02
     8   6     0.05  -0.03  -0.00     0.12   0.03  -0.00     0.00   0.00  -0.02
     9   6    -0.04  -0.05   0.02     0.01   0.05  -0.03    -0.03  -0.01  -0.02
    10   6     0.04   0.10   0.02    -0.06  -0.09   0.00     0.03   0.02   0.05
    11   6    -0.01  -0.05  -0.04     0.04   0.02   0.02    -0.02  -0.02  -0.04
    12   6    -0.03   0.03  -0.00    -0.12   0.05  -0.00    -0.00   0.00   0.08
    13   6    -0.01  -0.05   0.04     0.04   0.02  -0.02     0.02   0.02  -0.04
    14   1     0.16   0.29  -0.03    -0.18  -0.28  -0.00    -0.00  -0.20  -0.05
    15   1    -0.14  -0.05   0.02     0.23   0.07  -0.02     0.08   0.02   0.09
    16   1    -0.33   0.03  -0.24    -0.14  -0.13  -0.00    -0.11   0.03  -0.12
    17   1    -0.05  -0.04   0.01    -0.07  -0.07   0.02    -0.03   0.19   0.00
    18   1    -0.05  -0.04  -0.01    -0.07  -0.07  -0.02     0.03  -0.19   0.00
    19   1     0.12   0.02  -0.01     0.29   0.13  -0.00    -0.13  -0.13   0.03
    20   1     0.12   0.02   0.01     0.29   0.13   0.00     0.13   0.13   0.03
    21   1    -0.33   0.03   0.24    -0.14  -0.13   0.00     0.11  -0.03  -0.12
    22   1    -0.14  -0.05  -0.02     0.23   0.07   0.02    -0.08  -0.02   0.09
    23   1     0.16   0.29   0.03    -0.18  -0.28   0.00     0.00   0.20  -0.05
    24   1     0.01  -0.09   0.02    -0.03   0.19  -0.02     0.02  -0.11   0.04
    25   1     0.13  -0.26  -0.20    -0.05  -0.19   0.00     0.17  -0.33  -0.27
    26   1    -0.08   0.05  -0.00    -0.30   0.10  -0.00    -0.00   0.00   0.45
    27   1     0.13  -0.26   0.20    -0.05  -0.19  -0.00    -0.17   0.33  -0.27
    28   1     0.01  -0.09  -0.02    -0.03   0.19   0.02    -0.02   0.11   0.04
                     37                     38                     39
                      A                      A                      A
 Frequencies --   1174.8049              1176.6815              1208.2339
 Red. masses --      1.5160                 1.6818                 1.2226
 Frc consts  --      1.2328                 1.3720                 1.0516
 IR Inten    --      3.3206                 0.0124                 0.8193
  Atom  AN      X      Y      Z        X      Y      Z        X      Y      Z
     1   8     0.02  -0.01  -0.00     0.00  -0.00   0.01     0.00   0.00  -0.01
     2   6     0.01   0.01   0.00     0.00   0.00  -0.04    -0.00  -0.00   0.04
     3   6     0.01  -0.02  -0.02     0.04   0.08   0.02    -0.01   0.02  -0.02
     4   6    -0.01   0.05  -0.00    -0.04  -0.01  -0.06    -0.01  -0.01   0.02
     5   6     0.07  -0.07  -0.00     0.00  -0.00   0.12    -0.00  -0.00  -0.08
     6   9    -0.01  -0.00   0.00    -0.00  -0.00  -0.01     0.00   0.00   0.01
     7   6    -0.01   0.09   0.00    -0.00   0.00  -0.04     0.00   0.00   0.04
     8   6    -0.07  -0.07  -0.00    -0.00  -0.00   0.05     0.00  -0.00  -0.07
     9   6    -0.01   0.05   0.00     0.04   0.01  -0.06     0.01   0.01   0.02
    10   6     0.01  -0.02   0.02    -0.04  -0.08   0.02     0.01  -0.02  -0.02
    11   6    -0.05   0.00   0.00    -0.00   0.06   0.04    -0.03   0.00   0.01
    12   6     0.08   0.01   0.00     0.00   0.00  -0.07     0.00   0.00   0.02
    13   6    -0.05   0.00  -0.00     0.00  -0.06   0.04     0.03  -0.00   0.01
    14   1     0.24  -0.23  -0.26     0.06   0.10   0.02     0.02   0.00  -0.05
    15   1     0.22   0.07   0.01    -0.36  -0.06  -0.17    -0.16  -0.04  -0.10
    16   1    -0.31  -0.12  -0.14     0.12   0.09   0.01     0.31   0.04   0.20
    17   1    -0.02   0.16  -0.01     0.10   0.20   0.04    -0.09  -0.36  -0.04
    18   1    -0.02   0.16   0.01    -0.10  -0.20   0.04     0.09   0.36  -0.04
    19   1    -0.11  -0.07  -0.01    -0.09   0.06  -0.02     0.16  -0.04   0.02
    20   1    -0.11  -0.07   0.01     0.09  -0.06  -0.02    -0.16   0.04   0.02
    21   1    -0.31  -0.12   0.14    -0.12  -0.09   0.01    -0.31  -0.04   0.20
    22   1     0.22   0.07  -0.01     0.36   0.06  -0.17     0.16   0.04  -0.10
    23   1     0.24  -0.23   0.26    -0.06  -0.10   0.02    -0.02  -0.00  -0.05
    24   1    -0.01  -0.09   0.06    -0.08   0.31   0.15    -0.03   0.02   0.07
    25   1    -0.01   0.22   0.07     0.03  -0.25  -0.10     0.08  -0.20  -0.13
    26   1     0.12  -0.00  -0.00     0.00  -0.00  -0.01    -0.00   0.00   0.38
    27   1    -0.01   0.22  -0.07    -0.03   0.25  -0.10    -0.08   0.20  -0.13
    28   1    -0.01  -0.09  -0.06     0.08  -0.31   0.15     0.03  -0.02   0.07
                     40                     41                     42
                      A                      A                      A
 Frequencies --   1229.1952              1259.5238              1262.8249
 Red. masses --      1.4490                 1.1249                 1.5198
 Frc consts  --      1.2899                 1.0514                 1.4280
 IR Inten    --      3.1583                 3.2077                 9.8626
  Atom  AN      X      Y      Z        X      Y      Z        X      Y      Z
     1   8     0.00   0.00   0.01    -0.01   0.01  -0.00     0.00  -0.00  -0.03
     2   6     0.00   0.00  -0.05    -0.00  -0.00   0.00     0.00   0.00   0.20
     3   6    -0.03  -0.06   0.02     0.01   0.01  -0.01    -0.03   0.01  -0.03
     4   6     0.04   0.04   0.02    -0.01  -0.03   0.01    -0.01   0.01  -0.00
     5   6    -0.00   0.00  -0.04     0.04   0.05  -0.00    -0.00  -0.00  -0.02
     6   9    -0.00  -0.00  -0.00    -0.01  -0.01   0.00     0.00   0.00  -0.00
     7   6     0.00  -0.00   0.06    -0.02   0.02   0.00     0.00  -0.00   0.02
     8   6    -0.00  -0.00  -0.05     0.01  -0.03   0.00    -0.00   0.00   0.01
     9   6    -0.04  -0.04   0.02    -0.01  -0.03  -0.01     0.01  -0.01  -0.00
    10   6     0.03   0.06   0.02     0.01   0.01   0.01     0.03  -0.01  -0.03
    11   6     0.00  -0.04  -0.03    -0.01   0.00  -0.01     0.01  -0.01  -0.01
    12   6     0.00   0.00   0.09     0.03   0.01  -0.00    -0.00  -0.00  -0.01
    13   6    -0.00   0.04  -0.03    -0.01   0.00   0.01    -0.01   0.01  -0.01
    14   1     0.17   0.36   0.06    -0.25  -0.14   0.10     0.42  -0.20  -0.41
    15   1    -0.19  -0.01  -0.17     0.10  -0.01   0.10     0.07   0.03  -0.01
    16   1    -0.07  -0.05  -0.02     0.02   0.02   0.01    -0.02  -0.01  -0.01
    17   1    -0.12   0.01  -0.03    -0.01   0.04   0.01    -0.03   0.19   0.00
    18   1     0.12  -0.01  -0.03    -0.01   0.04  -0.01     0.03  -0.19   0.00
    19   1    -0.15  -0.22   0.04    -0.20  -0.14  -0.01    -0.14  -0.06   0.01
    20   1     0.15   0.22   0.04    -0.20  -0.14   0.01     0.14   0.06   0.01
    21   1     0.07   0.05  -0.02     0.02   0.02  -0.01     0.02   0.01  -0.01
    22   1     0.19   0.01  -0.17     0.10  -0.01  -0.10    -0.07  -0.03  -0.01
    23   1    -0.17  -0.36   0.06    -0.25  -0.14  -0.10    -0.42   0.20  -0.41
    24   1    -0.07   0.24   0.18    -0.10   0.33   0.20    -0.03   0.14   0.04
    25   1     0.02   0.02  -0.02     0.05  -0.12  -0.09     0.01  -0.02  -0.01
    26   1     0.00  -0.00  -0.35     0.51  -0.13   0.00    -0.00   0.00  -0.01
    27   1    -0.02  -0.02  -0.02     0.05  -0.12   0.09    -0.01   0.02  -0.01
    28   1     0.07  -0.24   0.18    -0.10   0.33  -0.20     0.03  -0.14   0.04
[...]
 88,0.00044640,0.00038544,-0.00004556,0.00037214,0.00006977,-0.00010784
 ,0.00001880,-0.00016815,0.00300865,-0.00178237,-0.04890885,-0.01839907
 ,0.02476422,-0.00337643,-0.00030430,0.00111669,0.00256943,0.00011086,0
 .00005017,-0.00025568,-0.00019613,-0.00006185,0.00028519,0.00006082,0.
 00009195,0.00005860,-0.00020511,0.00036788,0.00011221,0.00007157,-0.00
 012685,0.00052563,-0.00004407,-0.00012244,-0.00003776,0.00000057,0.000
 13018,0.00018192,-0.00000216,-0.00005572,0.00004545,0.00008729,0.00003
 420,-0.00005073,-0.00015841,0.00176752,0.05097291,0.00011340,-0.000506
 28,0.00023642,0.00137577,0.00019600,-0.00041296,0.00003471,-0.00001364
 ,-0.00009608,0.00004897,0.00082132,-0.00021857,-0.01438128,-0.00259481
 ,0.01571146,0.00172815,0.00147654,-0.00049462,-0.00121167,-0.00406078,
 -0.00189448,0.00017356,0.00020542,-0.00043869,-0.14214394,-0.00907432,
 0.12561605,0.01206897,0.00190076,-0.01764982,-0.00269326,0.00047992,-0
 .00287110,-0.00022736,-0.00009125,-0.00012501,0.00003077,-0.00002226,0
 .00001103,0.00001229,0.00000598,0.00003718,0.00050809,-0.00029168,-0.0
 0016223,-0.00000553,-0.00003112,-0.00020511,-0.00121018,-0.00038207,0.
 00077066,0.00046606,0.00000619,0.00002252,0.00006070,-0.00001495,0.000
 08340,0.00002773,0.00001184,0.00003747,-0.01183535,-0.00162842,0.01573
 397,0.15524593,0.00001830,0.00008599,-0.00018686,-0.00049384,-0.000167
 91,0.00089143,0.00009025,-0.00017331,-0.00014477,-0.00017035,0.0012836
 3,0.00014659,-0.02022616,-0.00379146,0.02401025,0.00255699,0.00192721,
 0.00093537,-0.00159938,-0.00423744,-0.00206503,0.00035798,-0.00002249,
 -0.00040657,-0.00895823,-0.05352290,0.01511150,0.00005407,-0.00067201,
 0.00048491,0.00014031,0.00065828,-0.00041406,-0.00006908,0.00002021,-0
 .00026709,-0.00007248,0.00016520,-0.00007907,0.00003401,-0.00001887,0.
 00004438,0.00029168,-0.00075448,-0.00025245,0.00013900,0.00014389,-0.0
 0036788,-0.00168347,0.00020859,0.00061842,-0.00024717,0.00011835,-0.00
 013230,0.00000355,0.00003808,0.00004295,-0.00007015,0.00001833,0.00014
 097,0.01590274,0.00259034,-0.02174869,0.01386066,0.05526528,-0.0012290
 8,-0.00001511,0.00040798,0.00240601,-0.00068180,-0.00058821,-0.0001267
 3,0.00021358,-0.00028736,0.00010536,0.00000936,-0.00009902,-0.00155696
 ,-0.00101048,0.00061212,-0.00169395,-0.00084643,0.00178470,-0.00112389
 ,-0.00045240,0.00009903,-0.00009953,0.00005736,-0.00006335,0.12703369,
 0.01659822,-0.21090061,0.01418157,0.00278655,-0.02224597,-0.00513233,0
 .00017357,-0.00305611,-0.00022314,-0.00028777,0.00029789,0.00021462,-0
 .00010302,-0.00004824,0.00000483,0.00006758,-0.00000035,-0.00016223,0.
 00025245,0.00027703,-0.00011040,0.00008980,0.00011221,-0.00023270,-0.0
 0003665,0.00026623,0.00002982,-0.00005778,-0.00002672,0.00006983,0.000
 03665,0.00000355,-0.00002239,0.00000310,0.00000547,-0.00000616,-0.0003
 6922,0.00064611,-0.13331063,-0.01619231,0.23287736,0.00216498,-0.00175
 275,0.00006891,0.01156066,0.01696450,-0.00043637,-0.00222658,0.0029120
 0,0.00002736,-0.00011194,0.00006797,-0.00015202,0.00022199,0.00297370,
 -0.00230715,-0.00086283,-0.00121050,-0.00121488,0.00020103,0.00005559,
 0.00015903,0.00026812,0.00008310,-0.00001989,-0.01198809,-0.01579918,-
 0.00118146,-0.14791890,-0.13010672,0.00295169,-0.01058992,-0.01418124,
 0.00134764,-0.00024059,0.00178101,0.00334172,-0.00019968,0.00019962,0.
 00012686,0.00064592,0.00093612,0.00001937,0.00001229,-0.00003401,0.000
 00483,0.00004886,-0.00008981,0.00006082,-0.00006869,-0.00003750,-0.000
 02403,-0.00000974,-0.00001750,-0.00002047,-0.00004361,-0.00002686,-0.0
 0001440,-0.00002505,-0.00000053,0.00004458,0.00007270,0.00022281,0.000
 61960,0.00107324,0.00037117,0.00018539,0.15744699,0.00022794,0.0059157
 1,-0.00009688,-0.02140700,-0.02693184,0.00056943,0.00491038,-0.0033990
 2,-0.00007770,0.00043939,0.00044598,0.00048720,0.00068750,0.00071514,0
 .00052952,0.00001902,0.00021446,0.00016406,-0.00000168,0.00002055,-0.0
 0002973,0.00002243,0.00005156,0.00001389,0.00166489,0.00241693,-0.0003
 3889,-0.12490404,-0.21422420,0.00406634,0.00170963,0.00243884,0.000164
 11,0.00058690,0.00092928,-0.00046502,0.00042507,0.00029159,-0.00059986
 ,-0.00093612,-0.00146364,0.00007507,-0.00000598,-0.00001887,-0.0000675
 8,-0.00013359,0.00002570,-0.00009195,0.00003272,-0.00000422,-0.0000035
 3,-0.00003086,0.00002277,0.00000253,0.00003361,-0.00001168,0.00001084,
 -0.00002889,0.00002106,-0.00000728,-0.00022691,0.00046522,-0.00044866,
 -0.00002032,0.00020862,-0.00046866,0.13722666,0.23098039,-0.00014548,0
 .00001251,-0.00114322,-0.00007819,-0.00044575,-0.00018614,-0.00006286,
 -0.00029431,0.00125025,0.00005298,0.00053750,-0.00000567,-0.00110965,0
 .00343853,-0.00296248,-0.00136611,-0.00148074,-0.00169753,0.00005692,-
 0.00039323,-0.00009168,-0.00018019,0.00029273,-0.00042596,-0.01793859,
 -0.02376683,-0.00183989,0.00284860,0.00432809,-0.04784186,0.01788067,0
 .02389135,-0.00269792,0.00181285,-0.00215165,-0.00453444,0.00016481,-0
 .00077760,-0.00012792,0.00001937,-0.00007507,0.00022449,0.00003718,-0.
 00004438,-0.00000035,0.00009215,-0.00013776,0.00005860,-0.00020382,-0.
 00006964,0.00013959,0.00000625,-0.00000177,0.00008057,0.00022441,0.000
 04696,0.00026642,0.00000735,-0.00000061,0.00007759,0.00040254,0.000461
 96,0.00085283,0.00064892,-0.00044896,0.00096988,-0.00298848,-0.0044126
 0,0.05804146,0.00028789,-0.00045871,-0.00024925,0.00110982,0.00017195,
 0.00045957,-0.00004403,-0.00008455,0.00010842,0.00001088,0.00000075,-0
 .00003019,-0.00057900,-0.00034129,0.00036618,0.00032486,0.00020927,-0.
 00010527,0.00018838,0.00012781,0.00031576,-0.00066337,-0.00403613,0.00
 164842,-0.00194147,0.00071822,0.00269589,0.01122536,0.00188218,0.01526
 359,-0.15871336,-0.01379939,-0.12697742,-0.01408294,-0.00178302,-0.012
 17326,0.00017787,0.00049074,-0.00002917,0.00002849,0.00000780,-0.00003
 542,0.00003876,-0.00003329,-0.00001966,-0.00000465,0.00006084,0.000001
 91,0.00005579,-0.00001210,-0.00011464,0.00002418,0.00000393,-0.0000449
 4,-0.00120048,-0.00039427,-0.00065185,0.00053540,-0.00004072,0.0000379
 1,-0.00001756,-0.00020441,0.00002195,0.00061893,-0.00012241,0.00089249
 ,0.00104241,0.00004550,-0.00059417,0.17394013,0.00008812,0.00008989,0.
 00024603,-0.00073500,-0.00015830,-0.00093586,0.00016520,-0.00017380,0.
 00007049,-0.00005360,0.00013184,0.00004889,-0.00025651,-0.00002547,0.0
 0035162,0.00022842,0.00005693,-0.00004711,0.00017034,-0.00007843,0.000
 34004,-0.00106473,-0.00462540,0.00154917,0.00036969,0.00070553,0.00024
 585,-0.00039787,-0.00071444,-0.00100224,-0.01388239,-0.05402010,-0.019
 43545,-0.02053711,-0.00344022,-0.02073682,-0.00032191,0.00108764,-0.00
 047423,0.00002676,-0.00001852,-0.00004015,0.00003527,-0.00002846,0.000
 01873,0.00000698,0.00002869,0.00003026,0.00001256,0.00004020,-0.000081
 17,-0.00006369,0.00002538,-0.00013090,-0.00156551,0.00009239,-0.000493
 95,-0.00008425,0.00024825,0.00019994,-0.00030077,0.00018139,-0.0003347
 2,-0.00015730,0.00039388,0.00003383,0.00036188,0.00025446,0.00048527,0
 .01971064,0.05569535,0.00143866,0.00000915,0.00059650,-0.00288464,0.00
 090498,-0.00069721,0.00010440,-0.00014698,-0.00036125,-0.00016727,0.00
 003034,-0.00000358,0.00066380,0.00079747,0.00021738,-0.00034158,-0.000
 35052,-0.00013468,0.00023504,-0.00004255,-0.00007149,0.00086207,0.0010
 5041,0.00087642,0.00520528,-0.00042154,-0.00382100,-0.01692600,-0.0033
 0522,-0.02362593,-0.12662557,-0.01932932,-0.19047068,0.00495581,0.0015
 6606,0.00398706,-0.00002732,-0.00010053,-0.00016115,-0.00000597,-0.000
 08706,0.00000556,0.00000361,0.00002500,0.00004566,0.00002723,-0.000115
 92,0.00001877,-0.00008846,-0.00004841,0.00006275,0.00003837,0.00001749
 ,0.00006746,0.00031718,0.00013461,0.00008373,-0.00011142,0.00007252,-0
 .00005341,0.00016550,0.00001434,0.00047105,-0.00112218,-0.00009868,-0.
 00156178,-0.00017977,0.00052583,0.00096301,0.13357584,0.01866209,0.211
 07147,-0.00113256,0.00117728,-0.00047768,-0.00004288,-0.00368404,0.003
 18006,-0.00015056,0.00017062,-0.00049425,-0.00008394,-0.00008238,-0.00
 015612,-0.00001004,-0.00012755,0.00002723,0.00008213,0.00004302,0.0001
 5062,-0.00007752,0.00002579,-0.00004478,0.00133931,-0.00095028,-0.0003
 4150,0.00094021,-0.00057689,-0.00139577,-0.01121997,0.01472240,0.00269
 367,-0.13876623,0.12271257,0.00055405,0.01062731,-0.01544425,-0.001057
 78,-0.00203117,-0.00290949,0.00062466,0.00005008,0.00011754,-0.0000844
 7,-0.00001146,-0.00000598,-0.00002722,0.00006511,0.00002557,0.00005187
 ,0.00000293,0.00000184,0.00000104,0.00002092,-0.00002642,-0.00000397,0
 .00027482,0.00006571,0.00007379,0.00005646,0.00018001,0.00021059,0.000
 62546,-0.00018636,0.00073084,-0.00003727,-0.00027721,-0.00013507,0.000
 00206,-0.00019159,-0.00036378,-0.01295314,0.01736166,0.00025604,0.1512
 7744,0.00017529,-0.00008474,-0.00014949,-0.00031574,0.00094164,0.00016
 433,-0.00027102,0.00070004,0.00033298,0.00014018,0.00007972,0.00011236
 ,0.00028218,-0.00031723,-0.00003280,-0.00013946,0.00012178,0.00000949,
 -0.00022051,-0.00003286,-0.00018234,0.00208003,0.00092979,-0.00052055,
 -0.00026875,0.00017690,0.00017497,0.00046741,0.00032494,0.00007930,0.1
 2126447,-0.21297355,-0.00274436,0.01634024,-0.02298965,-0.00131315,-0.
 00522225,-0.00306648,0.00154033,0.00006010,0.00002706,-0.00011785,-0.0
 0005832,0.00002947,-0.00010172,-0.00002497,0.00001435,0.00002944,-0.00
 000369,0.00006731,0.00003759,-0.00015150,0.00000159,-0.00018624,0.0001
 1781,0.00058516,0.00034929,-0.00141249,0.00049340,0.00006167,-0.000261
 54,0.00002140,-0.00068213,-0.00019445,0.00019746,-0.00000121,0.0001918
 5,0.00049332,-0.00044062,-0.00187301,0.00316872,0.00071458,-0.13171920
 ,0.23222808,0.00244301,-0.00185274,0.00136150,0.00069778,0.00437310,-0
 .00588244,-0.00032684,0.00005432,0.00082210,0.00017920,0.00008389,0.00
 027645,0.00001281,-0.00008142,-0.00017111,-0.00010582,0.00002634,-0.00
 004083,0.00011648,-0.00002259,-0.00014071,-0.00011141,-0.00044758,0.00
 038316,0.00035472,-0.00103096,0.00257130,0.01945678,-0.02604705,-0.004
 83972,0.00053170,-0.00267113,-0.04870236,-0.00358313,0.00302419,-0.000
 10121,0.00088719,0.00001164,-0.00002564,-0.00007335,-0.00009664,0.0000
 9856,0.00000900,0.00003061,0.00003083,-0.00006180,0.00002096,-0.000079
 81,-0.00000161,0.00004437,0.00004364,-0.00009294,-0.00003739,-0.000044
 77,0.00000067,0.00008986,-0.00010768,0.00006383,-0.00008935,0.00011120
 ,-0.00080117,0.00064341,-0.00026590,0.00000679,0.00037738,0.00044539,-
 0.00060503,0.00044521,0.00093266,-0.01485091,0.02086591,0.00079333,-0.
 00389943,0.00256399,0.05192960,-0.00054486,0.,-0.00008812,0.00112797,0
 .,-0.00024070,-0.00126423,0.00333802,-0.00020145,-0.00003846,0.0000426
 7,-0.00031309,-0.00110228,0.,0.00052009,0.00055976,0.,-0.00011903,-0.0
 0465178,0.,-0.00061547,0.00145482,0.,-0.03309502,-0.00003846,-0.000042
 67,-0.00031309,-0.00126423,-0.00333802,-0.00020145,-0.00680369,-0.0020
 5931,0.01812418,-0.05820559,0.,0.05611937,-0.00680369,0.00205931,0.018
 12419,-0.00055422,0.00001932,0.00089623,0.00013129,-0.00012993,0.00008
 848,0.00002363,0.00006369,0.00005693,-0.00016479,-0.00010935,-0.001008
 98,-0.00016479,0.00010935,-0.00100898,0.00123916,-0.00023202,0.0001427
 0,0.00123916,0.00023202,0.00014270,0.00002363,-0.00006369,0.00005693,0
 .00013129,0.00012993,0.00008848,-0.00055422,-0.00001932,0.00089623,0.0
 0013128,0.00036343,0.00045915,0.00026634,-0.00005796,-0.00031125,0.075
 42936,0.,0.00080911,0.,0.,-0.00220451,0.,0.00231229,-0.00440353,0.0006
 0572,0.00003628,0.00008968,0.00030106,0.,-0.00061917,0.,0.,0.00024327,
 0.,0.,0.00150287,0.,0.,0.00005258,0.,-0.00003628,0.00008968,-0.0003010
 6,-0.00231229,-0.00440353,-0.00060572,-0.01007833,-0.00210384,0.028015
 21,0.,-0.04758693,0.,0.01007833,-0.00210384,-0.02801521,0.00100449,0.0
 0013336,-0.00128860,-0.00009597,0.00003650,-0.00011779,-0.00003726,0.0
 0005250,-0.00000749,0.00010900,-0.00003228,0.00028472,-0.00010900,-0.0
 0003228,-0.00028472,0.00015647,0.00012625,-0.00061692,-0.00015647,0.00
 012625,0.00061692,0.00003726,0.00005250,0.00000749,0.00009597,0.000036
 50,0.00011779,-0.00100449,0.00013336,0.00128860,0.00023319,0.00135284,
 -0.00002043,0.00069311,0.00039543,-0.00016848,0.,0.05650898,0.00016432
 ,0.,-0.00004901,-0.00047692,0.,0.00029506,0.00022596,-0.00145682,0.001
 67857,-0.00017258,0.00015102,0.00027749,-0.00031768,0.,0.00104547,0.00
 007335,0.,-0.00019572,-0.00332668,0.,0.00112586,0.00141255,0.,-0.01930
 087,-0.00017258,-0.00015102,0.00027749,0.00022596,0.00145682,0.0016785
 7,0.00148540,0.00022500,-0.00587866,0.05713758,0.,-0.28738929,0.001485
 40,-0.00022500,-0.00587867,0.00026547,0.00012938,-0.00040638,0.0000730
 2,-0.00005620,-0.00000373,-0.00003331,0.00000863,-0.00000983,-0.000200
 69,0.00004016,-0.00068090,-0.00020069,-0.00004015,-0.00068090,0.000018
 27,-0.00070591,0.00073415,0.00001826,0.00070591,0.00073415,-0.00003331
 ,-0.00000863,-0.00000983,0.00007302,0.00005620,-0.00000373,0.00026547,
 -0.00012938,-0.00040638,0.00021421,-0.00011482,0.00150881,-0.00003554,
 0.00041390,-0.00007878,-0.05834692,0.,0.31018701,-0.00113256,-0.001177
 28,-0.00047768,-0.00004288,0.00368404,0.00318006,-0.01121996,-0.014722
 39,0.00269367,0.00094020,0.00057689,-0.00139577,-0.00001004,0.00012755
 ,0.00002723,0.00008213,-0.00004302,0.00015062,-0.00007752,-0.00002579,
 -0.00004478,0.00133931,0.00095028,-0.00034150,-0.00008394,0.00008238,-
 0.00015612,-0.00015056,-0.00017062,-0.00049425,-0.00203117,0.00290949,
 0.00062466,0.01062730,0.01544424,-0.00105778,-0.13876622,-0.12271258,0
 .00055407,0.00000206,0.00019159,-0.00036378,-0.00003727,0.00027721,-0.
 00013507,0.00062546,0.00018636,0.00073084,0.00002092,0.00002642,-0.000
 00397,0.00000293,-0.00000184,0.00000104,0.00005645,-0.00018001,0.00021
 059,0.00027482,-0.00006571,0.00007379,0.00006511,-0.00002557,0.0000518
 7,-0.00001146,0.00000598,-0.00002722,0.00005008,-0.00011754,-0.0000844
 7,0.00003936,0.00010399,0.00012321,0.00084680,0.00101148,-0.00016028,0
 .00026634,-0.00069311,-0.00003554,0.15127742,-0.00017529,-0.00008474,0
 .00014949,0.00031574,0.00094164,-0.00016433,-0.00046741,0.00032494,-0.
 00007930,0.00026875,0.00017690,-0.00017497,-0.00028218,-0.00031723,0.0
 0003280,0.00013946,0.00012178,-0.00000949,0.00022051,-0.00003286,0.000
 18234,-0.00208004,0.00092979,0.00052055,-0.00014018,0.00007972,-0.0001
 1236,0.00027102,0.00070004,-0.00033298,0.00522225,-0.00306648,-0.00154
 033,-0.01634024,-0.02298965,0.00131316,-0.12126447,-0.21297358,0.00274
 438,-0.00019185,0.00049332,0.00044062,0.00019445,0.00019746,0.00000121
 ,0.00026154,0.00002140,0.00068213,0.00015150,0.00000158,0.00018624,0.0
 0000369,0.00006731,-0.00003759,0.00141249,0.00049341,-0.00006167,-0.00
 011781,0.00058516,-0.00034929,0.00002497,0.00001435,-0.00002944,0.0000
 5832,0.00002947,0.00010172,-0.00006010,0.00002706,0.00011785,-0.000063
 81,0.00017812,-0.00014735,-0.00101148,-0.00171117,0.00025910,0.0000579
 6,0.00039543,-0.00041390,0.13171920,0.23222811,0.00244301,0.00185274,0
 .00136150,0.00069778,-0.00437310,-0.00588244,0.01945677,0.02604705,-0.
 00483973,0.00035472,0.00103096,0.00257129,0.00001281,0.00008142,-0.000
 17111,-0.00010581,-0.00002634,-0.00004083,0.00011648,0.00002259,-0.000
 14071,-0.00011141,0.00044758,0.00038316,0.00017920,-0.00008389,0.00027
 645,-0.00032684,-0.00005432,0.00082210,0.00088719,-0.00001164,-0.00002
 564,-0.00358313,-0.00302420,-0.00010121,0.00053170,0.00267113,-0.04870
 234,-0.00060503,-0.00044521,0.00093266,0.00000679,-0.00037738,0.000445
 39,-0.00080116,-0.00064341,-0.00026590,-0.00009294,0.00003739,-0.00004
 477,-0.00000161,-0.00004437,0.00004364,0.00006383,0.00008935,0.0001112
 0,0.00000067,-0.00008985,-0.00010768,-0.00006180,-0.00002096,-0.000079
 81,0.00000900,-0.00003061,0.00003083,-0.00007335,0.00009664,0.00009856
 ,0.00022500,0.00036895,0.00006663,-0.00016028,-0.00025910,0.00061460,-
 0.00031125,0.00016848,-0.00007878,-0.00389945,-0.00256400,0.05192959,0
 .00028790,0.00045871,-0.00024925,0.00110981,-0.00017195,0.00045958,0.0
 1122534,-0.00188217,0.01526356,-0.00194146,-0.00071822,0.00269589,-0.0
 0057900,0.00034129,0.00036618,0.00032486,-0.00020927,-0.00010527,0.000
 18838,-0.00012781,0.00031576,-0.00066337,0.00403613,0.00164842,0.00001
 088,-0.00000075,-0.00003019,-0.00004403,0.00008455,0.00010842,0.000177
 87,-0.00049074,-0.00002918,-0.01408293,0.00178301,-0.01217324,-0.15871
 304,0.01379930,-0.12697674,0.00104241,-0.00004550,-0.00059417,0.000618
 93,0.00012241,0.00089248,-0.00001756,0.00020441,0.00002195,0.00002418,
 -0.00000393,-0.00004494,0.00005579,0.00001211,-0.00011464,0.00053541,0
 .00004072,0.00003791,-0.00120048,0.00039427,-0.00065185,-0.00000465,-0
 .00006084,0.00000191,0.00003876,0.00003329,-0.00001966,0.00002849,-0.0
 0000780,-0.00003542,0.00042018,0.00041571,0.00004899,0.00003937,0.0000
 6381,0.00022500,0.00013128,-0.00023319,0.00021421,-0.01295313,0.001873
 02,-0.01485089,0.17393980,-0.00008812,0.00008989,-0.00024603,0.0007350
 0,-0.00015830,0.00093586,0.00039787,-0.00071443,0.00100225,-0.00036970
 ,0.00070553,-0.00024585,0.00025651,-0.00002547,-0.00035162,-0.00022842
 ,0.00005693,0.00004711,-0.00017034,-0.00007843,-0.00034004,0.00106473,
 -0.00462540,-0.00154916,0.00005360,0.00013184,-0.00004889,-0.00016520,
 -0.00017380,-0.00007049,0.00032191,0.00108764,0.00047423,0.02053708,-0
 .00344020,0.02073680,0.01388230,-0.05402024,0.01943531,-0.00036188,0.0
 0025446,-0.00048527,0.00015730,0.00039388,-0.00003383,0.00030077,0.000
 18139,0.00033471,0.00006369,0.00002538,0.00013090,-0.00001256,0.000040
 20,0.00008117,0.00008425,0.00024825,-0.00019994,0.00156551,0.00009240,
 0.00049395,-0.00000698,0.00002869,-0.00003026,-0.00003527,-0.00002846,
 -0.00001873,-0.00002676,-0.00001852,0.00004015,-0.00041570,-0.00044837
 ,-0.00031035,-0.00010399,0.00017812,-0.00036895,-0.00036343,0.00135284
 ,0.00011482,-0.01736164,0.00316873,-0.02086589,-0.01971054,0.05569545,
 0.00143866,-0.00000915,0.00059650,-0.00288465,-0.00090498,-0.00069722,
 -0.01692600,0.00330522,-0.02362596,0.00520528,0.00042154,-0.00382101,0
 .00066381,-0.00079747,0.00021738,-0.00034158,0.00035052,-0.00013468,0.
 00023504,0.00004255,-0.00007149,0.00086207,-0.00105040,0.00087642,-0.0
 0016727,-0.00003034,-0.00000358,0.00010440,0.00014698,-0.00036125,-0.0
 0002732,0.00010053,-0.00016115,0.00495580,-0.00156606,0.00398705,-0.12
 662488,0.01932919,-0.19046983,-0.00017977,-0.00052583,0.00096301,-0.00
 112218,0.00009868,-0.00156178,0.00016550,-0.00001434,0.00047105,0.0000
 3837,-0.00001749,0.00006746,-0.00008846,0.00004841,0.00006275,-0.00011
 141,-0.00007252,-0.00005341,0.00031718,-0.00013461,0.00008373,0.000027
 23,0.00011592,0.00001877,0.00000361,-0.00002500,0.00004567,-0.00000597
 ,0.00008706,0.00000556,0.00004899,0.00031035,0.00012657,0.00012321,0.0
 0014735,0.00006663,0.00045914,0.00002044,0.00150881,0.00025604,-0.0007
 1458,0.00079333,0.13357517,-0.01866197,0.21107067\\-0.00005565,0.,-0.0
 0001193,0.00015432,0.,-0.00010270,-0.00003740,0.00001331,0.00012832,-0
 .00000339,-0.00005246,-0.00008361,0.00003247,-0.00000007,-0.00010454,-
 0.00009707,-0.00000003,-0.00009793,-0.00017468,-0.00000057,0.00001829,
 -0.00003075,0.00000028,-0.00004175,-0.00000298,0.00005255,-0.00008341,
 -0.00003759,-0.00001333,0.00012808,-0.00001764,0.00000551,0.00002372,0
 .00008678,-0.00000005,-0.00004188,-0.00001799,-0.00000545,0.00002347,0
 .00000058,-0.00000599,0.00001913,-0.00001050,0.00001545,0.00004248,0.0
 0003111,0.00001890,0.00004276,0.00005580,0.00002458,0.00002506,0.00005
 561,-0.00002417,0.00002498,0.00002355,0.00001436,-0.00000339,0.0000235
 7,-0.00001450,-0.00000347,0.00003111,-0.00001892,0.00004271,-0.0000105
 3,-0.00001537,0.00004247,0.00000055,0.00000598,0.00001921,-0.00000702,
 -0.00002518,0.00000139,0.00000835,-0.00001602,-0.00001986,-0.00000225,
 0.,0.00003066,0.00000832,0.00001602,-0.00001989,-0.00000668,0.00002515
 ,0.00000163\\\@


 Just remember, when you're over the hill, you begin to pick up speed.
 -- Charles Schulz
 Job cpu time:       0 days  0 hours  3 minutes 24.8 seconds.
 Elapsed time:       0 days  0 hours  3 minutes 30.8 seconds.
 File lengths (MBytes):  RWF=    172 Int=      0 D2E=      0 Chk=     16 Scr=      1
 Normal termination of Gaussian 16 at Sat Feb 24 02:52:39 2024.
