 Entering Gaussian System, Link 0=g16
 Input=/Volumes/SSD-PMU3/b3lyp_6-31gd_freq/UOBWWIKVCWWDAZ-IWSPIJDZSA-N_calculating/gaussianinput0.gjf
 Output=/Volumes/SSD-PMU3/b3lyp_6-31gd_freq/UOBWWIKVCWWDAZ-IWSPIJDZSA-N_calculating/gaussianinput0.log
 Initial command:
 /Applications/g16/l1.exe "/Users/macmini_m1_2022/PycharmProjects/sphere_model/sphere_model_lib/Gau-86845.inp" -scrdir="/Users/macmini_m1_2022/PycharmProjects/sphere_model/sphere_model_lib/"
 Entering Link 1 = /Applications/g16/l1.exe PID=     86846.
  
 Copyright (c) 1988,1990,1992,1993,1995,1998,2003,2009,2016,
            Gaussian, Inc.  All Rights Reserved.
  
 This is part of the Gaussian(R) 16 program.  It is based on
 the Gaussian(R) 09 system (copyright 2009, Gaussian, Inc.),
 the Gaussian(R) 03 system (copyright 2003, Gaussian, Inc.),
 the Gaussian(R) 98 system (copyright 1998, Gaussian, Inc.),
 the Gaussian(R) 94 system (copyright 1995, Gaussian, Inc.),
 the Gaussian 92(TM) system (copyright 1992, Gaussian, Inc.),
 the Gaussian 90(TM) system (copyright 1990, Gaussian, Inc.),
 the Gaussian 88(TM) system (copyright 1988, Gaussian, Inc.),
 the Gaussian 86(TM) system (copyright 1986, Carnegie Mellon
 University), and the Gaussian 82(TM) system (copyright 1983,
 Carnegie Mellon University). Gaussian is a federally registered
 trademark of Gaussian, Inc.
  
 This software contains proprietary and confidential information,
 including trade secrets, belonging to Gaussian, Inc.
  
 This software is provided under written license and may be
 used, copied, transmitted, or stored only in accord with that
 written license.
  
 The following legend is applicable only to US Government
 contracts under FAR:
  
                    RESTRICTED RIGHTS LEGEND
  
 Use, reproduction and disclosure by the US Government is
 subject to restrictions as set forth in subparagraphs (a)
 and (c) of the Commercial Computer Software - Restricted
 Rights clause in FAR 52.227-19.
  
 Gaussian, Inc.
 340 Quinnipiac St., Bldg. 40, Wallingford CT 06492
  
  
 ---------------------------------------------------------------
 Warning -- This program may not be used in any manner that
 competes with the business of Gaussian, Inc. or will provide
 assistance to any competitor of Gaussian, Inc.  The licensee
 of this program is prohibited from giving any competitor of
 Gaussian, Inc. access to this program.  By using this program,
 the user acknowledges that Gaussian, Inc. is engaged in the
 business of creating and licensing software in the field of
 computational chemistry and represents and warrants to the
 licensee that it is not a competitor of Gaussian, Inc. and that
 it will not use this program in any manner prohibited above.
 ---------------------------------------------------------------
  

 Cite this work as:
 Gaussian 16, Revision A.03,
 M. J. Frisch, G. W. Trucks, H. B. Schlegel, G. E. Scuseria, 
 M. A. Robb, J. R. Cheeseman, G. Scalmani, V. Barone, 
 G. A. Petersson, H. Nakatsuji, X. Li, M. Caricato, A. V. Marenich, 
 J. Bloino, B. G. Janesko, R. Gomperts, B. Mennucci, H. P. Hratchian, 
 J. V. Ortiz, A. F. Izmaylov, J. L. Sonnenberg, D. Williams-Young, 
 F. Ding, F. Lipparini, F. Egidi, J. Goings, B. Peng, A. Petrone, 
 T. Henderson, D. Ranasinghe, V. G. Zakrzewski, J. Gao, N. Rega, 
 G. Zheng, W. Liang, M. Hada, M. Ehara, K. Toyota, R. Fukuda, 
 J. Hasegawa, M. Ishida, T. Nakajima, Y. Honda, O. Kitao, H. Nakai, 
 T. Vreven, K. Throssell, J. A. Montgomery, Jr., J. E. Peralta, 
 F. Ogliaro, M. J. Bearpark, J. J. Heyd, E. N. Brothers, K. N. Kudin, 
 V. N. Staroverov, T. A. Keith, R. Kobayashi, J. Normand, 
 K. Raghavachari, A. P. Rendell, J. C. Burant, S. S. Iyengar, 
 J. Tomasi, M. Cossi, J. M. Millam, M. Klene, C. Adamo, R. Cammi, 
 J. W. Ochterski, R. L. Martin, K. Morokuma, O. Farkas, 
 J. B. Foresman, and D. J. Fox, Gaussian, Inc., Wallingford CT, 2016.
 
 ******************************************
 Gaussian 16:  EM64M-G16RevA.03 25-Dec-2016
                24-Feb-2024 
 ******************************************
 %nprocshared=10
 Will use up to   10 processors via shared memory.
 %mem=12GB
 %chk= 0.chk
 ---------------------
 # freq b3lyp/6-31g(d)
 ---------------------
 1/10=4,30=1,38=1/1,3;
 2/12=2,17=6,18=5,40=1/2;
 3/5=1,6=6,7=1,11=2,25=1,30=1,71=2,74=-5,140=1/1,2,3;
 4//1;
 5/5=2,38=5,98=1/2;
 8/6=4,10=90,11=11/1;
 11/6=1,8=1,9=11,15=111,16=1/1,2,10;
 10/6=1/2;
 6/7=2,8=2,9=2,10=2,28=1/1;
 7/8=1,10=1,25=1/1,2,3,16;
 1/10=4,30=1/3;
 99//99;
 ---------
 good luck
 ---------
 Symbolic Z-matrix:
 Charge =  0 Multiplicity = 1
 O                     1.21619   0.        0. 
 C                     0.        0.        0. 
 C                    -0.81495  -1.28541   0.00126 
 C                    -1.86682  -1.27359   1.12829 
 C                    -2.72377  -0.00875   1.06523 
 Cl                   -3.95488  -0.08252   2.42787 
 C                    -1.89018   1.27874   1.14391 
 C                    -2.73069   2.56682   1.07727 
 C                    -1.85581   3.82797   1.12302 
 C                    -0.79646   3.82464   0.01263 
 C                     0.04951   2.54597   0.0539 
 C                    -0.82601   1.2863    0.00126 
 H                    -0.1351   -2.13612   0.10056 
 H                    -1.32087  -1.37263  -0.97203 
 H                    -1.3648   -1.31185   2.10265 
 H                    -2.50403  -2.16098   1.06161 
 H                    -3.33087  -0.00361   0.15349 
 H                    -1.35154   1.26411   2.10377 
 H                    -3.31506   2.56001   0.1441 
 H                    -3.45239   2.57676   1.90005 
 H                    -1.35675   3.88496   2.10137 
 H                    -2.48969   4.71992   1.04527 
 H                    -1.29524   3.90202  -0.96507 
 H                    -0.14813   4.70515   0.10092 
 H                     0.64803   2.52117   0.97413 
 H                     0.76717   2.52209  -0.77292 
 H                    -1.38724   1.28526  -0.95059 
 

 GradGradGradGradGradGradGradGradGradGradGradGradGradGradGradGradGradGrad
 Berny optimization.
 Initialization pass.
 Trust Radius=3.00D-01 FncErr=1.00D-07 GrdErr=1.00D-07 EigMax=2.50D+02 EigMin=1.00D-04
 Number of steps in this run=      2 maximum allowed number of steps=      2.
 GradGradGradGradGradGradGradGradGradGradGradGradGradGradGradGradGradGrad

                          Input orientation:                          
 ---------------------------------------------------------------------
 Center     Atomic      Atomic             Coordinates (Angstroms)
 Number     Number       Type             X           Y           Z
 ---------------------------------------------------------------------
      1          8           0        1.216189    0.000000    0.000000
      2          6           0        0.000000    0.000000    0.000000
      3          6           0       -0.814949   -1.285415    0.001262
      4          6           0       -1.866824   -1.273590    1.128287
      5          6           0       -2.723770   -0.008752    1.065234
      6         17           0       -3.954878   -0.082517    2.427866
      7          6           0       -1.890176    1.278736    1.143909
      8          6           0       -2.730690    2.566821    1.077272
      9          6           0       -1.855814    3.827973    1.123017
     10          6           0       -0.796462    3.824640    0.012633
     11          6           0        0.049506    2.545972    0.053904
     12          6           0       -0.826008    1.286300    0.001262
     13          1           0       -0.135099   -2.136115    0.100558
     14          1           0       -1.320865   -1.372634   -0.972026
     15          1           0       -1.364803   -1.311847    2.102646
     16          1           0       -2.504027   -2.160975    1.061613
     17          1           0       -3.330870   -0.003612    0.153490
     18          1           0       -1.351535    1.264106    2.103773
     19          1           0       -3.315060    2.560005    0.144101
     20          1           0       -3.452387    2.576755    1.900048
     21          1           0       -1.356752    3.884963    2.101373
     22          1           0       -2.489685    4.719923    1.045271
     23          1           0       -1.295242    3.902022   -0.965067
     24          1           0       -0.148128    4.705151    0.100924
     25          1           0        0.648032    2.521172    0.974125
     26          1           0        0.767166    2.522093   -0.772921
     27          1           0       -1.387239    1.285263   -0.950588
 ---------------------------------------------------------------------
                    Distance matrix (angstroms):
                    1          2          3          4          5
     1  O    0.000000
     2  C    1.216189   0.000000
     3  C    2.403709   1.521984   0.000000
     4  C    3.521368   2.525885   1.541676   0.000000
     5  C    4.081431   2.924675   2.530909   1.529100   0.000000
     6  Cl   5.713254   4.641379   4.146628   2.732678   1.837889
     7  C    3.548689   2.552736   3.006098   2.552481   1.535804
     8  C    4.829797   3.899455   4.434815   3.936702   2.575610
     9  C    5.035052   4.399840   5.337459   5.101578   3.934100
    10  C    4.321897   3.906710   5.110101   5.327505   4.417848
    11  C    2.801076   2.547024   3.928050   4.406322   3.903904
    12  C    2.413532   1.528679   2.571739   2.984379   2.531935
    13  H    2.529640   2.142744   1.093502   2.190673   3.486759
    14  H    3.043945   2.138608   1.100385   2.172371   2.824667
    15  H    3.578209   2.829267   2.172292   1.096752   2.149668
    16  H    4.431348   3.473757   2.178057   1.094498   2.163415
    17  H    4.549650   3.334407   2.827729   2.169448   1.095388
    18  H    3.552046   2.801869   3.347915   2.767128   2.140505
    19  H    5.206401   4.190944   4.588923   4.214553   2.792243
    20  H    5.660870   4.708378   5.047556   4.234948   2.812942
    21  H    5.111627   4.620550   5.606855   5.274252   4.254802
    22  H    6.091286   5.437720   6.321296   6.026363   4.734508
    23  H    4.739664   4.223125   5.298488   5.612112   4.632167
    24  H    4.899999   4.708564   6.028388   6.305136   5.457537
    25  H    2.761889   2.779420   4.192479   4.555051   4.216381
    26  H    2.675814   2.747163   4.195183   4.995969   4.687283
    27  H    3.055054   2.116589   2.800343   3.331584   2.743051
                    6          7          8          9         10
     6  Cl   0.000000
     7  C    2.786494   0.000000
     8  C    3.215856   1.539502   0.000000
     9  C    4.626082   2.549554   1.535580   0.000000
    10  C    5.574479   2.992929   2.541024   1.534663   0.000000
    11  C    5.346002   2.560540   2.962635   2.533135   1.533740
    12  C    4.189498   1.561459   2.534826   2.962927   2.538537
    13  H    4.921823   3.978704   5.459732   6.290996   5.997977
    14  H    4.490177   3.439631   4.659027   5.632201   5.315657
    15  H    2.885396   2.811817   4.238054   5.255332   5.574465
    16  H    2.879514   3.495025   4.733252   6.024238   6.312189
    17  H    2.359745   2.168166   2.796554   4.218627   4.593319
    18  H    2.948868   1.100767   2.157044   2.790984   3.352209
    19  H    3.550757   2.161379   1.101064   2.166891   2.821333
    20  H    2.757321   2.167280   1.094489   2.172181   3.489053
    21  H    4.753709   2.827313   2.161941   1.099769   2.163423
    22  H    5.207858   3.494411   2.166785   1.097001   2.175977
    23  H    5.870452   3.418092   2.830975   2.163289   1.100303
    24  H    6.544293   3.982822   3.492182   2.174927   1.097010
    25  H    5.484463   2.831073   3.380604   2.828276   2.170267
    26  H    6.271103   3.504517   3.957298   3.489975   2.181434
    27  H    4.458424   2.154044   2.749449   3.314329   2.779433
                   11         12         13         14         15
    11  C    0.000000
    12  C    1.534949   0.000000
    13  H    4.685957   3.492870   0.000000
    14  H    4.276204   2.874387   1.771830   0.000000
    15  H    4.591338   3.384743   2.489969   3.075587   0.000000
    16  H    5.448978   3.977914   2.556573   2.481339   1.761420
    17  H    4.235238   2.821592   3.842307   2.679763   3.062043
    18  H    2.794290   2.167308   4.129660   4.051404   2.575987
    19  H    3.365804   2.799662   5.671648   4.548429   4.757167
    20  H    3.958845   3.488342   6.037691   5.328214   4.418176
    21  H    2.821806   3.383076   6.461353   6.090106   5.196816
    22  H    3.486598   3.955698   7.310391   6.523410   6.226207
    23  H    2.164606   2.827715   6.240239   5.274723   6.049804
    24  H    2.168715   3.486832   6.841278   6.282197   6.456892
    25  H    1.098023   2.155033   4.802784   4.777634   4.474047
    26  H    1.095101   2.159803   4.824515   4.423620   5.245310
    27  H    2.159312   1.104989   3.791911   2.658812   4.008456
                   16         17         18         19         20
    16  H    0.000000
    17  H    2.482453   0.000000
    18  H    3.761052   3.054256   0.000000
    19  H    4.877218   2.563683   3.061878   0.000000
    20  H    4.903921   3.118257   2.485585   1.761388   0.000000
    21  H    6.241050   4.776233   2.620863   3.069430   2.478634
    22  H    6.880932   4.880025   3.789259   2.481652   2.500122
    23  H    6.506038   4.544109   4.047166   2.666632   3.823414
    24  H    7.322354   5.683754   4.159373   3.825307   4.322620
    25  H    5.644965   4.783266   2.618127   4.049265   4.204029
    26  H    5.999779   4.902175   3.787716   4.184129   4.995236
    27  H    4.143999   2.580288   3.054643   2.557304   3.749522
                   21         22         23         24         25
    21  H    0.000000
    22  H    1.759559   0.000000
    23  H    3.067104   2.477320   0.000000
    24  H    2.476949   2.524856   1.759893   0.000000
    25  H    2.673906   3.832080   3.073032   2.483166   0.000000
    26  H    3.824919   4.329360   2.488906   2.523313   1.751104
    27  H    4.009219   4.122588   2.618416   3.786384   3.061751
                   26         27
    26  H    0.000000
    27  H    2.490537   0.000000
 Stoichiometry    C10H15ClO
 Framework group  C1[X(C10H15ClO)]
 Deg. of freedom    75
 Full point group                 C1      NOp   1
 Largest Abelian subgroup         C1      NOp   1
 Largest concise Abelian subgroup C1      NOp   1
                         Standard orientation:                         
 ---------------------------------------------------------------------
 Center     Atomic      Atomic             Coordinates (Angstroms)
 Number     Number       Type             X           Y           Z
 ---------------------------------------------------------------------
      1          8           0        1.248459    2.774189   -0.586475
      2          6           0        0.529334    1.985197   -0.003838
      3          6           0       -0.885007    2.340088    0.432197
      4          6           0       -1.896289    1.282303   -0.052743
      5          6           0       -1.463634   -0.122930    0.367113
      6         17           0       -2.726133   -1.314906   -0.235484
      7          6           0       -0.064987   -0.493200   -0.148037
      8          6           0        0.395505   -1.902592    0.266245
      9          6           0        1.811092   -2.217238   -0.238844
     10          6           0        2.827077   -1.165865    0.227611
     11          6           0        2.385594    0.248855   -0.167380
     12          6           0        0.973137    0.564317    0.344010
     13          1           0       -1.134892    3.333814    0.050342
     14          1           0       -0.903781    2.389022    1.531333
     15          1           0       -1.971176    1.316785   -1.146392
     16          1           0       -2.892944    1.500914    0.343253
     17          1           0       -1.496998   -0.223210    1.457390
     18          1           0       -0.095972   -0.446486   -1.247375
     19          1           0        0.374477   -1.972921    1.364860
     20          1           0       -0.314502   -2.645732   -0.109970
     21          1           0        1.802105   -2.251481   -1.338043
     22          1           0        2.110466   -3.216526    0.100585
     23          1           0        2.933429   -1.224062    1.321214
     24          1           0        3.817698   -1.379572   -0.192426
     25          1           0        2.396640    0.354331   -1.260269
     26          1           0        3.084532    1.000286    0.214827
     27          1           0        0.976576    0.511111    1.447711
 ---------------------------------------------------------------------
 Rotational constants (GHZ):           0.9692748           0.7373798           0.4424169
 Standard basis: 6-31G(d) (6D, 7F)
 There are   214 symmetry adapted cartesian basis functions of A   symmetry.
 There are   214 symmetry adapted basis functions of A   symmetry.
   214 basis functions,   420 primitive gaussians,   214 cartesian basis functions
    50 alpha electrons       50 beta electrons
       nuclear repulsion energy       839.5669213350 Hartrees.
 NAtoms=   27 NActive=   27 NUniq=   27 SFac= 1.00D+00 NAtFMM=   60 NAOKFM=F Big=F
 Integral buffers will be    131072 words long.
 Raffenetti 2 integral format.
 Two-electron integral symmetry is turned on.
 One-electron integrals computed using PRISM.
 NBasis=   214 RedAO= T EigKep=  2.36D-03  NBF=   214
 NBsUse=   214 1.00D-06 EigRej= -1.00D+00 NBFU=   214
 ExpMin= 1.43D-01 ExpMax= 2.52D+04 ExpMxC= 3.78D+03 IAcc=3 IRadAn=         5 AccDes= 0.00D+00
 Harris functional with IExCor=  402 and IRadAn=       5 diagonalized for initial guess.
 HarFok:  IExCor=  402 AccDes= 0.00D+00 IRadAn=         5 IDoV= 1 UseB2=F ITyADJ=14
 ICtDFT=  3500011 ScaDFX=  1.000000  1.000000  1.000000  1.000000
 FoFCou: FMM=F IPFlag=           0 FMFlag=      100000 FMFlg1=           0
         NFxFlg=           0 DoJE=T BraDBF=F KetDBF=T FulRan=T
         wScrn=  0.000000 ICntrl=       500 IOpCl=  0 I1Cent=   200000004 NGrid=           0
         NMat0=    1 NMatS0=      1 NMatT0=    0 NMatD0=    1 NMtDS0=    0 NMtDT0=    0
 Petite list used in FoFCou.
 Requested convergence on RMS density matrix=1.00D-08 within 128 cycles.
 Requested convergence on MAX density matrix=1.00D-06.
 Requested convergence on             energy=1.00D-06.
 No special actions if energy rises.
 Integral accuracy reduced to 1.0D-05 until final iterations.
 Initial convergence to 1.0D-05 achieved.  Increase integral accuracy.
 SCF Done:  E(RB3LYP) =  -925.541868847     A.U. after   14 cycles
            NFock= 14  Conv=0.43D-08     -V/T= 2.0064
 DoSCS=F DFT=T ScalE2(SS,OS)=  1.000000  1.000000
 Range of M.O.s used for correlation:     1   214
 NBasis=   214 NAE=    50 NBE=    50 NFC=     0 NFV=     0
 NROrb=    214 NOA=    50 NOB=    50 NVA=   164 NVB=   164
 Symmetrizing basis deriv contribution to polar:
 IMax=3 JMax=2 DiffMx= 0.00D+00
 G2DrvN: will do    28 centers at a time, making    1 passes.
 Calling FoFCou, ICntrl=  3107 FMM=F I1Cent=   0 AccDes= 0.00D+00.
 End of G2Drv F.D. properties file   721 does not exist.
 End of G2Drv F.D. properties file   722 does not exist.
 End of G2Drv F.D. properties file   788 does not exist.
          IDoAtm=111111111111111111111111111
          Differentiating once with respect to electric field.
                with respect to dipole field.
          Differentiating once with respect to nuclear coordinates.
 Keep R1 ints in memory in canonical form, NReq=275044634.
          There are    84 degrees of freedom in the 1st order CPHF.  IDoFFX=6 NUNeed=     3.
     81 vectors produced by pass  0 Test12= 9.76D-15 1.19D-09 XBig12= 7.94D+01 2.17D+00.
 AX will form    81 AO Fock derivatives at one time.
     81 vectors produced by pass  1 Test12= 9.76D-15 1.19D-09 XBig12= 6.89D+00 7.44D-01.
     81 vectors produced by pass  2 Test12= 9.76D-15 1.19D-09 XBig12= 9.32D-02 3.01D-02.
     81 vectors produced by pass  3 Test12= 9.76D-15 1.19D-09 XBig12= 2.73D-04 1.66D-03.
     81 vectors produced by pass  4 Test12= 9.76D-15 1.19D-09 XBig12= 3.24D-07 5.40D-05.
     43 vectors produced by pass  5 Test12= 9.76D-15 1.19D-09 XBig12= 2.37D-10 1.60D-06.
      3 vectors produced by pass  6 Test12= 9.76D-15 1.19D-09 XBig12= 1.43D-13 3.21D-08.
 InvSVY:  IOpt=1 It=  1 EMax= 2.31D-14
 Solved reduced A of dimension   451 with    84 vectors.
 Isotropic polarizability for W=    0.000000      110.84 Bohr**3.
 End of Minotr F.D. properties file   721 does not exist.
 End of Minotr F.D. properties file   722 does not exist.
 End of Minotr F.D. properties file   788 does not exist.

 **********************************************************************

            Population analysis using the SCF density.

 **********************************************************************

 Orbital symmetries:
       Occupied  (A) (A) (A) (A) (A) (A) (A) (A) (A) (A) (A) (A)
                 (A) (A) (A) (A) (A) (A) (A) (A) (A) (A) (A) (A)
                 (A) (A) (A) (A) (A) (A) (A) (A) (A) (A) (A) (A)
                 (A) (A) (A) (A) (A) (A) (A) (A) (A) (A) (A) (A)
                 (A) (A)
       Virtual   (A) (A) (A) (A) (A) (A) (A) (A) (A) (A) (A) (A)
                 (A) (A) (A) (A) (A) (A) (A) (A) (A) (A) (A) (A)
                 (A) (A) (A) (A) (A) (A) (A) (A) (A) (A) (A) (A)
                 (A) (A) (A) (A) (A) (A) (A) (A) (A) (A) (A) (A)
                 (A) (A) (A) (A) (A) (A) (A) (A) (A) (A) (A) (A)
                 (A) (A) (A) (A) (A) (A) (A) (A) (A) (A) (A) (A)
                 (A) (A) (A) (A) (A) (A) (A) (A) (A) (A) (A) (A)
                 (A) (A) (A) (A) (A) (A) (A) (A) (A) (A) (A) (A)
                 (A) (A) (A) (A) (A) (A) (A) (A) (A) (A) (A) (A)
                 (A) (A) (A) (A) (A) (A) (A) (A) (A) (A) (A) (A)
                 (A) (A) (A) (A) (A) (A) (A) (A) (A) (A) (A) (A)
                 (A) (A) (A) (A) (A) (A) (A) (A) (A) (A) (A) (A)
                 (A) (A) (A) (A) (A) (A) (A) (A) (A) (A) (A) (A)
                 (A) (A) (A) (A) (A) (A) (A) (A)
 The electronic state is 1-A.
 Alpha  occ. eigenvalues -- -101.53220 -19.14448 -10.27772 -10.25862 -10.21223
 Alpha  occ. eigenvalues --  -10.20893 -10.20642 -10.20354 -10.18834 -10.18584
 Alpha  occ. eigenvalues --  -10.18499 -10.18473  -9.44859  -7.21229  -7.20287
 Alpha  occ. eigenvalues --   -7.20280  -1.04328  -0.88002  -0.83268  -0.80181
 Alpha  occ. eigenvalues --   -0.75386  -0.75335  -0.70206  -0.63362  -0.62897
 Alpha  occ. eigenvalues --   -0.58950  -0.56640  -0.54170  -0.48172  -0.47771
 Alpha  occ. eigenvalues --   -0.47025  -0.45864  -0.45388  -0.42985  -0.42809
 Alpha  occ. eigenvalues --   -0.41817  -0.40636  -0.38516  -0.37785  -0.37455
 Alpha  occ. eigenvalues --   -0.36378  -0.35742  -0.35041  -0.34336  -0.32811
 Alpha  occ. eigenvalues --   -0.31979  -0.31125  -0.29434  -0.29292  -0.24524
 Alpha virt. eigenvalues --   -0.02301   0.01541   0.07843   0.08872   0.10819
 Alpha virt. eigenvalues --    0.11690   0.12804   0.13361   0.14150   0.14842
 Alpha virt. eigenvalues --    0.15587   0.16631   0.17101   0.17368   0.18011
 Alpha virt. eigenvalues --    0.18502   0.18656   0.18966   0.20289   0.21343
 Alpha virt. eigenvalues --    0.22792   0.24194   0.25387   0.25517   0.26978
 Alpha virt. eigenvalues --    0.28321   0.29042   0.33885   0.35700   0.40945
 Alpha virt. eigenvalues --    0.44770   0.46338   0.48400   0.49007   0.50438
 Alpha virt. eigenvalues --    0.52557   0.52633   0.53467   0.56189   0.57078
 Alpha virt. eigenvalues --    0.58315   0.59817   0.60128   0.61880   0.62300
 Alpha virt. eigenvalues --    0.65174   0.65802   0.67655   0.68908   0.69028
 Alpha virt. eigenvalues --    0.70915   0.71984   0.75034   0.76842   0.78045
 Alpha virt. eigenvalues --    0.79181   0.81362   0.82116   0.82302   0.84510
 Alpha virt. eigenvalues --    0.85576   0.85956   0.86744   0.87124   0.87985
 Alpha virt. eigenvalues --    0.88848   0.89825   0.90397   0.91297   0.92101
 Alpha virt. eigenvalues --    0.92854   0.93235   0.94064   0.94753   0.96010
 Alpha virt. eigenvalues --    0.97152   0.98036   1.01783   1.03351   1.05326
 Alpha virt. eigenvalues --    1.09522   1.12025   1.12491   1.13260   1.19360
 Alpha virt. eigenvalues --    1.19994   1.24380   1.27880   1.32235   1.33056
 Alpha virt. eigenvalues --    1.40147   1.40653   1.44267   1.47842   1.48800
 Alpha virt. eigenvalues --    1.55210   1.58747   1.64562   1.64988   1.69019
 Alpha virt. eigenvalues --    1.70907   1.72660   1.73949   1.74434   1.77835
 Alpha virt. eigenvalues --    1.80751   1.81180   1.84312   1.85347   1.86689
 Alpha virt. eigenvalues --    1.89520   1.91134   1.92015   1.94499   1.95513
 Alpha virt. eigenvalues --    1.96921   1.98592   1.98846   2.00858   2.01507
 Alpha virt. eigenvalues --    2.04736   2.05770   2.07207   2.09203   2.12587
 Alpha virt. eigenvalues --    2.19502   2.20255   2.25279   2.28843   2.29807
 Alpha virt. eigenvalues --    2.32142   2.33871   2.37052   2.37955   2.39211
 Alpha virt. eigenvalues --    2.41784   2.43725   2.46728   2.51138   2.56608
 Alpha virt. eigenvalues --    2.58833   2.60064   2.61267   2.62781   2.68600
 Alpha virt. eigenvalues --    2.72765   2.75560   2.77711   2.82733   2.85638
 Alpha virt. eigenvalues --    2.98072   3.04123   4.00197   4.10726   4.18763
 Alpha virt. eigenvalues --    4.22709   4.27565   4.30298   4.33844   4.49991
 Alpha virt. eigenvalues --    4.54477   4.57922   4.60367   4.68950
          Condensed to atoms (all electrons):
               1          2          3          4          5          6
     1  O    7.997675   0.587780  -0.073784   0.001013   0.000187   0.000000
     2  C    0.587780   4.522200   0.340153  -0.029476  -0.011878  -0.000012
     3  C   -0.073784   0.340153   5.313059   0.312058  -0.035834   0.005341
     4  C    0.001013  -0.029476   0.312058   5.096672   0.340925  -0.060910
     5  C    0.000187  -0.011878  -0.035834   0.340925   5.201859   0.237843
     6  Cl   0.000000  -0.000012   0.005341  -0.060910   0.237843  17.010380
     7  C    0.000331  -0.019333  -0.007434  -0.033732   0.329378  -0.056709
     8  C   -0.000056   0.002470  -0.000123   0.004307  -0.039622  -0.008972
     9  C   -0.000011  -0.000018  -0.000023  -0.000110   0.003916   0.000114
    10  C    0.000636   0.004388  -0.000071  -0.000019   0.000111  -0.000012
    11  C    0.006705  -0.027189   0.005995   0.000035   0.003534  -0.000136
    12  C   -0.093095   0.278681  -0.137252  -0.003165  -0.030282   0.004834
    13  H    0.005312  -0.021866   0.344735  -0.024297   0.003770  -0.000135
    14  H    0.001195  -0.030917   0.351590  -0.035544  -0.003439  -0.000041
    15  H    0.000435  -0.002581  -0.039198   0.376970  -0.040258   0.000323
    16  H   -0.000057   0.003414  -0.028232   0.372449  -0.031991   0.000125
    17  H   -0.000006  -0.001335  -0.000871  -0.045974   0.363587  -0.047996
    18  H    0.000419  -0.002977   0.000272  -0.005463  -0.048518   0.000843
    19  H    0.000000   0.000002  -0.000014   0.000071  -0.005653   0.000125
    20  H    0.000000  -0.000066  -0.000004   0.000085  -0.006441   0.009452
    21  H   -0.000000  -0.000035   0.000000   0.000002   0.000034   0.000020
    22  H    0.000000   0.000007  -0.000000   0.000001  -0.000121   0.000002
    23  H   -0.000003  -0.000069  -0.000000   0.000001  -0.000019   0.000001
    24  H    0.000002  -0.000075   0.000002  -0.000000   0.000007  -0.000000
    25  H    0.003667  -0.004432   0.000254  -0.000055   0.000077  -0.000002
    26  H    0.005144  -0.003262   0.000236  -0.000008  -0.000130   0.000002
    27  H    0.001156  -0.036253   0.002624  -0.001715  -0.004356  -0.000047
               7          8          9         10         11         12
     1  O    0.000331  -0.000056  -0.000011   0.000636   0.006705  -0.093095
     2  C   -0.019333   0.002470  -0.000018   0.004388  -0.027189   0.278681
     3  C   -0.007434  -0.000123  -0.000023  -0.000071   0.005995  -0.137252
     4  C   -0.033732   0.004307  -0.000110  -0.000019   0.000035  -0.003165
     5  C    0.329378  -0.039622   0.003916   0.000111   0.003534  -0.030282
     6  Cl  -0.056709  -0.008972   0.000114  -0.000012  -0.000136   0.004834
     7  C    5.038073   0.380745  -0.033167  -0.012784  -0.033555   0.330940
     8  C    0.380745   5.039396   0.375453  -0.045906  -0.012288  -0.037370
     9  C   -0.033167   0.375453   5.000180   0.378410  -0.042112  -0.013447
    10  C   -0.012784  -0.045906   0.378410   5.025221   0.356512  -0.034039
    11  C   -0.033555  -0.012288  -0.042112   0.356512   5.009035   0.355669
    12  C    0.330940  -0.037370  -0.013447  -0.034039   0.355669   5.344854
    13  H   -0.000048   0.000010   0.000000   0.000001  -0.000161   0.006595
    14  H   -0.001185  -0.000010   0.000001  -0.000003  -0.000100   0.003660
    15  H   -0.006561   0.000011   0.000001  -0.000001  -0.000049   0.000313
    16  H    0.004592  -0.000131   0.000001   0.000000   0.000009  -0.000328
    17  H   -0.044528  -0.005635  -0.000009  -0.000024  -0.000040  -0.004118
    18  H    0.369609  -0.043964  -0.003532  -0.000575  -0.004368  -0.047964
    19  H   -0.042365   0.367099  -0.039779  -0.004485  -0.000631  -0.007685
    20  H   -0.031019   0.370633  -0.029706   0.004478   0.000006   0.004593
    21  H   -0.005797  -0.040269   0.372774  -0.040716  -0.003983  -0.001109
    22  H    0.004368  -0.032181   0.370103  -0.032461   0.004624   0.000224
    23  H   -0.000932  -0.004332  -0.041327   0.369758  -0.038353  -0.006237
    24  H    0.000185   0.004708  -0.032434   0.371514  -0.032830   0.004381
    25  H   -0.006626  -0.000764  -0.004497  -0.039439   0.376485  -0.041907
    26  H    0.004406   0.000057   0.004579  -0.032022   0.372082  -0.034083
    27  H   -0.044346  -0.007475  -0.000822  -0.002709  -0.040463   0.345581
              13         14         15         16         17         18
     1  O    0.005312   0.001195   0.000435  -0.000057  -0.000006   0.000419
     2  C   -0.021866  -0.030917  -0.002581   0.003414  -0.001335  -0.002977
     3  C    0.344735   0.351590  -0.039198  -0.028232  -0.000871   0.000272
     4  C   -0.024297  -0.035544   0.376970   0.372449  -0.045974  -0.005463
     5  C    0.003770  -0.003439  -0.040258  -0.031991   0.363587  -0.048518
     6  Cl  -0.000135  -0.000041   0.000323   0.000125  -0.047996   0.000843
     7  C   -0.000048  -0.001185  -0.006561   0.004592  -0.044528   0.369609
     8  C    0.000010  -0.000010   0.000011  -0.000131  -0.005635  -0.043964
     9  C    0.000000   0.000001   0.000001   0.000001  -0.000009  -0.003532
    10  C    0.000001  -0.000003  -0.000001   0.000000  -0.000024  -0.000575
    11  C   -0.000161  -0.000100  -0.000049   0.000009  -0.000040  -0.004368
    12  C    0.006595   0.003660   0.000313  -0.000328  -0.004118  -0.047964
    13  H    0.544538  -0.025666  -0.003478  -0.002623  -0.000077  -0.000037
    14  H   -0.025666   0.576190   0.005334  -0.005787   0.004208   0.000090
    15  H   -0.003478   0.005334   0.564068  -0.033216   0.005718   0.004915
    16  H   -0.002623  -0.005787  -0.033216   0.560082  -0.004518  -0.000048
    17  H   -0.000077   0.004208   0.005718  -0.004518   0.587369   0.006392
    18  H   -0.000037   0.000090   0.004915  -0.000048   0.006392   0.610780
    19  H   -0.000000  -0.000007   0.000005   0.000002   0.005453   0.006171
    20  H   -0.000000   0.000000   0.000002   0.000003  -0.000025  -0.003839
    21  H   -0.000000  -0.000000  -0.000001   0.000000   0.000007   0.004932
    22  H    0.000000  -0.000000   0.000000  -0.000000  -0.000000  -0.000054
    23  H    0.000000  -0.000001  -0.000000  -0.000000  -0.000005   0.000144
    24  H   -0.000000  -0.000000  -0.000000   0.000000  -0.000000  -0.000028
    25  H    0.000000  -0.000004  -0.000010   0.000000   0.000004   0.005120
    26  H   -0.000004  -0.000018  -0.000000   0.000000   0.000003  -0.000019
    27  H   -0.000115   0.001536   0.000105  -0.000032   0.005450   0.006784
              19         20         21         22         23         24
     1  O    0.000000   0.000000  -0.000000   0.000000  -0.000003   0.000002
     2  C    0.000002  -0.000066  -0.000035   0.000007  -0.000069  -0.000075
     3  C   -0.000014  -0.000004   0.000000  -0.000000  -0.000000   0.000002
     4  C    0.000071   0.000085   0.000002   0.000001   0.000001  -0.000000
     5  C   -0.005653  -0.006441   0.000034  -0.000121  -0.000019   0.000007
     6  Cl   0.000125   0.009452   0.000020   0.000002   0.000001  -0.000000
     7  C   -0.042365  -0.031019  -0.005797   0.004368  -0.000932   0.000185
     8  C    0.367099   0.370633  -0.040269  -0.032181  -0.004332   0.004708
     9  C   -0.039779  -0.029706   0.372774   0.370103  -0.041327  -0.032434
    10  C   -0.004485   0.004478  -0.040716  -0.032461   0.369758   0.371514
    11  C   -0.000631   0.000006  -0.003983   0.004624  -0.038353  -0.032830
    12  C   -0.007685   0.004593  -0.001109   0.000224  -0.006237   0.004381
    13  H   -0.000000  -0.000000  -0.000000   0.000000   0.000000  -0.000000
    14  H   -0.000007   0.000000  -0.000000  -0.000000  -0.000001  -0.000000
    15  H    0.000005   0.000002  -0.000001   0.000000  -0.000000  -0.000000
    16  H    0.000002   0.000003   0.000000  -0.000000  -0.000000   0.000000
    17  H    0.005453  -0.000025   0.000007  -0.000000  -0.000005  -0.000000
    18  H    0.006171  -0.003839   0.004932  -0.000054   0.000144  -0.000028
    19  H    0.617063  -0.034269   0.005916  -0.004321   0.004808  -0.000049
    20  H   -0.034269   0.559054  -0.003890  -0.002260  -0.000048  -0.000142
    21  H    0.005916  -0.003890   0.606768  -0.036057   0.005994  -0.004379
    22  H   -0.004321  -0.002260  -0.036057   0.597646  -0.004479  -0.002160
    23  H    0.004808  -0.000048   0.005994  -0.004479   0.616978  -0.036499
    24  H   -0.000049  -0.000142  -0.004379  -0.002160  -0.036499   0.595936
    25  H    0.000147  -0.000021   0.004561  -0.000057   0.005677  -0.004096
    26  H   -0.000021   0.000012  -0.000048  -0.000150  -0.004111  -0.002040
    27  H    0.005981  -0.000010   0.000180  -0.000047   0.005073  -0.000050
              25         26         27
     1  O    0.003667   0.005144   0.001156
     2  C   -0.004432  -0.003262  -0.036253
     3  C    0.000254   0.000236   0.002624
     4  C   -0.000055  -0.000008  -0.001715
     5  C    0.000077  -0.000130  -0.004356
     6  Cl  -0.000002   0.000002  -0.000047
     7  C   -0.006626   0.004406  -0.044346
     8  C   -0.000764   0.000057  -0.007475
     9  C   -0.004497   0.004579  -0.000822
    10  C   -0.039439  -0.032022  -0.002709
    11  C    0.376485   0.372082  -0.040463
    12  C   -0.041907  -0.034083   0.345581
    13  H    0.000000  -0.000004  -0.000115
    14  H   -0.000004  -0.000018   0.001536
    15  H   -0.000010  -0.000000   0.000105
    16  H    0.000000   0.000000  -0.000032
    17  H    0.000004   0.000003   0.005450
    18  H    0.005120  -0.000019   0.006784
    19  H    0.000147  -0.000021   0.005981
    20  H   -0.000021   0.000012  -0.000010
    21  H    0.004561  -0.000048   0.000180
    22  H   -0.000057  -0.000150  -0.000047
    23  H    0.005677  -0.004111   0.005073
    24  H   -0.004096  -0.002040  -0.000050
    25  H    0.587986  -0.032948   0.006098
    26  H   -0.032948   0.574536  -0.003846
    27  H    0.006098  -0.003846   0.622325
 Mulliken charges:
               1
     1  O   -0.444643
     2  C    0.452680
     3  C   -0.353480
     4  C   -0.264119
     5  C   -0.226684
     6  Cl  -0.094434
     7  C   -0.082508
     8  C   -0.265790
     9  C   -0.264540
    10  C   -0.265766
    11  C   -0.254435
    12  C   -0.188245
    13  H    0.173543
    14  H    0.158918
    15  H    0.167153
    16  H    0.166284
    17  H    0.176972
    18  H    0.144916
    19  H    0.126435
    20  H    0.163422
    21  H    0.135097
    22  H    0.137372
    23  H    0.127980
    24  H    0.138049
    25  H    0.144780
    26  H    0.151654
    27  H    0.139391
 Sum of Mulliken charges =  -0.00000
 Mulliken charges with hydrogens summed into heavy atoms:
               1
     1  O   -0.444643
     2  C    0.452680
     3  C   -0.021019
     4  C    0.069318
     5  C   -0.049713
     6  Cl  -0.094434
     7  C    0.062408
     8  C    0.024067
     9  C    0.007929
    10  C    0.000263
    11  C    0.041999
    12  C   -0.048854
 APT charges:
               1
     1  O   -0.633662
     2  C    0.721499
     3  C   -0.058008
     4  C    0.066364
     5  C    0.459125
     6  Cl  -0.410767
     7  C    0.033933
     8  C    0.083102
     9  C    0.125554
    10  C    0.123660
    11  C    0.090535
    12  C   -0.067743
    13  H   -0.025101
    14  H   -0.005122
    15  H   -0.012970
    16  H   -0.027342
    17  H   -0.057866
    18  H   -0.036461
    19  H   -0.046109
    20  H   -0.019110
    21  H   -0.046430
    22  H   -0.058138
    23  H   -0.050860
    24  H   -0.058584
    25  H   -0.028589
    26  H   -0.033217
    27  H   -0.027695
 Sum of APT charges =   0.00000
 APT charges with hydrogens summed into heavy atoms:
               1
     1  O   -0.633662
     2  C    0.721499
     3  C   -0.088231
     4  C    0.026051
     5  C    0.401260
     6  Cl  -0.410767
     7  C   -0.002527
     8  C    0.017883
     9  C    0.020987
    10  C    0.014216
    11  C    0.028729
    12  C   -0.095438
 Electronic spatial extent (au):  <R**2>=           2503.7995
 Charge=             -0.0000 electrons
 Dipole moment (field-independent basis, Debye):
    X=              0.2050    Y=             -0.5531    Z=              1.7168  Tot=              1.8153
 Quadrupole moment (field-independent basis, Debye-Ang):
   XX=            -85.2583   YY=            -86.8158   ZZ=            -78.0924
   XY=            -10.0149   XZ=              0.3257   YZ=              3.4626
 Traceless Quadrupole moment (field-independent basis, Debye-Ang):
   XX=             -1.8695   YY=             -3.4270   ZZ=              5.2965
   XY=            -10.0149   XZ=              0.3257   YZ=              3.4626
 Octapole moment (field-independent basis, Debye-Ang**2):
  XXX=              9.2780  YYY=            -17.0146  ZZZ=             -1.1281  XYY=            -17.0049
  XXY=              5.6125  XXZ=              2.2976  XZZ=             -2.7549  YZZ=              2.1465
  YYZ=              8.5905  XYZ=              4.4061
 Hexadecapole moment (field-independent basis, Debye-Ang**3):
 XXXX=          -1769.5308 YYYY=          -1409.0770 ZZZZ=           -184.2091 XXXY=             -5.6250
 XXXZ=             -2.8777 YYYX=            -33.5897 YYYZ=             23.6155 ZZZX=             -2.8513
 ZZZY=             -2.9655 XXYY=           -530.9367 XXZZ=           -321.7515 YYZZ=           -258.9499
 XXYZ=              9.3120 YYXZ=             16.0805 ZZXY=              4.4591
 N-N= 8.395669213350D+02 E-N=-3.851958862082D+03  KE= 9.196494430585D+02
  Exact polarizability: 124.901   3.583 119.655  -0.525   0.136  87.970
 Approx polarizability: 163.992  16.883 163.290  -1.877  -2.737 147.893
 Calling FoFJK, ICntrl=    100127 FMM=F ISym2X=0 I1Cent= 0 IOpClX= 0 NMat=1 NMatS=1 NMatT=0.
 Full mass-weighted force constant matrix:
 Low frequencies ---   -9.3920   -0.0026   -0.0024    0.0017    2.6841    5.7076
 Low frequencies ---   68.9792   80.9581  146.4408
 Diagonal vibrational polarizability:
       10.1404443       8.1046195      25.8056385
 Harmonic frequencies (cm**-1), IR intensities (KM/Mole), Raman scattering
 activities (A**4/AMU), depolarization ratios for plane and unpolarized
 incident light, reduced masses (AMU), force constants (mDyne/A),
 and normal coordinates:
                      1                      2                      3
                      A                      A                      A
 Frequencies --     68.9787                80.9578               146.4398
 Red. masses --      7.1447                 3.0995                 2.8159
 Frc consts  --      0.0200                 0.0120                 0.0356
 IR Inten    --      4.6119                 0.1330                 1.2098
  Atom  AN      X      Y      Z        X      Y      Z        X      Y      Z
     1   8     0.21   0.14   0.39     0.00   0.07   0.10     0.00   0.07   0.05
     2   6     0.03   0.04   0.03     0.00   0.01   0.03     0.00   0.01  -0.03
     3   6    -0.07   0.02  -0.26    -0.00  -0.02   0.05     0.02  -0.03   0.07
     4   6    -0.01  -0.04  -0.25     0.01  -0.00  -0.00    -0.00  -0.00   0.07
     5   6    -0.01   0.02  -0.06    -0.02  -0.01   0.01     0.03  -0.03  -0.05
     6  17    -0.03  -0.07   0.17     0.01   0.00  -0.09    -0.06   0.02   0.03
     7   6    -0.02  -0.01  -0.05    -0.01  -0.03   0.07    -0.00  -0.02  -0.14
     8   6    -0.02  -0.00  -0.05     0.01   0.02   0.22    -0.00  -0.02  -0.12
     9   6    -0.02  -0.00  -0.06    -0.03  -0.05   0.13     0.09  -0.03   0.14
    10   6    -0.02  -0.01  -0.06     0.02   0.02  -0.13     0.01   0.05   0.15
    11   6    -0.02  -0.00  -0.04    -0.04  -0.02  -0.21     0.00  -0.02  -0.12
    12   6    -0.02  -0.01  -0.05     0.02   0.00  -0.05    -0.00  -0.02  -0.14
    13   1    -0.02  -0.02  -0.40    -0.01  -0.00   0.11    -0.00  -0.00   0.15
    14   1    -0.21   0.16  -0.27    -0.00  -0.08   0.06     0.10  -0.09   0.07
    15   1     0.08  -0.16  -0.26     0.06   0.01  -0.01    -0.08   0.07   0.08
    16   1    -0.04  -0.01  -0.35    -0.01   0.00  -0.05     0.03  -0.03   0.16
    17   1     0.03   0.18  -0.04    -0.09  -0.01   0.01     0.12  -0.08  -0.05
    18   1    -0.02  -0.02  -0.05    -0.00  -0.14   0.06    -0.04  -0.01  -0.14
    19   1    -0.01   0.00  -0.05     0.10   0.17   0.23    -0.19  -0.04  -0.13
    20   1    -0.02  -0.00  -0.04    -0.02  -0.03   0.37     0.07  -0.03  -0.25
    21   1    -0.03   0.00  -0.06    -0.14  -0.22   0.14     0.28  -0.17   0.14
    22   1    -0.02  -0.00  -0.07     0.00   0.00   0.26     0.06   0.02   0.31
    23   1    -0.01  -0.01  -0.06     0.18   0.14  -0.14    -0.15   0.22   0.17
    24   1    -0.02  -0.00  -0.07    -0.04  -0.02  -0.25     0.07   0.01   0.32
    25   1    -0.01   0.01  -0.04    -0.19  -0.12  -0.22     0.01  -0.22  -0.14
    26   1    -0.02  -0.00  -0.03    -0.00   0.02  -0.37    -0.03   0.06  -0.23
    27   1    -0.02  -0.03  -0.05     0.14   0.01  -0.05     0.01  -0.06  -0.14
                      4                      5                      6
                      A                      A                      A
 Frequencies --    185.8653               196.5795               269.3528
 Red. masses --      3.5446                 3.7289                 2.8943
 Frc consts  --      0.0721                 0.0849                 0.1237
 IR Inten    --      1.2057                 0.0330                 3.6606
  Atom  AN      X      Y      Z        X      Y      Z        X      Y      Z
     1   8     0.08   0.06   0.03    -0.11   0.05  -0.04    -0.05   0.18   0.00
     2   6     0.02   0.04  -0.08    -0.01   0.04   0.06     0.01   0.05  -0.10
     3   6     0.00   0.07  -0.11     0.01  -0.02   0.16     0.01  -0.06   0.02
     4   6    -0.10   0.01   0.21     0.05   0.08  -0.16    -0.01  -0.03   0.03
     5   6    -0.00   0.00   0.09     0.01   0.09  -0.09     0.02  -0.04  -0.05
     6  17     0.14  -0.08  -0.05     0.14  -0.08   0.06    -0.06  -0.01   0.00
     7   6    -0.03   0.06   0.01     0.01   0.07  -0.05     0.03  -0.01  -0.07
     8   6    -0.09   0.03  -0.03    -0.11   0.04  -0.05     0.04   0.05   0.11
     9   6    -0.10  -0.02   0.00    -0.12  -0.05   0.03    -0.05  -0.03  -0.04
    10   6    -0.09  -0.05   0.04    -0.09  -0.07   0.03     0.01  -0.11   0.02
    11   6    -0.02  -0.05  -0.02     0.00  -0.05  -0.03     0.12  -0.03   0.11
    12   6    -0.01   0.04  -0.04     0.03   0.03  -0.00     0.04   0.04  -0.12
    13   1    -0.02  -0.00  -0.27     0.03   0.08   0.39    -0.06  -0.03   0.15
    14   1     0.11   0.31  -0.11    -0.05  -0.32   0.17     0.11  -0.16   0.03
    15   1    -0.40  -0.01   0.23     0.28   0.14  -0.17    -0.09   0.03   0.04
    16   1     0.00   0.01   0.48    -0.03   0.07  -0.34     0.02  -0.06   0.12
    17   1     0.03  -0.11   0.08     0.02   0.20  -0.08     0.06  -0.07  -0.06
    18   1    -0.09   0.08   0.01     0.05   0.09  -0.05     0.02  -0.13  -0.07
    19   1    -0.11   0.01  -0.03    -0.18   0.03  -0.05     0.21   0.25   0.13
    20   1    -0.11   0.08  -0.06    -0.14   0.10  -0.10    -0.04  -0.00   0.36
    21   1    -0.07  -0.02   0.00    -0.07  -0.10   0.03    -0.14   0.07  -0.04
    22   1    -0.15  -0.04   0.01    -0.18  -0.05   0.08    -0.07  -0.07  -0.15
    23   1    -0.17  -0.03   0.05    -0.14  -0.04   0.03    -0.01  -0.21   0.01
    24   1    -0.07  -0.10   0.12    -0.08  -0.14   0.08     0.00  -0.13   0.02
    25   1    -0.01  -0.10  -0.03    -0.01  -0.09  -0.03     0.37   0.12   0.13
    26   1     0.02  -0.06  -0.06     0.06  -0.09  -0.06     0.09  -0.12   0.36
    27   1    -0.00   0.09  -0.04     0.04  -0.02  -0.01    -0.07   0.09  -0.12
                      7                      8                      9
                      A                      A                      A
 Frequencies --    292.2836               298.4383               340.9535
 Red. masses --      5.0103                 1.9818                 4.1832
 Frc consts  --      0.2522                 0.1040                 0.2865
 IR Inten    --      3.8928                 0.2030                 4.2084
  Atom  AN      X      Y      Z        X      Y      Z        X      Y      Z
     1   8    -0.20   0.14   0.02     0.05   0.02  -0.01     0.01  -0.12   0.07
     2   6    -0.09   0.03  -0.00     0.03   0.01  -0.03    -0.10  -0.10  -0.03
     3   6    -0.14  -0.01  -0.10     0.05  -0.02   0.03    -0.04   0.01   0.03
     4   6     0.02  -0.12  -0.04     0.06  -0.01  -0.03    -0.02   0.03   0.00
     5   6     0.10  -0.03   0.12    -0.04  -0.02   0.06     0.06   0.02  -0.06
     6  17     0.07   0.18  -0.00    -0.02  -0.03  -0.02     0.14   0.11   0.03
     7   6     0.08  -0.04   0.11    -0.03  -0.03   0.09    -0.05  -0.13  -0.14
     8   6     0.04  -0.12  -0.04     0.02  -0.02   0.05     0.02  -0.04   0.11
     9   6     0.03  -0.12  -0.06    -0.01   0.10  -0.11    -0.02   0.04  -0.04
    10   6    -0.04  -0.10   0.05    -0.07   0.04   0.12    -0.06   0.06   0.02
    11   6     0.01  -0.09  -0.04    -0.02  -0.02  -0.08    -0.07   0.05   0.03
    12   6     0.05   0.02   0.03     0.00   0.01  -0.04    -0.14  -0.11  -0.16
    13   1    -0.15  -0.08  -0.26     0.02   0.00   0.12     0.00   0.03   0.08
    14   1    -0.22   0.14  -0.11     0.08  -0.11   0.04     0.00  -0.05   0.03
    15   1     0.11  -0.28  -0.05     0.19  -0.05  -0.04    -0.07   0.09   0.01
    16   1    -0.04  -0.19  -0.16     0.03   0.05  -0.15    -0.01  -0.06   0.06
    17   1     0.07   0.01   0.12    -0.11   0.00   0.06     0.18   0.07  -0.05
    18   1     0.04  -0.01   0.11    -0.08  -0.07   0.09    -0.08  -0.29  -0.14
    19   1     0.02  -0.28  -0.05     0.15  -0.06   0.05     0.20   0.20   0.13
    20   1    -0.01  -0.03  -0.16     0.01  -0.03   0.09     0.02  -0.18   0.37
    21   1     0.07  -0.06  -0.06    -0.05   0.40  -0.12    -0.11   0.17  -0.04
    22   1     0.04  -0.13  -0.09     0.03   0.02  -0.39     0.07   0.03  -0.17
    23   1    -0.19  -0.08   0.07    -0.36   0.08   0.15    -0.15   0.04   0.03
    24   1     0.02  -0.10   0.19     0.03   0.01   0.38    -0.03   0.09   0.09
    25   1    -0.06  -0.21  -0.06    -0.06  -0.19  -0.09     0.12   0.14   0.04
    26   1     0.10  -0.11  -0.17    -0.02   0.05  -0.21    -0.19   0.06   0.22
    27   1     0.13   0.09   0.03     0.08   0.07  -0.03    -0.23  -0.16  -0.15
                     10                     11                     12
                      A                      A                      A
 Frequencies --    377.2609               406.0576               430.0425
 Red. masses --      3.3196                 3.2389                 3.3219
 Frc consts  --      0.2784                 0.3146                 0.3620
 IR Inten    --      0.3238                 2.6829                 0.7323
  Atom  AN      X      Y      Z        X      Y      Z        X      Y      Z
     1   8     0.06   0.10  -0.04    -0.03   0.01  -0.02    -0.03   0.08   0.02
     2   6     0.01   0.12  -0.06    -0.03   0.09   0.07    -0.02  -0.02  -0.10
     3   6     0.07   0.09   0.05    -0.02   0.20   0.03     0.02   0.02   0.01
     4   6     0.18  -0.03   0.02     0.02   0.13   0.02    -0.09   0.15  -0.03
     5   6     0.04  -0.08   0.06     0.02   0.03  -0.10    -0.16   0.11   0.09
     6  17     0.00  -0.02  -0.01    -0.03  -0.05   0.00     0.04  -0.01  -0.01
     7   6    -0.02  -0.10   0.02     0.03  -0.02  -0.05    -0.13  -0.05   0.10
     8   6    -0.04  -0.15  -0.02     0.16  -0.01   0.03     0.01  -0.10  -0.03
     9   6    -0.01  -0.09   0.03     0.11  -0.12  -0.08     0.11  -0.00   0.01
    10   6    -0.10   0.06  -0.07     0.01  -0.08   0.04     0.17  -0.05   0.00
    11   6    -0.11   0.10   0.08    -0.12  -0.11   0.00     0.03  -0.07   0.04
    12   6    -0.11   0.04  -0.03    -0.08   0.01   0.05    -0.04  -0.06  -0.09
    13   1    -0.08   0.06   0.07     0.02   0.15  -0.14     0.08   0.10   0.18
    14   1     0.13   0.06   0.05    -0.10   0.36   0.02     0.11  -0.14   0.02
    15   1     0.35  -0.08   0.00    -0.03   0.23   0.03    -0.03   0.12  -0.04
    16   1     0.12  -0.00  -0.16     0.02   0.05   0.08    -0.09   0.24  -0.08
    17   1     0.02  -0.10   0.06     0.03   0.01  -0.10    -0.27   0.21   0.09
    18   1    -0.06  -0.12   0.02     0.11  -0.03  -0.05    -0.26  -0.09   0.10
    19   1    -0.12  -0.25  -0.03     0.35   0.15   0.04    -0.07  -0.29  -0.04
    20   1    -0.02  -0.10  -0.15     0.08  -0.07   0.27     0.13  -0.12  -0.21
    21   1     0.00  -0.27   0.04     0.12  -0.07  -0.08     0.13   0.05   0.01
    22   1     0.10  -0.00   0.19     0.08  -0.13  -0.09     0.08  -0.03  -0.05
    23   1     0.01   0.02  -0.09    -0.09  -0.11   0.04     0.33  -0.10  -0.02
    24   1    -0.12   0.14  -0.16     0.07   0.07   0.12     0.11   0.01  -0.17
    25   1     0.01   0.30   0.11    -0.25  -0.25  -0.01     0.14  -0.06   0.04
    26   1    -0.13   0.01   0.29    -0.06  -0.07  -0.19    -0.06  -0.01   0.11
    27   1    -0.18   0.13  -0.02    -0.12  -0.03   0.05    -0.05   0.07  -0.08
                     13                     14                     15
                      A                      A                      A
 Frequencies --    469.3710               487.2702               524.4979
 Red. masses --      2.8858                 2.2465                 1.8601
 Frc consts  --      0.3746                 0.3143                 0.3015
 IR Inten    --      5.3222                 0.4408                 1.3616
  Atom  AN      X      Y      Z        X      Y      Z        X      Y      Z
     1   8    -0.10  -0.01   0.02    -0.06  -0.02  -0.00    -0.03   0.07  -0.01
     2   6    -0.01  -0.03   0.09    -0.00  -0.01   0.08     0.02   0.02  -0.01
     3   6     0.01   0.13  -0.01     0.00   0.07   0.01     0.05  -0.01  -0.02
     4   6     0.02   0.10   0.02     0.12  -0.04   0.03     0.05  -0.02   0.02
     5   6     0.04   0.05  -0.06    -0.01  -0.03   0.13     0.05  -0.04  -0.09
     6  17    -0.03  -0.05  -0.01    -0.00  -0.01  -0.02     0.01   0.01   0.01
     7   6     0.05  -0.10   0.02    -0.09   0.02  -0.08     0.01  -0.04  -0.03
     8   6    -0.08  -0.15   0.06    -0.02   0.12  -0.03    -0.07  -0.03   0.03
     9   6    -0.06   0.04   0.02    -0.02   0.06   0.03    -0.05   0.11   0.04
    10   6    -0.02   0.05  -0.01     0.08  -0.04   0.02     0.08  -0.00   0.03
    11   6     0.16   0.09  -0.06     0.04  -0.05  -0.00    -0.08  -0.06   0.04
    12   6     0.10  -0.05  -0.04    -0.03  -0.05  -0.09    -0.03  -0.03   0.06
    13   1     0.16   0.05  -0.31     0.04  -0.04  -0.32     0.02  -0.02  -0.04
    14   1    -0.12   0.41  -0.03    -0.14   0.39  -0.01     0.07   0.01  -0.02
    15   1    -0.04   0.17   0.03     0.43  -0.19  -0.00    -0.07   0.05   0.03
    16   1     0.03   0.04   0.09     0.01   0.03  -0.30     0.09  -0.06   0.13
    17   1     0.01   0.04  -0.06     0.02  -0.11   0.12     0.11  -0.05  -0.09
    18   1     0.11  -0.19   0.02    -0.27   0.04  -0.07     0.13  -0.06  -0.04
    19   1    -0.18  -0.28   0.04    -0.01   0.24  -0.02    -0.23  -0.10   0.02
    20   1    -0.03  -0.12  -0.11     0.01   0.03   0.07     0.02  -0.02  -0.14
    21   1    -0.14   0.14   0.01     0.01   0.07   0.02    -0.13   0.42   0.03
    22   1     0.08   0.03  -0.12    -0.13   0.02   0.02    -0.03   0.01  -0.29
    23   1    -0.11   0.12   0.01     0.16  -0.05   0.01     0.39  -0.06  -0.00
    24   1    -0.02  -0.11   0.09     0.03  -0.07  -0.06    -0.05   0.02  -0.29
    25   1     0.27   0.18  -0.05     0.13  -0.06  -0.00    -0.27  -0.27   0.01
    26   1     0.13   0.03   0.10    -0.03  -0.01   0.05    -0.06   0.06  -0.24
    27   1     0.20  -0.12  -0.04    -0.06  -0.17  -0.09    -0.11  -0.01   0.06
                     16                     17                     18
                      A                      A                      A
 Frequencies --    577.8864               665.4977               762.6347
 Red. masses --      3.3967                 5.2260                 3.0140
 Frc consts  --      0.6683                 1.3637                 1.0328
 IR Inten    --      7.9779                16.7406                32.5507
  Atom  AN      X      Y      Z        X      Y      Z        X      Y      Z
     1   8    -0.18   0.10   0.03     0.08   0.09  -0.16     0.00   0.02  -0.03
     2   6     0.09  -0.14   0.02     0.24   0.21   0.26     0.05   0.05   0.07
     3   6     0.23  -0.13  -0.12    -0.03  -0.05   0.02    -0.03   0.00  -0.07
     4   6     0.06   0.05   0.00    -0.12  -0.09  -0.04    -0.04   0.02  -0.06
     5   6    -0.06   0.02  -0.01    -0.20  -0.11  -0.06     0.21   0.18   0.21
     6  17     0.01  -0.00   0.00     0.06   0.05   0.03    -0.04  -0.04  -0.04
     7   6    -0.05   0.01  -0.01    -0.17  -0.08  -0.08    -0.00  -0.03  -0.09
     8   6     0.03   0.03  -0.02    -0.03  -0.10   0.02    -0.03  -0.06  -0.01
     9   6     0.02  -0.02  -0.03     0.02  -0.00  -0.00    -0.00  -0.01   0.00
    10   6    -0.07   0.06  -0.03     0.01   0.02  -0.01    -0.01   0.03   0.02
    11   6    -0.08   0.02   0.03     0.04   0.01  -0.02    -0.03   0.00   0.03
    12   6     0.00  -0.08   0.08     0.03  -0.03   0.04     0.02  -0.07   0.02
    13   1     0.43  -0.14  -0.27    -0.13  -0.11  -0.10    -0.00   0.14   0.29
    14   1     0.20   0.04  -0.13    -0.37   0.04   0.00    -0.11  -0.41  -0.05
    15   1    -0.09   0.05   0.01    -0.29  -0.06  -0.02    -0.26  -0.22  -0.04
    16   1     0.16   0.23   0.15    -0.03   0.01   0.13     0.02  -0.03   0.14
    17   1    -0.06   0.04  -0.00    -0.14  -0.04  -0.05     0.26   0.20   0.21
    18   1    -0.04   0.07  -0.01    -0.19  -0.10  -0.08    -0.19   0.02  -0.07
    19   1     0.18   0.17  -0.01     0.06   0.05   0.03     0.07   0.15   0.01
    20   1    -0.00  -0.03   0.18     0.05  -0.25   0.17    -0.06  -0.13   0.19
    21   1     0.08  -0.23  -0.02     0.01  -0.01  -0.00     0.02   0.04  -0.00
    22   1     0.04   0.06   0.19     0.09   0.02  -0.00     0.06  -0.00  -0.04
    23   1    -0.22   0.08  -0.01    -0.08   0.08   0.00     0.08   0.01   0.01
    24   1    -0.00   0.11   0.12     0.04  -0.03   0.09    -0.04   0.05  -0.07
    25   1    -0.14   0.12   0.04     0.06   0.09  -0.01    -0.09  -0.05   0.02
    26   1    -0.11   0.02   0.07     0.02  -0.01   0.05    -0.04   0.05  -0.04
    27   1    -0.03  -0.12   0.08     0.04  -0.37   0.02    -0.03  -0.28   0.01
                     19                     20                     21
                      A                      A                      A
 Frequencies --    790.1969               825.4146               848.9498
 Red. masses --      1.9846                 2.1117                 2.8273
 Frc consts  --      0.7301                 0.8477                 1.2006
 IR Inten    --      0.9844                 1.6249                12.3032
  Atom  AN      X      Y      Z        X      Y      Z        X      Y      Z
     1   8     0.01   0.02   0.02     0.00  -0.02   0.00     0.04   0.08  -0.03
     2   6    -0.05  -0.02  -0.10     0.05  -0.04   0.02     0.09  -0.05  -0.10
     3   6    -0.02   0.04  -0.00     0.02  -0.10   0.05    -0.08   0.00   0.09
     4   6    -0.00   0.02   0.03    -0.08   0.01   0.03    -0.13   0.01   0.04
     5   6    -0.05  -0.03   0.00    -0.04   0.05   0.03     0.03   0.04   0.00
     6  17     0.01   0.00   0.00    -0.00  -0.00  -0.00    -0.01  -0.00  -0.00
     7   6    -0.04  -0.06  -0.07     0.05   0.06  -0.07     0.05  -0.03  -0.02
     8   6    -0.08  -0.07  -0.05     0.01  -0.09   0.01     0.05   0.01   0.00
     9   6    -0.05  -0.01  -0.05     0.02  -0.10   0.01     0.01   0.15   0.03
    10   6     0.05   0.03   0.02    -0.07   0.03   0.06    -0.11   0.04  -0.07
    11   6     0.11   0.08   0.03    -0.04   0.05   0.05    -0.04  -0.13   0.04
    12   6     0.05  -0.01   0.12     0.06   0.12  -0.09     0.07  -0.14   0.05
    13   1    -0.08   0.06   0.08     0.15  -0.19  -0.27    -0.02  -0.06  -0.13
    14   1     0.18  -0.01   0.01    -0.08   0.26   0.03     0.03   0.29   0.08
    15   1     0.20  -0.01   0.01     0.21  -0.01   0.00     0.34   0.01   0.01
    16   1    -0.08   0.04  -0.18    -0.16   0.11  -0.23    -0.33  -0.11  -0.40
    17   1     0.01  -0.10  -0.00     0.02   0.01   0.03     0.10  -0.02   0.00
    18   1    -0.01   0.08  -0.06    -0.00   0.03  -0.07     0.14  -0.03  -0.02
    19   1     0.22   0.26  -0.02     0.02   0.02   0.02     0.01  -0.04  -0.00
    20   1    -0.14  -0.23   0.37    -0.10  -0.03   0.09     0.18  -0.07  -0.08
    21   1     0.07  -0.19  -0.04     0.01   0.19  -0.00     0.01  -0.07   0.03
    22   1    -0.01   0.07   0.15     0.17  -0.15  -0.26     0.11   0.25   0.23
    23   1     0.03  -0.06   0.02     0.33  -0.07   0.01    -0.17   0.04  -0.07
    24   1     0.02  -0.08   0.02    -0.20   0.19  -0.32    -0.10   0.01  -0.02
    25   1    -0.24  -0.21  -0.00    -0.06  -0.16   0.02    -0.06   0.00   0.05
    26   1     0.20   0.21  -0.39     0.06   0.06  -0.14    -0.01  -0.22   0.14
    27   1    -0.07   0.04   0.12    -0.04   0.15  -0.08     0.02  -0.09   0.05
                     22                     23                     24
                      A                      A                      A
 Frequencies --    859.8923               876.5971               916.0273
 Red. masses --      1.6552                 2.1433                 1.4831
 Frc consts  --      0.7211                 0.9703                 0.7332
 IR Inten    --      0.9891                 6.3658                 4.7432
  Atom  AN      X      Y      Z        X      Y      Z        X      Y      Z
     1   8    -0.01  -0.02   0.00     0.03   0.02  -0.02     0.01   0.02  -0.00
     2   6    -0.00   0.01   0.04     0.05  -0.01  -0.01    -0.00  -0.00  -0.04
     3   6     0.01   0.01   0.01    -0.04  -0.08   0.08    -0.03   0.02   0.02
     4   6     0.03  -0.01  -0.04     0.02  -0.05   0.01     0.03  -0.02   0.00
     5   6     0.01  -0.01  -0.02     0.08   0.12  -0.05     0.01   0.00  -0.05
     6  17    -0.00   0.00   0.00    -0.01  -0.01  -0.01     0.00   0.00   0.00
     7   6    -0.01  -0.06   0.07    -0.03   0.01   0.08    -0.00   0.02   0.07
     8   6     0.05   0.00  -0.06    -0.10   0.02   0.03    -0.06  -0.02  -0.08
     9   6    -0.05   0.11  -0.02    -0.01  -0.03  -0.10     0.00  -0.03   0.01
    10   6    -0.10   0.01   0.03     0.13   0.03   0.00    -0.00   0.04   0.06
    11   6     0.03  -0.03   0.05    -0.02   0.02   0.05    -0.05  -0.03  -0.06
    12   6     0.02   0.04  -0.08    -0.03  -0.03  -0.05     0.03  -0.07   0.02
    13   1     0.04   0.00  -0.02    -0.09  -0.24  -0.28    -0.12  -0.01  -0.01
    14   1    -0.14  -0.01   0.00    -0.16   0.29   0.06     0.02   0.05   0.02
    15   1    -0.21   0.07  -0.02     0.01   0.14   0.02    -0.02   0.09   0.01
    16   1     0.12  -0.05   0.21     0.02  -0.21   0.08     0.03  -0.12   0.06
    17   1    -0.09   0.09  -0.01     0.01   0.22  -0.05    -0.09   0.05  -0.05
    18   1    -0.08  -0.11   0.07    -0.01  -0.11   0.07     0.04   0.22   0.08
    19   1     0.29  -0.05  -0.06    -0.00  -0.10   0.03     0.26   0.23  -0.05
    20   1     0.05  -0.05   0.05    -0.19   0.10   0.02    -0.21  -0.06   0.31
    21   1     0.20  -0.22  -0.01     0.01  -0.34  -0.09     0.26   0.17   0.00
    22   1    -0.06   0.23   0.35    -0.09   0.05   0.19    -0.05  -0.08  -0.10
    23   1     0.20  -0.23  -0.01    -0.13  -0.09   0.02     0.28   0.20   0.04
    24   1    -0.25  -0.01  -0.31     0.24   0.13   0.21    -0.10   0.07  -0.17
    25   1     0.05  -0.32   0.02    -0.09  -0.11   0.03     0.22   0.18  -0.03
    26   1     0.10   0.00  -0.14    -0.16   0.23  -0.10    -0.18  -0.08   0.28
    27   1     0.03   0.10  -0.07    -0.09   0.10  -0.04     0.31  -0.02   0.02
                     25                     26                     27
                      A                      A                      A
 Frequencies --    925.7425               973.6406               990.6535
 Red. masses --      2.5496                 2.2694                 1.9840
 Frc consts  --      1.2874                 1.2675                 1.1472
 IR Inten    --      7.9300                 0.5210                 5.1899
  Atom  AN      X      Y      Z        X      Y      Z        X      Y      Z
     1   8     0.01  -0.03   0.02     0.03   0.03  -0.02    -0.01  -0.00   0.01
     2   6    -0.06   0.03  -0.03     0.02   0.00  -0.02     0.03  -0.06  -0.02
     3   6    -0.05  -0.12  -0.01    -0.02  -0.07   0.03     0.09   0.07   0.09
     4   6     0.14  -0.01   0.05    -0.01   0.02   0.00    -0.10  -0.08  -0.09
     5   6     0.01   0.14  -0.03     0.01   0.06   0.01     0.08  -0.03   0.01
     6  17    -0.00  -0.01  -0.00    -0.00  -0.00  -0.00    -0.00   0.00  -0.00
     7   6    -0.13   0.03  -0.05     0.02  -0.08   0.01    -0.08  -0.02   0.01
     8   6     0.01  -0.07   0.01     0.16   0.03  -0.08    -0.02  -0.03  -0.03
     9   6     0.08   0.06   0.06    -0.11  -0.02   0.07     0.01   0.03   0.04
    10   6    -0.05  -0.04  -0.06     0.00  -0.10   0.05     0.03  -0.04  -0.03
    11   6     0.05  -0.07  -0.03    -0.00   0.16  -0.06    -0.00  -0.01  -0.03
    12   6    -0.01   0.10   0.08    -0.05  -0.04   0.04    -0.03   0.11   0.02
    13   1    -0.34  -0.26  -0.17    -0.09  -0.16  -0.15     0.50   0.12  -0.05
    14   1    -0.00   0.07  -0.02    -0.01   0.15   0.02    -0.03   0.18   0.08
    15   1     0.06   0.16   0.06     0.04   0.15   0.00    -0.18  -0.08  -0.08
    16   1     0.20   0.01   0.17    -0.02  -0.01  -0.00    -0.12  -0.35   0.01
    17   1    -0.00   0.23  -0.03    -0.04   0.18   0.02     0.09   0.06   0.01
    18   1    -0.15   0.14  -0.05    -0.03  -0.10   0.01    -0.11   0.12   0.02
    19   1    -0.04   0.07   0.02     0.21  -0.06  -0.08     0.05   0.11  -0.02
    20   1     0.18  -0.27   0.07     0.22  -0.02  -0.09     0.04  -0.17   0.12
    21   1     0.03   0.15   0.05    -0.01   0.14   0.06     0.06   0.09   0.03
    22   1     0.21   0.07  -0.05    -0.43  -0.16  -0.06    -0.05  -0.01  -0.03
    23   1    -0.12   0.08  -0.05     0.10   0.05   0.05    -0.07   0.13  -0.01
    24   1    -0.03  -0.14   0.04    -0.10  -0.42  -0.02     0.07  -0.15   0.10
    25   1     0.01   0.10  -0.01    -0.17   0.26  -0.05    -0.07   0.19  -0.01
    26   1     0.25  -0.30   0.06    -0.08   0.24  -0.07     0.08  -0.12   0.05
    27   1    -0.08   0.14   0.07    -0.11  -0.08   0.04    -0.13   0.41   0.04
                     28                     29                     30
                      A                      A                      A
 Frequencies --   1018.5965              1043.3440              1064.0281
 Red. masses --      2.0157                 1.9025                 1.7548
 Frc consts  --      1.2322                 1.2202                 1.1705
 IR Inten    --      2.2306                 0.5585                 3.2426
  Atom  AN      X      Y      Z        X      Y      Z        X      Y      Z
     1   8    -0.01  -0.03  -0.00    -0.02  -0.01   0.00     0.00   0.01  -0.00
     2   6    -0.02   0.06   0.08    -0.02   0.02   0.03    -0.00  -0.00  -0.02
     3   6     0.04  -0.08  -0.07     0.07   0.06  -0.04     0.01   0.02   0.04
     4   6    -0.06   0.05   0.07    -0.04  -0.13   0.05     0.03  -0.03  -0.04
     5   6     0.04   0.01  -0.02     0.02   0.09  -0.08    -0.05  -0.01   0.03
     6  17    -0.00  -0.00   0.00    -0.00  -0.00   0.00    -0.00   0.00   0.00
     7   6     0.04   0.01   0.00    -0.08   0.08   0.02     0.10   0.14  -0.00
     8   6    -0.04  -0.09  -0.00     0.03  -0.01   0.05     0.01  -0.10  -0.00
     9   6    -0.04   0.10  -0.03     0.04  -0.01  -0.02    -0.00   0.05   0.04
    10   6     0.08  -0.05   0.03    -0.05  -0.03   0.04     0.01  -0.05  -0.03
    11   6    -0.06  -0.03  -0.06     0.03   0.06  -0.03     0.00   0.03   0.01
    12   6    -0.06   0.09  -0.02    -0.03  -0.03   0.01    -0.06  -0.08  -0.05
    13   1     0.06  -0.05   0.00    -0.01   0.09   0.10    -0.00  -0.01  -0.04
    14   1     0.12  -0.10  -0.07     0.54   0.01  -0.02    -0.19   0.04   0.03
    15   1     0.25  -0.11   0.04     0.17  -0.11   0.03    -0.15  -0.06  -0.02
    16   1    -0.13   0.29  -0.24    -0.17  -0.38  -0.15     0.11   0.08   0.12
    17   1     0.23  -0.22  -0.03    -0.01   0.11  -0.09    -0.13   0.02   0.02
    18   1     0.27  -0.03  -0.00    -0.08   0.02   0.01     0.13   0.44   0.01
    19   1     0.25  -0.12   0.00     0.01  -0.19   0.04    -0.01   0.13   0.01
    20   1    -0.04  -0.15   0.13     0.06   0.03  -0.08    -0.00  -0.14   0.11
    21   1     0.18  -0.15  -0.02     0.06  -0.06  -0.02    -0.14  -0.01   0.04
    22   1    -0.15   0.16   0.23     0.13   0.04   0.03     0.36   0.16   0.03
    23   1     0.02  -0.03   0.03     0.09  -0.23   0.01    -0.14  -0.23  -0.02
    24   1     0.07  -0.19   0.06    -0.14  -0.10  -0.13    -0.03  -0.37   0.06
    25   1     0.16   0.13  -0.04     0.12  -0.10  -0.04    -0.03  -0.06   0.00
    26   1    -0.19  -0.02   0.18    -0.05   0.14  -0.05    -0.25   0.30  -0.05
    27   1     0.09   0.11  -0.01     0.10  -0.32  -0.01    -0.03   0.03  -0.04
                     31                     32                     33
                      A                      A                      A
 Frequencies --   1074.5155              1095.9313              1111.9257
 Red. masses --      1.5238                 2.3667                 2.3849
 Frc consts  --      1.0365                 1.6748                 1.7373
 IR Inten    --      2.3122                 7.2178                16.9577
  Atom  AN      X      Y      Z        X      Y      Z        X      Y      Z
     1   8    -0.00  -0.01   0.01     0.01   0.02  -0.01    -0.00   0.03  -0.01
     2   6     0.01  -0.03  -0.01     0.06  -0.06  -0.02     0.10  -0.08  -0.01
     3   6    -0.04   0.02  -0.01    -0.07  -0.02  -0.01    -0.07   0.00  -0.03
     4   6     0.02   0.01   0.01     0.02   0.10   0.02     0.04   0.07   0.04
     5   6     0.01  -0.01  -0.02     0.07  -0.06  -0.02     0.07  -0.03  -0.06
     6  17     0.00   0.00   0.00     0.00  -0.00   0.00    -0.00  -0.00   0.00
     7   6    -0.08   0.01  -0.03    -0.10  -0.04   0.03    -0.12   0.14   0.04
     8   6     0.06  -0.04   0.00    -0.09   0.08   0.04     0.08  -0.05   0.03
     9   6    -0.06  -0.00   0.01     0.15   0.02  -0.02    -0.07  -0.06  -0.01
    10   6     0.04  -0.01   0.01    -0.06  -0.14   0.02    -0.01   0.08   0.01
    11   6    -0.09   0.02   0.02    -0.05   0.11  -0.03     0.10  -0.03  -0.01
    12   6     0.12   0.03  -0.01     0.05   0.00   0.01    -0.09  -0.04   0.01
    13   1    -0.01   0.05   0.05     0.05   0.04   0.03     0.07   0.08   0.09
    14   1    -0.02  -0.05  -0.01    -0.27  -0.10  -0.01    -0.39  -0.20  -0.03
    15   1     0.01   0.01   0.01     0.04   0.04   0.01     0.07  -0.12   0.03
    16   1     0.00  -0.08   0.00    -0.02   0.03  -0.03    -0.02  -0.03  -0.05
    17   1     0.04  -0.06  -0.02     0.19  -0.26  -0.03     0.20  -0.39  -0.10
    18   1    -0.09   0.22  -0.02    -0.07  -0.11   0.03    -0.07   0.20   0.05
    19   1    -0.10   0.03   0.00    -0.19   0.06   0.04     0.22  -0.32   0.01
    20   1     0.36  -0.30  -0.05    -0.10   0.12  -0.02     0.05   0.03  -0.05
    21   1    -0.37  -0.13   0.01     0.33   0.06  -0.02    -0.05  -0.02  -0.01
    22   1    -0.21  -0.04   0.03     0.31   0.07   0.00    -0.06  -0.06  -0.03
    23   1    -0.07  -0.24   0.01     0.00  -0.37  -0.00     0.11   0.27   0.01
    24   1     0.11   0.26   0.05    -0.14  -0.29  -0.09    -0.07  -0.04  -0.06
    25   1     0.08  -0.06   0.02    -0.10   0.14  -0.02     0.07  -0.07  -0.02
    26   1    -0.22   0.13   0.06    -0.13   0.19  -0.03     0.06   0.02  -0.04
    27   1     0.46   0.11  -0.01     0.19   0.10   0.01    -0.32   0.12   0.02
                     34                     35                     36
                      A                      A                      A
 Frequencies --   1131.7939              1148.7618              1167.3532
 Red. masses --      2.0021                 1.9246                 1.7769
 Frc consts  --      1.5110                 1.4964                 1.4267
 IR Inten    --      4.5837                 0.1901                 2.1646
  Atom  AN      X      Y      Z        X      Y      Z        X      Y      Z
     1   8     0.02   0.01  -0.01     0.02   0.02   0.01     0.00  -0.01   0.01
     2   6    -0.06   0.07   0.00    -0.04  -0.02  -0.08    -0.04   0.00  -0.04
     3   6     0.02  -0.09   0.02     0.04   0.02   0.09    -0.02  -0.01   0.03
     4   6    -0.07   0.08  -0.07     0.02  -0.05  -0.05     0.01   0.03  -0.07
     5   6     0.11  -0.11   0.04    -0.07   0.03   0.05     0.03  -0.10   0.04
     6  17    -0.00   0.00  -0.00     0.00  -0.00  -0.01    -0.00   0.00  -0.00
     7   6    -0.04  -0.02   0.04    -0.02   0.00  -0.10    -0.00   0.13  -0.05
     8   6     0.02   0.02  -0.01     0.01   0.01   0.08    -0.00  -0.06   0.07
     9   6     0.00  -0.03  -0.01     0.00  -0.00  -0.08    -0.03   0.03  -0.03
    10   6    -0.02   0.05   0.01    -0.02   0.00   0.08     0.03  -0.02   0.02
    11   6     0.07  -0.01  -0.04     0.01   0.01  -0.09    -0.05  -0.01   0.01
    12   6    -0.10  -0.02   0.06    -0.03  -0.01   0.10     0.11   0.03   0.00
    13   1     0.06  -0.16  -0.17     0.02  -0.05  -0.09    -0.02  -0.04  -0.06
    14   1     0.22   0.21   0.01    -0.29   0.09   0.07     0.19   0.13   0.02
    15   1     0.00   0.43  -0.07    -0.21  -0.29  -0.04    -0.09   0.33  -0.06
    16   1    -0.04   0.09  -0.03     0.15   0.25   0.12     0.06  -0.01   0.08
    17   1     0.19   0.03   0.06     0.31   0.06   0.07    -0.02  -0.00   0.05
    18   1    -0.12   0.24   0.05     0.33  -0.06  -0.11    -0.39  -0.11  -0.05
    19   1    -0.18   0.16  -0.00    -0.05  -0.23   0.06     0.19  -0.36   0.05
    20   1     0.02   0.02  -0.02     0.08   0.04  -0.12    -0.08   0.06  -0.03
    21   1    -0.25  -0.06  -0.00     0.09  -0.17  -0.07     0.20  -0.06  -0.03
    22   1     0.17   0.01  -0.03    -0.09   0.04   0.11    -0.04   0.07   0.10
    23   1     0.02  -0.18  -0.00     0.20  -0.09   0.05     0.07   0.15   0.03
    24   1    -0.03   0.10  -0.05    -0.08   0.10  -0.13     0.00  -0.10   0.01
    25   1     0.36  -0.25  -0.06     0.25   0.03  -0.08    -0.22   0.22   0.03
    26   1    -0.03   0.05   0.02    -0.03  -0.05   0.11    -0.02  -0.05   0.04
    27   1     0.15  -0.13   0.05     0.14   0.04   0.10    -0.12  -0.43  -0.03
                     37                     38                     39
                      A                      A                      A
 Frequencies --   1211.6486              1230.6615              1243.3634
 Red. masses --      1.8214                 1.2686                 1.4157
 Frc consts  --      1.5755                 1.1320                 1.2895
 IR Inten    --     22.1701                 3.7733                11.2313
  Atom  AN      X      Y      Z        X      Y      Z        X      Y      Z
     1   8     0.02  -0.01   0.00    -0.02  -0.02   0.01     0.03   0.00  -0.00
     2   6    -0.11   0.08  -0.03     0.01  -0.00   0.02    -0.08   0.05  -0.04
     3   6     0.07  -0.01   0.05     0.01   0.03  -0.01     0.01  -0.04   0.02
     4   6    -0.04  -0.03  -0.03    -0.01  -0.02  -0.02     0.01   0.00   0.03
     5   6     0.04   0.02  -0.05    -0.03  -0.02   0.01     0.01   0.06  -0.04
     6  17    -0.00   0.00   0.00    -0.00  -0.00  -0.01     0.00   0.00   0.01
     7   6    -0.05   0.04   0.07    -0.06  -0.01  -0.02    -0.01  -0.04  -0.01
     8   6    -0.03   0.02  -0.02     0.03   0.02  -0.01     0.04   0.01  -0.03
     9   6     0.04  -0.01   0.05    -0.03  -0.04   0.02    -0.04  -0.02   0.01
    10   6    -0.03  -0.02  -0.07     0.01   0.04  -0.04     0.03   0.04   0.00
    11   6     0.02   0.03   0.08     0.00  -0.05   0.06    -0.02  -0.04   0.01
    12   6     0.04  -0.08  -0.05     0.04   0.01  -0.01     0.04   0.04   0.05
    13   1    -0.00  -0.09  -0.11    -0.25  -0.03   0.03     0.41   0.03  -0.08
    14   1    -0.11   0.08   0.04     0.18   0.04  -0.00    -0.22  -0.04   0.01
    15   1    -0.08  -0.29  -0.03    -0.01   0.06  -0.01    -0.00  -0.26   0.02
    16   1     0.07   0.44  -0.00     0.03   0.12   0.00    -0.00  -0.03   0.00
    17   1     0.28  -0.30  -0.08     0.45   0.24   0.06    -0.28  -0.25  -0.08
    18   1     0.02  -0.02   0.07     0.11  -0.11  -0.03    -0.24  -0.21  -0.02
    19   1     0.15  -0.08  -0.01     0.12  -0.11  -0.02     0.04   0.02  -0.03
    20   1     0.14  -0.17   0.04    -0.14   0.19  -0.03    -0.17   0.21  -0.02
    21   1     0.16   0.17   0.04     0.02   0.06   0.01    -0.17  -0.02   0.01
    22   1    -0.25  -0.14  -0.08     0.24   0.02  -0.06     0.32   0.08  -0.03
    23   1    -0.12   0.07  -0.05    -0.04   0.21  -0.02    -0.00   0.05   0.01
    24   1     0.05   0.14   0.05    -0.05  -0.34   0.03    -0.03  -0.27   0.02
    25   1    -0.20  -0.07   0.06    -0.04  -0.07   0.05     0.08  -0.05   0.01
    26   1     0.14   0.01  -0.13    -0.24   0.21   0.00    -0.21   0.11   0.07
    27   1     0.17  -0.18  -0.05     0.24   0.29   0.01     0.13  -0.18   0.03
                     40                     41                     42
                      A                      A                      A
 Frequencies --   1270.4108              1280.8461              1299.7997
 Red. masses --      1.3055                 1.4601                 1.2627
 Frc consts  --      1.2414                 1.4113                 1.2569
 IR Inten    --     12.0738                 5.1203                10.3533
  Atom  AN      X      Y      Z        X      Y      Z        X      Y      Z
     1   8     0.02   0.01  -0.01     0.02  -0.01  -0.01     0.01   0.00  -0.00
     2   6    -0.02   0.01  -0.02    -0.06   0.08   0.03    -0.03   0.01  -0.01
     3   6    -0.06  -0.03  -0.02    -0.02  -0.04  -0.02     0.01   0.01  -0.02
     4   6     0.05   0.02   0.03     0.01   0.01   0.02    -0.01  -0.03   0.06
     5   6    -0.06  -0.03   0.03    -0.01  -0.00   0.01    -0.02  -0.04  -0.05
     6  17    -0.00  -0.00  -0.01    -0.00  -0.00  -0.00    -0.00  -0.00  -0.01
     7   6    -0.00   0.03  -0.01    -0.00  -0.01  -0.02    -0.00   0.01   0.06
     8   6    -0.02  -0.00  -0.01    -0.00   0.02   0.07     0.02  -0.01  -0.03
     9   6     0.01   0.01   0.05     0.01  -0.02  -0.09    -0.01   0.01  -0.01
    10   6    -0.00  -0.01  -0.06    -0.03   0.02   0.03     0.02  -0.01   0.06
    11   6     0.00   0.02   0.02     0.03  -0.03   0.04    -0.01   0.01  -0.02
    12   6    -0.03   0.02   0.01     0.02  -0.06  -0.04     0.03  -0.02  -0.02
    13   1     0.51   0.11  -0.01     0.38   0.06  -0.02     0.16   0.06   0.02
    14   1    -0.09  -0.07  -0.01     0.01  -0.03  -0.02    -0.23  -0.10  -0.01
    15   1     0.06   0.12   0.04     0.06   0.10   0.02     0.12  -0.01   0.05
    16   1    -0.03  -0.33   0.03    -0.03  -0.15  -0.00    -0.01   0.17  -0.06
    17   1     0.24   0.30   0.08    -0.09   0.07   0.02     0.40   0.47   0.02
    18   1     0.27  -0.07  -0.02     0.11   0.26  -0.01    -0.13   0.01   0.06
    19   1     0.21  -0.16  -0.01    -0.29   0.08   0.06    -0.05   0.13  -0.03
    20   1    -0.06   0.00   0.04     0.27  -0.16  -0.09    -0.04   0.02   0.02
    21   1     0.15   0.14   0.05     0.18  -0.10  -0.09    -0.30  -0.11  -0.00
    22   1    -0.13  -0.07  -0.04    -0.11  -0.01   0.04     0.22   0.09   0.03
    23   1    -0.13  -0.08  -0.05     0.15   0.40   0.03     0.10  -0.09   0.05
    24   1     0.07   0.10   0.06    -0.12  -0.24  -0.07    -0.00   0.05  -0.02
    25   1     0.14  -0.20   0.00    -0.24   0.12   0.05    -0.23   0.26   0.00
    26   1     0.01   0.04  -0.04    -0.04   0.07  -0.02     0.18  -0.19   0.01
    27   1     0.14  -0.24  -0.01     0.09   0.25  -0.02    -0.11  -0.12  -0.03
                     43                     44                     45
                      A                      A                      A
 Frequencies --   1320.0181              1327.5402              1341.2212
 Red. masses --      1.2656                 1.2967                 1.3822
 Frc consts  --      1.2993                 1.3465                 1.4650
 IR Inten    --      1.8871                 2.7581                13.2564
  Atom  AN      X      Y      Z        X      Y      Z        X      Y      Z
     1   8    -0.00   0.00   0.01     0.00   0.00  -0.00     0.01  -0.01  -0.01
     2   6    -0.00  -0.02  -0.02    -0.01   0.01  -0.01    -0.04   0.06   0.03
     3   6     0.04   0.03  -0.01     0.05   0.01  -0.02    -0.01  -0.02  -0.02
     4   6    -0.03  -0.04   0.05    -0.03  -0.02   0.03     0.00  -0.02  -0.00
     5   6     0.04  -0.04  -0.03     0.02  -0.01  -0.01    -0.01   0.01   0.01
     6  17    -0.00   0.00  -0.00     0.00   0.00   0.00     0.00   0.00   0.00
     7   6     0.04   0.02   0.00     0.01  -0.02  -0.07     0.01   0.04  -0.04
     8   6    -0.03   0.00   0.02     0.04  -0.03   0.04    -0.01   0.01  -0.01
     9   6     0.02  -0.01  -0.01    -0.02   0.02   0.01    -0.00  -0.00   0.04
    10   6    -0.03   0.01  -0.04     0.02  -0.01  -0.02    -0.02  -0.01   0.01
    11   6     0.02  -0.03  -0.01    -0.01   0.04   0.03     0.05  -0.03  -0.06
    12   6     0.02   0.03   0.05    -0.06  -0.05   0.01     0.04  -0.10   0.03
    13   1    -0.04   0.03   0.04    -0.06  -0.01  -0.00     0.18   0.04   0.01
    14   1    -0.29  -0.11  -0.01    -0.28  -0.11  -0.02     0.08   0.01  -0.02
    15   1     0.13   0.09   0.04     0.11   0.15   0.03     0.04   0.15   0.00
    16   1    -0.01   0.27  -0.06    -0.05   0.05  -0.05     0.02  -0.01   0.02
    17   1    -0.11   0.37   0.01    -0.18   0.12  -0.01    -0.03  -0.09  -0.00
    18   1    -0.30  -0.12   0.01    -0.31   0.24  -0.05    -0.15  -0.23  -0.05
    19   1    -0.10   0.05   0.02     0.05  -0.14   0.03     0.24  -0.16  -0.02
    20   1     0.16  -0.17   0.00    -0.28   0.31  -0.04    -0.03   0.03  -0.01
    21   1     0.22   0.06  -0.01     0.16   0.06   0.01    -0.05   0.07   0.04
    22   1    -0.22  -0.09  -0.02    -0.10   0.01   0.05     0.06   0.00  -0.01
    23   1    -0.06   0.06  -0.04    -0.04  -0.02  -0.01    -0.05  -0.33  -0.00
    24   1    -0.03  -0.03  -0.03     0.06   0.05   0.05     0.03   0.36  -0.03
    25   1     0.24  -0.19  -0.02    -0.04  -0.06   0.02    -0.10   0.21  -0.04
    26   1    -0.34   0.28   0.04     0.26  -0.18  -0.03    -0.17   0.13   0.03
    27   1    -0.21  -0.02   0.05     0.47   0.23   0.02    -0.19   0.58   0.07
                     46                     47                     48
                      A                      A                      A
[...]
 0.00011927,0.00273145,-0.00603614,0.00039119,-0.00006157,-0.00004450,0
 .00007119,0.00000721,0.00000152,0.00001248,0.00002974,0.00001131,0.000
 01061,-0.00012308,-0.00003334,0.00006046,-0.00009166,-0.00013918,0.000
 01496,-0.00054713,0.00101807,0.00036248,0.00012220,-0.00036802,-0.0003
 0408,-0.00150835,0.05643384,0.00014090,-0.00022931,-0.00017826,0.00003
 592,0.00052095,0.00044653,-0.00001782,-0.00006212,-0.00004327,-0.00005
 512,-0.00013318,-0.00001284,0.00103603,-0.00022325,-0.00057165,-0.0002
 4351,0.00224718,-0.00001215,-0.00236441,-0.00052105,0.00163507,0.12986
 015,-0.00320959,-0.20399848,-0.00303492,0.00006997,0.00240536,-0.00034
 971,-0.00007176,0.00084687,-0.00013964,-0.00009179,-0.00004383,-0.0001
 2652,0.00016372,0.00092811,-0.00001310,-0.00001985,0.00001828,-0.00000
 119,-0.00000161,0.00000767,0.00000439,0.00001508,-0.00000611,0.0000187
 9,-0.00007198,-0.00002533,0.00005443,-0.00004607,0.00001204,0.00000683
 ,-0.00051311,0.00065599,0.01793814,-0.00035991,-0.02116259,-0.14272970
 ,0.00184834,0.21732750,0.00010268,-0.00004424,0.00002204,-0.00004092,0
 .00012622,-0.00006452,-0.00001813,0.00001801,0.00001957,-0.00003817,-0
 .00002642,0.00007398,0.00015838,0.00001360,0.00013236,-0.00001489,-0.0
 0003834,0.00009922,0.00024219,0.00116961,0.00007198,-0.01091885,-0.001
 62355,-0.01807103,-0.10207320,-0.00312550,-0.10193653,0.01053423,0.001
 04082,0.02279036,0.00142520,-0.00063465,0.00017969,-0.00007792,-0.0000
 7345,0.00007321,0.00000936,-0.00000193,-0.00000187,-0.00000423,0.00000
 553,0.00000420,0.00001891,-0.00003157,-0.00000226,0.00000085,-0.000026
 48,-0.00000681,0.00006396,0.00020706,0.00009058,0.00065783,-0.00047592
 ,0.00033726,-0.00143692,-0.00411500,0.00019814,0.00027058,0.00060656,0
 .00007075,0.11216812,0.00010217,0.00004314,0.00002902,-0.00006431,-0.0
 0001930,-0.00005656,-0.00000075,0.00001104,0.00000096,0.00005841,0.000
 03294,0.00008342,-0.00019463,-0.00004514,0.00017999,0.00005779,-0.0000
 0603,0.00000212,-0.00071355,0.00174656,-0.00131750,-0.01420333,-0.0027
 3086,-0.02572490,-0.00286464,-0.05177897,-0.00995586,0.00024686,-0.000
 50484,0.00100302,-0.00050458,0.00010878,-0.00082080,0.00003727,-0.0002
 4312,0.00000298,0.00000681,0.00000721,-0.00000321,-0.00000203,0.000005
 98,0.00000583,0.00002685,-0.00004879,0.00001270,-0.00000872,0.00001914
 ,0.00000185,0.00015933,0.00012291,0.00016912,0.00041899,-0.00044870,0.
 00052248,-0.00335336,-0.00452526,-0.00039063,0.00068622,0.00115527,0.0
 0038674,0.00797161,0.05393160,0.00011412,-0.00006451,0.00003606,-0.000
 16289,0.00004997,-0.00001138,0.00002355,-0.00003020,-0.00001019,-0.000
 04771,-0.00004797,-0.00001928,0.00020596,-0.00013230,0.00029377,0.0000
 0096,-0.00005754,0.00002303,-0.00004249,0.00037890,-0.00010052,-0.0005
 8922,-0.00020496,-0.00046451,-0.10187318,-0.01035170,-0.24599935,-0.01
 079337,-0.00027269,-0.02404662,-0.00148117,0.00061383,0.00064202,0.000
 26541,-0.00017699,0.00004826,-0.00000494,-0.00001851,0.00000078,0.0000
 0179,0.00000416,0.00000625,0.00000135,-0.00001800,0.00001359,0.0000092
 0,-0.00001761,0.00000601,0.00005039,0.00016803,-0.00001222,0.00033853,
 -0.00063178,0.00022430,0.00004682,0.00015712,0.00134403,-0.00021494,-0
 .00040047,0.00076043,0.11014160,0.01052948,0.27010424,0.00022654,0.000
 24277,0.00000747,-0.00016898,-0.00011594,-0.00009568,-0.00004930,0.000
 13195,0.00004753,-0.00039242,-0.00029449,0.00002155,0.00098794,-0.0009
 5295,0.00006853,0.00007865,0.00008201,-0.00005114,-0.00267306,-0.00303
 202,-0.00029338,0.01236030,-0.01798758,0.00179770,-0.13638123,0.122382
 20,-0.01324072,-0.01342420,0.01886072,-0.00318332,-0.00247358,-0.00172
 817,0.00475153,-0.00035142,-0.00049971,0.00000041,0.00002892,0.0000355
 5,-0.00001997,0.00000445,0.00000984,-0.00000800,0.00000005,0.00000722,
 0.00000024,0.00010219,-0.00015523,-0.00001308,-0.00000167,0.00004310,-
 0.00003643,0.00001286,-0.00002233,0.00016494,0.00086825,0.00077781,0.0
 0003536,0.00084853,0.00082406,0.00008795,-0.00912958,0.01208655,-0.001
 36167,0.14836275,0.00026447,-0.00005930,0.00003249,-0.00024261,0.00026
 140,-0.00004947,-0.00004199,0.00005560,0.00006999,-0.00062659,-0.00040
 690,-0.00001155,0.00189785,-0.00091845,-0.00022903,-0.00011918,0.00002
 721,0.00011712,-0.00548816,-0.00277920,-0.00048514,0.01608678,-0.02297
 944,0.00277739,0.12167916,-0.21810121,0.01693361,-0.00091854,0.0014338
 1,-0.00043017,-0.00025090,0.00108117,-0.00017922,-0.00038101,0.0002807
 2,0.00033155,0.00002918,-0.00001003,-0.00002027,-0.00000821,0.00000965
 ,-0.00000935,0.00001957,0.00002406,0.00000750,0.00014407,-0.00023679,0
 .00000206,-0.00006195,-0.00003129,-0.00003760,-0.00011945,0.00029304,0
 .00010340,0.00018688,0.00105701,-0.00059584,0.00004975,0.00085666,0.00
 049168,-0.00111128,0.00185921,0.00069374,-0.13126773,0.23765579,-0.000
 13862,-0.00015378,0.00003507,0.00011223,0.00002309,0.00004843,0.000025
 61,-0.00005145,-0.00001680,0.00003997,-0.00000356,-0.00003952,0.000013
 41,0.00002847,0.00039453,-0.00003950,-0.00000421,0.00001950,-0.0000108
 3,0.00012221,0.00032876,0.00041463,-0.00198330,-0.00076231,-0.01369523
 ,0.01771450,-0.05196520,0.01533435,-0.02191823,0.00169901,0.00294646,0
 .00139562,-0.00392174,0.00006861,0.00051288,0.00002406,-0.00001681,-0.
 00001995,0.00000410,-0.00000469,-0.00000812,-0.00000023,-0.00001076,-0
 .00000075,0.00000604,-0.00001666,0.00000854,0.00000089,0.00005431,0.00
 006779,-0.00001519,0.00032521,-0.00039154,0.00022282,0.00049225,-0.000
 11603,0.00026031,-0.00023031,0.00030040,-0.00002245,-0.01712630,0.0245
 8985,-0.00211544,0.01183616,-0.01883722,0.05369818,0.00027567,0.000251
 18,0.00008479,-0.00037401,-0.00009343,0.00024143,0.00000833,0.00003750
 ,-0.00005691,-0.00000993,0.00000810,0.00001644,-0.00002455,-0.00007121
 ,0.00000611,0.00007776,0.00003172,-0.00006338,-0.00011147,0.00005411,0
 .00015440,0.00145385,0.00060364,0.00019145,0.01044859,-0.00149694,0.02
 278381,-0.10157970,0.00500200,-0.10107489,-0.01066314,0.00183173,-0.01
 779031,0.00032049,-0.00129743,0.00024223,0.00000697,0.00001886,-0.0000
 1342,0.00001200,0.00000417,0.00000140,-0.00000581,-0.00000356,0.000005
 70,0.00001724,0.00000355,-0.00000757,0.00000802,-0.00000192,-0.0000102
 3,-0.00014037,0.00001264,-0.00000679,-0.00014481,0.00001627,-0.0004187
 1,0.00006950,0.00030523,-0.00022068,-0.00281101,-0.00045660,0.00427692
 ,0.00117112,-0.00001201,-0.00083753,0.11149858,-0.00046949,-0.00034531
 ,-0.00012638,0.00080332,0.00002131,-0.00035976,-0.00005625,0.00004710,
 0.00008008,0.00000571,-0.00002096,-0.00001323,-0.00003366,0.00001591,0
 .00004269,-0.00002343,0.00001399,0.00000756,0.00000261,-0.00021763,-0.
 00001241,0.00051372,0.00007532,0.00078021,-0.00038868,-0.00050834,-0.0
 0120865,0.00485623,-0.05241761,0.01392121,0.01418082,-0.00294957,0.026
 36170,0.00071039,0.00198590,0.00117407,-0.00000127,0.00002188,0.000005
 38,-0.00001557,-0.00000786,-0.00001407,0.00000178,0.00000770,-0.000009
 54,-0.00001247,0.00000650,0.00000450,-0.00003030,-0.00002889,-0.000019
 87,-0.00000137,0.00003450,-0.00019670,-0.00018609,0.00010579,0.0000586
 5,-0.00003955,-0.00001661,-0.00011740,0.00049148,0.00097521,-0.0001907
 9,-0.00032043,0.00016032,-0.00028573,-0.01012252,0.05456618,0.00020743
 ,-0.00003342,-0.00005286,-0.00005808,0.00029116,0.00022618,-0.00004280
 ,0.00002293,-0.00007903,0.00004226,0.00003016,0.00000750,-0.00008062,0
 .00004180,-0.00003641,0.00001248,0.00001703,0.00001718,0.00022219,0.00
 009505,0.00008688,-0.00148273,-0.00054176,0.00055933,-0.01092330,0.000
 71676,-0.02422303,-0.10091339,0.01418567,-0.24409616,-0.00049229,-0.00
 001502,-0.00024274,0.00011023,-0.00044749,0.00012411,0.00000783,0.0000
 1815,0.00000360,0.00000670,0.00000093,0.00001450,0.00000007,-0.0000089
 6,0.00000842,-0.00000434,0.00002019,-0.00000303,0.00003089,0.00004056,
 0.00002191,-0.00000333,-0.00021825,0.00007135,0.00087351,0.00084096,0.
 00059160,0.00025121,-0.00017973,0.00045382,0.00433790,0.00014692,-0.00
 273545,0.00002494,-0.00044763,0.00094239,0.10930109,-0.01489934,0.2684
 8760,-0.00000614,-0.00016120,0.00001560,0.00104449,0.00085878,0.000000
 85,-0.00030752,0.00033355,-0.00000864,-0.00012960,-0.00005873,0.000057
 74,0.00005145,-0.00004920,0.00002728,0.00011189,-0.00013808,-0.0000768
 0,-0.00040117,0.00050942,0.00013079,-0.00243404,0.00167407,0.00467071,
 -0.01378641,-0.01855865,-0.00337241,-0.14055155,-0.12333405,-0.0149569
 6,0.01251433,0.01706983,0.00181711,-0.00231255,0.00315026,-0.00025974,
 0.00008124,0.00014296,-0.00001943,-0.00000856,-0.00001011,0.00000390,0
 .00000768,-0.00000257,-0.00000981,0.00003452,-0.00004021,-0.00001331,-
 0.00000348,0.00001755,0.00000239,0.00006856,-0.00008711,-0.00001458,0.
 00037111,0.00043427,-0.00003119,-0.00062146,-0.00150752,0.00012252,0.0
 0117576,0.00028902,0.00001460,0.00018278,0.00031214,-0.00068935,-0.009
 30721,-0.01179149,-0.00158866,0.15265327,0.00059074,0.00004295,-0.0000
 2293,-0.00242482,-0.00053154,0.00015975,0.00054713,-0.00049041,0.00000
 443,0.00005895,0.00004404,-0.00010113,0.00017330,0.00017252,-0.0000933
 0,-0.00018547,-0.00003550,0.00014653,0.00043671,0.00031877,-0.00042243
 ,0.00033899,0.00110989,0.00011564,0.00103274,0.00148983,0.00050996,-0.
 12274316,-0.21357301,-0.01863849,-0.01679095,-0.02272600,-0.00284788,0
 .00546825,-0.00352006,0.00045996,-0.00011721,-0.00024058,0.00000923,-0
 .00001521,0.00000331,-0.00000663,0.00000037,0.00001222,0.00001954,-0.0
 0003743,-0.00000833,0.00002682,-0.00000481,-0.00001320,0.00000325,-0.0
 0005241,-0.00002290,0.00007909,-0.00001154,-0.00004373,-0.00006872,0.0
 0004658,0.00004468,-0.00017445,-0.00000840,0.00014792,0.00043804,-0.00
 030073,0.00050247,0.00039534,0.00148390,0.00230723,-0.00062183,0.13256
 688,0.23277676,0.00008592,-0.00008111,-0.00010183,-0.00011423,0.000124
 87,0.00042951,-0.00001311,-0.00004124,-0.00008834,0.00007980,0.0000270
 8,-0.00000790,-0.00004725,0.00003555,-0.00005460,-0.00007112,0.0000929
 0,0.00005169,0.00010911,-0.00048331,0.00000193,0.00296539,-0.00132572,
 -0.00390510,0.01569699,0.02157806,0.00194804,-0.01558406,-0.01947193,-
 0.05252960,0.00036600,0.00177447,-0.00070250,0.00010395,-0.00022306,0.
 00058117,-0.00000894,-0.00000617,0.00000391,-0.00000870,-0.00002341,0.
 00000660,-0.00000109,0.00000256,0.00000255,-0.00002205,0.00002132,0.00
 000288,0.00001033,-0.00000693,0.00001031,-0.00004728,0.00004197,-0.000
 01948,0.00027958,0.00008623,0.00024223,0.00091595,0.00120190,0.0001931
 5,-0.00082112,0.00030150,0.00094749,-0.00068362,-0.00038209,0.00080330
 ,-0.01761462,-0.02420819,-0.00251322,0.01386866,0.02068097,0.05426558,
 0.00083012,0.00016208,0.00012443,-0.00069925,0.00113726,0.00033290,-0.
 00001113,-0.00016054,-0.00007425,0.00005254,0.00002516,-0.00010576,0.0
 0024415,-0.00013610,0.00006805,-0.00006910,-0.00000659,0.00014889,0.00
 054311,0.00072350,-0.00172866,-0.00022964,-0.00000239,0.00027819,0.000
 39399,-0.00077569,-0.00130846,-0.01018257,0.00109507,-0.01525765,-0.12
 349069,0.00223676,-0.11441257,-0.01189588,-0.00202987,-0.01668415,0.00
 000099,-0.00005247,0.00005862,0.00002998,0.00004438,0.00007255,-0.0000
 0116,-0.00002992,0.00004004,-0.00001528,0.00001664,0.00003159,0.000143
 35,0.00015263,0.00013101,-0.00020183,-0.00019466,0.00085901,0.00025309
 ,0.00001270,0.00010051,-0.00006300,0.00000856,0.00002949,-0.00016652,0
 .00019258,0.00084567,0.00035959,-0.00000234,0.00029361,-0.00112061,0.0
 0304558,0.00008179,0.00086288,-0.00018414,0.00045814,0.13380998,0.0013
 4443,-0.00004015,0.00041024,-0.00220742,0.00116112,-0.00089156,0.00004
 619,-0.00005538,-0.00001255,0.00001806,0.00009450,-0.00003209,0.000211
 45,-0.00005635,-0.00017642,-0.00006002,-0.00003166,0.00015294,0.000837
 95,0.00100922,-0.00114578,-0.00000898,-0.00019650,0.00001399,-0.000990
 67,0.00104358,0.00086923,0.01635261,-0.00189526,0.02575177,0.00242166,
 -0.04798689,0.00529785,-0.01567146,-0.00155946,-0.02428101,0.00004575,
 -0.00007462,0.00007092,0.00013434,0.00009720,0.00012446,-0.00001694,-0
 .00002702,0.00004263,0.00002096,-0.00001271,-0.00000205,0.00011680,0.0
 0007834,0.00015959,0.00000969,0.00011979,0.00062268,-0.00001524,-0.000
 14153,0.00000920,-0.00001047,0.00012859,-0.00001085,-0.00000486,0.0001
 4881,-0.00080823,-0.00044580,-0.00003448,-0.00009489,0.00403082,-0.004
 61360,-0.00015355,-0.00078930,0.00110291,0.00016146,-0.00198199,0.0567
 0021,0.00141698,0.00097345,0.00074828,-0.00233946,0.00059430,0.0001000
 5,0.00031702,-0.00020834,-0.00021543,0.00002145,0.00006120,-0.00000879
 ,0.00018345,0.00011722,0.00031492,-0.00008526,-0.00009003,0.00004190,0
 .00047839,0.00010613,0.00054298,-0.00001807,0.00006268,0.00011164,0.00
 046877,-0.00021867,0.00071871,0.00002503,0.00071526,-0.00087618,-0.114
 18921,0.00377139,-0.23177014,-0.00019360,-0.00127205,-0.00138903,-0.00
 003498,-0.00009380,0.00000422,0.00003975,0.00003572,0.00002688,-0.0000
 1052,-0.00001222,0.00002551,0.00003517,-0.00000901,-0.00000924,0.00011
 093,0.00011411,-0.00007347,-0.00030415,0.00008494,0.00055021,0.0000776
 9,-0.00000509,-0.00012784,-0.00002661,-0.00001363,-0.00001124,-0.00040
 167,-0.00005166,0.00052541,-0.00004036,0.00005962,0.00022299,0.0003484
 8,0.00022938,0.00137715,0.00004560,0.00057805,0.00027164,0.12777978,-0
 .00561824,0.24957558,0.00107292,0.00086385,-0.00042838,-0.00097873,0.0
 0077323,-0.00014249,-0.00001668,-0.00000146,0.00014267,-0.00010965,0.0
 0004988,-0.00000352,0.00002880,0.00071458,0.00071784,-0.00045349,-0.00
 030954,0.00030033,-0.00119736,-0.00341733,-0.00174324,0.00062900,-0.00
 004520,-0.00020358,-0.00070969,0.00351431,-0.00150377,-0.01186731,0.00
 052305,0.01322483,-0.15858618,0.00229818,0.12977178,-0.01359820,-0.001
 86151,0.01492733,0.00005346,-0.00002362,-0.00003322,-0.00001422,0.0000
 2879,-0.00002215,0.00000685,-0.00001603,-0.00000208,0.00002984,-0.0000
 5065,-0.00000007,-0.00001103,0.00001871,-0.00003612,0.00009953,-0.0000
 4053,0.00018899,-0.00007200,-0.00000183,-0.00003569,-0.00000647,0.0000
 0306,0.00002879,0.00007050,0.00003088,0.00023521,-0.00059953,-0.000040
 83,0.00090056,0.00025499,-0.00064184,-0.00023365,0.00073500,-0.0000075
 0,-0.00023037,0.01231983,-0.00012580,-0.01373308,0.17259653,0.00145125
 ,-0.00026148,-0.00048799,-0.00202346,0.00054510,0.00089438,0.00007277,
 0.00010919,0.00000050,-0.00004832,0.00021380,0.00009660,-0.00054180,0.
 00095742,0.00082230,-0.00071952,-0.00044659,0.00049131,-0.00240203,-0.
 00542129,-0.00132093,0.00007957,-0.00053393,-0.00012752,0.00254280,-0.
 00535153,0.00183018,0.01870639,0.00007775,-0.02328099,0.00305846,-0.04
 770377,-0.00534917,-0.01785631,-0.00042869,0.02220180,0.00006655,-0.00
 000335,-0.00004880,0.00001806,0.00004599,0.00000657,0.00002229,-0.0000
 1442,0.00000194,0.00006931,-0.00004013,-0.00004147,-0.00003294,-0.0000
 5494,-0.00007295,0.00024744,-0.00002948,-0.00017805,0.00000168,0.00013
 472,0.00001557,-0.00000265,0.00014660,0.00003024,-0.00029679,-0.000013
 24,0.00015947,0.00155471,0.00003392,-0.00124927,-0.00059030,0.00118726
 ,0.00043681,-0.00084729,0.00082697,-0.00025486,-0.00011858,-0.00018451
 ,0.00036989,-0.00285857,0.05511584,-0.00139625,-0.00132452,0.00050590,
 0.00227576,-0.00030490,0.00019831,-0.00036047,0.00011964,-0.00014964,0
 .00005121,-0.00006761,-0.00007800,0.00024436,-0.00019067,0.00020673,-0
 .00012482,0.00000283,0.00009142,-0.00016039,-0.00018598,0.00065036,-0.
 00021649,0.00003908,-0.00002276,-0.00030566,-0.00008712,0.00091263,-0.
 00313799,0.00019713,0.00221567,0.12976776,-0.00350916,-0.20413132,-0.0
 0278524,0.00041152,0.00162196,0.00002143,0.00008688,-0.00000088,-0.000
 06350,-0.00008146,-0.00002490,-0.00000297,-0.00000577,0.00001425,-0.00
 002959,0.00002528,0.00003388,0.00005581,0.00009904,0.00000784,-0.00019
 198,-0.00007966,0.00046671,0.00003838,0.00001232,-0.00000044,0.0000176
 1,-0.00001294,-0.00003516,-0.00022935,0.00012968,0.00046648,0.00018329
 ,0.00017338,0.00016997,0.00015848,-0.00048161,0.00081194,0.00010315,-0
 .00051182,-0.00004364,0.01795374,-0.00033786,-0.02179164,-0.14196068,0
 .00534747,0.21713280,-0.00122514,0.00352354,0.00262519,-0.01303753,-0.
 00031351,-0.01815504,0.00038891,-0.00033682,0.00110104,-0.00006732,-0.
 00025533,-0.00002087,0.00087701,0.00000127,0.00086932,0.00015883,0.000
 17275,-0.00041012,0.00924344,-0.00063800,0.02153181,0.00153449,-0.0003
 3712,0.00036123,-0.00004381,-0.00000389,0.00006066,0.00054232,0.001200
 38,0.00023803,-0.01111723,-0.00122577,-0.01709236,-0.10578660,0.001532
 84,-0.10972457,-0.00007076,-0.00010298,0.00041143,0.00068070,0.0004307
 6,0.00034491,-0.00010228,0.00004827,0.00002898,-0.00002659,-0.00001285
 ,0.00001727,-0.00015648,0.00000934,-0.00019792,-0.00283801,0.00002563,
 0.00335641,-0.00014481,-0.00009710,-0.00031969,0.00019409,-0.00033145,
 -0.00013876,-0.00016822,-0.00000484,-0.00000051,0.00005004,0.00002292,
 -0.00004076,0.00066950,-0.00047723,0.00031266,-0.00002526,0.00013923,0
 .00032774,-0.00169695,-0.00326172,0.00002849,0.00032329,0.00044729,0.0
 0009439,0.12184438,0.00292934,-0.00327065,-0.00349571,0.01417846,0.002
 99367,0.02658282,-0.00155478,-0.00049490,-0.00314723,0.00035583,0.0002
 1955,-0.00014413,0.00029007,0.00007050,0.00117660,0.00004727,-0.000007
 86,-0.00015365,-0.00088014,0.00047816,0.00010771,-0.00055120,0.0001060
 1,-0.00109279,0.00007673,-0.00021194,0.00011347,-0.00050321,0.00169320
 ,-0.00123208,-0.01539534,-0.00133686,-0.02454193,0.00340016,-0.0504604
 9,0.00703202,0.00005339,0.00051904,-0.00029555,-0.00026767,-0.00169431
 ,0.00016448,0.00001310,0.00010126,-0.00006159,0.00002874,-0.00003191,-
 0.00002438,-0.00026336,0.00007316,-0.00001127,-0.00002761,0.00057071,-
 0.00034635,0.00023852,0.00011815,-0.00003786,0.00000144,-0.00002706,0.
 00008341,-0.00001210,0.00004853,0.00023152,0.00008463,-0.00003497,-0.0
 0004066,0.00045047,-0.00040572,0.00066191,0.00001679,0.00030277,0.0003
 7717,-0.00317763,-0.00477414,-0.00028062,0.00062371,0.00109279,0.00053
 680,-0.00015561,0.05436331,0.00060255,0.00057320,-0.00083214,-0.001356
 82,-0.00049863,-0.00032684,-0.00052664,-0.00023879,-0.00065000,0.00029
 824,0.00021129,-0.00007458,-0.00144800,-0.00088110,-0.00042595,0.00015
 177,-0.00002555,0.00059467,-0.01021897,0.00088829,-0.02748584,-0.00203
 327,0.00086278,0.00099946,0.00019339,-0.00028014,0.00004036,0.00002220
 ,0.00040770,0.00008301,-0.00109524,-0.00016969,-0.00116849,-0.10568882
 ,0.00188507,-0.21883060,0.00007533,0.00018372,0.00030829,0.00031598,-0
 .00000867,0.00067609,0.00000962,-0.00018087,0.00014610,-0.00001060,0.0
 0004702,0.00000922,0.00085010,0.00067821,0.00055582,0.00417403,0.00001
 047,-0.00293339,0.00087937,-0.00072784,0.00063356,0.00017680,0.0003348
 1,0.00043254,0.00001863,0.00022345,0.00007278,-0.00000023,-0.00007896,
 -0.00002146,0.00030230,-0.00052174,0.00017648,0.00015996,-0.00011699,0
 .00020425,-0.00011651,-0.00012187,0.00111492,-0.00012623,-0.00029303,0
 .00077152,0.11439105,-0.00216213,0.24593023\\0.00009040,-0.00001388,-0
 .00003643,-0.00004134,-0.00003728,-0.00001332,-0.00007982,0.00004357,0
 .00008856,0.00001390,-0.00006755,-0.00001223,0.00001174,0.00008146,-0.
 00004363,-0.00000474,-0.00000744,0.00003766,0.00002727,-0.00007654,-0.
 00001081,0.00000640,0.00008681,-0.00000834,0.00002099,-0.00002349,0.00
 002240,0.00001983,0.00002972,-0.00002297,0.00002193,-0.00004980,0.0000
 0171,-0.00006181,0.00003443,0.00006512,0.00000265,-0.00000253,0.000001
 14,0.00001876,-0.00001380,-0.00001490,-0.00001548,-0.00000635,-0.00000
 533,0.00000076,0.00000427,0.00000024,0.00000894,0.00000372,-0.00001123
 ,-0.00000745,-0.00001509,0.00000115,0.00000486,0.00001845,-0.00000034,
 -0.00000216,-0.00000084,-0.00001079,-0.00000620,-0.00000459,-0.0000041
 2,-0.00000628,-0.00000308,-0.00001183,-0.00000741,0.00000591,-0.000003
 29,-0.00000974,-0.00000360,-0.00000173,-0.00000806,-0.00000509,0.00000
 710,-0.00001070,0.00000109,0.00000367,0.00001276,0.00002152,-0.0000174
 5\\\@


 IT IS A SIMPLE TASK TO MAKE THINGS COMPLEX,
 BUT A COMPLEX TASK TO MAKE THEM SIMPLE.
 Job cpu time:       0 days  0 hours  2 minutes 38.7 seconds.
 Elapsed time:       0 days  0 hours  2 minutes 43.1 seconds.
 File lengths (MBytes):  RWF=    157 Int=      0 D2E=      0 Chk=     16 Scr=      1
 Normal termination of Gaussian 16 at Sat Feb 24 02:40:48 2024.
