 Entering Gaussian System, Link 0=g16
 Input=/Volumes/SSD-PMU3/b3lyp_6-31gd_freq/WWQAPMLWYTUDHR-SECBINFHSA-N_calculating/gaussianinput0.gjf
 Output=/Volumes/SSD-PMU3/b3lyp_6-31gd_freq/WWQAPMLWYTUDHR-SECBINFHSA-N_calculating/gaussianinput0.log
 Initial command:
 /Applications/g16/l1.exe "/Users/macmini_m1_2022/PycharmProjects/sphere_model/sphere_model_lib/Gau-88179.inp" -scrdir="/Users/macmini_m1_2022/PycharmProjects/sphere_model/sphere_model_lib/"
 Entering Link 1 = /Applications/g16/l1.exe PID=     88180.
  
 Copyright (c) 1988,1990,1992,1993,1995,1998,2003,2009,2016,
            Gaussian, Inc.  All Rights Reserved.
  
 This is part of the Gaussian(R) 16 program.  It is based on
 the Gaussian(R) 09 system (copyright 2009, Gaussian, Inc.),
 the Gaussian(R) 03 system (copyright 2003, Gaussian, Inc.),
 the Gaussian(R) 98 system (copyright 1998, Gaussian, Inc.),
 the Gaussian(R) 94 system (copyright 1995, Gaussian, Inc.),
 the Gaussian 92(TM) system (copyright 1992, Gaussian, Inc.),
 the Gaussian 90(TM) system (copyright 1990, Gaussian, Inc.),
 the Gaussian 88(TM) system (copyright 1988, Gaussian, Inc.),
 the Gaussian 86(TM) system (copyright 1986, Carnegie Mellon
 University), and the Gaussian 82(TM) system (copyright 1983,
 Carnegie Mellon University). Gaussian is a federally registered
 trademark of Gaussian, Inc.
  
 This software contains proprietary and confidential information,
 including trade secrets, belonging to Gaussian, Inc.
  
 This software is provided under written license and may be
 used, copied, transmitted, or stored only in accord with that
 written license.
  
 The following legend is applicable only to US Government
 contracts under FAR:
  
                    RESTRICTED RIGHTS LEGEND
  
 Use, reproduction and disclosure by the US Government is
 subject to restrictions as set forth in subparagraphs (a)
 and (c) of the Commercial Computer Software - Restricted
 Rights clause in FAR 52.227-19.
  
 Gaussian, Inc.
 340 Quinnipiac St., Bldg. 40, Wallingford CT 06492
  
  
 ---------------------------------------------------------------
 Warning -- This program may not be used in any manner that
 competes with the business of Gaussian, Inc. or will provide
 assistance to any competitor of Gaussian, Inc.  The licensee
 of this program is prohibited from giving any competitor of
 Gaussian, Inc. access to this program.  By using this program,
 the user acknowledges that Gaussian, Inc. is engaged in the
 business of creating and licensing software in the field of
 computational chemistry and represents and warrants to the
 licensee that it is not a competitor of Gaussian, Inc. and that
 it will not use this program in any manner prohibited above.
 ---------------------------------------------------------------
  

 Cite this work as:
 Gaussian 16, Revision A.03,
 M. J. Frisch, G. W. Trucks, H. B. Schlegel, G. E. Scuseria, 
 M. A. Robb, J. R. Cheeseman, G. Scalmani, V. Barone, 
 G. A. Petersson, H. Nakatsuji, X. Li, M. Caricato, A. V. Marenich, 
 J. Bloino, B. G. Janesko, R. Gomperts, B. Mennucci, H. P. Hratchian, 
 J. V. Ortiz, A. F. Izmaylov, J. L. Sonnenberg, D. Williams-Young, 
 F. Ding, F. Lipparini, F. Egidi, J. Goings, B. Peng, A. Petrone, 
 T. Henderson, D. Ranasinghe, V. G. Zakrzewski, J. Gao, N. Rega, 
 G. Zheng, W. Liang, M. Hada, M. Ehara, K. Toyota, R. Fukuda, 
 J. Hasegawa, M. Ishida, T. Nakajima, Y. Honda, O. Kitao, H. Nakai, 
 T. Vreven, K. Throssell, J. A. Montgomery, Jr., J. E. Peralta, 
 F. Ogliaro, M. J. Bearpark, J. J. Heyd, E. N. Brothers, K. N. Kudin, 
 V. N. Staroverov, T. A. Keith, R. Kobayashi, J. Normand, 
 K. Raghavachari, A. P. Rendell, J. C. Burant, S. S. Iyengar, 
 J. Tomasi, M. Cossi, J. M. Millam, M. Klene, C. Adamo, R. Cammi, 
 J. W. Ochterski, R. L. Martin, K. Morokuma, O. Farkas, 
 J. B. Foresman, and D. J. Fox, Gaussian, Inc., Wallingford CT, 2016.
 
 ******************************************
 Gaussian 16:  EM64M-G16RevA.03 25-Dec-2016
                24-Feb-2024 
 ******************************************
 %nprocshared=10
 Will use up to   10 processors via shared memory.
 %mem=12GB
 %chk= 0.chk
 ---------------------
 # freq b3lyp/6-31g(d)
 ---------------------
 1/10=4,30=1,38=1/1,3;
 2/12=2,17=6,18=5,40=1/2;
 3/5=1,6=6,7=1,11=2,25=1,30=1,71=2,74=-5,140=1/1,2,3;
 4//1;
 5/5=2,38=5,98=1/2;
 8/6=4,10=90,11=11/1;
 11/6=1,8=1,9=11,15=111,16=1/1,2,10;
 10/6=1/2;
 6/7=2,8=2,9=2,10=2,28=1/1;
 7/8=1,10=1,25=1/1,2,3,16;
 1/10=4,30=1/3;
 99//99;
 ---------
 good luck
 ---------
 Symbolic Z-matrix:
 Charge =  0 Multiplicity = 1
 O                     1.21776   0.        0. 
 C                     0.        0.        0. 
 C                    -0.82051  -1.30197   0.00278 
 C                     0.08511  -2.48971  -0.35516 
 C                    -1.38251  -1.51363   1.43119 
 C                    -1.97414  -1.19379  -1.0366 
 C                    -2.83191   0.08722  -0.94495 
 C                    -4.05583   0.10544  -1.92986 
 C                    -4.89404   1.38098  -1.69057 
 C                    -3.62555   0.06868  -3.41088 
 C                    -4.97091  -1.10701  -1.64907 
 C                    -1.89889   1.30895  -1.07291 
 C                    -0.7954    1.29832   0.00278 
 H                    -0.49346  -3.42117  -0.35487 
 H                     0.53096  -2.36196  -1.34717 
 H                     0.90521  -2.58796   0.36134 
 H                    -0.56718  -1.58768   2.15961 
 H                    -1.95275  -2.44977   1.46776 
 H                    -2.04837  -0.70696   1.75278 
 H                    -2.59729  -2.08863  -0.92649 
 H                    -1.52793  -1.25033  -2.03921 
 H                    -3.27564   0.12491   0.06239 
 H                    -4.35878   2.29197  -1.9772 
 H                    -5.18281   1.47638  -0.63604 
 H                    -5.81531   1.34705  -2.28414 
 H                    -3.06467  -0.84053  -3.6539 
 H                    -4.50921   0.08917  -4.06018 
 H                    -3.00455   0.93053  -3.67955 
 H                    -4.49511  -2.058    -1.90914 
 H                    -5.89122  -1.03323  -2.24052 
 H                    -5.25974  -1.15195  -0.5912 
 H                    -1.42565   1.31225  -2.06418 
 H                    -2.45745   2.24665  -0.99017 
 H                    -0.0908    2.12468  -0.13042 
 H                    -1.2579    1.41918   0.99346 
 

 GradGradGradGradGradGradGradGradGradGradGradGradGradGradGradGradGradGrad
 Berny optimization.
 Initialization pass.
 Trust Radius=3.00D-01 FncErr=1.00D-07 GrdErr=1.00D-07 EigMax=2.50D+02 EigMin=1.00D-04
 Number of steps in this run=      2 maximum allowed number of steps=      2.
 GradGradGradGradGradGradGradGradGradGradGradGradGradGradGradGradGradGrad

                          Input orientation:                          
 ---------------------------------------------------------------------
 Center     Atomic      Atomic             Coordinates (Angstroms)
 Number     Number       Type             X           Y           Z
 ---------------------------------------------------------------------
      1          8           0        1.217756    0.000000    0.000000
      2          6           0        0.000000    0.000000    0.000000
      3          6           0       -0.820508   -1.301965    0.002777
      4          6           0        0.085105   -2.489707   -0.355159
      5          6           0       -1.382508   -1.513633    1.431191
      6          6           0       -1.974142   -1.193791   -1.036605
      7          6           0       -2.831912    0.087218   -0.944953
      8          6           0       -4.055830    0.105443   -1.929855
      9          6           0       -4.894042    1.380980   -1.690573
     10          6           0       -3.625552    0.068683   -3.410875
     11          6           0       -4.970912   -1.107005   -1.649065
     12          6           0       -1.898893    1.308948   -1.072912
     13          6           0       -0.795396    1.298319    0.002777
     14          1           0       -0.493457   -3.421173   -0.354874
     15          1           0        0.530962   -2.361960   -1.347173
     16          1           0        0.905214   -2.587957    0.361335
     17          1           0       -0.567180   -1.587683    2.159609
     18          1           0       -1.952754   -2.449765    1.467758
     19          1           0       -2.048373   -0.706955    1.752778
     20          1           0       -2.597287   -2.088627   -0.926486
     21          1           0       -1.527925   -1.250333   -2.039209
     22          1           0       -3.275638    0.124913    0.062394
     23          1           0       -4.358783    2.291975   -1.977196
     24          1           0       -5.182812    1.476384   -0.636036
     25          1           0       -5.815306    1.347048   -2.284139
     26          1           0       -3.064671   -0.840534   -3.653900
     27          1           0       -4.509205    0.089169   -4.060180
     28          1           0       -3.004549    0.930530   -3.679545
     29          1           0       -4.495114   -2.058001   -1.909140
     30          1           0       -5.891218   -1.033235   -2.240525
     31          1           0       -5.259737   -1.151946   -0.591202
     32          1           0       -1.425649    1.312251   -2.064180
     33          1           0       -2.457445    2.246648   -0.990167
     34          1           0       -0.090798    2.124684   -0.130415
     35          1           0       -1.257900    1.419177    0.993456
 ---------------------------------------------------------------------
                    Distance matrix (angstroms):
                    1          2          3          4          5
     1  O    0.000000
     2  C    1.217756   0.000000
     3  C    2.418603   1.538946   0.000000
     4  C    2.758202   2.516351   1.535898   0.000000
     5  C    3.331781   2.500144   1.549521   2.509513   0.000000
     6  C    3.562008   2.529214   1.556563   2.526710   2.557801
     7  C    4.159369   2.986682   2.621787   3.936672   3.210850
     8  C    5.616598   4.492796   4.022831   5.134376   4.589628
     9  C    6.489932   5.358805   5.163265   6.446507   5.518611
    10  C    5.924223   4.978294   4.626010   5.445341   5.566020
    11  C    6.499576   5.353022   4.471291   5.399015   4.746574
    12  C    3.546546   2.543674   3.022729   4.345250   3.808431
    13  C    2.395500   1.522595   2.600405   3.905450   3.208137
    14  H    3.841694   3.474746   2.173918   1.096523   2.760281
    15  H    2.804535   2.770496   2.184588   1.095080   3.478553
    16  H    2.631685   2.765411   2.181847   1.093433   2.744528
    17  H    3.220349   2.739770   2.190373   2.750124   1.095827
    18  H    4.267059   3.459611   2.178439   2.734500   1.096750
    19  H    3.773541   2.787086   2.219052   3.489030   1.094314
    20  H    4.446942   3.459283   2.153906   2.771733   2.713844
    21  H    3.641493   2.838355   2.161669   2.640821   3.483411
    22  H    4.495563   3.278613   2.840281   4.278456   2.853485
    23  H    6.345096   5.306736   5.418126   6.726338   5.912526
    24  H    6.599358   5.426398   5.211238   6.599979   5.258891
    25  H    7.516368   6.391370   6.098792   7.297705   6.452664
    26  H    5.691807   4.842488   4.315145   4.850005   5.398230
    27  H    7.020762   6.068438   5.661215   6.440921   6.519230
    28  H    5.677394   4.840687   4.828412   5.682915   5.892756
    29  H    6.365302   5.299645   4.210671   4.855886   4.598093
    30  H    7.524961   6.387016   5.551281   6.433689   5.834445
    31  H    6.605635   5.416764   4.481302   5.514767   4.387915
    32  H    3.601449   2.831133   3.387127   4.433736   4.495008
    33  H    4.419837   3.473743   4.032140   5.413026   4.599802
    34  H    2.498720   2.130618   3.506015   4.623208   4.164670
    35  H    3.021571   2.140871   2.928715   4.347620   2.967914
                    6          7          8          9         10
     6  C    0.000000
     7  C    1.544394   0.000000
     8  C    2.611385   1.571095   0.000000
     9  C    3.947523   2.546007   1.544943   0.000000
    10  C    3.155654   2.590556   1.542696   2.508113   0.000000
    11  C    3.059946   2.548973   1.544749   2.489518   2.509225
    12  C    2.504133   1.542570   2.614413   3.059021   3.160013
    13  C    2.946247   2.551932   3.973468   4.435444   4.601609
    14  H    2.760148   4.257390   5.254340   6.649054   5.597165
    15  H    2.781478   4.179614   5.240826   6.599863   5.238654
    16  H    3.491221   4.777977   6.092283   7.320803   6.466463
    17  H    3.514325   4.191970   5.635696   6.508348   6.567152
    18  H    2.801743   3.609761   4.742973   5.770688   5.739503
    19  H    2.832521   2.919314   4.272196   4.930920   5.454578
    20  H    1.095978   2.188536   2.819227   4.230495   3.447246
    21  H    1.098873   2.164907   2.870608   4.286735   2.832192
    22  H    2.154222   1.101391   2.139658   2.696262   3.491303
    23  H    4.326868   2.873641   2.207928   1.094791   2.745194
    24  H    4.193549   2.748080   2.196255   1.097515   3.479427
    25  H    4.771451   3.504459   2.182397   1.096449   2.774666
    26  H    2.857320   2.872855   2.202181   3.483730   1.095593
    27  H    4.149040   3.538072   2.178095   2.726153   1.096749
    28  H    3.543954   2.866875   2.201676   2.780126   1.095723
    29  H    2.804189   2.880601   2.207689   3.468934   2.744837
    30  H    4.101059   3.506177   2.182144   2.669315   2.777982
    31  H    3.315912   2.748636   2.195999   2.785330   3.480094
    32  H    2.763513   2.175075   2.896943   3.489134   2.863498
    33  H    3.474530   2.192124   2.832421   2.678984   3.459456
    34  H    3.921791   3.511189   4.799666   5.104737   5.242427
    35  H    3.385521   2.830028   4.254416   4.519624   5.179550
                   11         12         13         14         15
    11  C    0.000000
    12  C    3.950453   0.000000
    13  C    5.094026   1.541079   0.000000
    14  H    5.203644   4.986469   4.742645   0.000000
    15  H    5.651254   4.410780   4.120586   1.776520   0.000000
    16  H    6.384652   5.010584   4.257203   1.778619   1.763559
    17  H    5.842080   4.540168   3.610127   3.112836   3.755388
    18  H    4.541681   4.537161   4.187336   2.528867   3.755049
    19  H    4.502645   3.474296   2.941697   3.771862   4.359095
    20  H    2.668295   3.471701   3.947372   2.555097   3.168222
    21  H    3.467984   2.760664   3.346929   2.935925   2.440009
    22  H    2.705673   2.141561   2.744456   4.526518   4.760422
    23  H    3.469213   2.799130   4.195876   7.086094   6.779797
    24  H    2.782989   3.317080   4.437252   6.786396   6.919958
    25  H    2.671834   4.099611   5.516508   7.401356   7.410112
    26  H    2.779231   3.555392   4.805787   4.914714   4.534788
    27  H    2.730839   4.150345   5.635782   6.494461   6.226694
    28  H    3.484391   2.856608   4.309886   6.024644   5.364726
    29  H    1.094722   4.333127   5.348666   4.504136   5.066521
    30  H    1.096463   4.773657   6.036220   6.196269   6.618760
    31  H    1.097503   4.193246   5.127080   5.284190   5.963876
    32  H    4.312077   1.098446   2.160954   5.118204   4.224009
    33  H    4.242482   1.094581   2.155846   6.032001   5.504298
    34  H    6.046952   2.196118   1.094110   5.564984   4.690102
    35  H    5.210659   2.166310   1.099982   5.082456   4.793284
                   16         17         18         19         20
    16  H    0.000000
    17  H    2.530273   0.000000
    18  H    3.067776   1.772472   0.000000
    19  H    3.768018   1.770629   1.768549   0.000000
    20  H    3.765013   3.727769   2.505643   3.064112   0.000000
    21  H    3.670424   4.320522   3.730675   3.865914   1.756253
    22  H    4.992850   3.829757   3.217769   2.248462   2.517499
    23  H    7.549313   6.822108   6.335675   5.314535   4.836996
    24  H    7.387671   6.205497   5.502170   4.505342   4.413457
    25  H    8.224852   7.476789   6.588765   5.891130   4.899258
    26  H    5.910633   6.371231   5.482460   5.502988   3.035617
    27  H    7.485501   7.552296   6.598464   6.362389   4.268286
    28  H    6.632851   6.810131   6.247191   5.753761   4.106155
    29  H    5.882130   5.674908   4.245058   4.606681   2.137357
    30  H    7.441661   6.929212   5.591907   5.551611   3.700072
    31  H    6.401256   5.456823   4.106067   4.000640   2.842257
    32  H    5.150502   5.194899   5.187021   4.362814   3.772672
    33  H    6.042139   5.310017   5.324697   4.051525   4.337997
    34  H    4.841781   4.387803   5.191013   3.923862   4.966710
    35  H    4.597365   3.298214   3.959356   2.392040   4.217206
                   21         22         23         24         25
    21  H    0.000000
    22  H    3.059826   0.000000
    23  H    4.534925   3.166905   0.000000
    24  H    4.770962   2.439588   1.772829   0.000000
    25  H    5.018766   3.667389   1.763111   1.770034   0.000000
    26  H    2.266440   3.845444   3.781359   4.354553   3.771969
    27  H    3.842736   4.303322   3.035425   3.755379   2.538204
    28  H    3.102786   3.837267   2.566218   3.782292   3.165596
    29  H    3.077898   3.184208   4.352644   3.819110   3.671225
    30  H    4.373327   3.672329   3.670793   3.061766   2.381893
    31  H    4.004101   2.448307   3.820116   2.629838   3.069147
    32  H    2.564746   3.058521   3.093655   4.022786   4.395302
    33  H    3.767409   2.505810   2.142748   2.854180   3.709296
    34  H    4.135162   3.765563   4.653416   5.157960   6.165488
    35  H    4.049229   2.571626   4.382012   4.250112   5.614070
                   26         27         28         29         30
    26  H    0.000000
    27  H    1.765245   0.000000
    28  H    1.772270   1.765435   0.000000
    29  H    2.563704   3.039327   3.779872   0.000000
    30  H    3.166091   2.545760   3.776243   1.763255   0.000000
    31  H    3.780927   3.759983   4.354359   1.772722   1.770064
    32  H    3.138166   3.871468   2.290860   4.561168   5.047149
    33  H    4.122486   4.276613   3.043722   4.850424   4.910379
    34  H    5.481914   6.253694   4.744710   6.329038   6.933245
    35  H    5.474361   6.154603   5.012634   5.567350   6.159594
                   31         32         33         34         35
    31  H    0.000000
    32  H    4.789798   0.000000
    33  H    4.422946   1.758182   0.000000
    34  H    6.137309   2.486226   2.520926   0.000000
    35  H    5.013633   3.064100   2.461377   1.767188   0.000000
 Stoichiometry    C12H22O
 Framework group  C1[X(C12H22O)]
 Deg. of freedom    99
 Full point group                 C1      NOp   1
 Largest Abelian subgroup         C1      NOp   1
 Largest concise Abelian subgroup C1      NOp   1
                         Standard orientation:                         
 ---------------------------------------------------------------------
 Center     Atomic      Atomic             Coordinates (Angstroms)
 Number     Number       Type             X           Y           Z
 ---------------------------------------------------------------------
      1          8           0        3.150634    1.129263   -0.626194
      2          6           0        2.102440    0.800175   -0.100912
      3          6           0        1.693012   -0.674516    0.060363
      4          6           0        2.579090   -1.561611   -0.826718
      5          6           0        1.908085   -1.074468    1.541847
      6          6           0        0.201926   -0.849880   -0.350487
      7          6           0       -0.785459    0.148170    0.293035
      8          6           0       -2.291803   -0.134437   -0.052510
      9          6           0       -3.193852    0.859044    0.713094
     10          6           0       -2.587826   -0.007507   -1.561208
     11          6           0       -2.676299   -1.557184    0.410310
     12          6           0       -0.318003    1.579947   -0.040165
     13          6           0        1.124324    1.834500    0.439231
     14          1           0        2.292674   -2.614313   -0.716497
     15          1           0        2.481915   -1.287363   -1.882438
     16          1           0        3.633735   -1.456795   -0.557770
     17          1           0        2.958553   -0.948028    1.827092
     18          1           0        1.646416   -2.130540    1.680060
     19          1           0        1.298319   -0.488148    2.236065
     20          1           0       -0.081142   -1.882794   -0.117832
     21          1           0        0.142073   -0.752545   -1.443403
     22          1           0       -0.717023    0.033226    1.386272
     23          1           0       -3.070515    1.889243    0.363745
     24          1           0       -2.983638    0.840041    1.790121
     25          1           0       -4.249556    0.595875    0.577333
     26          1           0       -2.009357   -0.723312   -2.155615
     27          1           0       -3.648903   -0.206414   -1.754625
     28          1           0       -2.371347    0.998011   -1.938937
     29          1           0       -2.169349   -2.335656   -0.168826
     30          1           0       -3.754668   -1.716520    0.292150
     31          1           0       -2.432756   -1.711358    1.469286
     32          1           0       -0.363013    1.741821   -1.125685
     33          1           0       -0.973955    2.328772    0.414914
     34          1           0        1.482535    2.824255    0.140653
     35          1           0        1.150124    1.795026    1.538202
 ---------------------------------------------------------------------
 Rotational constants (GHZ):           1.3363252           0.5055074           0.4492056
 Standard basis: 6-31G(d) (6D, 7F)
 There are   239 symmetry adapted cartesian basis functions of A   symmetry.
 There are   239 symmetry adapted basis functions of A   symmetry.
   239 basis functions,   452 primitive gaussians,   239 cartesian basis functions
    51 alpha electrons       51 beta electrons
       nuclear repulsion energy       885.3620461311 Hartrees.
 NAtoms=   35 NActive=   35 NUniq=   35 SFac= 1.00D+00 NAtFMM=   60 NAOKFM=F Big=F
 Integral buffers will be    131072 words long.
 Raffenetti 2 integral format.
 Two-electron integral symmetry is turned on.
 One-electron integrals computed using PRISM.
 NBasis=   239 RedAO= T EigKep=  2.43D-03  NBF=   239
 NBsUse=   239 1.00D-06 EigRej= -1.00D+00 NBFU=   239
 ExpMin= 1.61D-01 ExpMax= 5.48D+03 ExpMxC= 8.25D+02 IAcc=3 IRadAn=         5 AccDes= 0.00D+00
 Harris functional with IExCor=  402 and IRadAn=       5 diagonalized for initial guess.
 HarFok:  IExCor=  402 AccDes= 0.00D+00 IRadAn=         5 IDoV= 1 UseB2=F ITyADJ=14
 ICtDFT=  3500011 ScaDFX=  1.000000  1.000000  1.000000  1.000000
 FoFCou: FMM=F IPFlag=           0 FMFlag=      100000 FMFlg1=           0
         NFxFlg=           0 DoJE=T BraDBF=F KetDBF=T FulRan=T
         wScrn=  0.000000 ICntrl=       500 IOpCl=  0 I1Cent=   200000004 NGrid=           0
         NMat0=    1 NMatS0=      1 NMatT0=    0 NMatD0=    1 NMtDS0=    0 NMtDT0=    0
 Petite list used in FoFCou.
 Requested convergence on RMS density matrix=1.00D-08 within 128 cycles.
 Requested convergence on MAX density matrix=1.00D-06.
 Requested convergence on             energy=1.00D-06.
 No special actions if energy rises.
 Integral accuracy reduced to 1.0D-05 until final iterations.
 Initial convergence to 1.0D-05 achieved.  Increase integral accuracy.
 SCF Done:  E(RB3LYP) =  -545.766698734     A.U. after   14 cycles
            NFock= 14  Conv=0.28D-08     -V/T= 2.0099
 DoSCS=F DFT=T ScalE2(SS,OS)=  1.000000  1.000000
 Range of M.O.s used for correlation:     1   239
 NBasis=   239 NAE=    51 NBE=    51 NFC=     0 NFV=     0
 NROrb=    239 NOA=    51 NOB=    51 NVA=   188 NVB=   188
 Symmetrizing basis deriv contribution to polar:
 IMax=3 JMax=2 DiffMx= 0.00D+00
 G2DrvN: will do    36 centers at a time, making    1 passes.
 Calling FoFCou, ICntrl=  3107 FMM=F I1Cent=   0 AccDes= 0.00D+00.
 End of G2Drv F.D. properties file   721 does not exist.
 End of G2Drv F.D. properties file   722 does not exist.
 End of G2Drv F.D. properties file   788 does not exist.
          IDoAtm=11111111111111111111111111111111111
          Differentiating once with respect to electric field.
                with respect to dipole field.
          Differentiating once with respect to nuclear coordinates.
 Keep R1 ints in memory in canonical form, NReq=421970777.
          There are   108 degrees of freedom in the 1st order CPHF.  IDoFFX=6 NUNeed=     3.
    105 vectors produced by pass  0 Test12= 9.59D-15 1.00D-09 XBig12= 8.87D+01 2.69D+00.
 AX will form   105 AO Fock derivatives at one time.
    105 vectors produced by pass  1 Test12= 9.59D-15 1.00D-09 XBig12= 1.23D+01 1.20D+00.
    105 vectors produced by pass  2 Test12= 9.59D-15 1.00D-09 XBig12= 7.70D-02 2.69D-02.
    105 vectors produced by pass  3 Test12= 9.59D-15 1.00D-09 XBig12= 2.18D-04 1.76D-03.
    105 vectors produced by pass  4 Test12= 9.59D-15 1.00D-09 XBig12= 2.10D-07 4.50D-05.
     43 vectors produced by pass  5 Test12= 9.59D-15 1.00D-09 XBig12= 1.27D-10 9.21D-07.
      3 vectors produced by pass  6 Test12= 9.59D-15 1.00D-09 XBig12= 7.58D-14 3.45D-08.
      1 vectors produced by pass  7 Test12= 9.59D-15 1.00D-09 XBig12= 5.06D-17 1.13D-09.
 InvSVY:  IOpt=1 It=  1 EMax= 5.33D-15
 Solved reduced A of dimension   572 with   108 vectors.
 Isotropic polarizability for W=    0.000000      124.08 Bohr**3.
 End of Minotr F.D. properties file   721 does not exist.
 End of Minotr F.D. properties file   722 does not exist.
 End of Minotr F.D. properties file   788 does not exist.

 **********************************************************************

            Population analysis using the SCF density.

 **********************************************************************

 Orbital symmetries:
       Occupied  (A) (A) (A) (A) (A) (A) (A) (A) (A) (A) (A) (A)
                 (A) (A) (A) (A) (A) (A) (A) (A) (A) (A) (A) (A)
                 (A) (A) (A) (A) (A) (A) (A) (A) (A) (A) (A) (A)
                 (A) (A) (A) (A) (A) (A) (A) (A) (A) (A) (A) (A)
                 (A) (A) (A)
       Virtual   (A) (A) (A) (A) (A) (A) (A) (A) (A) (A) (A) (A)
                 (A) (A) (A) (A) (A) (A) (A) (A) (A) (A) (A) (A)
                 (A) (A) (A) (A) (A) (A) (A) (A) (A) (A) (A) (A)
                 (A) (A) (A) (A) (A) (A) (A) (A) (A) (A) (A) (A)
                 (A) (A) (A) (A) (A) (A) (A) (A) (A) (A) (A) (A)
                 (A) (A) (A) (A) (A) (A) (A) (A) (A) (A) (A) (A)
                 (A) (A) (A) (A) (A) (A) (A) (A) (A) (A) (A) (A)
                 (A) (A) (A) (A) (A) (A) (A) (A) (A) (A) (A) (A)
                 (A) (A) (A) (A) (A) (A) (A) (A) (A) (A) (A) (A)
                 (A) (A) (A) (A) (A) (A) (A) (A) (A) (A) (A) (A)
                 (A) (A) (A) (A) (A) (A) (A) (A) (A) (A) (A) (A)
                 (A) (A) (A) (A) (A) (A) (A) (A) (A) (A) (A) (A)
                 (A) (A) (A) (A) (A) (A) (A) (A) (A) (A) (A) (A)
                 (A) (A) (A) (A) (A) (A) (A) (A) (A) (A) (A) (A)
                 (A) (A) (A) (A) (A) (A) (A) (A) (A) (A) (A) (A)
                 (A) (A) (A) (A) (A) (A) (A) (A)
 The electronic state is 1-A.
 Alpha  occ. eigenvalues --  -19.13116 -10.26335 -10.20166 -10.20151 -10.19218
 Alpha  occ. eigenvalues --  -10.18879 -10.18788 -10.18479 -10.18389 -10.17480
 Alpha  occ. eigenvalues --  -10.17467 -10.17447 -10.16894  -1.03007  -0.84710
 Alpha  occ. eigenvalues --   -0.81059  -0.77683  -0.72235  -0.68747  -0.68674
 Alpha  occ. eigenvalues --   -0.68457  -0.66312  -0.60105  -0.59668  -0.53100
 Alpha  occ. eigenvalues --   -0.50814  -0.47368  -0.46753  -0.44871  -0.44464
 Alpha  occ. eigenvalues --   -0.44210  -0.43161  -0.42562  -0.42274  -0.40610
 Alpha  occ. eigenvalues --   -0.39936  -0.38466  -0.37735  -0.37536  -0.37402
 Alpha  occ. eigenvalues --   -0.36175  -0.35831  -0.35515  -0.34475  -0.34285
 Alpha  occ. eigenvalues --   -0.33538  -0.32858  -0.31141  -0.30412  -0.29770
 Alpha  occ. eigenvalues --   -0.23093
 Alpha virt. eigenvalues --   -0.01029   0.07137   0.08853   0.10103   0.11220
 Alpha virt. eigenvalues --    0.11637   0.12591   0.13639   0.14296   0.14611
 Alpha virt. eigenvalues --    0.15531   0.15735   0.16216   0.16813   0.17049
 Alpha virt. eigenvalues --    0.17701   0.18725   0.19159   0.19964   0.20341
 Alpha virt. eigenvalues --    0.21059   0.21496   0.22385   0.22724   0.23667
 Alpha virt. eigenvalues --    0.24089   0.24619   0.25195   0.25819   0.27154
 Alpha virt. eigenvalues --    0.28015   0.29088   0.29722   0.30636   0.33357
 Alpha virt. eigenvalues --    0.37844   0.49172   0.49334   0.49804   0.50607
 Alpha virt. eigenvalues --    0.50983   0.52782   0.54539   0.55187   0.56081
 Alpha virt. eigenvalues --    0.58974   0.59510   0.60570   0.62218   0.64652
 Alpha virt. eigenvalues --    0.64779   0.66746   0.67618   0.68574   0.69332
 Alpha virt. eigenvalues --    0.70361   0.71191   0.73008   0.73524   0.74987
 Alpha virt. eigenvalues --    0.76824   0.80182   0.81378   0.82376   0.83975
 Alpha virt. eigenvalues --    0.84930   0.85968   0.86487   0.87125   0.87763
 Alpha virt. eigenvalues --    0.88734   0.89060   0.90011   0.90480   0.90856
 Alpha virt. eigenvalues --    0.91671   0.92007   0.92335   0.92865   0.93151
 Alpha virt. eigenvalues --    0.93872   0.94513   0.95677   0.96154   0.97046
 Alpha virt. eigenvalues --    0.98881   0.99980   1.00200   1.01939   1.03172
 Alpha virt. eigenvalues --    1.03823   1.04025   1.05341   1.07227   1.09478
 Alpha virt. eigenvalues --    1.14215   1.15190   1.21611   1.22299   1.28851
 Alpha virt. eigenvalues --    1.32844   1.35079   1.39159   1.41020   1.44858
 Alpha virt. eigenvalues --    1.49661   1.51234   1.51697   1.57478   1.60816
 Alpha virt. eigenvalues --    1.62017   1.65468   1.66602   1.67717   1.70065
 Alpha virt. eigenvalues --    1.70748   1.74327   1.75993   1.79180   1.80131
 Alpha virt. eigenvalues --    1.82832   1.84065   1.85039   1.86650   1.88114
 Alpha virt. eigenvalues --    1.88292   1.88981   1.91353   1.93195   1.94338
 Alpha virt. eigenvalues --    1.96984   1.97575   1.99977   2.01684   2.04161
 Alpha virt. eigenvalues --    2.05156   2.06058   2.08516   2.09346   2.10145
 Alpha virt. eigenvalues --    2.12122   2.14235   2.17204   2.18767   2.21367
 Alpha virt. eigenvalues --    2.22435   2.25459   2.25751   2.26654   2.26825
 Alpha virt. eigenvalues --    2.29221   2.29299   2.30629   2.31174   2.37027
 Alpha virt. eigenvalues --    2.39302   2.40423   2.44368   2.47051   2.50330
 Alpha virt. eigenvalues --    2.52520   2.55040   2.58243   2.60654   2.65822
 Alpha virt. eigenvalues --    2.66715   2.69447   2.73916   2.75044   2.79166
 Alpha virt. eigenvalues --    2.82707   2.85624   2.86845   2.99482   3.04572
 Alpha virt. eigenvalues --    4.06031   4.11536   4.19905   4.25064   4.30941
 Alpha virt. eigenvalues --    4.31193   4.33823   4.34883   4.41534   4.58445
 Alpha virt. eigenvalues --    4.62495   4.69935   4.77674
          Condensed to atoms (all electrons):
               1          2          3          4          5          6
     1  O    8.020374   0.578085  -0.089591   0.003297  -0.000999   0.001902
     2  C    0.578085   4.539878   0.303505  -0.038400  -0.045862  -0.030649
     3  C   -0.089591   0.303505   5.118142   0.354963   0.359096   0.344610
     4  C    0.003297  -0.038400   0.354963   5.135601  -0.056101  -0.055252
     5  C   -0.000999  -0.045862   0.359096  -0.056101   5.165186  -0.051783
     6  C    0.001902  -0.030649   0.344610  -0.055252  -0.051783   5.150047
     7  C    0.000162  -0.013804  -0.024163   0.003690  -0.003704   0.368293
     8  C    0.000001   0.000288   0.003047  -0.000100   0.000118  -0.032326
     9  C   -0.000000  -0.000008  -0.000090   0.000001  -0.000001   0.004245
    10  C   -0.000000  -0.000027   0.000145  -0.000005  -0.000002  -0.007724
    11  C   -0.000000  -0.000010   0.000171   0.000001  -0.000011  -0.006821
    12  C    0.001174  -0.026946  -0.000723  -0.000009  -0.001779  -0.048381
    13  C   -0.077719   0.343190  -0.134919   0.007085   0.001351  -0.006573
    14  H    0.000546   0.005322  -0.031021   0.359908  -0.005399  -0.004497
    15  H    0.002389  -0.004379  -0.028299   0.369688   0.005475  -0.004948
    16  H    0.006728  -0.006037  -0.025989   0.367702  -0.003801   0.004977
    17  H    0.001486  -0.001305  -0.033046  -0.004517   0.368571   0.005313
    18  H   -0.000073   0.003823  -0.028766  -0.005356   0.368406  -0.005816
    19  H   -0.000036  -0.004746  -0.030148   0.005575   0.364680  -0.005105
    20  H   -0.000080   0.003654  -0.030305  -0.002964  -0.009180   0.357152
    21  H    0.000189  -0.003684  -0.038808  -0.005060   0.005969   0.363778
    22  H   -0.000011  -0.002111  -0.004373   0.000018   0.002436  -0.050101
    23  H   -0.000000  -0.000004  -0.000000   0.000000  -0.000000  -0.000042
    24  H   -0.000000  -0.000001  -0.000000   0.000000  -0.000003   0.000038
    25  H   -0.000000   0.000000   0.000001  -0.000000   0.000000  -0.000113
    26  H   -0.000000   0.000001  -0.000042   0.000005  -0.000000   0.001605
    27  H    0.000000   0.000000  -0.000001  -0.000000   0.000000   0.000094
    28  H   -0.000000  -0.000003  -0.000008   0.000000  -0.000000  -0.000028
    29  H   -0.000000  -0.000004  -0.000045   0.000009   0.000004   0.000554
    30  H   -0.000000   0.000000  -0.000001  -0.000000  -0.000000   0.000250
    31  H   -0.000000   0.000000  -0.000072   0.000000   0.000020  -0.000597
    32  H    0.000448  -0.002900   0.000384  -0.000117   0.000058  -0.006911
    33  H   -0.000066   0.003256  -0.000125   0.000012  -0.000028   0.005306
    34  H    0.005345  -0.024270   0.006542  -0.000172  -0.000034  -0.000167
    35  H    0.001277  -0.029474   0.001896  -0.000065   0.000612  -0.001115
               7          8          9         10         11         12
     1  O    0.000162   0.000001  -0.000000  -0.000000  -0.000000   0.001174
     2  C   -0.013804   0.000288  -0.000008  -0.000027  -0.000010  -0.026946
     3  C   -0.024163   0.003047  -0.000090   0.000145   0.000171  -0.000723
     4  C    0.003690  -0.000100   0.000001  -0.000005   0.000001  -0.000009
     5  C   -0.003704   0.000118  -0.000001  -0.000002  -0.000011  -0.001779
     6  C    0.368293  -0.032326   0.004245  -0.007724  -0.006821  -0.048381
     7  C    4.974479   0.379665  -0.050337  -0.050887  -0.050109   0.371710
     8  C    0.379665   4.755157   0.380230   0.382382   0.380358  -0.034123
     9  C   -0.050337   0.380230   5.169944  -0.063981  -0.063214  -0.006762
    10  C   -0.050887   0.382382  -0.063981   5.161867  -0.063919  -0.007751
    11  C   -0.050109   0.380358  -0.063214  -0.063919   5.169131   0.004493
    12  C    0.371710  -0.034123  -0.006762  -0.007751   0.004493   5.087170
    13  C   -0.034073   0.003550   0.000139   0.000171  -0.000119   0.325711
    14  H    0.000067  -0.000000  -0.000000   0.000000  -0.000004  -0.000010
    15  H    0.000028  -0.000000   0.000000  -0.000003   0.000000  -0.000053
    16  H   -0.000130   0.000001  -0.000000   0.000000   0.000000  -0.000006
    17  H    0.000079   0.000002  -0.000000   0.000000   0.000000   0.000002
    18  H   -0.000213  -0.000039  -0.000000   0.000001  -0.000010   0.000068
    19  H    0.001195  -0.000121   0.000007   0.000000   0.000004  -0.000200
    20  H   -0.031805  -0.006412   0.000083  -0.000384   0.003072   0.005632
    21  H   -0.038287  -0.006004   0.000037   0.002817  -0.000476  -0.007717
    22  H    0.364701  -0.040435  -0.006986   0.006301  -0.007143  -0.052334
    23  H   -0.005619  -0.027216   0.366290  -0.005055   0.005740   0.000682
    24  H   -0.005571  -0.029771   0.364958   0.005873  -0.004068  -0.000597
    25  H    0.004896  -0.027976   0.364978  -0.004117  -0.006945   0.000234
    26  H   -0.005663  -0.028399   0.005619   0.367279  -0.004765  -0.000008
    27  H    0.005235  -0.029645  -0.005254   0.367393  -0.005168   0.000066
    28  H   -0.005655  -0.028496  -0.004752   0.367259   0.005632   0.001947
    29  H   -0.005593  -0.027225   0.005717  -0.005037   0.366413  -0.000048
    30  H    0.004879  -0.028024  -0.006993  -0.004084   0.364756  -0.000119
    31  H   -0.005388  -0.029996  -0.003990   0.005839   0.365251   0.000032
    32  H   -0.037706  -0.005734  -0.000376   0.002724   0.000017   0.370532
    33  H   -0.031682  -0.005987   0.003049  -0.000274   0.000067   0.366122
    34  H    0.003654  -0.000093   0.000000   0.000001   0.000001  -0.025795
    35  H   -0.004193   0.000011  -0.000014   0.000002  -0.000004  -0.035261
              13         14         15         16         17         18
     1  O   -0.077719   0.000546   0.002389   0.006728   0.001486  -0.000073
     2  C    0.343190   0.005322  -0.004379  -0.006037  -0.001305   0.003823
     3  C   -0.134919  -0.031021  -0.028299  -0.025989  -0.033046  -0.028766
     4  C    0.007085   0.359908   0.369688   0.367702  -0.004517  -0.005356
     5  C    0.001351  -0.005399   0.005475  -0.003801   0.368571   0.368406
     6  C   -0.006573  -0.004497  -0.004948   0.004977   0.005313  -0.005816
     7  C   -0.034073   0.000067   0.000028  -0.000130   0.000079  -0.000213
     8  C    0.003550  -0.000000  -0.000000   0.000001   0.000002  -0.000039
     9  C    0.000139  -0.000000   0.000000  -0.000000  -0.000000  -0.000000
    10  C    0.000171   0.000000  -0.000003   0.000000   0.000000   0.000001
    11  C   -0.000119  -0.000004   0.000000   0.000000   0.000000  -0.000010
    12  C    0.325711  -0.000010  -0.000053  -0.000006   0.000002   0.000068
    13  C    5.301939  -0.000104   0.000143   0.000197   0.000204  -0.000284
    14  H   -0.000104   0.597816  -0.030902  -0.030286  -0.000100   0.003774
    15  H    0.000143  -0.030902   0.564515  -0.026631  -0.000037  -0.000024
    16  H    0.000197  -0.030286  -0.026631   0.549502   0.004481  -0.000321
    17  H    0.000204  -0.000100  -0.000037   0.004481   0.559050  -0.028596
    18  H   -0.000284   0.003774  -0.000024  -0.000321  -0.028596   0.566348
    19  H    0.002319  -0.000038  -0.000186  -0.000023  -0.029806  -0.029617
    20  H   -0.000288   0.003727  -0.000350  -0.000157  -0.000047   0.005891
    21  H    0.000262  -0.000248   0.005988   0.000047  -0.000167   0.000010
    22  H   -0.002946  -0.000004   0.000003   0.000002  -0.000128   0.000314
    23  H   -0.000062  -0.000000   0.000000  -0.000000  -0.000000  -0.000000
    24  H   -0.000050   0.000000   0.000000  -0.000000   0.000000   0.000000
    25  H   -0.000000  -0.000000  -0.000000   0.000000   0.000000  -0.000000
    26  H   -0.000010   0.000001  -0.000005  -0.000000  -0.000000   0.000000
    27  H   -0.000001  -0.000000   0.000000   0.000000  -0.000000  -0.000000
    28  H   -0.000055   0.000000   0.000000  -0.000000  -0.000000   0.000000
    29  H   -0.000000  -0.000006   0.000001  -0.000000  -0.000000  -0.000008
    30  H    0.000001   0.000000  -0.000000   0.000000   0.000000   0.000000
    31  H   -0.000003   0.000000  -0.000000  -0.000000   0.000000   0.000034
    32  H   -0.042304  -0.000000   0.000012  -0.000000   0.000000   0.000003
    33  H   -0.028690  -0.000000   0.000000  -0.000000   0.000000  -0.000001
    34  H    0.343193   0.000002  -0.000005  -0.000004  -0.000028   0.000005
    35  H    0.351517   0.000000  -0.000004  -0.000016   0.000017   0.000047
              19         20         21         22         23         24
     1  O   -0.000036  -0.000080   0.000189  -0.000011  -0.000000  -0.000000
     2  C   -0.004746   0.003654  -0.003684  -0.002111  -0.000004  -0.000001
     3  C   -0.030148  -0.030305  -0.038808  -0.004373  -0.000000  -0.000000
     4  C    0.005575  -0.002964  -0.005060   0.000018   0.000000   0.000000
     5  C    0.364680  -0.009180   0.005969   0.002436  -0.000000  -0.000003
     6  C   -0.005105   0.357152   0.363778  -0.050101  -0.000042   0.000038
     7  C    0.001195  -0.031805  -0.038287   0.364701  -0.005619  -0.005571
     8  C   -0.000121  -0.006412  -0.006004  -0.040435  -0.027216  -0.029771
     9  C    0.000007   0.000083   0.000037  -0.006986   0.366290   0.364958
    10  C    0.000000  -0.000384   0.002817   0.006301  -0.005055   0.005873
    11  C    0.000004   0.003072  -0.000476  -0.007143   0.005740  -0.004068
    12  C   -0.000200   0.005632  -0.007717  -0.052334   0.000682  -0.000597
    13  C    0.002319  -0.000288   0.000262  -0.002946  -0.000062  -0.000050
    14  H   -0.000038   0.003727  -0.000248  -0.000004  -0.000000   0.000000
    15  H   -0.000186  -0.000350   0.005988   0.000003   0.000000   0.000000
    16  H   -0.000023  -0.000157   0.000047   0.000002  -0.000000  -0.000000
    17  H   -0.029806  -0.000047  -0.000167  -0.000128  -0.000000   0.000000
    18  H   -0.029617   0.005891   0.000010   0.000314  -0.000000   0.000000
    19  H    0.572032  -0.000057  -0.000052   0.004279   0.000000  -0.000005
    20  H   -0.000057   0.602054  -0.036895  -0.003690  -0.000002  -0.000010
    21  H   -0.000052  -0.036895   0.605306   0.006306  -0.000003   0.000004
    22  H    0.004279  -0.003690   0.006306   0.652966  -0.000112   0.006369
    23  H    0.000000  -0.000002  -0.000003  -0.000112   0.575410  -0.031581
    24  H   -0.000005  -0.000010   0.000004   0.006369  -0.031581   0.584036
    25  H   -0.000000  -0.000004   0.000002  -0.000078  -0.030226  -0.030179
    26  H    0.000000   0.000245   0.003653  -0.000027  -0.000016  -0.000192
    27  H   -0.000000  -0.000033  -0.000088  -0.000150  -0.000128  -0.000034
    28  H   -0.000000   0.000029   0.000060  -0.000028   0.003864  -0.000040
    29  H    0.000002   0.003645   0.000351  -0.000083  -0.000195  -0.000072
    30  H   -0.000000  -0.000103  -0.000032  -0.000061   0.000021  -0.000102
    31  H    0.000007   0.000556   0.000077   0.006027  -0.000073   0.003347
    32  H   -0.000001   0.000012   0.005210   0.006297   0.000306   0.000078
    33  H    0.000010  -0.000189  -0.000006  -0.003868   0.003588   0.000518
    34  H   -0.000055   0.000020  -0.000031   0.000035   0.000003   0.000000
    35  H    0.002236  -0.000014   0.000070   0.004397   0.000006   0.000014
              25         26         27         28         29         30
     1  O   -0.000000  -0.000000   0.000000  -0.000000  -0.000000  -0.000000
     2  C    0.000000   0.000001   0.000000  -0.000003  -0.000004   0.000000
     3  C    0.000001  -0.000042  -0.000001  -0.000008  -0.000045  -0.000001
     4  C   -0.000000   0.000005  -0.000000   0.000000   0.000009  -0.000000
     5  C    0.000000  -0.000000   0.000000  -0.000000   0.000004  -0.000000
     6  C   -0.000113   0.001605   0.000094  -0.000028   0.000554   0.000250
     7  C    0.004896  -0.005663   0.005235  -0.005655  -0.005593   0.004879
     8  C   -0.027976  -0.028399  -0.029645  -0.028496  -0.027225  -0.028024
     9  C    0.364978   0.005619  -0.005254  -0.004752   0.005717  -0.006993
    10  C   -0.004117   0.367279   0.367393   0.367259  -0.005037  -0.004084
    11  C   -0.006945  -0.004765  -0.005168   0.005632   0.366413   0.364756
    12  C    0.000234  -0.000008   0.000066   0.001947  -0.000048  -0.000119
    13  C   -0.000000  -0.000010  -0.000001  -0.000055  -0.000000   0.000001
    14  H   -0.000000   0.000001  -0.000000   0.000000  -0.000006   0.000000
    15  H   -0.000000  -0.000005   0.000000   0.000000   0.000001  -0.000000
    16  H    0.000000  -0.000000   0.000000  -0.000000  -0.000000   0.000000
    17  H    0.000000  -0.000000  -0.000000  -0.000000  -0.000000   0.000000
    18  H   -0.000000   0.000000  -0.000000   0.000000  -0.000008   0.000000
    19  H   -0.000000   0.000000  -0.000000  -0.000000   0.000002  -0.000000
    20  H   -0.000004   0.000245  -0.000033   0.000029   0.003645  -0.000103
    21  H    0.000002   0.003653  -0.000088   0.000060   0.000351  -0.000032
    22  H   -0.000078  -0.000027  -0.000150  -0.000028  -0.000083  -0.000061
    23  H   -0.030226  -0.000016  -0.000128   0.003864  -0.000195   0.000021
    24  H   -0.030179  -0.000192  -0.000034  -0.000040  -0.000072  -0.000102
    25  H    0.580507  -0.000079   0.003993  -0.000161   0.000020   0.005385
    26  H   -0.000079   0.573763  -0.030485  -0.030927   0.003882  -0.000161
    27  H    0.003993  -0.030485   0.580576  -0.030546  -0.000128   0.003934
    28  H   -0.000161  -0.030927  -0.030546   0.574942  -0.000015  -0.000082
    29  H    0.000020   0.003882  -0.000128  -0.000015   0.574566  -0.030254
    30  H    0.005385  -0.000161   0.003934  -0.000082  -0.030254   0.581249
    31  H   -0.000103  -0.000036  -0.000038  -0.000192  -0.031463  -0.030240
    32  H   -0.000030   0.000033  -0.000079   0.003319  -0.000002   0.000002
    33  H   -0.000107   0.000023  -0.000032   0.000181  -0.000002  -0.000003
    34  H   -0.000000   0.000000  -0.000000   0.000006   0.000000  -0.000000
    35  H   -0.000000  -0.000000   0.000000  -0.000000   0.000000   0.000000
              31         32         33         34         35
     1  O   -0.000000   0.000448  -0.000066   0.005345   0.001277
     2  C    0.000000  -0.002900   0.003256  -0.024270  -0.029474
     3  C   -0.000072   0.000384  -0.000125   0.006542   0.001896
     4  C    0.000000  -0.000117   0.000012  -0.000172  -0.000065
     5  C    0.000020   0.000058  -0.000028  -0.000034   0.000612
     6  C   -0.000597  -0.006911   0.005306  -0.000167  -0.001115
     7  C   -0.005388  -0.037706  -0.031682   0.003654  -0.004193
     8  C   -0.029996  -0.005734  -0.005987  -0.000093   0.000011
     9  C   -0.003990  -0.000376   0.003049   0.000000  -0.000014
    10  C    0.005839   0.002724  -0.000274   0.000001   0.000002
    11  C    0.365251   0.000017   0.000067   0.000001  -0.000004
    12  C    0.000032   0.370532   0.366122  -0.025795  -0.035261
    13  C   -0.000003  -0.042304  -0.028690   0.343193   0.351517
    14  H    0.000000  -0.000000  -0.000000   0.000002   0.000000
    15  H   -0.000000   0.000012   0.000000  -0.000005  -0.000004
    16  H   -0.000000  -0.000000  -0.000000  -0.000004  -0.000016
    17  H    0.000000   0.000000   0.000000  -0.000028   0.000017
    18  H    0.000034   0.000003  -0.000001   0.000005   0.000047
    19  H    0.000007  -0.000001   0.000010  -0.000055   0.002236
    20  H    0.000556   0.000012  -0.000189   0.000020  -0.000014
    21  H    0.000077   0.005210  -0.000006  -0.000031   0.000070
    22  H    0.006027   0.006297  -0.003868   0.000035   0.004397
    23  H   -0.000073   0.000306   0.003588   0.000003   0.000006
    24  H    0.003347   0.000078   0.000518   0.000000   0.000014
    25  H   -0.000103  -0.000030  -0.000107  -0.000000  -0.000000
    26  H   -0.000036   0.000033   0.000023   0.000000  -0.000000
    27  H   -0.000038  -0.000079  -0.000032  -0.000000   0.000000
    28  H   -0.000192   0.003319   0.000181   0.000006  -0.000000
    29  H   -0.031463  -0.000002  -0.000002   0.000000   0.000000
    30  H   -0.030240   0.000002  -0.000003  -0.000000   0.000000
    31  H    0.583718   0.000003  -0.000009   0.000000   0.000000
    32  H    0.000003   0.598260  -0.037507  -0.003008   0.005590
    33  H   -0.000009  -0.037507   0.591276  -0.002495  -0.006047
    34  H    0.000000  -0.003008  -0.002495   0.562846  -0.027203
    35  H    0.000000   0.005590  -0.006047  -0.027203   0.580256
 Mulliken charges:
               1
     1  O   -0.454828
     2  C    0.453621
     3  C    0.008031
     4  C   -0.439439
     5  C   -0.463294
     6  C   -0.289213
     7  C   -0.078147
     8  C    0.103313
     9  C   -0.452541
    10  C   -0.456803
    11  C   -0.452322
    12  C   -0.286958
    13  C   -0.352769
    14  H    0.131457
    15  H    0.147584
    16  H    0.159766
    17  H    0.158570
    18  H    0.150401
    19  H    0.147851
    20  H    0.137193
    21  H    0.137422
    22  H    0.114218
    23  H    0.144422
    24  H    0.137041
    25  H    0.140102
    26  H    0.144703
    27  H    0.140517
    28  H    0.143749
    29  H    0.145018
    30  H    0.139782
    31  H    0.137287
    32  H    0.143388
    33  H    0.143710
    34  H    0.161708
    35  H    0.155462
 Sum of Mulliken charges =  -0.00000
 Mulliken charges with hydrogens summed into heavy atoms:
               1
     1  O   -0.454828
     2  C    0.453621
     3  C    0.008031
     4  C   -0.000633
     5  C   -0.006473
     6  C   -0.014598
     7  C    0.036071
     8  C    0.103313
     9  C   -0.030976
    10  C   -0.027835
    11  C   -0.030235
    12  C    0.000139
    13  C   -0.035599
 APT charges:
               1
     1  O   -0.633473
     2  C    0.675589
     3  C   -0.023324
     4  C    0.045210
     5  C    0.046173
     6  C    0.065082
     7  C    0.066721
     8  C    0.141314
     9  C    0.035662
    10  C    0.026557
    11  C    0.033554
    12  C    0.103062
    13  C   -0.041395
    14  H   -0.024205
    15  H   -0.014780
    16  H   -0.008211
    17  H   -0.013549
    18  H   -0.015813
    19  H   -0.013513
    20  H   -0.033085
    21  H   -0.031922
    22  H   -0.061409
    23  H   -0.017540
    24  H   -0.024520
    25  H   -0.033802
    26  H   -0.017504
    27  H   -0.027561
    28  H   -0.017945
    29  H   -0.017404
    30  H   -0.032891
    31  H   -0.024096
    32  H   -0.031340
    33  H   -0.037483
    34  H   -0.034855
    35  H   -0.007304
 Sum of APT charges =   0.00000
 APT charges with hydrogens summed into heavy atoms:
               1
     1  O   -0.633473
     2  C    0.675589
     3  C   -0.023324
     4  C   -0.001986
     5  C    0.003297
     6  C    0.000075
     7  C    0.005311
     8  C    0.141314
     9  C   -0.040200
    10  C   -0.036453
    11  C   -0.040837
    12  C    0.034239
    13  C   -0.083554
 Electronic spatial extent (au):  <R**2>=           2828.1530
 Charge=             -0.0000 electrons
 Dipole moment (field-independent basis, Debye):
    X=             -2.6157    Y=             -0.8195    Z=              1.1869  Tot=              2.9870
 Quadrupole moment (field-independent basis, Debye-Ang):
   XX=            -93.5661   YY=            -82.8615   ZZ=            -82.5949
   XY=             -4.6011   XZ=              4.1823   YZ=              1.3113
 Traceless Quadrupole moment (field-independent basis, Debye-Ang):
   XX=             -7.2252   YY=              3.4793   ZZ=              3.7459
   XY=             -4.6011   XZ=              4.1823   YZ=              1.3113
 Octapole moment (field-independent basis, Debye-Ang**2):
  XXX=            -31.1703  YYY=              6.1842  ZZZ=             -1.0658  XYY=              0.4255
  XXY=            -16.8710  XXZ=             12.0601  XZZ=              4.5943  YZZ=              1.9864
  YYZ=              0.7813  XYZ=              4.0582
 Hexadecapole moment (field-independent basis, Debye-Ang**3):
 XXXX=          -2598.5440 YYYY=           -821.0747 ZZZZ=           -487.3997 XXXY=            -41.9920
 XXXZ=             47.8780 YYYX=              6.2048 YYYZ=             -2.8230 ZZZX=            -12.0948
 ZZZY=             -0.2015 XXYY=           -580.7257 XXZZ=           -506.9979 YYZZ=           -222.2000
 XXYZ=             12.0214 YYXZ=              6.5558 ZZXY=              4.2037
 N-N= 8.853620461311D+02 E-N=-3.034974577186D+03  KE= 5.404329171333D+02
  Exact polarizability: 142.310  -0.116 120.356  -2.625  -0.350 109.578
 Approx polarizability: 184.980   4.609 171.022  -7.893  -2.835 169.237
 Calling FoFJK, ICntrl=    100127 FMM=F ISym2X=0 I1Cent= 0 IOpClX= 0 NMat=1 NMatS=1 NMatT=0.
 Full mass-weighted force constant matrix:
 Low frequencies ---   -9.0633   -6.4386   -2.4618   -0.0006   -0.0005    0.0007
 Low frequencies ---   29.7811   59.6836  108.8457
 Diagonal vibrational polarizability:
        6.3297589       6.7605757      21.2413133
 Harmonic frequencies (cm**-1), IR intensities (KM/Mole), Raman scattering
 activities (A**4/AMU), depolarization ratios for plane and unpolarized
 incident light, reduced masses (AMU), force constants (mDyne/A),
 and normal coordinates:
                      1                      2                      3
                      A                      A                      A
 Frequencies --     29.7780                59.6779               108.8348
 Red. masses --      2.5587                 5.4859                 2.5570
 Frc consts  --      0.0013                 0.0115                 0.0178
 IR Inten    --      0.0825                 2.7426                 0.1233
  Atom  AN      X      Y      Z        X      Y      Z        X      Y      Z
     1   8    -0.01  -0.03  -0.06     0.21  -0.03   0.37     0.01   0.01   0.06
     2   6    -0.00  -0.01  -0.03     0.04   0.01   0.05    -0.01   0.00   0.01
     3   6     0.00  -0.00   0.04    -0.02   0.01  -0.05     0.01  -0.00   0.01
     4   6     0.01  -0.05   0.09    -0.01   0.03  -0.07    -0.07   0.03  -0.11
     5   6    -0.00   0.08   0.06    -0.04  -0.04  -0.06     0.22   0.01  -0.02
     6   6     0.00  -0.03   0.05    -0.02   0.01  -0.07    -0.03  -0.08   0.19
     7   6     0.00   0.01  -0.01    -0.01   0.03  -0.09    -0.03   0.00   0.06
     8   6    -0.00   0.01  -0.00    -0.02  -0.01   0.03    -0.02   0.01  -0.01
     9   6    -0.00  -0.10   0.14     0.02  -0.02   0.10    -0.05   0.02  -0.05
    10   6    -0.04   0.18   0.02    -0.14  -0.03   0.06     0.06   0.03  -0.02
    11   6     0.04  -0.06  -0.17     0.05  -0.01   0.08    -0.07   0.02  -0.04
    12   6     0.01  -0.01  -0.07    -0.02   0.00  -0.22    -0.00  -0.04  -0.05
    13   6     0.00   0.01  -0.07    -0.05   0.05  -0.18    -0.03  -0.01  -0.01
    14   1     0.00  -0.04   0.14    -0.01   0.03  -0.10    -0.05   0.02  -0.12
    15   1     0.01  -0.10   0.08    -0.01   0.06  -0.06    -0.19   0.06  -0.09
    16   1     0.00  -0.03   0.09    -0.02   0.03  -0.06    -0.04   0.03  -0.22
    17   1    -0.00   0.10   0.06    -0.04  -0.07  -0.06     0.23   0.15  -0.12
    18   1     0.01   0.08   0.12    -0.08  -0.03  -0.09     0.37  -0.03   0.00
    19   1    -0.01   0.11   0.03    -0.03  -0.03  -0.05     0.21  -0.08   0.04
    20   1     0.01  -0.01   0.12    -0.02   0.01  -0.05     0.00  -0.05   0.39
    21   1    -0.00  -0.10   0.04    -0.02  -0.01  -0.07    -0.12  -0.28   0.17
    22   1    -0.01   0.05  -0.00     0.06   0.11  -0.08    -0.08   0.10   0.08
    23   1     0.03  -0.05   0.32    -0.01  -0.02   0.11     0.01   0.03  -0.02
    24   1    -0.02  -0.29   0.14     0.08  -0.04   0.09    -0.14  -0.01  -0.04
    25   1    -0.00  -0.06   0.07     0.01  -0.02   0.16    -0.05   0.06  -0.15
    26   1     0.04   0.33  -0.09    -0.14   0.01   0.02     0.10   0.05  -0.01
    27   1    -0.02   0.08   0.01    -0.14  -0.09   0.13     0.07  -0.00  -0.08
    28   1    -0.17   0.26   0.15    -0.23  -0.01   0.04     0.04   0.04   0.00
    29   1    -0.02   0.02  -0.33    -0.01  -0.01   0.02    -0.07   0.01  -0.03
    30   1     0.03  -0.03  -0.08     0.03  -0.03   0.20    -0.07   0.04  -0.08
    31   1     0.14  -0.21  -0.21     0.17  -0.01   0.05    -0.10  -0.01  -0.03
    32   1     0.02  -0.07  -0.08     0.03  -0.12  -0.24     0.05  -0.14  -0.07
    33   1    -0.00   0.02  -0.13    -0.04   0.05  -0.34    -0.02   0.01  -0.15
    34   1     0.00   0.00  -0.11    -0.02   0.02  -0.25    -0.03  -0.00  -0.00
    35   1    -0.00   0.06  -0.07    -0.11   0.17  -0.17    -0.05  -0.01  -0.01
                      4                      5                      6
                      A                      A                      A
 Frequencies --    149.5428               173.2498               211.8241
 Red. masses --      2.5633                 2.1463                 1.0579
 Frc consts  --      0.0338                 0.0380                 0.0280
 IR Inten    --      0.5442                 0.1254                 0.1051
  Atom  AN      X      Y      Z        X      Y      Z        X      Y      Z
     1   8     0.11  -0.07   0.05    -0.05  -0.02  -0.05     0.02  -0.03   0.00
     2   6     0.03  -0.01  -0.06    -0.01  -0.01   0.04     0.01  -0.00  -0.02
     3   6    -0.03   0.02  -0.03    -0.02  -0.00   0.03    -0.00   0.01  -0.01
     4   6    -0.11  -0.06  -0.02    -0.09  -0.00  -0.03    -0.00  -0.00   0.00
     5   6    -0.00   0.08  -0.02    -0.03  -0.09   0.01    -0.00   0.03   0.00
     6   6    -0.03   0.08   0.00    -0.02   0.06   0.04    -0.00   0.00  -0.00
     7   6    -0.02   0.02   0.08     0.00   0.11  -0.01    -0.00  -0.00   0.00
     8   6     0.00  -0.02   0.01     0.03   0.01  -0.00    -0.00  -0.00   0.00
     9   6    -0.09  -0.07  -0.04    -0.06  -0.05  -0.04    -0.01  -0.01   0.00
    10   6     0.08  -0.02  -0.01     0.03  -0.05  -0.01    -0.01  -0.00   0.00
    11   6     0.03  -0.04  -0.03     0.16  -0.01   0.04    -0.00  -0.00  -0.00
    12   6    -0.04   0.06   0.16     0.04   0.08  -0.07    -0.01   0.01   0.03
    13   6     0.05   0.05  -0.11     0.02   0.02   0.06     0.01   0.00  -0.02
    14   1    -0.12  -0.05   0.08    -0.21   0.02  -0.15    -0.28   0.04  -0.30
    15   1    -0.19  -0.15  -0.04    -0.04   0.12  -0.01     0.31   0.26   0.04
    16   1    -0.08  -0.06  -0.12    -0.08  -0.15  -0.00    -0.04  -0.32   0.27
    17   1     0.03  -0.06  -0.09    -0.03  -0.15   0.02    -0.08   0.41   0.11
    18   1    -0.16   0.12   0.07    -0.07  -0.09  -0.06     0.38  -0.07  -0.07
    19   1     0.13   0.21  -0.02    -0.02  -0.12   0.04    -0.29  -0.22  -0.04
    20   1    -0.03   0.06  -0.08    -0.06   0.08   0.07    -0.00   0.00   0.01
    21   1    -0.04   0.16   0.01    -0.01   0.03   0.04    -0.01  -0.01  -0.00
    22   1    -0.02  -0.05   0.08    -0.00   0.17   0.00    -0.01  -0.01  -0.00
    23   1    -0.07  -0.05   0.02     0.01  -0.02   0.08    -0.02  -0.01  -0.00
    24   1    -0.20  -0.11  -0.02    -0.22  -0.16  -0.01    -0.00   0.00   0.00
    25   1    -0.07  -0.08  -0.16    -0.05  -0.02  -0.22    -0.01  -0.02   0.01
    26   1     0.13  -0.00   0.02     0.19   0.08  -0.00    -0.02  -0.02   0.00
    27   1     0.10  -0.06  -0.06     0.08  -0.27  -0.03    -0.01   0.01   0.01
    28   1     0.06  -0.02   0.01    -0.17   0.00   0.01     0.01  -0.01  -0.01
    29   1     0.07  -0.02  -0.02     0.04   0.02  -0.11     0.01  -0.00   0.01
    30   1     0.04  -0.07  -0.08     0.14  -0.04   0.29     0.00  -0.01  -0.01
    31   1    -0.01  -0.06  -0.02     0.42  -0.04  -0.02    -0.01  -0.00   0.00
    32   1    -0.26   0.17   0.19     0.14   0.02  -0.08    -0.05   0.04   0.04
    33   1     0.04   0.01   0.37     0.03   0.13  -0.16     0.01  -0.01   0.08
    34   1     0.02   0.02  -0.26     0.08   0.01   0.13     0.01   0.00  -0.03
    35   1     0.24   0.18  -0.10    -0.07  -0.05   0.06     0.05   0.01  -0.02
                      7                      8                      9
                      A                      A                      A
 Frequencies --    230.9696               236.3713               254.4784
 Red. masses --      1.3482                 1.5547                 1.1750
 Frc consts  --      0.0424                 0.0512                 0.0448
 IR Inten    --      0.0955                 0.1200                 0.1759
  Atom  AN      X      Y      Z        X      Y      Z        X      Y      Z
     1   8    -0.03  -0.01  -0.02    -0.00  -0.00  -0.02     0.00   0.02   0.01
     2   6    -0.01   0.01   0.02    -0.00   0.00  -0.01     0.01   0.01   0.00
     3   6    -0.00   0.01   0.03     0.02  -0.00   0.01     0.02   0.00   0.01
     4   6    -0.03   0.03  -0.02     0.09   0.07   0.01    -0.01  -0.02   0.00
     5   6    -0.03  -0.07   0.02    -0.04  -0.08  -0.01     0.05   0.03   0.01
     6   6     0.00   0.01   0.04     0.02  -0.01  -0.01     0.01  -0.01   0.00
     7   6     0.01   0.01   0.02     0.01  -0.03   0.03    -0.00  -0.02  -0.01
     8   6     0.02  -0.01   0.02    -0.01   0.00   0.03    -0.01  -0.01  -0.02
     9   6     0.01  -0.03   0.03    -0.03   0.01  -0.00     0.03   0.03  -0.02
    10   6     0.07   0.02   0.01     0.07   0.02   0.02    -0.06  -0.01  -0.01
    11   6     0.01  -0.02  -0.03    -0.09   0.03   0.04    -0.02  -0.00  -0.02
    12   6    -0.01   0.01  -0.05    -0.02  -0.03  -0.00    -0.01  -0.02   0.03
    13   6    -0.02   0.04  -0.05    -0.01   0.03  -0.08    -0.01  -0.01   0.01
    14   1    -0.18   0.05  -0.20     0.08   0.05  -0.12    -0.25   0.02  -0.24
    15   1     0.09   0.20   0.02     0.20   0.17   0.02     0.24   0.20   0.04
    16   1    -0.04  -0.16   0.09     0.06   0.04   0.12    -0.03  -0.30   0.20
    17   1     0.01  -0.28  -0.01    -0.03  -0.18   0.03     0.13  -0.28  -0.13
    18   1    -0.23  -0.02  -0.01    -0.13  -0.07  -0.06    -0.28   0.13   0.12
    19   1     0.11   0.03   0.05    -0.00  -0.06   0.01     0.33   0.28   0.04
    20   1     0.01   0.01   0.05     0.02  -0.02  -0.05     0.02  -0.01   0.01
    21   1    -0.00   0.00   0.04     0.02   0.03  -0.00     0.02  -0.02   0.00
    22   1     0.02   0.05   0.03     0.03  -0.03   0.03    -0.02  -0.05  -0.01
    23   1    -0.13  -0.05  -0.07     0.21   0.06   0.23    -0.00   0.01  -0.10
    24   1     0.15   0.09   0.01    -0.29  -0.23   0.05     0.10   0.11  -0.03
    25   1     0.02  -0.15   0.19    -0.03   0.19  -0.31     0.02   0.02   0.07
    26   1    -0.09  -0.15   0.05     0.29   0.21   0.02     0.03   0.08  -0.04
    27   1     0.03   0.27  -0.00     0.13  -0.25  -0.07    -0.04  -0.16   0.01
    28   1     0.33  -0.05  -0.02    -0.17   0.10   0.11    -0.21   0.03   0.01
    29   1     0.22  -0.01   0.15    -0.09  -0.01   0.09    -0.14  -0.00  -0.13
    30   1     0.05  -0.10  -0.32    -0.09   0.08  -0.01    -0.05   0.05   0.14
    31   1    -0.27   0.05   0.05    -0.15   0.04   0.06     0.13  -0.07  -0.06
    32   1     0.01  -0.06  -0.06    -0.07  -0.06  -0.01    -0.03   0.01   0.03
    33   1    -0.03   0.02  -0.11    -0.01  -0.03   0.00    -0.01  -0.03   0.06
    34   1    -0.01   0.02  -0.12    -0.04   0.00  -0.18    -0.02  -0.00   0.02
    35   1    -0.03   0.12  -0.05     0.03   0.13  -0.08     0.00  -0.01   0.01
                     10                     11                     12
                      A                      A                      A
 Frequencies --    258.0493               265.1977               272.5783
 Red. masses --      1.4224                 1.2470                 2.1139
 Frc consts  --      0.0558                 0.0517                 0.0925
 IR Inten    --      0.2617                 0.0706                 0.4448
  Atom  AN      X      Y      Z        X      Y      Z        X      Y      Z
     1   8    -0.03  -0.03   0.00    -0.02   0.01   0.01    -0.02   0.05   0.04
     2   6    -0.04  -0.01   0.00    -0.02   0.01  -0.00    -0.03   0.01  -0.01
     3   6    -0.01  -0.02   0.03    -0.02   0.01  -0.01    -0.04   0.01  -0.06
     4   6     0.02   0.04   0.00    -0.02   0.02  -0.02    -0.10  -0.06  -0.04
     5   6    -0.01  -0.08   0.01    -0.05   0.03  -0.01    -0.09   0.11  -0.03
     6   6    -0.00  -0.02   0.03    -0.02  -0.03   0.01    -0.02  -0.03  -0.04
     7   6     0.00  -0.01   0.02     0.01  -0.02   0.02     0.02  -0.04   0.00
     8   6     0.02   0.01  -0.00     0.02  -0.01   0.01     0.05  -0.02   0.02
     9   6     0.05   0.05  -0.02     0.06   0.02   0.01     0.10   0.01   0.03
    10   6     0.04   0.02  -0.00     0.08  -0.02   0.00     0.16   0.01   0.01
    11   6     0.04  -0.01  -0.02    -0.01  -0.01  -0.01     0.00  -0.00   0.03
    12   6    -0.06   0.01   0.04    -0.01  -0.02   0.00     0.01  -0.05  -0.04
    13   6    -0.03   0.04  -0.07    -0.02   0.01  -0.01    -0.04  -0.03   0.05
    14   1     0.13   0.01   0.04    -0.03   0.02  -0.05    -0.17  -0.03  -0.01
    15   1    -0.07   0.00  -0.00     0.00   0.05  -0.01    -0.10  -0.07  -0.04
    16   1     0.02   0.16  -0.06    -0.02   0.00   0.00    -0.08  -0.13  -0.06
    17   1    -0.03   0.01   0.05    -0.05   0.01   0.01    -0.10   0.17   0.01
    18   1     0.10  -0.12  -0.07    -0.08   0.04   0.01    -0.06   0.12   0.05
    19   1    -0.10  -0.19   0.03    -0.04   0.06  -0.03    -0.13   0.15  -0.10
    20   1    -0.02  -0.01   0.04    -0.02  -0.02   0.04     0.00  -0.03  -0.02
    21   1    -0.00  -0.03   0.03    -0.05  -0.05   0.01    -0.05  -0.03  -0.03
    22   1    -0.01  -0.02   0.02     0.02  -0.02   0.02     0.06  -0.03  -0.00
    23   1    -0.17  -0.02  -0.30     0.22   0.04   0.14     0.06  -0.01  -0.02
    24   1     0.30   0.35  -0.06    -0.05  -0.12   0.03     0.18   0.06   0.02
    25   1     0.05  -0.12   0.29     0.04   0.17  -0.12     0.08   0.00   0.13
    26   1     0.17   0.15  -0.02    -0.14  -0.25   0.07     0.46   0.26   0.01
    27   1     0.07  -0.16  -0.04     0.02   0.30  -0.00     0.25  -0.31  -0.14
    28   1    -0.14   0.08   0.05     0.40  -0.12  -0.08    -0.12   0.12   0.13
    29   1    -0.10   0.02  -0.19    -0.30  -0.00  -0.27     0.07  -0.03   0.13
    30   1     0.01   0.04   0.18    -0.07   0.14   0.33     0.02  -0.01  -0.10
    31   1     0.25  -0.10  -0.08     0.33  -0.17  -0.11    -0.13   0.05   0.07
    32   1    -0.16   0.05   0.05    -0.01  -0.03   0.00     0.08  -0.11  -0.05
    33   1    -0.05  -0.04   0.13    -0.01  -0.02  -0.01    -0.04  -0.04  -0.12
    34   1    -0.04   0.01  -0.19    -0.03   0.01  -0.05    -0.04  -0.00   0.13
    35   1     0.04   0.15  -0.07    -0.00   0.05  -0.01    -0.08  -0.10   0.05
                     13                     14                     15
                      A                      A                      A
 Frequencies --    310.0508               313.7935               337.2042
 Red. masses --      2.4136                 2.4624                 2.2654
 Frc consts  --      0.1367                 0.1429                 0.1518
 IR Inten    --      1.1022                 1.1473                 0.7951
  Atom  AN      X      Y      Z        X      Y      Z        X      Y      Z
     1   8     0.05  -0.08  -0.02    -0.03   0.05   0.04    -0.07  -0.11   0.04
     2   6     0.03  -0.02  -0.02    -0.04  -0.02  -0.03    -0.10  -0.05   0.02
     3   6    -0.02   0.01  -0.05     0.01  -0.04  -0.06    -0.05  -0.04   0.01
     4   6     0.08   0.14  -0.06     0.08  -0.11   0.06     0.01   0.06  -0.03
     5   6    -0.14   0.10  -0.02     0.07  -0.01  -0.06     0.03   0.05   0.02
     6   6    -0.04  -0.09   0.06    -0.01  -0.02  -0.06    -0.02  -0.06  -0.01
     7   6    -0.01  -0.02   0.04    -0.01  -0.01  -0.00     0.01  -0.02  -0.05
     8   6    -0.02   0.00   0.02    -0.01   0.03   0.03     0.04   0.02  -0.06
     9   6    -0.11  -0.01  -0.05    -0.13  -0.01  -0.05     0.10   0.02  -0.02
    10   6    -0.01   0.05   0.02     0.09   0.15   0.03    -0.04   0.04  -0.05
    11   6     0.04  -0.01   0.02     0.08   0.03   0.10     0.15   0.03   0.04
    12   6     0.08  -0.05   0.01    -0.06  -0.02  -0.02    -0.05   0.01   0.05
    13   6     0.08  -0.03   0.05    -0.08  -0.05  -0.02    -0.05   0.00  -0.01
    14   1     0.19   0.09  -0.18     0.02  -0.09   0.07     0.07   0.04  -0.11
    15   1     0.11   0.24  -0.04     0.26  -0.15   0.03     0.01   0.15  -0.00
    16   1     0.06   0.23  -0.00     0.05  -0.15   0.22    -0.00   0.11  -0.00
    17   1    -0.14  -0.01   0.06     0.09  -0.03  -0.14     0.06   0.04  -0.09
    18   1    -0.29   0.14   0.06     0.06  -0.00  -0.02     0.00   0.07   0.15
    19   1    -0.11   0.23  -0.12     0.14   0.02  -0.02     0.12   0.14   0.02
    20   1     0.02  -0.06   0.24    -0.02  -0.02  -0.09    -0.03  -0.04   0.05
    21   1    -0.16  -0.25   0.05    -0.01   0.02  -0.05    -0.00  -0.12  -0.02
    22   1    -0.03  -0.00   0.04     0.04  -0.01  -0.01    -0.01  -0.05  -0.05
    23   1    -0.27  -0.05  -0.21    -0.27  -0.02  -0.13     0.30   0.06   0.17
    24   1    -0.06   0.18  -0.05    -0.18   0.11  -0.04    -0.03  -0.20   0.00
    25   1    -0.07  -0.19   0.04    -0.09  -0.17  -0.07     0.08   0.21  -0.20
    26   1    -0.03   0.07  -0.01     0.01   0.11  -0.00    -0.11   0.05  -0.11
    27   1    -0.02   0.08   0.02     0.07   0.35  -0.06    -0.06   0.08   0.03
    28   1     0.00   0.06   0.07     0.28   0.14   0.13    -0.05   0.05  -0.03
    29   1     0.04   0.01   0.00     0.04   0.03   0.07     0.37   0.02   0.25
    30   1     0.04  -0.06   0.07     0.07  -0.03   0.27     0.20  -0.15  -0.12
    31   1     0.09  -0.01   0.01     0.24   0.10   0.07    -0.01   0.24   0.11
    32   1     0.14  -0.09   0.00    -0.06  -0.01  -0.02    -0.14   0.14   0.08
    33   1     0.06  -0.02  -0.06    -0.08  -0.03  -0.02    -0.04  -0.07   0.19
    34   1     0.05  -0.01   0.08    -0.05  -0.04   0.03    -0.02  -0.03  -0.07
    35   1     0.09  -0.07   0.04    -0.09  -0.09  -0.02    -0.01   0.06  -0.01
                     16                     17                     18
                      A                      A                      A
 Frequencies --    349.1921               370.3795               394.1179
 Red. masses --      2.4952                 2.1316                 2.1488
 Frc consts  --      0.1793                 0.1723                 0.1967
 IR Inten    --      1.6175                 0.3066                 0.0828
  Atom  AN      X      Y      Z        X      Y      Z        X      Y      Z
     1   8     0.03   0.17   0.00    -0.00   0.02   0.03    -0.03  -0.04   0.02
     2   6     0.04   0.06  -0.04    -0.04  -0.01  -0.06    -0.04  -0.02  -0.00
     3   6     0.04   0.02  -0.03    -0.03  -0.01  -0.09    -0.03  -0.01  -0.03
     4   6    -0.04  -0.10   0.00     0.10  -0.04   0.05     0.04  -0.00   0.02
     5   6    -0.11  -0.07  -0.03    -0.01  -0.02  -0.10     0.02   0.02  -0.04
     6   6     0.01  -0.08   0.10    -0.06  -0.05   0.07    -0.03   0.04  -0.03
     7   6     0.02  -0.04   0.04    -0.01   0.09  -0.01     0.00   0.02   0.08
     8   6     0.03  -0.01  -0.01    -0.00   0.05  -0.01     0.01   0.01   0.11
     9   6     0.04   0.05  -0.08     0.01  -0.01   0.09    -0.01   0.14  -0.05
    10   6    -0.10   0.04   0.01     0.04  -0.10  -0.03    -0.01  -0.05   0.13
    11   6     0.09  -0.02  -0.00    -0.00   0.04  -0.05     0.06  -0.08  -0.12
    12   6    -0.00  -0.05   0.05    -0.02   0.11   0.02    -0.00  -0.01  -0.03
    13   6     0.00   0.02  -0.04    -0.00  -0.01   0.01    -0.03  -0.02   0.01
    14   1    -0.13  -0.06   0.09     0.13  -0.05   0.08     0.06  -0.01   0.02
    15   1    -0.04  -0.17  -0.02     0.28  -0.12   0.02     0.12  -0.02   0.01
    16   1    -0.02  -0.18  -0.02     0.05   0.01   0.24     0.01   0.04   0.11
    17   1    -0.15  -0.11   0.14     0.00  -0.10  -0.12     0.03   0.05  -0.10
    18   1    -0.15  -0.08  -0.17    -0.08  -0.01  -0.12     0.05   0.02  -0.00
    19   1    -0.21  -0.13  -0.07     0.04   0.00  -0.08     0.05   0.02  -0.02
    20   1     0.10  -0.05   0.32    -0.08   0.02   0.36    -0.03   0.02  -0.16
    21   1    -0.12  -0.28   0.09    -0.18  -0.31   0.05    -0.04   0.18  -0.02
    22   1    -0.04  -0.03   0.04    -0.03   0.12  -0.01     0.07   0.03   0.07
    23   1     0.19   0.04  -0.06    -0.04   0.03   0.18     0.17   0.08  -0.16
    24   1    -0.11   0.02  -0.05     0.11  -0.11   0.07    -0.18   0.25  -0.01
    25   1     0.03   0.16  -0.23     0.01  -0.02   0.17    -0.01   0.25  -0.19
    26   1    -0.19   0.05  -0.09     0.12  -0.15   0.10    -0.02  -0.08   0.16
    27   1    -0.13   0.08   0.14     0.06  -0.22  -0.06    -0.01  -0.09   0.19
    28   1    -0.12   0.05   0.03    -0.01  -0.14  -0.17    -0.05  -0.07   0.06
    29   1     0.22   0.02   0.06     0.03   0.06  -0.05     0.22   0.11  -0.23
    30   1     0.11  -0.13  -0.10     0.01   0.05  -0.14     0.10  -0.17  -0.33
    31   1     0.01   0.04   0.02    -0.08   0.01  -0.04    -0.07  -0.30  -0.13
    32   1    -0.07  -0.03   0.05    -0.06   0.20   0.04     0.05  -0.14  -0.05
    33   1     0.00  -0.07   0.09     0.01   0.08   0.12    -0.00   0.05  -0.15
    34   1    -0.06   0.03  -0.10     0.06   0.00   0.11    -0.00  -0.02   0.04
    35   1     0.07   0.07  -0.03     0.00  -0.12   0.01    -0.06  -0.05   0.01
                     19                     20                     21
                      A                      A                      A
 Frequencies --    438.6317               450.9232               461.6642
 Red. masses --      2.7775                 2.5707                 2.7164
 Frc consts  --      0.3149                 0.3080                 0.3411
 IR Inten    --      2.2795                 0.5559                 1.9818
  Atom  AN      X      Y      Z        X      Y      Z        X      Y      Z
     1   8     0.01  -0.08  -0.01     0.02   0.00   0.01     0.12  -0.03  -0.05
     2   6    -0.03   0.07   0.01     0.01  -0.06  -0.05     0.07   0.04  -0.09
     3   6    -0.11   0.08  -0.05     0.07  -0.04   0.01    -0.03   0.09   0.02
     4   6    -0.03   0.03   0.13     0.06  -0.02  -0.07    -0.04   0.09   0.08
     5   6     0.04  -0.03  -0.12    -0.03   0.02   0.05     0.01  -0.03  -0.02
     6   6    -0.07  -0.01  -0.01     0.03   0.08   0.07    -0.04   0.08   0.04
     7   6     0.02   0.00  -0.01    -0.01   0.10  -0.01    -0.12  -0.03   0.04
     8   6     0.03  -0.11  -0.01     0.02  -0.11   0.02    -0.10  -0.01  -0.04
     9   6     0.09  -0.06  -0.09     0.08  -0.02  -0.07     0.04   0.06   0.05
    10   6    -0.02   0.06   0.02     0.00   0.06   0.05     0.03   0.02  -0.08
    11   6    -0.07  -0.10   0.06    -0.07  -0.11   0.04     0.07  -0.03   0.03
    12   6     0.06   0.04   0.00    -0.09   0.15  -0.04    -0.06  -0.09  -0.01
    13   6     0.05   0.13   0.06    -0.05  -0.10  -0.03    -0.04  -0.12  -0.02
    14   1    -0.05   0.05   0.25     0.09  -0.03  -0.13    -0.02   0.09   0.10
    15   1     0.12  -0.13   0.07     0.00   0.06  -0.04     0.02   0.06   0.07
    16   1    -0.07   0.06   0.27     0.06  -0.00  -0.11    -0.05   0.11   0.14
    17   1     0.09  -0.06  -0.28    -0.06  -0.00   0.16     0.03  -0.11  -0.05
    18   1     0.08  -0.05  -0.23    -0.10   0.04   0.08    -0.00  -0.05  -0.17
    19   1     0.15  -0.13   0.06    -0.10   0.08  -0.06     0.05  -0.13   0.10
    20   1    -0.05   0.01   0.09    -0.05   0.12   0.14     0.05   0.03  -0.05
    21   1    -0.13  -0.09  -0.02     0.01   0.00   0.06    -0.04   0.15   0.05
    22   1     0.03   0.00  -0.01    -0.00   0.21  -0.00    -0.18  -0.02   0.05
    23   1     0.17  -0.10  -0.18     0.21  -0.07  -0.16     0.17   0.06   0.09
    24   1     0.06   0.02  -0.08     0.04   0.06  -0.06     0.16  -0.02   0.02
    25   1     0.07   0.01  -0.10     0.06   0.08  -0.09    -0.01   0.23   0.15
    26   1    -0.07   0.16  -0.16    -0.05   0.13  -0.09     0.09   0.02  -0.02
    27   1    -0.03   0.13   0.04    -0.02   0.15   0.04     0.05   0.04  -0.23
    28   1    -0.02   0.13   0.20     0.04   0.11   0.21     0.10   0.02  -0.04
    29   1    -0.15  -0.20   0.12    -0.14  -0.17   0.06     0.19   0.02   0.06
    30   1    -0.09   0.01   0.07    -0.09   0.00   0.02     0.09  -0.23   0.09
    31   1    -0.10  -0.05   0.07    -0.12  -0.11   0.05     0.15   0.08   0.03
    32   1     0.16   0.00  -0.01    -0.17   0.27  -0.02    -0.08  -0.14  -0.01
    33   1     0.01   0.05  -0.09     0.02   0.14   0.13     0.02  -0.01  -0.03
    34   1     0.03   0.12   0.03     0.06  -0.07   0.24    -0.15   0.00   0.26
    35   1     0.06   0.14   0.06    -0.14  -0.35  -0.03    -0.05  -0.41  -0.03
                     22                     23                     24
                      A                      A                      A
 Frequencies --    514.9474               531.5604               563.9487
 Red. masses --      2.2463                 2.4065                 3.7108
 Frc consts  --      0.3509                 0.4006                 0.6953
 IR Inten    --      1.2764                 0.8335                 3.6919
  Atom  AN      X      Y      Z        X      Y      Z        X      Y      Z
     1   8    -0.05   0.02   0.02     0.03  -0.07  -0.00    -0.03   0.21   0.05
     2   6    -0.02  -0.06   0.03    -0.03   0.03  -0.07    -0.02  -0.07  -0.11
     3   6     0.01  -0.05  -0.05    -0.00   0.06  -0.00    -0.15  -0.07   0.05
     4   6     0.08  -0.05  -0.04    -0.03   0.04   0.04    -0.08   0.10   0.08
     5   6    -0.01   0.03  -0.05    -0.01   0.00  -0.03     0.02  -0.03   0.09
     6   6    -0.04   0.12   0.08     0.05   0.03   0.03    -0.14  -0.03  -0.05
     7   6    -0.04   0.04   0.18     0.08  -0.02   0.08     0.01   0.02  -0.01
     8   6     0.02  -0.01  -0.06     0.17   0.05  -0.00     0.06   0.00   0.01
     9   6     0.06  -0.05  -0.02     0.03  -0.09  -0.05     0.03  -0.06  -0.03
    10   6    -0.04   0.01  -0.09    -0.03  -0.01   0.05     0.00  -0.01   0.04
    11   6     0.00   0.02   0.01    -0.00   0.15  -0.04     0.00   0.02  -0.01
    12   6     0.03  -0.05   0.02    -0.06  -0.05  -0.01     0.12  -0.00   0.00
    13   6     0.01  -0.01  -0.00    -0.09  -0.05  -0.01     0.13  -0.16  -0.12
    14   1     0.13  -0.07  -0.05    -0.08   0.05   0.08     0.11   0.03  -0.10
    15   1     0.16  -0.05  -0.05    -0.03   0.00   0.03    -0.02   0.24   0.11
    16   1     0.05   0.00   0.05    -0.03   0.01   0.03    -0.12   0.26   0.17
    17   1    -0.03   0.08  -0.01    -0.01  -0.05  -0.01     0.07   0.02  -0.13
    18   1     0.00   0.04   0.04    -0.04  -0.01  -0.13     0.11  -0.05   0.16
    19   1    -0.05   0.08  -0.13    -0.01  -0.06   0.02     0.14  -0.04   0.20
    20   1    -0.09   0.08  -0.16     0.06   0.02  -0.02    -0.23  -0.02  -0.14
    21   1    -0.13   0.39   0.10    -0.00   0.10   0.04    -0.08   0.07  -0.04
    22   1    -0.18   0.05   0.19     0.08   0.00   0.08     0.06   0.01  -0.01
    23   1     0.06  -0.04   0.02    -0.17  -0.05  -0.01    -0.02  -0.06  -0.06
    24   1     0.17  -0.10  -0.04    -0.07  -0.09  -0.03     0.01  -0.02  -0.03
    25   1     0.05  -0.03   0.08     0.10  -0.32  -0.15     0.05  -0.12  -0.05
    26   1    -0.10   0.02  -0.16    -0.17  -0.05  -0.05    -0.04   0.00  -0.02
    27   1    -0.06   0.00   0.01    -0.07  -0.06   0.34    -0.01  -0.02   0.12
    28   1    -0.09   0.02  -0.09    -0.17  -0.03  -0.09    -0.05   0.00   0.02
    29   1    -0.04  -0.05   0.08    -0.15   0.05  -0.05    -0.05  -0.03   0.01
    30   1    -0.01   0.04   0.08    -0.03   0.37  -0.05    -0.01   0.11  -0.06
    31   1     0.04   0.12   0.02    -0.05   0.09  -0.04    -0.06  -0.00   0.00
    32   1     0.15  -0.36  -0.03    -0.12  -0.11  -0.02     0.02   0.07   0.01
    33   1     0.03   0.13  -0.27    -0.09  -0.08  -0.01     0.24   0.03   0.12
    34   1     0.03  -0.09  -0.23    -0.13   0.04   0.26     0.21  -0.17  -0.08
    35   1     0.07   0.22   0.00    -0.14  -0.32  -0.01     0.23  -0.23  -0.12
                     25                     26                     27
                      A                      A                      A
 Frequencies --    675.1711               703.4886               778.2519
 Red. masses --      3.3340                 3.7444                 2.6250
 Frc consts  --      0.8954                 1.0918                 0.9367
 IR Inten    --      1.8897                 0.7985                 1.0537
  Atom  AN      X      Y      Z        X      Y      Z        X      Y      Z
     1   8     0.13   0.01  -0.05     0.06   0.03  -0.11    -0.01  -0.02   0.04
     2   6     0.05   0.13  -0.10     0.23  -0.05   0.25    -0.09   0.00  -0.12
     3   6    -0.08  -0.13   0.01    -0.03  -0.02  -0.01     0.05   0.07  -0.00
     4   6     0.07  -0.09  -0.08    -0.00   0.01   0.01     0.04  -0.01  -0.03
     5   6     0.01  -0.06   0.16     0.00   0.02  -0.05     0.02  -0.01   0.07
     6   6    -0.15  -0.08  -0.05    -0.14   0.04  -0.03     0.01   0.04  -0.01
     7   6    -0.03  -0.01   0.05    -0.11   0.02  -0.08    -0.14   0.01  -0.09
     8   6     0.02   0.00   0.00     0.03   0.00   0.01    -0.08  -0.01  -0.02
     9   6     0.03  -0.02  -0.02     0.06  -0.06  -0.05     0.06  -0.09  -0.07
    10   6     0.01  -0.00   0.00     0.03  -0.01   0.12     0.01  -0.02   0.18
[...]
 2293,-0.00001791,-0.00001537,-0.00001243,-0.00000549,0.00000931,0.0000
 0450,-0.00004046,0.00023870,0.00000470,0.00018193,0.00040284,0.0002842
 6,-0.00012326,0.00544995,-0.00062695,0.00202552,-0.00007902,0.00014221
 ,-0.00004209,0.00080353,-0.00002314,0.00071979,-0.11885239,0.01107979,
 -0.12684229,0.00007522,0.00023543,0.00056409,0.00004609,0.00003129,0.0
 0000813,0.00000643,-0.00000338,-0.00000303,-0.00000451,0.00000080,0.00
 000764,-0.00000803,0.00000640,-0.00000326,-0.00004103,-0.00000032,0.00
 000396,0.00001899,-0.00005119,0.00001520,0.00001697,0.00004630,0.00004
 058,0.00007002,-0.00005087,-0.00012510,-0.00009171,-0.00002054,0.00002
 901,0.00014346,0.00017348,0.00054699,0.00036720,-0.00010789,0.00004509
 ,-0.00016548,-0.00001496,-0.00007786,0.00018613,-0.00034384,0.00040287
 ,0.00007110,-0.00000020,-0.00004639,0.00001206,0.00024165,0.00009332,-
 0.00011856,-0.00014732,0.00012450,0.00804324,-0.00018098,0.00489452,0.
 13092594,-0.01368470,0.13403850,0.00008737,0.00004540,-0.00000574,-0.0
 0008762,-0.00011138,0.00000307,-0.00001281,0.00008187,-0.00004298,-0.0
 0000002,0.00000986,-0.00000567,-0.00004668,-0.00003242,0.00005539,-0.0
 0018108,-0.00004952,-0.00015571,0.00044491,0.00035578,0.00189318,-0.00
 639195,0.00049343,0.01922953,0.00019878,0.00094222,-0.00029856,-0.0024
 4140,-0.00382327,-0.00027653,-0.06580396,-0.00130274,0.06355288,0.0001
 8910,-0.00004511,-0.00022918,0.00000304,0.00003964,-0.00003816,-0.0000
 0607,0.00000805,0.00000783,0.00001609,-0.00000110,-0.00001246,0.000003
 72,-0.00000193,0.00000162,0.00005990,0.00000970,-0.00001369,-0.0000219
 2,0.00008724,-0.00002814,-0.00002816,-0.00005833,-0.00005902,-0.000034
 49,0.00025656,0.00019535,0.00030809,-0.00000976,-0.00008885,-0.0001049
 1,-0.00038951,-0.00081933,-0.00015610,0.00007204,-0.00013188,0.0004652
 1,-0.00017408,-0.00022589,0.00003360,-0.00011554,-0.00015471,0.0001664
 2,-0.00002652,-0.00038795,0.00028016,-0.00004120,0.00023124,-0.0000569
 5,-0.00030620,0.00154524,-0.00423530,-0.00107951,0.01481486,0.00879521
 ,0.00048124,-0.02745738,0.06837753,0.00000870,-0.00002407,-0.00000625,
 -0.00001125,0.00006439,0.00001330,-0.00002376,0.00000797,0.00000635,-0
 .00000028,0.00000361,0.00000051,0.00000998,0.00007835,-0.00000908,-0.0
 0003160,0.00017133,-0.00008949,0.00070778,0.00095177,0.00100092,-0.005
 59183,-0.00047000,0.02524480,-0.00018866,0.00145664,0.00102324,-0.0029
 0362,-0.00437305,0.00001238,-0.00123351,-0.05019913,0.00694601,0.00022
 966,-0.00010391,-0.00004902,0.00003758,0.00001592,-0.00004896,0.000002
 09,-0.00000368,-0.00000988,-0.00000808,-0.00000535,0.00000475,0.000001
 10,0.00000276,0.00000372,-0.00001292,-0.00002180,0.00000476,0.00000844
 ,-0.00004372,0.00000674,0.00000144,0.00000442,-0.00000745,-0.00011184,
 -0.00010543,-0.00012052,0.00000246,-0.00014543,0.00001767,-0.00007168,
 0.00001499,-0.00067580,0.00003432,0.00025931,-0.00032986,0.00012617,-0
 .00041573,-0.00053960,0.00003610,-0.00010208,0.00002132,-0.00028669,0.
 00020518,0.00005920,0.00014202,-0.00012820,-0.00027701,-0.00080713,0.0
 0023519,0.00167546,0.00611007,0.00218676,-0.02851835,-0.00081102,-0.00
 094164,0.00311818,0.00452642,0.05137568,0.00001241,-0.00002905,-0.0000
 0421,-0.00000816,0.00007353,0.00002839,-0.00000424,-0.00002283,-0.0000
 2950,0.00001544,0.00000916,0.00002729,0.00004296,0.00002747,-0.0000345
 1,0.00031464,0.00006544,0.00016344,-0.00105451,-0.00048947,0.00012699,
 0.00119421,-0.00034460,-0.00632976,-0.00012812,-0.00063133,0.00003494,
 0.00110401,0.00230258,0.00094320,0.06375483,0.00721535,-0.29041669,0.0
 0005822,0.00006495,0.00040292,0.00002762,0.00004855,-0.00002020,-0.000
 00083,-0.00000922,-0.00001099,-0.00001848,0.00000053,0.00001123,0.0000
 1128,-0.00000738,0.00000383,-0.00003265,-0.00001279,0.00002377,0.00001
 220,-0.00006881,0.00001243,0.00000748,0.00004382,0.00001654,0.00011753
 ,-0.00009955,-0.00015477,-0.00016525,-0.00003574,0.00005436,0.00029152
 ,0.00007710,0.00081930,-0.00009140,0.00016910,0.00030960,-0.00019399,0
 .00057866,0.00051470,0.00009133,0.00000780,-0.00006866,-0.00015805,-0.
 00015283,0.00013326,-0.00005851,-0.00019593,0.00044431,0.00026543,-0.0
 0002458,-0.00051314,0.00092061,0.00012765,-0.00645114,0.00488209,-0.00
 008743,-0.01642537,-0.07107255,-0.00848387,0.31628208,-0.00014927,-0.0
 0033235,0.00032375,0.00171789,-0.00058240,-0.00045395,-0.00001286,-0.0
 0003727,-0.00024509,0.00008044,0.00002527,0.00006092,0.00005058,0.0001
 0595,0.00009293,0.00026309,0.00144287,-0.00038711,-0.01046067,-0.00034
 537,0.01962901,0.00063989,0.00035901,0.00123983,-0.00025689,-0.0000480
 9,-0.00017804,-0.00052932,-0.00097981,0.00016182,-0.00004121,-0.000078
 35,-0.00026371,-0.09699757,0.00262647,0.10048630,0.00950973,-0.0000548
 1,-0.02403675,-0.00001388,0.00001194,0.00000620,0.00000097,0.00000840,
 0.00000456,0.00002130,-0.00002910,-0.00000157,0.00005703,-0.00008544,-
 0.00000882,-0.00000479,0.00006721,0.00002455,-0.00008635,-0.00007597,-
 0.00006611,-0.00002479,0.00007175,-0.00029140,0.00067367,-0.00044185,-
 0.00035743,-0.00204322,-0.00389545,-0.00007682,-0.00004596,0.00009076,
 0.00017354,0.00030664,-0.00003314,-0.00015878,-0.00011294,-0.00000549,
 -0.00008973,0.00005638,0.00005035,-0.00007794,0.00031742,0.00037151,-0
 .00014997,-0.00033293,0.00032152,-0.00129363,0.00000679,-0.00003221,-0
 .00000168,-0.00007831,-0.00003943,-0.00011438,0.00018362,0.00014486,-0
 .00017803,0.10700248,-0.00019599,0.00015363,-0.00015839,-0.00029840,-0
 .00024727,0.00075173,0.00011184,-0.00014619,-0.00018382,0.00003290,-0.
 00000740,0.00005032,-0.00005926,0.00021068,0.00009418,-0.00055789,0.00
 176849,0.00137047,-0.01198458,-0.00072007,0.02496074,0.00062209,0.0006
 2993,0.00024653,0.00008608,-0.00003100,0.00003336,-0.00017547,0.000195
 58,-0.00031417,0.00002330,-0.00001508,0.00007061,0.00302478,-0.0527565
 5,-0.00121657,-0.00044518,-0.00003333,0.00061027,0.00001273,0.00001023
 ,-0.00000191,0.00003034,-0.00002354,-0.00002155,0.00000802,-0.00001777
 ,-0.00001422,0.00007924,-0.00004838,-0.00004354,-0.00001303,0.00003770
 ,-0.00003595,0.00001940,-0.00010198,-0.00011912,0.00005353,0.00031777,
 -0.00037174,0.00032767,-0.00034260,-0.00064050,-0.00353938,-0.00408719
 ,0.00076906,-0.00004104,0.00004773,-0.00015593,-0.00002361,-0.00014143
 ,0.00005168,0.00002512,0.00010437,0.00002145,-0.00005503,-0.00016157,-
 0.00010116,0.00011219,0.00000817,-0.00004644,-0.00025552,0.00018940,-0
 .00034345,0.00000504,-0.00003115,-0.00002795,-0.00001404,-0.00001108,-
 0.00012985,0.00012087,0.00007527,-0.00011706,0.00110322,0.05346743,-0.
 00128960,0.00033593,0.00034025,0.00207009,-0.00150819,-0.00048398,-0.0
 0019060,0.00027389,-0.00033037,0.00009064,0.00005294,-0.00009161,0.000
 25400,-0.00004386,-0.00001950,-0.00004132,-0.00061803,0.00010198,0.002
 58036,0.00075004,-0.00260476,-0.00018340,0.00036268,-0.00044629,0.0001
 0193,0.00006609,0.00011488,-0.00058664,0.00016985,-0.00090480,0.000182
 10,-0.00005348,0.00008287,0.10022124,-0.00166411,-0.25243315,0.0075623
 0,0.00045314,-0.02171042,-0.00001730,0.00002850,0.00002391,-0.00004902
 ,0.00004362,0.00004880,-0.00000535,-0.00001345,0.00002508,-0.00000660,
 -0.00002081,0.00003809,-0.00002278,0.00010587,0.00001348,-0.00016236,0
 .00005862,0.00010213,-0.00015356,0.00007852,0.00034144,-0.00032563,0.0
 0060737,0.00040443,0.00010587,0.00055466,0.00106000,0.00006773,0.00002
 464,-0.00005652,-0.00008489,-0.00000694,0.00004995,0.00006188,0.000025
 66,0.00002455,0.00004202,0.00001639,0.00001453,-0.00025222,-0.00023044
 ,0.00023081,-0.00126085,-0.00102131,-0.00053602,-0.00000169,0.00002591
 ,0.00000062,0.00006779,0.00007573,0.00000407,-0.00002235,-0.00001412,0
 .00008261,-0.10606879,0.00174685,0.28001395,-0.00173935,0.00171502,0.0
 0083680,-0.00088799,-0.00442367,-0.00403159,-0.00026474,0.00014125,0.0
 0047328,0.00021641,0.00007892,0.00014882,-0.00000948,-0.00003216,0.000
 14375,-0.00284141,-0.00285442,0.00029298,0.01261257,-0.01764354,-0.002
 17822,0.00075679,0.00045722,-0.00029462,-0.00188308,-0.00008936,-0.001
 08046,0.00000010,0.00006580,-0.00008029,0.00013211,0.00005452,0.000269
 78,-0.11756829,0.11639433,0.01515776,-0.01405880,0.02135020,-0.0011162
 0,-0.00001159,0.00013137,-0.00000258,-0.00002214,-0.00002042,-0.000032
 39,0.00004439,-0.00007395,0.00001887,0.00000473,-0.00002748,0.00004550
 ,0.00002377,0.00004984,-0.00006097,-0.00002373,-0.00000822,-0.00003034
 ,0.00084013,-0.00127932,-0.00003130,-0.00002540,-0.00003675,-0.0001786
 2,0.00075399,0.00083782,-0.00002091,-0.00263685,-0.00032665,-0.0010163
 7,-0.00005282,0.00010899,0.00011474,-0.00000670,-0.00015295,0.00008207
 ,-0.00002855,-0.00001331,0.00007582,0.00004015,0.00002619,-0.00003313,
 -0.00001850,0.00003377,-0.00001825,0.00004654,0.00010398,0.00002096,0.
 00004142,0.00007464,0.00000775,0.00000134,-0.00002582,0.00000403,-0.00
 763825,0.01194107,0.00117822,0.13246526,0.00010816,0.00003989,0.000122
 51,-0.00046864,0.00088885,-0.00022715,-0.00042971,0.00056549,-0.000262
 65,0.00012461,0.00006320,0.00015608,0.00011749,-0.00004521,-0.00003263
 ,-0.00549709,-0.00336921,0.00113181,0.01397862,-0.02169262,-0.00327219
 ,0.00137447,-0.00044968,0.00039875,0.00061554,-0.00057156,0.00082187,-
 0.00029572,0.00002314,-0.00013096,-0.00006828,0.00017579,0.00002983,0.
 11457536,-0.23994612,-0.01938749,-0.00017467,0.00121242,-0.00007580,-0
 .00004769,0.00007538,-0.00000614,-0.00001280,0.00000395,-0.00000290,0.
 00008136,-0.00005438,0.00000901,0.00001760,-0.00001093,0.00008559,-0.0
 0001199,0.00002001,-0.00004438,-0.00002928,0.00000432,-0.00001279,0.00
 109689,-0.00171195,-0.00006482,-0.00004807,0.00034498,-0.00006805,0.00
 003017,0.00099707,0.00042139,0.00057240,0.00150066,-0.00048270,-0.0002
 3106,-0.00008137,0.00007571,0.00030831,0.00072858,0.00001570,0.0000036
 4,0.00016557,0.00018290,-0.00004795,0.00000627,-0.00011015,0.00007493,
 -0.00006928,-0.00013197,0.00009240,0.00021279,0.00007345,-0.00014850,0
 .00003043,-0.00005801,0.00005106,-0.00002015,-0.00000482,-0.00016486,0
 .00058146,-0.00065947,-0.12577311,0.25976549,-0.00233658,0.00175517,0.
 00094194,-0.00171441,-0.00342740,-0.00390127,0.00003519,-0.00011097,0.
 00020172,0.00015868,0.00006336,-0.00000455,-0.00005510,-0.00000284,0.0
 0018313,0.00046724,0.00016843,0.00025994,-0.00157590,0.00372971,-0.000
 65969,0.00028383,-0.00062188,0.00015402,-0.00080301,-0.00064646,0.0004
 3780,-0.00018877,-0.00003887,-0.00004814,-0.00016605,0.00010154,-0.000
 02101,0.01474498,-0.01956681,-0.05191249,-0.01511016,0.02304025,-0.000
 93980,-0.00000070,0.00005290,0.00002068,-0.00003571,0.00000819,0.00000
 307,0.00000653,-0.00004227,0.00003411,0.00000600,-0.00002241,0.0000140
 8,0.00002866,0.00002900,-0.00003842,0.00000356,-0.00001097,-0.00003005
 ,-0.00002804,0.00012188,0.00058935,-0.00025870,0.00038683,0.00034816,-
 0.00053581,-0.00001415,0.00023903,-0.00115231,0.00030305,-0.00027586,0
 .00022360,0.00011300,-0.00018013,0.00013174,0.00015460,-0.00013985,0.0
 0007629,0.00017742,0.00006401,-0.00006100,0.00000636,-0.00001929,0.000
 18323,-0.00008409,-0.00005151,0.00002047,0.00005802,-0.00001666,-0.000
 01518,-0.00003998,-0.00001785,0.00001737,0.00001823,-0.00002070,0.0159
 4075,-0.02640608,-0.00203398,-0.00978555,0.02078632,0.05474623,0.00177
 974,-0.00079285,0.00009099,0.01111746,0.01525875,-0.00283746,-0.002199
 00,0.00222342,0.00038781,0.00074133,0.00072452,0.00000862,-0.00017700,
 0.00004118,0.00025148,-0.00025339,0.00026881,-0.00005694,-0.00238002,0
 .00201251,-0.00430295,-0.00004245,-0.00144729,0.00056941,0.00006714,-0
 .00016397,-0.00000868,-0.00017234,-0.00000219,0.00008240,-0.00034048,0
 .00021772,-0.00039567,-0.01370514,-0.01667165,0.00397278,-0.16011986,-
 0.13268888,0.02344514,-0.00015857,0.00034615,0.00010612,0.00000075,-0.
 00003868,0.00001754,0.00005124,-0.00005701,-0.00002857,0.00004107,-0.0
 0003941,0.00000979,0.00005093,-0.00000485,-0.00005414,0.00008484,-0.00
 007608,-0.00012419,0.00005111,-0.00010232,0.00002012,0.00005803,-0.000
 05474,-0.00000240,0.00031069,0.00040473,-0.00004135,0.00003240,0.00003
 676,-0.00000626,0.00000971,0.00000375,0.00001845,-0.00005548,0.0000327
 0,-0.00002280,0.00001785,-0.00001710,-0.00001372,-0.00000802,0.0000016
 7,-0.00009889,0.00004074,0.00002720,-0.00000186,0.00001959,-0.00003557
 ,-0.00000358,-0.00014920,-0.00016483,0.00000623,0.00001574,0.00001125,
 0.00002888,0.00120265,0.00021086,0.00005049,0.00019517,0.00033553,0.00
 056458,0.17228784,-0.00020473,0.00609616,-0.00083178,-0.02252882,-0.02
 751632,0.00482400,0.00497117,-0.00264164,-0.00058019,-0.00141192,-0.00
 101617,0.00017352,0.00031066,0.00029151,-0.00048992,0.00047601,0.00034
 118,0.00038746,0.00061042,0.00077226,0.00031236,0.00019459,0.00018317,
 0.00016786,-0.00003285,0.00000614,-0.00004435,-0.00002523,-0.00003338,
 -0.00001404,0.00004432,-0.00001411,-0.00000560,0.00205626,0.00259265,-
 0.00113716,-0.12802111,-0.20020519,0.02754290,0.00037042,-0.00051487,-
 0.00016954,0.00002707,0.00000362,-0.00009788,0.00004507,-0.00003021,0.
 00007586,-0.00000337,-0.00003872,0.00007104,-0.00010664,0.00001216,0.0
 0005071,-0.00008160,0.00011069,0.00009080,-0.00010684,-0.00000521,-0.0
 0005178,-0.00003159,-0.00002155,-0.00008441,-0.00001394,-0.00005478,0.
 00007203,0.00000366,-0.00000208,0.00000774,-0.00000184,-0.00000184,0.0
 0000361,-0.00001740,0.00000887,0.00000212,-0.00000286,0.00000717,0.000
 01858,0.00000061,0.00001146,-0.00000371,0.00000323,0.00001754,-0.00000
 112,0.00000208,0.00001680,0.00001899,0.00001054,0.00002109,0.00000102,
 0.00000642,-0.00000372,-0.00000051,-0.00008890,0.00011194,-0.00039998,
 -0.00020635,0.00042382,-0.00042787,0.14031797,0.21711801,-0.00082144,0
 .00020832,-0.00118809,0.00075285,-0.00264593,-0.00033857,0.00010622,-0
 .00016879,0.00097409,0.00016276,0.00007521,0.00020922,0.00027385,-0.00
 011999,-0.00000575,-0.00008368,0.00051755,-0.00005674,-0.00275697,0.00
 160126,-0.00378610,-0.00053007,-0.00127837,0.00074833,0.00008497,-0.00
 012964,-0.00003071,-0.00001228,-0.00001838,0.00016013,-0.00036732,0.00
 017145,-0.00040612,-0.01542474,-0.01968517,0.00340069,0.02296147,0.028
 01085,-0.05512787,-0.00005566,0.00002688,0.00000178,-0.00003291,0.0000
 1133,0.00001031,0.00002453,-0.00004072,-0.00000233,-0.00004014,0.00002
 285,0.00000577,-0.00018121,0.00015271,0.00007096,-0.00036459,0.0000367
 9,0.00022552,0.00007720,-0.00008228,0.00004919,0.00002746,-0.00003482,
 -0.00000839,-0.00025979,0.00000072,0.00029766,0.00002083,0.00003121,0.
 00000753,-0.00000776,0.00001099,0.00001269,-0.00004205,0.00002531,-0.0
 0000548,0.00000789,-0.00001529,-0.00001810,-0.00000072,0.00001352,-0.0
 0003907,0.00002865,0.00004084,-0.00002078,0.00001814,-0.00003089,-0.00
 000551,-0.00014787,-0.00016630,0.00000921,0.00000798,0.00001867,0.0000
 1961,0.00086083,-0.00039612,0.00086071,0.00065913,0.00032407,0.0007161
 2,-0.02328599,-0.02952210,0.05670362,-0.00118124,0.00382504,-0.0032504
 9,-0.01053671,-0.00027110,0.01667510,0.00001766,0.00027461,-0.00100069
 ,-0.00008782,0.00004649,-0.00013290,-0.00006221,-0.00022778,0.00033305
 ,-0.00012794,-0.00030381,0.00002890,0.00170217,0.00050172,-0.00047024,
 0.00008153,0.00031969,-0.00015493,0.00004719,0.00002816,0.00001781,-0.
 00004269,0.00010329,-0.00016278,0.00004520,-0.00003333,0.00010531,0.00
 933578,-0.00338624,-0.02483865,-0.09123873,0.01065279,0.10374778,0.000
 04315,0.00004928,-0.00000075,0.00001837,-0.00003783,-0.00004371,0.0000
 0905,-0.00006178,0.00004150,-0.00009821,0.00011547,0.00001171,0.000148
 29,-0.00017174,-0.00018709,0.00048207,-0.00058141,-0.00006164,0.000003
 44,0.00000761,-0.00001227,-0.00009651,0.00008361,0.00000368,-0.0001979
 9,-0.00002775,0.00042123,0.00001203,0.00000877,-0.00003761,-0.00005236
 ,-0.00000180,0.00002588,0.00001778,0.00001078,0.00002381,-0.00000261,-
 0.00000329,0.00001630,-0.00005428,-0.00008731,0.00002844,-0.00004661,-
 0.00011671,0.00013283,-0.00000313,0.00001443,0.00000083,0.00003422,0.0
 0003518,0.00000550,-0.00002040,-0.00002075,0.00000806,-0.00326134,-0.0
 0029189,-0.00391171,0.00154280,-0.00010911,0.00093030,-0.00841507,0.00
 343547,0.01834042,0.10198514,0.00278146,-0.00296815,0.00359082,0.01185
 434,0.00175180,-0.02897992,-0.00119822,-0.00011565,0.00320977,0.000237
 06,0.00006015,0.00031120,-0.00002803,-0.00202053,-0.00022308,0.0003677
 0,0.00011330,0.00017385,0.00032591,0.00003737,-0.00098237,-0.00008964,
 0.00003221,0.00008430,-0.00000605,0.00003030,-0.00000777,0.00004151,-0
 .00004263,0.00002217,0.00001985,-0.00002337,-0.00000831,-0.00094447,0.
 00061206,0.00170586,0.01188446,-0.05464308,-0.03028685,-0.00010392,0.0
 0000094,0.00002763,-0.00005818,0.00008313,0.00007109,-0.00000791,0.000
 10284,-0.00005291,0.00002055,-0.00002053,0.00005332,-0.00019767,0.0000
 7863,0.00054380,-0.00073555,-0.00085248,0.00040068,0.00002218,-0.00001
 410,-0.00001540,0.00000119,0.00008368,0.00005942,-0.00025983,0.0000350
 8,-0.00000413,-0.00000886,-0.00002165,0.00003537,0.00000639,0.00002186
 ,-0.00001390,0.00000801,-0.00002273,-0.00000154,-0.00000166,-0.0000017
 3,-0.00000781,0.00001421,0.00000291,0.00002090,-0.00000814,0.00001655,
 -0.00000614,-0.00000545,-0.00000463,-0.00000177,0.00001352,0.00000591,
 0.00001752,-0.00001967,-0.00000242,0.00000610,0.00054919,0.00101377,0.
 00039727,-0.00057745,0.00019286,0.00038881,-0.01011808,0.00395357,0.02
 303425,-0.01377876,0.05252474,-0.00088384,-0.00051733,-0.00079799,0.00
 082652,-0.00031466,0.00120224,0.00066635,-0.00074010,-0.00058808,-0.00
 009987,-0.00011027,0.00002673,0.00110557,0.00073669,-0.00045094,-0.000
 21689,-0.00006579,-0.00006481,0.00166794,0.00073051,0.00046463,-0.0002
 0438,0.00012018,0.00017244,0.00003918,0.00007143,-0.00008326,0.0001464
 4,0.00021144,-0.00009549,-0.00002888,-0.00000211,0.00000465,0.00863047
 ,-0.00250530,-0.02472736,0.09929577,-0.02481719,-0.24558321,0.00002327
 ,-0.00006543,-0.00001201,-0.00003387,0.00002336,0.00003780,0.00001297,
 0.00000472,-0.00000721,-0.00013487,0.00002935,0.00001024,-0.00027021,0
 .00037402,-0.00003918,-0.00049398,0.00076112,0.00052451,-0.00000036,-0
 .00006813,0.00000985,-0.00003264,0.00017776,0.00013692,-0.00077204,-0.
 00062396,0.00061814,0.00003163,-0.00006022,-0.00001035,-0.00006665,-0.
 00000875,0.00005445,-0.00001856,-0.00001546,0.00003394,-0.00000783,-0.
 00000674,0.00001673,-0.00008458,-0.00008226,0.00007749,-0.00004462,-0.
 00017203,0.00015676,0.00000179,0.00000667,-0.00000265,-0.00000295,-0.0
 0000204,0.00000425,-0.00002878,-0.00001695,0.00002485,-0.00450525,0.00
 006827,-0.00232774,0.00046151,0.00040009,0.00135787,0.00165463,0.00004
 133,-0.00344354,-0.10663299,0.02643777,0.27329931\\0.00009995,0.000017
 39,-0.00001367,-0.00007923,0.00000988,-0.00003973,0.00003229,-0.000000
 96,0.00004233,-0.00003006,-0.00001098,-0.00001176,-0.00002177,-0.00000
 020,-0.00001708,-0.00004834,-0.00001435,-0.00004579,-0.00001191,-0.000
 05301,0.00005874,0.00004158,0.00002195,0.00001479,-0.00001358,0.000019
 39,0.00000286,0.00000071,-0.00000457,-0.00000863,-0.00001343,-0.000009
 64,-0.00000089,0.00002683,0.00001416,-0.00003118,0.00003060,0.00001467
 ,0.00007144,-0.00000100,0.00000498,0.00000572,-0.00000071,0.00000057,0
 .00001278,-0.00000552,-0.00000086,0.00000105,-0.00000308,-0.00000395,-
 0.00000624,-0.00000058,-0.00000151,-0.00000976,0.00000364,-0.00000253,
 -0.00001237,0.00000687,0.00000860,0.00002056,0.00001202,0.00000361,0.0
 0001445,-0.00000840,0.00000131,-0.00000480,-0.00000992,-0.00002131,-0.
 00000495,-0.00000235,-0.00000099,-0.00001179,0.00001215,0.00000628,0.0
 0000162,-0.00000319,0.00001101,-0.00001425,-0.00000443,-0.00000518,0.0
 0000004,-0.00000344,-0.00000145,0.00000948,0.00001832,0.00000119,-0.00
 000269,-0.00000085,-0.00000290,0.00000840,0.00000868,0.00000204,0.0000
 0501,0.00000136,0.00000127,-0.00001676,0.00001346,0.00001316,0.0000135
 0,-0.00001954,0.00000125,-0.00001304,-0.00002713,-0.00001830,-0.000017
 40\\\@


 IF THE FACTS DO NOT CONFORM TO THE THEORY, THEY MUST BE DISPOSED OF.
 Job cpu time:       0 days  0 hours  4 minutes 13.2 seconds.
 Elapsed time:       0 days  0 hours  4 minutes 19.9 seconds.
 File lengths (MBytes):  RWF=    238 Int=      0 D2E=      0 Chk=     16 Scr=      1
 Normal termination of Gaussian 16 at Sat Feb 24 03:08:40 2024.
