 Entering Gaussian System, Link 0=g16
 Input=/Volumes/SSD-PMU3/b3lyp_6-31gd_freq/HCVPWIUEJUKHHQ-QEYWKRMJSA-N_calculating/gaussianinput0.gjf
 Output=/Volumes/SSD-PMU3/b3lyp_6-31gd_freq/HCVPWIUEJUKHHQ-QEYWKRMJSA-N_calculating/gaussianinput0.log
 Initial command:
 /Applications/g16/l1.exe "/Users/macmini_m1_2022/PycharmProjects/sphere_model/sphere_model_lib/Gau-61584.inp" -scrdir="/Users/macmini_m1_2022/PycharmProjects/sphere_model/sphere_model_lib/"
 Entering Link 1 = /Applications/g16/l1.exe PID=     61585.
  
 Copyright (c) 1988,1990,1992,1993,1995,1998,2003,2009,2016,
            Gaussian, Inc.  All Rights Reserved.
  
 This is part of the Gaussian(R) 16 program.  It is based on
 the Gaussian(R) 09 system (copyright 2009, Gaussian, Inc.),
 the Gaussian(R) 03 system (copyright 2003, Gaussian, Inc.),
 the Gaussian(R) 98 system (copyright 1998, Gaussian, Inc.),
 the Gaussian(R) 94 system (copyright 1995, Gaussian, Inc.),
 the Gaussian 92(TM) system (copyright 1992, Gaussian, Inc.),
 the Gaussian 90(TM) system (copyright 1990, Gaussian, Inc.),
 the Gaussian 88(TM) system (copyright 1988, Gaussian, Inc.),
 the Gaussian 86(TM) system (copyright 1986, Carnegie Mellon
 University), and the Gaussian 82(TM) system (copyright 1983,
 Carnegie Mellon University). Gaussian is a federally registered
 trademark of Gaussian, Inc.
  
 This software contains proprietary and confidential information,
 including trade secrets, belonging to Gaussian, Inc.
  
 This software is provided under written license and may be
 used, copied, transmitted, or stored only in accord with that
 written license.
  
 The following legend is applicable only to US Government
 contracts under FAR:
  
                    RESTRICTED RIGHTS LEGEND
  
 Use, reproduction and disclosure by the US Government is
 subject to restrictions as set forth in subparagraphs (a)
 and (c) of the Commercial Computer Software - Restricted
 Rights clause in FAR 52.227-19.
  
 Gaussian, Inc.
 340 Quinnipiac St., Bldg. 40, Wallingford CT 06492
  
  
 ---------------------------------------------------------------
 Warning -- This program may not be used in any manner that
 competes with the business of Gaussian, Inc. or will provide
 assistance to any competitor of Gaussian, Inc.  The licensee
 of this program is prohibited from giving any competitor of
 Gaussian, Inc. access to this program.  By using this program,
 the user acknowledges that Gaussian, Inc. is engaged in the
 business of creating and licensing software in the field of
 computational chemistry and represents and warrants to the
 licensee that it is not a competitor of Gaussian, Inc. and that
 it will not use this program in any manner prohibited above.
 ---------------------------------------------------------------
  

 Cite this work as:
 Gaussian 16, Revision A.03,
 M. J. Frisch, G. W. Trucks, H. B. Schlegel, G. E. Scuseria, 
 M. A. Robb, J. R. Cheeseman, G. Scalmani, V. Barone, 
 G. A. Petersson, H. Nakatsuji, X. Li, M. Caricato, A. V. Marenich, 
 J. Bloino, B. G. Janesko, R. Gomperts, B. Mennucci, H. P. Hratchian, 
 J. V. Ortiz, A. F. Izmaylov, J. L. Sonnenberg, D. Williams-Young, 
 F. Ding, F. Lipparini, F. Egidi, J. Goings, B. Peng, A. Petrone, 
 T. Henderson, D. Ranasinghe, V. G. Zakrzewski, J. Gao, N. Rega, 
 G. Zheng, W. Liang, M. Hada, M. Ehara, K. Toyota, R. Fukuda, 
 J. Hasegawa, M. Ishida, T. Nakajima, Y. Honda, O. Kitao, H. Nakai, 
 T. Vreven, K. Throssell, J. A. Montgomery, Jr., J. E. Peralta, 
 F. Ogliaro, M. J. Bearpark, J. J. Heyd, E. N. Brothers, K. N. Kudin, 
 V. N. Staroverov, T. A. Keith, R. Kobayashi, J. Normand, 
 K. Raghavachari, A. P. Rendell, J. C. Burant, S. S. Iyengar, 
 J. Tomasi, M. Cossi, J. M. Millam, M. Klene, C. Adamo, R. Cammi, 
 J. W. Ochterski, R. L. Martin, K. Morokuma, O. Farkas, 
 J. B. Foresman, and D. J. Fox, Gaussian, Inc., Wallingford CT, 2016.
 
 ******************************************
 Gaussian 16:  EM64M-G16RevA.03 25-Dec-2016
                22-Feb-2024 
 ******************************************
 %nprocshared=8
 Will use up to    8 processors via shared memory.
 %mem=8GB
 %chk= 0.chk
 ---------------------
 # freq b3lyp/6-31g(d)
 ---------------------
 1/10=4,30=1,38=1/1,3;
 2/12=2,17=6,18=5,40=1/2;
 3/5=1,6=6,7=1,11=2,25=1,30=1,71=2,74=-5,140=1/1,2,3;
 4//1;
 5/5=2,38=5,98=1/2;
 8/6=4,10=90,11=11/1;
 11/6=1,8=1,9=11,15=111,16=1/1,2,10;
 10/6=1/2;
 6/7=2,8=2,9=2,10=2,28=1/1;
 7/8=1,10=1,25=1/1,2,3,16;
 1/10=4,30=1/3;
 99//99;
 ---------
 good luck
 ---------
 Symbolic Z-matrix:
 Charge =  0 Multiplicity = 1
 O                     1.21848   0.        0. 
 C                     0.        0.        0. 
 C                    -0.80877  -1.28905   0.0257 
 C                    -1.48506  -1.49913   1.40521 
 C                    -2.5965   -0.47807   1.74081 
 C                    -3.5557   -0.30164   0.54191 
 C                    -2.08508   0.86339   2.31536 
 C                    -1.05776   1.70005   1.50256 
 C                    -0.79329   1.30852   0.0257 
 C                    -2.06094   1.26361  -0.86244 
 C                    -2.84242  -0.06426  -0.80117 
 C                    -1.88299  -1.23439  -1.08164 
 H                    -0.10293  -2.10758  -0.15109 
 H                    -1.92959  -2.50396   1.3899 
 H                    -0.7253   -1.50799   2.19762 
 H                    -3.18896  -0.91812   2.55539 
 H                    -4.16521  -1.21158   0.44384 
 H                    -4.25664   0.5186    0.74912 
 H                    -2.97187   1.48039   2.5096 
 H                    -1.65081   0.65758   3.30222 
 H                    -1.37811   2.7494    1.505 
 H                    -0.08619   1.68454   2.01042 
 H                    -0.10989   2.06943  -0.36847 
 H                    -2.71843   2.10463  -0.60178 
 H                    -1.75372   1.42586  -1.90454 
 H                    -3.60804  -0.03392  -1.58842 
 H                    -1.40832  -1.11567  -2.06495 
 H                    -2.43297  -2.18511  -1.10656 
 

 GradGradGradGradGradGradGradGradGradGradGradGradGradGradGradGradGradGrad
 Berny optimization.
 Initialization pass.
 Trust Radius=3.00D-01 FncErr=1.00D-07 GrdErr=1.00D-07 EigMax=2.50D+02 EigMin=1.00D-04
 Number of steps in this run=      2 maximum allowed number of steps=      2.
 GradGradGradGradGradGradGradGradGradGradGradGradGradGradGradGradGradGrad

                          Input orientation:                          
 ---------------------------------------------------------------------
 Center     Atomic      Atomic             Coordinates (Angstroms)
 Number     Number       Type             X           Y           Z
 ---------------------------------------------------------------------
      1          8           0        1.218475    0.000000    0.000000
      2          6           0        0.000000    0.000000    0.000000
      3          6           0       -0.808770   -1.289050    0.025703
      4          6           0       -1.485058   -1.499131    1.405208
      5          6           0       -2.596500   -0.478066    1.740810
      6          6           0       -3.555700   -0.301636    0.541912
      7          6           0       -2.085084    0.863394    2.315364
      8          6           0       -1.057762    1.700048    1.502559
      9          6           0       -0.793292    1.308518    0.025703
     10          6           0       -2.060935    1.263610   -0.862440
     11          6           0       -2.842424   -0.064260   -0.801168
     12          6           0       -1.882991   -1.234389   -1.081640
     13          1           0       -0.102926   -2.107583   -0.151088
     14          1           0       -1.929589   -2.503957    1.389896
     15          1           0       -0.725304   -1.507985    2.197622
     16          1           0       -3.188959   -0.918124    2.555389
     17          1           0       -4.165211   -1.211582    0.443844
     18          1           0       -4.256637    0.518597    0.749123
     19          1           0       -2.971866    1.480394    2.509603
     20          1           0       -1.650814    0.657584    3.302220
     21          1           0       -1.378106    2.749398    1.505002
     22          1           0       -0.086193    1.684539    2.010418
     23          1           0       -0.109887    2.069426   -0.368473
     24          1           0       -2.718430    2.104630   -0.601784
     25          1           0       -1.753722    1.425858   -1.904535
     26          1           0       -3.608038   -0.033922   -1.588416
     27          1           0       -1.408315   -1.115669   -2.064947
     28          1           0       -2.432965   -2.185106   -1.106561
 ---------------------------------------------------------------------
                    Distance matrix (angstroms):
                    1          2          3          4          5
     1  O    0.000000
     2  C    1.218475   0.000000
     3  C    2.402506   1.521979   0.000000
     4  C    3.395746   2.535232   1.550656   0.000000
     5  C    4.220545   3.162401   2.606773   1.546126   0.000000
     6  C    4.814291   3.609384   2.964301   2.542997   1.545493
     7  C    4.125514   3.233255   3.391834   2.601911   1.546342
     8  C    3.213892   2.503339   3.343323   3.229056   2.677435
     9  C    2.400018   1.530422   2.597614   3.203821   3.063500
    10  C    3.618707   2.566703   2.978723   3.620304   3.177605
    11  C    4.139674   2.953874   2.513876   2.961316   2.587154
    12  C    3.508953   2.497862   1.543745   2.532361   3.007880
    13  H    2.492155   2.115497   1.095202   2.168539   3.528812
    14  H    4.255810   3.453249   2.143188   1.098871   2.161515
    15  H    3.298763   2.762178   2.184521   1.097827   2.184213
    16  H    5.176721   4.188368   3.493164   2.136297   1.099180
    17  H    5.536154   4.360494   3.383273   2.861839   2.163567
    18  H    5.550404   4.353055   3.959635   3.490462   2.175508
    19  H    5.103786   4.161930   4.303320   3.508255   2.137173
    20  H    4.423787   3.749968   3.903074   2.877073   2.149889
    21  H    4.070191   3.423945   4.338379   4.251046   3.457834
    22  H    2.929439   2.624287   3.647388   3.529711   3.324333
    23  H    2.486532   2.104845   3.452995   4.215642   4.137878
    24  H    4.504535   3.490197   3.944313   4.305382   3.488973
    25  H    3.807135   2.955650   3.462583   4.425171   4.198064
    26  H    5.081284   3.942354   3.466501   3.951666   3.507737
    27  H    3.522605   2.737165   2.181819   3.492121   4.037587
    28  H    4.396837   3.452316   2.173234   2.770934   3.323891
                    6          7          8          9         10
     6  C    0.000000
     7  C    2.581693   0.000000
     8  C    3.342047   1.554359   0.000000
     9  C    3.238822   2.666348   1.550595   0.000000
    10  C    2.580024   3.202998   2.605773   1.548462   0.000000
    11  C    1.539147   3.338694   3.406605   2.601380   1.541985
    12  C    2.510758   3.997646   3.996249   2.979938   2.513904
    13  H    3.957694   4.340396   4.259614   3.489643   3.962924
    14  H    2.865926   3.495672   4.294931   4.205610   4.391450
    15  H    3.493966   2.736111   3.299260   3.557323   4.339312
    16  H    2.137439   2.109492   3.536280   4.134787   4.208795
    17  H    1.099601   3.483539   4.388018   4.230317   3.501561
    18  H    1.098650   2.699563   3.492319   3.625199   2.823701
    19  H    2.718143   1.097634   2.173978   3.308396   3.499638
    20  H    3.488265   1.097649   2.162689   3.448858   4.228458
    21  H    3.870177   2.171063   1.097161   2.146268   2.877256
    22  H    4.258976   2.182392   1.096407   2.140204   3.511424
    23  H    4.280697   3.543853   2.129711   1.096083   2.167932
    24  H    2.792701   3.232885   2.711045   2.175705   1.098888
    25  H    3.495206   4.270095   3.488242   2.159170   1.098484
    26  H    2.147721   4.285331   4.366313   3.511456   2.145730
    27  H    3.474137   4.854053   4.558316   3.259717   2.744614
    28  H    2.743257   4.596079   4.877818   4.021935   3.477304
                   11         12         13         14         15
    11  C    0.000000
    12  C    1.538954   0.000000
    13  H    3.478882   2.190211   0.000000
    14  H    3.403844   2.778932   2.422487   0.000000
    15  H    3.944525   3.488360   2.502661   1.759171   0.000000
    16  H    3.480754   3.877313   4.273573   2.336504   2.558423
    17  H    2.148527   2.745205   4.202252   2.750137   3.872538
    18  H    2.177871   3.472585   4.996050   3.868020   4.321516
    19  H    3.655669   4.631708   5.308830   4.267920   3.751637
    20  H    4.333450   4.780345   4.686944   3.705407   2.601229
    21  H    3.921647   4.776629   5.287625   5.283476   4.362474
    22  H    4.308146   4.616216   4.364926   4.618079   3.261245
    23  H    3.493794   3.816765   4.182668   5.226759   4.445385
    24  H    2.181562   3.475236   4.978627   5.082139   4.986002
    25  H    2.150149   2.787612   4.276086   5.131048   5.147113
    26  H    1.098565   2.161881   4.318772   4.217654   4.981677
    27  H    2.181574   1.098319   2.520077   3.759656   4.334733
    28  H    2.181492   1.098615   2.519528   2.566584   3.780506
                   16         17         18         19         20
    16  H    0.000000
    17  H    2.344740   0.000000
    18  H    2.542971   1.759282   0.000000
    19  H    2.408758   3.596966   2.382222   0.000000
    20  H    2.325189   4.241024   3.650744   1.746550   0.000000
    21  H    4.222940   4.958162   3.719377   2.271490   2.771290
    22  H    4.086319   5.242143   4.510309   2.935638   2.274077
    23  H    5.191831   5.279254   4.566139   4.101366   4.223949
    24  H    4.396155   3.766135   2.589697   3.183493   4.298255
    25  H    5.238805   4.276243   3.758937   4.579461   5.264136
    26  H    4.257765   2.414002   2.487980   4.414932   5.312930
    27  H    4.955524   3.728768   4.324668   5.487326   5.657713
    28  H    3.947993   2.520353   3.752246   5.177156   5.303772
                   21         22         23         24         25
    21  H    0.000000
    22  H    1.748831   0.000000
    23  H    2.362340   2.409942   0.000000
    24  H    2.578903   3.732124   2.619193   0.000000
    25  H    3.676654   4.263147   2.340056   1.757428   0.000000
    26  H    4.721091   5.320536   4.260211   2.517588   2.381045
    27  H    5.261577   5.118376   3.835201   3.771946   2.569902
    28  H    5.681753   5.495184   4.903316   4.328756   3.759946
                   26         27         28
    26  H    0.000000
    27  H    2.497206   0.000000
    28  H    2.498114   1.764116   0.000000
 Stoichiometry    C11H16O
 Framework group  C1[X(C11H16O)]
 Deg. of freedom    78
 Full point group                 C1      NOp   1
 Largest Abelian subgroup         C1      NOp   1
 Largest concise Abelian subgroup C1      NOp   1
                         Standard orientation:                         
 ---------------------------------------------------------------------
 Center     Atomic      Atomic             Coordinates (Angstroms)
 Number     Number       Type             X           Y           Z
 ---------------------------------------------------------------------
      1          8           0       -2.733326   -0.107468   -0.501402
      2          6           0       -1.564446   -0.206070   -0.171738
      3          6           0       -0.590671   -1.115640   -0.907172
      4          6           0        0.420479   -0.292494   -1.746541
      5          6           0        1.415351    0.549019   -0.914320
      6          6           0        2.021480   -0.295657    0.229217
      7          6           0        0.863117    1.912809   -0.438622
      8          6           0       -0.441955    1.956013    0.404559
      9          6           0       -0.991924    0.624848    0.978908
     10          6           0        0.017613   -0.163547    1.848966
     11          6           0        0.979530   -1.070641    1.055484
     12          6           0        0.165888   -1.983558    0.121168
     13          1           0       -1.188461   -1.737112   -1.582366
     14          1           0        0.992715   -1.012566   -2.347839
     15          1           0       -0.116823    0.348125   -2.457975
     16          1           0        2.244689    0.807861   -1.587668
     17          1           0        2.718002   -1.026654   -0.206241
     18          1           0        2.621611    0.349810    0.885148
     19          1           0        1.668647    2.397582    0.127872
     20          1           0        0.714024    2.538777   -1.327874
     21          1           0       -0.290161    2.634500    1.253308
     22          1           0       -1.249765    2.399220   -0.189679
     23          1           0       -1.855321    0.898593    1.596166
     24          1           0        0.585807    0.538814    2.474586
     25          1           0       -0.551377   -0.799466    2.540721
     26          1           0        1.520497   -1.693535    1.780882
     27          1           0       -0.543162   -2.591665    0.698887
     28          1           0        0.828920   -2.683029   -0.406170
 ---------------------------------------------------------------------
 Rotational constants (GHZ):           1.2676592           1.0775201           0.9642735
 Standard basis: 6-31G(d) (6D, 7F)
 There are   212 symmetry adapted cartesian basis functions of A   symmetry.
 There are   212 symmetry adapted basis functions of A   symmetry.
   212 basis functions,   400 primitive gaussians,   212 cartesian basis functions
    45 alpha electrons       45 beta electrons
       nuclear repulsion energy       775.6608643621 Hartrees.
 NAtoms=   28 NActive=   28 NUniq=   28 SFac= 1.00D+00 NAtFMM=   60 NAOKFM=F Big=F
 Integral buffers will be    131072 words long.
 Raffenetti 2 integral format.
 Two-electron integral symmetry is turned on.
 One-electron integrals computed using PRISM.
 NBasis=   212 RedAO= T EigKep=  2.33D-03  NBF=   212
 NBsUse=   212 1.00D-06 EigRej= -1.00D+00 NBFU=   212
 ExpMin= 1.61D-01 ExpMax= 5.48D+03 ExpMxC= 8.25D+02 IAcc=3 IRadAn=         5 AccDes= 0.00D+00
 Harris functional with IExCor=  402 and IRadAn=       5 diagonalized for initial guess.
 HarFok:  IExCor=  402 AccDes= 0.00D+00 IRadAn=         5 IDoV= 1 UseB2=F ITyADJ=14
 ICtDFT=  3500011 ScaDFX=  1.000000  1.000000  1.000000  1.000000
 FoFCou: FMM=F IPFlag=           0 FMFlag=      100000 FMFlg1=           0
         NFxFlg=           0 DoJE=T BraDBF=F KetDBF=T FulRan=T
         wScrn=  0.000000 ICntrl=       500 IOpCl=  0 I1Cent=   200000004 NGrid=           0
         NMat0=    1 NMatS0=      1 NMatT0=    0 NMatD0=    1 NMtDS0=    0 NMtDT0=    0
 Petite list used in FoFCou.
 Requested convergence on RMS density matrix=1.00D-08 within 128 cycles.
 Requested convergence on MAX density matrix=1.00D-06.
 Requested convergence on             energy=1.00D-06.
 No special actions if energy rises.
 Integral accuracy reduced to 1.0D-05 until final iterations.
 Initial convergence to 1.0D-05 achieved.  Increase integral accuracy.
 SCF Done:  E(RB3LYP) =  -504.039046229     A.U. after   13 cycles
            NFock= 13  Conv=0.84D-08     -V/T= 2.0097
 DoSCS=F DFT=T ScalE2(SS,OS)=  1.000000  1.000000
 Range of M.O.s used for correlation:     1   212
 NBasis=   212 NAE=    45 NBE=    45 NFC=     0 NFV=     0
 NROrb=    212 NOA=    45 NOB=    45 NVA=   167 NVB=   167
 Symmetrizing basis deriv contribution to polar:
 IMax=3 JMax=2 DiffMx= 0.00D+00
 G2DrvN: will do    29 centers at a time, making    1 passes.
 Calling FoFCou, ICntrl=  3107 FMM=F I1Cent=   0 AccDes= 0.00D+00.
 End of G2Drv F.D. properties file   721 does not exist.
 End of G2Drv F.D. properties file   722 does not exist.
 End of G2Drv F.D. properties file   788 does not exist.
          IDoAtm=1111111111111111111111111111
          Differentiating once with respect to electric field.
                with respect to dipole field.
          Differentiating once with respect to nuclear coordinates.
 Keep R1 ints in memory in canonical form, NReq=263237177.
          There are    87 degrees of freedom in the 1st order CPHF.  IDoFFX=6 NUNeed=     3.
     84 vectors produced by pass  0 Test12= 8.64D-15 1.15D-09 XBig12= 8.12D+01 2.32D+00.
 AX will form    84 AO Fock derivatives at one time.
     84 vectors produced by pass  1 Test12= 8.64D-15 1.15D-09 XBig12= 1.11D+01 8.33D-01.
     84 vectors produced by pass  2 Test12= 8.64D-15 1.15D-09 XBig12= 9.46D-02 3.71D-02.
     84 vectors produced by pass  3 Test12= 8.64D-15 1.15D-09 XBig12= 4.10D-04 3.56D-03.
     84 vectors produced by pass  4 Test12= 8.64D-15 1.15D-09 XBig12= 5.07D-07 6.63D-05.
     42 vectors produced by pass  5 Test12= 8.64D-15 1.15D-09 XBig12= 3.30D-10 1.56D-06.
      4 vectors produced by pass  6 Test12= 8.64D-15 1.15D-09 XBig12= 2.45D-13 5.25D-08.
      1 vectors produced by pass  7 Test12= 8.64D-15 1.15D-09 XBig12= 2.26D-16 2.08D-09.
 InvSVY:  IOpt=1 It=  1 EMax= 1.42D-14
 Solved reduced A of dimension   467 with    87 vectors.
 Isotropic polarizability for W=    0.000000      105.40 Bohr**3.
 End of Minotr F.D. properties file   721 does not exist.
 End of Minotr F.D. properties file   722 does not exist.
 End of Minotr F.D. properties file   788 does not exist.

 **********************************************************************

            Population analysis using the SCF density.

 **********************************************************************

 Orbital symmetries:
       Occupied  (A) (A) (A) (A) (A) (A) (A) (A) (A) (A) (A) (A)
                 (A) (A) (A) (A) (A) (A) (A) (A) (A) (A) (A) (A)
                 (A) (A) (A) (A) (A) (A) (A) (A) (A) (A) (A) (A)
                 (A) (A) (A) (A) (A) (A) (A) (A) (A)
       Virtual   (A) (A) (A) (A) (A) (A) (A) (A) (A) (A) (A) (A)
                 (A) (A) (A) (A) (A) (A) (A) (A) (A) (A) (A) (A)
                 (A) (A) (A) (A) (A) (A) (A) (A) (A) (A) (A) (A)
                 (A) (A) (A) (A) (A) (A) (A) (A) (A) (A) (A) (A)
                 (A) (A) (A) (A) (A) (A) (A) (A) (A) (A) (A) (A)
                 (A) (A) (A) (A) (A) (A) (A) (A) (A) (A) (A) (A)
                 (A) (A) (A) (A) (A) (A) (A) (A) (A) (A) (A) (A)
                 (A) (A) (A) (A) (A) (A) (A) (A) (A) (A) (A) (A)
                 (A) (A) (A) (A) (A) (A) (A) (A) (A) (A) (A) (A)
                 (A) (A) (A) (A) (A) (A) (A) (A) (A) (A) (A) (A)
                 (A) (A) (A) (A) (A) (A) (A) (A) (A) (A) (A) (A)
                 (A) (A) (A) (A) (A) (A) (A) (A) (A) (A) (A) (A)
                 (A) (A) (A) (A) (A) (A) (A) (A) (A) (A) (A) (A)
                 (A) (A) (A) (A) (A) (A) (A) (A) (A) (A) (A)
 The electronic state is 1-A.
 Alpha  occ. eigenvalues --  -19.12745 -10.25956 -10.19248 -10.19121 -10.19052
 Alpha  occ. eigenvalues --  -10.18960 -10.18909 -10.18825 -10.18672 -10.18656
 Alpha  occ. eigenvalues --  -10.18426 -10.18215  -1.02629  -0.85872  -0.78757
 Alpha  occ. eigenvalues --   -0.78376  -0.76023  -0.69911  -0.66058  -0.63373
 Alpha  occ. eigenvalues --   -0.61659  -0.57567  -0.53032  -0.50060  -0.47984
 Alpha  occ. eigenvalues --   -0.46493  -0.45422  -0.44423  -0.44282  -0.42510
 Alpha  occ. eigenvalues --   -0.41786  -0.40748  -0.39971  -0.37955  -0.36860
 Alpha  occ. eigenvalues --   -0.36704  -0.35584  -0.34202  -0.32788  -0.32226
 Alpha  occ. eigenvalues --   -0.31776  -0.30150  -0.29752  -0.29397  -0.22736
 Alpha virt. eigenvalues --   -0.00860   0.05693   0.10060   0.10962   0.11304
 Alpha virt. eigenvalues --    0.12790   0.13228   0.13870   0.15584   0.16737
 Alpha virt. eigenvalues --    0.17136   0.17424   0.17911   0.18459   0.18798
 Alpha virt. eigenvalues --    0.19517   0.19893   0.20801   0.21660   0.22141
 Alpha virt. eigenvalues --    0.22470   0.23383   0.24919   0.25303   0.27252
 Alpha virt. eigenvalues --    0.28515   0.29849   0.31457   0.34240   0.36423
 Alpha virt. eigenvalues --    0.37830   0.48543   0.49502   0.52510   0.52897
 Alpha virt. eigenvalues --    0.53983   0.55719   0.57614   0.60663   0.60923
 Alpha virt. eigenvalues --    0.62413   0.62729   0.64744   0.65846   0.66521
 Alpha virt. eigenvalues --    0.68219   0.68615   0.68968   0.70376   0.72009
 Alpha virt. eigenvalues --    0.73849   0.74933   0.77430   0.77907   0.78514
 Alpha virt. eigenvalues --    0.80668   0.81571   0.82869   0.83694   0.84534
 Alpha virt. eigenvalues --    0.85894   0.87429   0.88062   0.88774   0.90103
 Alpha virt. eigenvalues --    0.90250   0.91104   0.92091   0.92756   0.93435
 Alpha virt. eigenvalues --    0.94621   0.96061   0.96840   0.97738   1.01153
 Alpha virt. eigenvalues --    1.02069   1.02844   1.05238   1.08423   1.09602
 Alpha virt. eigenvalues --    1.12780   1.16878   1.20517   1.22371   1.26182
 Alpha virt. eigenvalues --    1.31729   1.35673   1.39690   1.41053   1.46549
 Alpha virt. eigenvalues --    1.49656   1.50695   1.58343   1.59397   1.60753
 Alpha virt. eigenvalues --    1.64823   1.65399   1.68316   1.70678   1.73724
 Alpha virt. eigenvalues --    1.74234   1.76031   1.77049   1.78472   1.81378
 Alpha virt. eigenvalues --    1.83419   1.83882   1.86351   1.88576   1.89839
 Alpha virt. eigenvalues --    1.91748   1.93774   1.97029   1.97133   1.98084
 Alpha virt. eigenvalues --    2.01283   2.03434   2.05447   2.08135   2.09747
 Alpha virt. eigenvalues --    2.11216   2.14145   2.15745   2.16543   2.17872
 Alpha virt. eigenvalues --    2.19862   2.21186   2.28640   2.29630   2.32682
 Alpha virt. eigenvalues --    2.33423   2.34609   2.36675   2.38648   2.40249
 Alpha virt. eigenvalues --    2.42828   2.44465   2.46662   2.47829   2.49586
 Alpha virt. eigenvalues --    2.54721   2.58119   2.63951   2.65213   2.66898
 Alpha virt. eigenvalues --    2.69845   2.71188   2.72547   2.73874   2.76179
 Alpha virt. eigenvalues --    2.77186   2.80466   2.82615   3.01264   3.03582
 Alpha virt. eigenvalues --    4.06033   4.13046   4.19523   4.26915   4.27780
 Alpha virt. eigenvalues --    4.42959   4.52363   4.57780   4.65260   4.68682
 Alpha virt. eigenvalues --    4.77133   4.80976
          Condensed to atoms (all electrons):
               1          2          3          4          5          6
     1  O    8.042672   0.557196  -0.073708  -0.000207   0.000030  -0.000017
     2  C    0.557196   4.533609   0.336635  -0.035327  -0.005699  -0.001305
     3  C   -0.073708   0.336635   5.204553   0.351129  -0.031917  -0.015298
     4  C   -0.000207  -0.035327   0.351129   5.098894   0.367101  -0.051206
     5  C    0.000030  -0.005699  -0.031917   0.367101   4.919696   0.375449
     6  C   -0.000017  -0.001305  -0.015298  -0.051206   0.375449   5.086578
     7  C   -0.000009  -0.002291  -0.001415  -0.046989   0.382825  -0.048143
     8  C   -0.003392  -0.035174   0.001922  -0.002209  -0.040511  -0.001084
     9  C   -0.077618   0.329659  -0.118527   0.001572   0.005166  -0.002128
    10  C    0.003131  -0.024913  -0.006330  -0.001737  -0.004911  -0.050663
    11  C    0.000080  -0.018368  -0.024956  -0.016423  -0.032706   0.380405
    12  C    0.001722  -0.028469   0.326803  -0.040872  -0.018624  -0.048923
    13  H    0.004600  -0.032665   0.344492  -0.030558   0.004469   0.000260
    14  H   -0.000085   0.004344  -0.034318   0.361236  -0.032730  -0.001240
    15  H    0.001441  -0.001604  -0.040044   0.365654  -0.035834   0.004929
    16  H   -0.000001  -0.000007   0.004769  -0.040852   0.367575  -0.041528
    17  H    0.000000   0.000140  -0.001332  -0.001004  -0.034409   0.359712
    18  H    0.000000   0.000021   0.000062   0.005127  -0.036855   0.363338
    19  H   -0.000002  -0.000235  -0.000063   0.005557  -0.036081  -0.007785
    20  H   -0.000009   0.000397  -0.000122  -0.004369  -0.032774   0.005524
    21  H   -0.000062   0.004482  -0.000301  -0.000165   0.003400   0.000311
    22  H    0.004854  -0.002668   0.000644   0.000808   0.000862  -0.000223
    23  H    0.004387  -0.034132   0.006870  -0.000017  -0.000236  -0.000021
    24  H   -0.000079   0.002977  -0.000318   0.000029  -0.000358  -0.004657
    25  H    0.000112  -0.000435  -0.000174   0.000020  -0.000080   0.005476
    26  H    0.000001   0.000361   0.004600   0.000329   0.004964  -0.040128
    27  H    0.000457  -0.001497  -0.039323   0.004981   0.000212   0.005187
    28  H   -0.000082   0.003672  -0.030373  -0.005755  -0.000822  -0.004015
               7          8          9         10         11         12
     1  O   -0.000009  -0.003392  -0.077618   0.003131   0.000080   0.001722
     2  C   -0.002291  -0.035174   0.329659  -0.024913  -0.018368  -0.028469
     3  C   -0.001415   0.001922  -0.118527  -0.006330  -0.024956   0.326803
     4  C   -0.046989  -0.002209   0.001572  -0.001737  -0.016423  -0.040872
     5  C    0.382825  -0.040511   0.005166  -0.004911  -0.032706  -0.018624
     6  C   -0.048143  -0.001084  -0.002128  -0.050663   0.380405  -0.048923
     7  C    5.067889   0.338270  -0.044537  -0.000428  -0.002137   0.000209
     8  C    0.338270   5.069602   0.364298  -0.040673   0.000212  -0.000088
     9  C   -0.044537   0.364298   5.211653   0.312550  -0.031690  -0.008203
    10  C   -0.000428  -0.040673   0.312550   5.121298   0.376776  -0.052350
    11  C   -0.002137   0.000212  -0.031690   0.376776   4.916863   0.370955
    12  C    0.000209  -0.000088  -0.008203  -0.052350   0.370955   5.124327
    13  H   -0.000155  -0.000136   0.007060  -0.000044   0.004210  -0.033758
    14  H    0.005468  -0.000115  -0.000371   0.000156  -0.001046  -0.005430
    15  H   -0.005876  -0.000159   0.000376  -0.000109   0.000086   0.005406
    16  H   -0.040635   0.005828  -0.000167  -0.000036   0.004976   0.000224
    17  H    0.005637  -0.000166  -0.000195   0.005735  -0.036979  -0.004271
    18  H   -0.007391   0.000003  -0.000354  -0.004799  -0.035106   0.005338
    19  H    0.367245  -0.034886   0.001207   0.001115  -0.000380   0.000007
    20  H    0.366631  -0.035203   0.003367  -0.000213  -0.000072  -0.000013
    21  H   -0.033780   0.367080  -0.031789  -0.005942  -0.000225   0.000015
    22  H   -0.032560   0.367662  -0.043752   0.005987  -0.000133  -0.000017
    23  H    0.005523  -0.029442   0.344310  -0.035935   0.003903  -0.000056
    24  H    0.000177  -0.008342  -0.031425   0.357385  -0.034549   0.005688
    25  H   -0.000172   0.005089  -0.034987   0.363972  -0.033735  -0.004271
    26  H   -0.000150  -0.000120   0.004847  -0.039250   0.367711  -0.039398
    27  H   -0.000037   0.000087   0.000304  -0.004049  -0.036094   0.367617
    28  H    0.000118  -0.000043  -0.000114   0.005402  -0.033644   0.359688
              13         14         15         16         17         18
     1  O    0.004600  -0.000085   0.001441  -0.000001   0.000000   0.000000
     2  C   -0.032665   0.004344  -0.001604  -0.000007   0.000140   0.000021
     3  C    0.344492  -0.034318  -0.040044   0.004769  -0.001332   0.000062
     4  C   -0.030558   0.361236   0.365654  -0.040852  -0.001004   0.005127
     5  C    0.004469  -0.032730  -0.035834   0.367575  -0.034409  -0.036855
     6  C    0.000260  -0.001240   0.004929  -0.041528   0.359712   0.363338
     7  C   -0.000155   0.005468  -0.005876  -0.040635   0.005637  -0.007391
     8  C   -0.000136  -0.000115  -0.000159   0.005828  -0.000166   0.000003
     9  C    0.007060  -0.000371   0.000376  -0.000167  -0.000195  -0.000354
    10  C   -0.000044   0.000156  -0.000109  -0.000036   0.005735  -0.004799
    11  C    0.004210  -0.001046   0.000086   0.004976  -0.036979  -0.035106
    12  C   -0.033758  -0.005430   0.005406   0.000224  -0.004271   0.005338
    13  H    0.603445  -0.005902  -0.001859  -0.000155  -0.000064   0.000014
    14  H   -0.005902   0.604841  -0.034826  -0.007458   0.003163  -0.000133
    15  H   -0.001859  -0.034826   0.595509  -0.001356  -0.000139  -0.000152
    16  H   -0.000155  -0.007458  -0.001356   0.642029  -0.007501  -0.001413
    17  H   -0.000064   0.003163  -0.000139  -0.007501   0.618785  -0.035414
    18  H    0.000014  -0.000133  -0.000152  -0.001413  -0.035414   0.612078
    19  H    0.000004  -0.000204   0.000022  -0.002828   0.000033   0.006914
    20  H    0.000001  -0.000079   0.004193  -0.006147  -0.000233   0.000074
    21  H    0.000007  -0.000000   0.000015  -0.000160   0.000001  -0.000076
    22  H   -0.000035   0.000012  -0.000137  -0.000175   0.000004   0.000004
    23  H   -0.000230   0.000008  -0.000042   0.000001   0.000006  -0.000017
    24  H    0.000022  -0.000003   0.000001  -0.000039  -0.000017   0.004414
    25  H   -0.000034  -0.000001  -0.000001   0.000006  -0.000217  -0.000026
    26  H   -0.000148  -0.000069   0.000016  -0.000182  -0.004700  -0.003115
    27  H   -0.002382  -0.000063  -0.000159   0.000016  -0.000043  -0.000172
    28  H   -0.003906   0.005875  -0.000091  -0.000145   0.005449  -0.000049
              19         20         21         22         23         24
     1  O   -0.000002  -0.000009  -0.000062   0.004854   0.004387  -0.000079
     2  C   -0.000235   0.000397   0.004482  -0.002668  -0.034132   0.002977
     3  C   -0.000063  -0.000122  -0.000301   0.000644   0.006870  -0.000318
     4  C    0.005557  -0.004369  -0.000165   0.000808  -0.000017   0.000029
     5  C   -0.036081  -0.032774   0.003400   0.000862  -0.000236  -0.000358
     6  C   -0.007785   0.005524   0.000311  -0.000223  -0.000021  -0.004657
     7  C    0.367245   0.366631  -0.033780  -0.032560   0.005523   0.000177
     8  C   -0.034886  -0.035203   0.367080   0.367662  -0.029442  -0.008342
     9  C    0.001207   0.003367  -0.031789  -0.043752   0.344310  -0.031425
    10  C    0.001115  -0.000213  -0.005942   0.005987  -0.035935   0.357385
    11  C   -0.000380  -0.000072  -0.000225  -0.000133   0.003903  -0.034549
    12  C    0.000007  -0.000013   0.000015  -0.000017  -0.000056   0.005688
    13  H    0.000004   0.000001   0.000007  -0.000035  -0.000230   0.000022
    14  H   -0.000204  -0.000079  -0.000000   0.000012   0.000008  -0.000003
    15  H    0.000022   0.004193   0.000015  -0.000137  -0.000042   0.000001
    16  H   -0.002828  -0.006147  -0.000160  -0.000175   0.000001  -0.000039
    17  H    0.000033  -0.000233   0.000001   0.000004   0.000006  -0.000017
    18  H    0.006914   0.000074  -0.000076   0.000004  -0.000017   0.004414
    19  H    0.610248  -0.036807  -0.011365   0.004539  -0.000156   0.000031
    20  H   -0.036807   0.605972   0.003553  -0.011024  -0.000155  -0.000005
    21  H   -0.011365   0.003553   0.600248  -0.035634  -0.007074   0.005047
    22  H    0.004539  -0.011024  -0.035634   0.587006  -0.001349  -0.000027
    23  H   -0.000156  -0.000155  -0.007074  -0.001349   0.603813  -0.000979
    24  H    0.000031  -0.000005   0.005047  -0.000027  -0.000979   0.612007
    25  H   -0.000006   0.000002  -0.000040  -0.000208  -0.006577  -0.036111
    26  H   -0.000007   0.000005  -0.000002   0.000004  -0.000178  -0.002163
    27  H   -0.000000  -0.000000   0.000000  -0.000004  -0.000146  -0.000013
    28  H   -0.000001  -0.000001  -0.000000   0.000001   0.000025  -0.000198
              25         26         27         28
     1  O    0.000112   0.000001   0.000457  -0.000082
     2  C   -0.000435   0.000361  -0.001497   0.003672
     3  C   -0.000174   0.004600  -0.039323  -0.030373
     4  C    0.000020   0.000329   0.004981  -0.005755
     5  C   -0.000080   0.004964   0.000212  -0.000822
     6  C    0.005476  -0.040128   0.005187  -0.004015
     7  C   -0.000172  -0.000150  -0.000037   0.000118
     8  C    0.005089  -0.000120   0.000087  -0.000043
     9  C   -0.034987   0.004847   0.000304  -0.000114
    10  C    0.363972  -0.039250  -0.004049   0.005402
    11  C   -0.033735   0.367711  -0.036094  -0.033644
    12  C   -0.004271  -0.039398   0.367617   0.359688
    13  H   -0.000034  -0.000148  -0.002382  -0.003906
    14  H   -0.000001  -0.000069  -0.000063   0.005875
    15  H   -0.000001   0.000016  -0.000159  -0.000091
    16  H    0.000006  -0.000182   0.000016  -0.000145
    17  H   -0.000217  -0.004700  -0.000043   0.005449
    18  H   -0.000026  -0.003115  -0.000172  -0.000049
    19  H   -0.000006  -0.000007  -0.000000  -0.000001
    20  H    0.000002   0.000005  -0.000000  -0.000001
    21  H   -0.000040  -0.000002   0.000000  -0.000000
    22  H   -0.000208   0.000004  -0.000004   0.000001
    23  H   -0.006577  -0.000178  -0.000146   0.000025
    24  H   -0.036111  -0.002163  -0.000013  -0.000198
    25  H    0.604591  -0.005614   0.004567  -0.000087
    26  H   -0.005614   0.635812  -0.003626  -0.003418
    27  H    0.004567  -0.003626   0.600185  -0.035503
    28  H   -0.000087  -0.003418  -0.035503   0.603851
 Mulliken charges:
               1
     1  O   -0.465412
     2  C    0.451298
     3  C   -0.163963
     4  C   -0.284747
     5  C   -0.087202
     6  C   -0.268805
     7  C   -0.273286
     8  C   -0.288313
     9  C   -0.160513
    10  C   -0.281123
    11  C   -0.087933
    12  C   -0.283255
    13  H    0.143445
    14  H    0.138968
    15  H    0.144740
    16  H    0.125359
    17  H    0.128020
    18  H    0.127686
    19  H    0.133882
    20  H    0.137509
    21  H    0.142457
    22  H    0.155559
    23  H    0.147894
    24  H    0.131508
    25  H    0.138941
    26  H    0.123618
    27  H    0.139499
    28  H    0.134166
 Sum of Mulliken charges =  -0.00000
 Mulliken charges with hydrogens summed into heavy atoms:
               1
     1  O   -0.465412
     2  C    0.451298
     3  C   -0.020517
     4  C   -0.001038
     5  C    0.038157
     6  C   -0.013099
     7  C   -0.001895
     8  C    0.009704
     9  C   -0.012619
    10  C   -0.010674
    11  C    0.035684
    12  C   -0.009590
 APT charges:
               1
     1  O   -0.639631
     2  C    0.688605
     3  C   -0.052148
     4  C    0.117038
     5  C    0.111783
     6  C    0.100815
     7  C    0.103047
     8  C    0.122747
     9  C   -0.043648
    10  C    0.117097
    11  C    0.099641
    12  C    0.112693
    13  H   -0.048731
    14  H   -0.050384
    15  H   -0.039658
    16  H   -0.079223
    17  H   -0.058505
    18  H   -0.052795
    19  H   -0.051137
    20  H   -0.053035
    21  H   -0.049922
    22  H   -0.033078
    23  H   -0.050883
    24  H   -0.049577
    25  H   -0.053071
    26  H   -0.075128
    27  H   -0.044337
    28  H   -0.048576
 Sum of APT charges =   0.00000
 APT charges with hydrogens summed into heavy atoms:
               1
     1  O   -0.639631
     2  C    0.688605
     3  C   -0.100879
     4  C    0.026996
     5  C    0.032560
     6  C   -0.010484
     7  C   -0.001126
     8  C    0.039747
     9  C   -0.094532
    10  C    0.014450
    11  C    0.024513
    12  C    0.019780
 Electronic spatial extent (au):  <R**2>=           1629.0056
 Charge=             -0.0000 electrons
 Dipole moment (field-independent basis, Debye):
    X=              3.0536    Y=             -0.0221    Z=              0.6612  Tot=              3.1244
 Quadrupole moment (field-independent basis, Debye-Ang):
   XX=            -83.2234   YY=            -70.6892   ZZ=            -71.2845
   XY=             -0.2879   XZ=             -2.8060   YZ=              0.1571
 Traceless Quadrupole moment (field-independent basis, Debye-Ang):
   XX=             -8.1577   YY=              4.3765   ZZ=              3.7812
   XY=             -0.2879   XZ=             -2.8060   YZ=              0.1571
 Octapole moment (field-independent basis, Debye-Ang**2):
  XXX=             25.1289  YYY=             -0.8106  ZZZ=             -2.2360  XYY=             -4.5103
  XXY=              0.4916  XXZ=              6.9291  XZZ=             -2.9111  YZZ=              0.2430
  YYZ=             -0.7754  XYZ=              1.3162
 Hexadecapole moment (field-independent basis, Debye-Ang**3):
 XXXX=           -939.3919 YYYY=           -746.9259 ZZZZ=           -584.2883 XXXY=             -1.6459
 XXXZ=            -19.1647 YYYX=              0.0214 YYYZ=              2.2525 ZZZX=              3.0330
 ZZZY=              0.2129 XXYY=           -257.7824 XXZZ=           -235.0452 YYZZ=           -214.6401
 XXYZ=              0.1985 YYXZ=              2.2267 ZZXY=              0.0823
 N-N= 7.756608643621D+02 E-N=-2.720289609074D+03  KE= 4.992046412821D+02
  Exact polarizability: 109.492  -0.874 105.149   0.338   1.534 101.563
 Approx polarizability: 165.935  -1.459 148.139   4.365   2.731 148.392
 Calling FoFJK, ICntrl=    100127 FMM=F ISym2X=0 I1Cent= 0 IOpClX= 0 NMat=1 NMatS=1 NMatT=0.
 Full mass-weighted force constant matrix:
 Low frequencies ---  -20.0284  -13.4301  -11.0465   -0.0008   -0.0006   -0.0004
 Low frequencies ---   51.9105  121.4049  246.2828
 Diagonal vibrational polarizability:
        5.2221984      13.7239935       9.1363934
 Harmonic frequencies (cm**-1), IR intensities (KM/Mole), Raman scattering
 activities (A**4/AMU), depolarization ratios for plane and unpolarized
 incident light, reduced masses (AMU), force constants (mDyne/A),
 and normal coordinates:
                      1                      2                      3
                      A                      A                      A
 Frequencies --     51.8391               121.3809               246.2799
 Red. masses --      2.6999                 3.1061                 2.3466
 Frc consts  --      0.0043                 0.0270                 0.0839
 IR Inten    --      1.5833                 2.0954                 0.0595
  Atom  AN      X      Y      Z        X      Y      Z        X      Y      Z
     1   8     0.07   0.16  -0.12     0.07   0.18  -0.16     0.00   0.00   0.05
     2   6     0.03   0.02  -0.02     0.00  -0.02   0.01     0.02   0.03  -0.02
     3   6     0.00  -0.05   0.03    -0.01  -0.07   0.07     0.02   0.07  -0.08
     4   6    -0.00  -0.08  -0.01    -0.08  -0.01   0.03     0.17  -0.06  -0.03
     5   6    -0.06  -0.01  -0.03    -0.05   0.00  -0.00     0.03   0.01   0.03
     6   6    -0.03   0.07   0.02     0.03  -0.04  -0.09     0.02  -0.05  -0.01
     7   6    -0.13  -0.00  -0.13    -0.02  -0.02   0.14    -0.12  -0.01  -0.01
     8   6     0.04  -0.01   0.15    -0.14  -0.05  -0.06    -0.10  -0.01   0.03
     9   6     0.01  -0.04   0.04    -0.01  -0.06   0.04    -0.00  -0.03   0.04
    10   6    -0.01  -0.07   0.04     0.10   0.05   0.00     0.11   0.06   0.00
    11   6     0.02  -0.00   0.01     0.07   0.01  -0.00    -0.01  -0.03  -0.03
    12   6     0.04  -0.02   0.03     0.03  -0.02   0.07    -0.13   0.03   0.00
    13   1    -0.02  -0.06   0.06    -0.00  -0.09   0.08     0.01   0.11  -0.10
    14   1     0.03  -0.11   0.05    -0.08   0.04  -0.02     0.26  -0.16   0.18
    15   1    -0.01  -0.14  -0.05    -0.15  -0.01   0.08     0.30  -0.16  -0.22
    16   1    -0.06   0.00  -0.03    -0.10   0.05  -0.04     0.05   0.11   0.10
    17   1     0.04   0.12   0.05    -0.05  -0.07  -0.17    -0.02  -0.05  -0.08
    18   1    -0.09   0.13   0.02     0.13  -0.08  -0.14     0.05  -0.12   0.02
    19   1    -0.07   0.19  -0.37    -0.06  -0.19   0.34    -0.15   0.10  -0.06
    20   1    -0.38  -0.18  -0.21     0.16   0.15   0.23    -0.18  -0.10  -0.06
    21   1     0.27  -0.17   0.24    -0.34   0.11  -0.15    -0.09   0.01   0.01
    22   1    -0.03   0.17   0.37    -0.13  -0.26  -0.24    -0.13  -0.05   0.04
    23   1    -0.00  -0.06   0.04    -0.01  -0.10   0.07    -0.01  -0.11   0.07
    24   1    -0.05  -0.09   0.09     0.14   0.11  -0.10     0.22   0.14  -0.17
    25   1    -0.02  -0.12  -0.01     0.19   0.08   0.11     0.21   0.16   0.17
    26   1     0.07   0.01  -0.00     0.10   0.04   0.00    -0.04  -0.08  -0.06
    27   1     0.06  -0.04   0.04     0.05  -0.00   0.12    -0.25   0.19   0.04
    28   1     0.04  -0.01   0.02     0.01  -0.05   0.07    -0.24  -0.12   0.08
                      4                      5                      6
                      A                      A                      A
 Frequencies --    255.8778               329.5117               344.9850
 Red. masses --      2.5661                 3.5034                 2.5226
 Frc consts  --      0.0990                 0.2241                 0.1769
 IR Inten    --      0.9300                 0.1396                 0.5107
  Atom  AN      X      Y      Z        X      Y      Z        X      Y      Z
     1   8    -0.00  -0.13  -0.09    -0.10   0.04   0.01    -0.09   0.01  -0.07
     2   6     0.00  -0.02  -0.07    -0.09   0.04   0.00    -0.11  -0.02   0.00
     3   6     0.02  -0.03   0.01    -0.02   0.09  -0.01    -0.03   0.05   0.01
     4   6    -0.03   0.00  -0.01     0.08  -0.10  -0.08    -0.05   0.12   0.06
     5   6    -0.03   0.01  -0.02     0.07  -0.05  -0.12     0.10  -0.07   0.06
     6   6     0.01  -0.07  -0.11     0.09   0.07  -0.07     0.11  -0.06   0.07
     7   6     0.03   0.01   0.09     0.05  -0.13   0.06    -0.02  -0.08  -0.07
     8   6     0.07   0.06   0.18     0.02  -0.13   0.04     0.00  -0.08   0.00
     9   6    -0.04   0.03  -0.05    -0.10  -0.06   0.07    -0.06  -0.06   0.00
    10   6     0.01   0.10  -0.03    -0.09  -0.04   0.05     0.07   0.08  -0.02
    11   6     0.00   0.06   0.00     0.06   0.16  -0.01     0.04   0.01   0.02
    12   6    -0.04   0.01   0.10     0.04   0.16   0.02     0.04   0.06  -0.03
    13   1     0.04  -0.07   0.02    -0.00   0.01   0.04     0.03   0.03  -0.03
    14   1    -0.01   0.04  -0.04     0.08  -0.25   0.11    -0.21   0.17  -0.16
    15   1    -0.09  -0.02   0.01     0.20  -0.17  -0.24    -0.07   0.32   0.25
    16   1    -0.06   0.05  -0.05     0.03   0.01  -0.14     0.08  -0.08   0.04
    17   1    -0.16  -0.16  -0.21     0.07  -0.01   0.04     0.10  -0.07   0.09
    18   1     0.18  -0.16  -0.19     0.11   0.15  -0.15     0.11  -0.05   0.06
    19   1     0.09  -0.05   0.06     0.05  -0.27   0.18    -0.06   0.17  -0.23
    20   1     0.00   0.05   0.12     0.10   0.05   0.18    -0.18  -0.30  -0.20
    21   1     0.24  -0.17   0.33     0.03  -0.12   0.02     0.11  -0.17   0.05
    22   1     0.12   0.34   0.32     0.06  -0.09   0.01     0.02   0.04   0.08
    23   1    -0.07  -0.02  -0.06    -0.09  -0.01   0.06    -0.02  -0.02   0.05
    24   1     0.01   0.17  -0.12    -0.27  -0.04   0.22     0.11   0.21  -0.21
    25   1     0.07   0.13   0.05    -0.05  -0.25  -0.11     0.20   0.16   0.16
    26   1     0.01   0.10   0.04     0.07   0.15  -0.02    -0.04  -0.04   0.05
    27   1    -0.11   0.13   0.15     0.07   0.16   0.08     0.09  -0.02  -0.05
    28   1    -0.09  -0.10   0.18     0.01   0.15   0.01     0.06   0.12  -0.09
                      7                      8                      9
                      A                      A                      A
 Frequencies --    350.7197               383.3659               401.7648
 Red. masses --      3.6650                 2.4758                 1.9600
 Frc consts  --      0.2656                 0.2144                 0.1864
 IR Inten    --      0.2598                 0.3571                 0.9173
  Atom  AN      X      Y      Z        X      Y      Z        X      Y      Z
     1   8     0.14  -0.05  -0.02     0.05   0.01   0.04    -0.01   0.00  -0.00
     2   6     0.12  -0.02   0.03     0.05   0.03   0.02    -0.00  -0.05  -0.04
     3   6     0.10   0.07  -0.07     0.01  -0.00  -0.04    -0.04  -0.04  -0.07
     4   6    -0.05   0.14  -0.15    -0.00  -0.07  -0.08    -0.04  -0.03  -0.05
     5   6     0.01  -0.02  -0.09    -0.05  -0.10   0.00    -0.04  -0.01  -0.03
     6   6    -0.12  -0.04  -0.03    -0.04  -0.06   0.03    -0.06   0.14   0.09
     7   6    -0.01  -0.05  -0.07    -0.05  -0.09   0.06     0.07  -0.01   0.04
     8   6     0.01  -0.10  -0.03    -0.04   0.06   0.06     0.06  -0.06   0.03
     9   6     0.02  -0.05   0.11    -0.04   0.08   0.03     0.04  -0.07  -0.02
    10   6    -0.04   0.00   0.20    -0.01   0.12   0.01     0.09   0.06   0.02
    11   6    -0.09   0.04   0.11    -0.07   0.02   0.03    -0.03   0.00  -0.01
    12   6    -0.05   0.08   0.05     0.14  -0.00  -0.14    -0.06   0.01  -0.01
    13   1     0.05   0.07  -0.02    -0.07   0.00   0.03    -0.03  -0.06  -0.06
    14   1    -0.17   0.26  -0.41     0.01  -0.10  -0.04    -0.03  -0.01  -0.06
    15   1    -0.19   0.28   0.08     0.05  -0.06  -0.11    -0.04  -0.02  -0.04
    16   1     0.09  -0.04  -0.00    -0.03  -0.04   0.05    -0.02  -0.06  -0.03
    17   1    -0.22  -0.16  -0.01    -0.07  -0.10   0.06     0.22   0.29   0.29
    18   1     0.00  -0.06  -0.12    -0.02  -0.03  -0.03    -0.36   0.33   0.18
    19   1    -0.01  -0.03  -0.09    -0.01  -0.17   0.07     0.09  -0.16   0.13
    20   1    -0.06  -0.05  -0.06     0.02  -0.05   0.07     0.13   0.13   0.13
    21   1    -0.01   0.01  -0.11     0.03   0.05   0.06     0.06  -0.11   0.07
    22   1    -0.03  -0.21  -0.06    -0.01   0.11   0.06     0.08  -0.01   0.04
    23   1    -0.04  -0.01   0.00    -0.09   0.01  -0.00     0.03  -0.06  -0.04
    24   1    -0.04   0.01   0.19     0.10   0.16  -0.12     0.20   0.17  -0.21
    25   1    -0.04  -0.00   0.19     0.03   0.23   0.14     0.19   0.20   0.23
    26   1    -0.03   0.01   0.04    -0.12   0.02   0.07    -0.00  -0.03  -0.06
    27   1    -0.21   0.17  -0.04     0.28  -0.33  -0.32    -0.08   0.06   0.02
    28   1    -0.03  -0.01   0.20     0.39   0.30  -0.24    -0.07  -0.04   0.04
                     10                     11                     12
                      A                      A                      A
 Frequencies --    465.6386               497.1455               549.7496
 Red. masses --      4.3516                 2.4858                 4.5842
 Frc consts  --      0.5559                 0.3620                 0.8163
 IR Inten    --     11.2522                 0.2755                 0.2957
  Atom  AN      X      Y      Z        X      Y      Z        X      Y      Z
     1   8    -0.06   0.21   0.24    -0.05   0.02  -0.04    -0.10  -0.06  -0.07
     2   6     0.02  -0.09  -0.13    -0.08  -0.08   0.05    -0.06   0.04  -0.15
     3   6     0.05  -0.15  -0.13    -0.02  -0.01   0.03    -0.08   0.06  -0.08
     4   6     0.03   0.04  -0.05     0.06  -0.00   0.06    -0.07  -0.04  -0.06
     5   6    -0.00   0.03   0.05     0.03   0.12  -0.03    -0.18  -0.04   0.10
     6   6     0.00  -0.04  -0.00    -0.11  -0.01  -0.07    -0.02  -0.06   0.06
     7   6    -0.03   0.03   0.02     0.09   0.12  -0.05    -0.01   0.07  -0.00
     8   6    -0.01  -0.06   0.01     0.09  -0.08  -0.03     0.03   0.08  -0.03
     9   6     0.04  -0.12  -0.19    -0.01  -0.07   0.04     0.18  -0.03  -0.06
    10   6    -0.07   0.05  -0.03     0.00   0.03   0.10     0.13  -0.09   0.15
    11   6     0.00   0.06   0.08    -0.09   0.01   0.02     0.13  -0.05   0.18
    12   6     0.06  -0.00   0.07     0.03  -0.04  -0.04     0.05   0.20   0.00
    13   1     0.20  -0.27  -0.15     0.05   0.01  -0.05    -0.01  -0.14   0.03
    14   1     0.08   0.18  -0.17     0.18  -0.11   0.31     0.07  -0.11   0.15
    15   1    -0.03   0.10   0.05     0.13  -0.19  -0.15     0.10  -0.11  -0.24
    16   1     0.02   0.04   0.08     0.06   0.01  -0.03    -0.14  -0.09   0.13
    17   1    -0.17  -0.15  -0.10    -0.31  -0.12  -0.20    -0.18  -0.10  -0.14
    18   1     0.19  -0.13  -0.09     0.11  -0.19  -0.08     0.20  -0.08  -0.12
    19   1    -0.05   0.09  -0.00     0.07   0.15  -0.05     0.04  -0.00  -0.02
    20   1    -0.06  -0.02  -0.01     0.01   0.14  -0.03     0.07   0.04  -0.04
    21   1    -0.01  -0.23   0.14     0.04  -0.11  -0.00    -0.08   0.15  -0.06
    22   1    -0.01   0.05   0.09     0.08  -0.09  -0.01    -0.03  -0.07  -0.06
    23   1    -0.06  -0.18  -0.31     0.01   0.08   0.01     0.21  -0.05  -0.01
    24   1    -0.18   0.13  -0.02     0.11   0.13  -0.11     0.00  -0.09   0.26
    25   1    -0.10   0.05  -0.06     0.11   0.14   0.29    -0.02  -0.10   0.02
    26   1    -0.01   0.09   0.12     0.00   0.03  -0.03     0.11  -0.24   0.04
    27   1     0.03   0.03   0.07     0.13  -0.27  -0.15     0.09   0.08  -0.08
    28   1     0.13  -0.04   0.21     0.20   0.17  -0.11     0.07   0.29  -0.09
                     13                     14                     15
                      A                      A                      A
 Frequencies --    606.2713               663.9090               727.7127
 Red. masses --      4.5632                 4.2820                 3.1731
 Frc consts  --      0.9882                 1.1120                 0.9901
 IR Inten    --      0.2938                 1.1603                 0.3854
  Atom  AN      X      Y      Z        X      Y      Z        X      Y      Z
     1   8     0.17  -0.03   0.01     0.09  -0.02   0.04     0.06  -0.01   0.02
     2   6     0.14  -0.11   0.02     0.10   0.11  -0.01     0.06   0.02   0.00
     3   6    -0.18  -0.08  -0.08     0.04   0.21   0.16    -0.07   0.05   0.06
     4   6    -0.09  -0.06   0.19    -0.03   0.04   0.11    -0.08  -0.07  -0.08
     5   6    -0.02  -0.01   0.12    -0.12   0.01   0.02     0.11   0.03  -0.14
     6   6     0.12   0.03  -0.00    -0.15   0.00  -0.01     0.16  -0.07   0.06
     7   6     0.01  -0.00   0.02    -0.03  -0.08   0.00     0.03   0.20  -0.04
     8   6     0.03  -0.06  -0.00     0.04  -0.19  -0.05    -0.09   0.01   0.02
     9   6     0.07  -0.04  -0.02     0.02  -0.09  -0.16    -0.06  -0.09  -0.06
    10   6    -0.04   0.07   0.04    -0.02  -0.02  -0.19    -0.05  -0.00   0.02
    11   6    -0.07   0.19  -0.12     0.01  -0.05   0.04     0.01  -0.09   0.10
    12   6    -0.12   0.15  -0.14     0.03   0.09   0.04    -0.04   0.02  -0.01
    13   1    -0.23   0.01  -0.12     0.01   0.21   0.19    -0.17   0.04   0.16
    14   1    -0.03  -0.08   0.27     0.01  -0.11   0.34    -0.20  -0.19  -0.04
    15   1     0.04  -0.04   0.11     0.03  -0.11  -0.08    -0.11  -0.13  -0.11
    16   1    -0.17  -0.06  -0.08    -0.08  -0.04   0.05     0.08  -0.04  -0.20
    17   1    -0.08  -0.10  -0.09    -0.14   0.05  -0.08     0.21  -0.07   0.15
    18   1     0.29  -0.10  -0.03    -0.13   0.01  -0.04     0.10  -0.04   0.09
    19   1     0.01   0.16  -0.11    -0.05  -0.16   0.08    -0.04   0.14   0.11
    20   1    -0.10  -0.17  -0.07     0.01   0.01   0.06     0.05   0.34   0.06
    21   1    -0.07  -0.02  -0.01     0.11  -0.37   0.07    -0.09  -0.17   0.16
    22   1     0.03  -0.14  -0.05     0.04  -0.03   0.07    -0.13   0.10   0.14
    23   1    -0.04  -0.05  -0.17     0.06  -0.06  -0.13    -0.12  -0.14  -0.12
    24   1    -0.14  -0.00   0.21    -0.05   0.11  -0.31    -0.08   0.13  -0.10
    25   1    -0.06  -0.10  -0.12    -0.01   0.10  -0.09    -0.04   0.11   0.14
    26   1    -0.19   0.01  -0.19     0.04   0.03   0.09    -0.11  -0.17   0.12
    27   1     0.01   0.10  -0.03     0.03   0.01  -0.05    -0.01  -0.09  -0.09
    28   1    -0.05   0.19  -0.11    -0.03   0.19  -0.15    -0.06   0.12  -0.16
                     16                     17                     18
                      A                      A                      A
 Frequencies --    758.1920               776.5746               782.6697
 Red. masses --      3.5196                 2.0489                 2.2443
 Frc consts  --      1.1921                 0.7280                 0.8100
 IR Inten    --      0.9892                 0.2029                 0.7562
  Atom  AN      X      Y      Z        X      Y      Z        X      Y      Z
     1   8     0.05   0.04  -0.03     0.02   0.02   0.00    -0.02  -0.00  -0.02
     2   6    -0.06  -0.21   0.24    -0.01  -0.08   0.05    -0.02  -0.05  -0.01
     3   6     0.02   0.00  -0.02     0.02   0.03  -0.04    -0.02  -0.01   0.05
     4   6    -0.01   0.01  -0.14     0.02   0.05   0.07     0.06   0.00   0.06
     5   6    -0.06  -0.02   0.06    -0.07   0.00  -0.00     0.13  -0.01  -0.08
     6   6    -0.05  -0.08   0.10     0.07   0.04  -0.03    -0.08  -0.01  -0.00
     7   6     0.04   0.08  -0.03    -0.05  -0.07  -0.06    -0.07  -0.04  -0.03
     8   6    -0.01   0.04  -0.04    -0.01   0.04  -0.09    -0.09   0.06  -0.00
     9   6    -0.04  -0.02   0.04    -0.05   0.02  -0.04     0.14  -0.01  -0.05
    10   6     0.02   0.00  -0.17    -0.03   0.03   0.12     0.09  -0.02   0.00
    11   6     0.01   0.03  -0.03     0.07  -0.07   0.06    -0.09   0.06  -0.02
    12   6     0.05   0.13  -0.02    -0.03  -0.05  -0.06    -0.04   0.06   0.03
    13   1     0.00  -0.10   0.10     0.06   0.11  -0.14     0.09  -0.03  -0.03
    14   1     0.08  -0.08   0.05     0.06   0.02   0.15    -0.13  -0.02  -0.09
    15   1     0.10  -0.05  -0.28     0.08   0.02  -0.00    -0.02   0.09   0.20
    16   1     0.07  -0.10   0.19    -0.11   0.03  -0.04     0.17   0.01  -0.02
    17   1    -0.08  -0.08   0.05     0.08   0.10  -0.12    -0.09  -0.10   0.12
    18   1    -0.02  -0.10   0.08     0.10   0.09  -0.10    -0.10  -0.06   0.06
    19   1     0.03  -0.00   0.05    -0.07  -0.34   0.20    -0.15  -0.23   0.25
    20   1     0.16   0.10  -0.04     0.28   0.14   0.03     0.19   0.18   0.08
    21   1     0.12  -0.17   0.10     0.34  -0.23   0.06     0.17  -0.12   0.09
    22   1    -0.02   0.22   0.12    -0.03   0.38   0.19    -0.19   0.21   0.25
    23   1     0.11   0.06   0.21    -0.07   0.09  -0.10     0.18  -0.10   0.05
    24   1    -0.02  -0.09  -0.03    -0.07   0.05   0.13     0.06  -0.16   0.20
    25   1     0.01  -0.11  -0.28    -0.09   0.06   0.10    -0.07  -0.09  -0.19
    26   1    -0.15  -0.01   0.06     0.07  -0.12   0.01    -0.02   0.01  -0.11
    27   1    -0.08   0.39   0.09    -0.13   0.04  -0.09     0.10  -0.17  -0.03
    28   1    -0.06  -0.12   0.19    -0.12  -0.14  -0.06     0.14   0.28  -0.04
                     19                     20                     21
                      A                      A                      A
 Frequencies --    811.2671               846.5104               877.5302
 Red. masses --      3.0358                 1.8966                 2.4914
 Frc consts  --      1.1772                 0.8008                 1.1304
 IR Inten    --      1.1597                 4.2203                 2.7262
  Atom  AN      X      Y      Z        X      Y      Z        X      Y      Z
     1   8    -0.01  -0.02  -0.05    -0.00  -0.03   0.00    -0.05   0.02   0.00
     2   6    -0.04  -0.02   0.09     0.02   0.14  -0.02    -0.04  -0.00  -0.02
     3   6    -0.09  -0.00  -0.00    -0.03  -0.05  -0.02     0.19  -0.03   0.02
     4   6     0.01   0.05  -0.13     0.01  -0.08  -0.04    -0.03  -0.07   0.09
     5   6     0.01   0.09  -0.01    -0.01   0.03   0.08    -0.06   0.04  -0.07
     6   6     0.09  -0.00   0.02     0.01   0.06   0.09     0.10  -0.05   0.03
     7   6    -0.12  -0.04   0.09    -0.03   0.04  -0.07    -0.08   0.02  -0.01
     8   6     0.08  -0.15  -0.01     0.02  -0.08  -0.06     0.07  -0.06   0.02
     9   6     0.18   0.09  -0.04    -0.03   0.01   0.06     0.05   0.06   0.04
    10   6    -0.01   0.11  -0.04     0.01  -0.04  -0.02    -0.04   0.00  -0.01
    11   6    -0.01  -0.01   0.08     0.00   0.05  -0.03    -0.10  -0.05  -0.03
    12   6    -0.04  -0.11   0.01     0.02  -0.04  -0.01     0.02   0.12  -0.06
    13   1    -0.19   0.07   0.02    -0.21   0.02   0.08     0.37  -0.19   0.00
    14   1     0.05  -0.02  -0.01    -0.03   0.10  -0.30    -0.01   0.04  -0.02
    15   1     0.05  -0.02  -0.22    -0.08   0.10   0.19    -0.25  -0.15   0.17
    16   1    -0.00   0.27   0.04     0.05  -0.01   0.13    -0.18   0.08  -0.20
    17   1     0.11   0.02   0.01    -0.30  -0.08  -0.17     0.12  -0.03   0.04
    18   1     0.07   0.01   0.03     0.35  -0.20   0.04     0.04  -0.06   0.10
    19   1    -0.15   0.05   0.05    -0.11  -0.18   0.22    -0.04  -0.12   0.06
    20   1    -0.24  -0.01   0.12     0.21   0.26   0.05    -0.07   0.21   0.12
    21   1     0.03  -0.12  -0.02     0.23  -0.18  -0.02     0.02   0.07  -0.08
    22   1     0.03  -0.20   0.02    -0.06   0.06   0.15     0.00  -0.19   0.00
    23   1     0.29   0.27   0.05     0.03   0.10   0.10     0.10   0.19   0.05
    24   1    -0.13  -0.01   0.21     0.07  -0.00  -0.11     0.12  -0.06  -0.09
    25   1    -0.26   0.09  -0.26     0.10  -0.02   0.07    -0.06   0.10   0.06
    26   1    -0.09   0.05   0.19    -0.02   0.04  -0.02    -0.30  -0.20  -0.01
    27   1    -0.01  -0.22  -0.05     0.07   0.03   0.12    -0.15   0.25  -0.14
    28   1     0.03  -0.02  -0.02    -0.01  -0.10   0.03     0.00  -0.01   0.09
                     22                     23                     24
                      A                      A                      A
 Frequencies --    899.0406               923.6165               938.1463
 Red. masses --      2.3541                 2.0050                 2.1360
 Frc consts  --      1.1211                 1.0077                 1.1076
 IR Inten    --      0.5084                 0.7278                 2.2617
  Atom  AN      X      Y      Z        X      Y      Z        X      Y      Z
     1   8     0.02   0.01   0.01    -0.00   0.01  -0.02     0.02  -0.01   0.01
     2   6     0.00  -0.03   0.03    -0.03  -0.07   0.07     0.03   0.01  -0.05
     3   6    -0.03  -0.06   0.11    -0.00   0.04   0.02    -0.09  -0.04  -0.04
     4   6     0.02  -0.03  -0.10     0.03  -0.04   0.00    -0.07   0.15   0.01
     5   6     0.06   0.07   0.05     0.04  -0.02  -0.04     0.03   0.07  -0.06
     6   6    -0.02   0.02  -0.03    -0.00   0.14   0.04     0.06  -0.02   0.06
     7   6    -0.04  -0.06   0.09    -0.02  -0.06   0.01    -0.04  -0.10  -0.04
     8   6     0.04   0.02  -0.07     0.01   0.09   0.07     0.01   0.04   0.00
     9   6    -0.04   0.05  -0.10     0.08  -0.03  -0.06    -0.00   0.02   0.04
    10   6    -0.02  -0.07   0.10    -0.07  -0.07  -0.05    -0.02  -0.10  -0.03
    11   6    -0.00  -0.07  -0.09    -0.00   0.00   0.08    -0.07   0.00  -0.01
    12   6    -0.00   0.12   0.01    -0.00  -0.01  -0.06     0.07   0.00   0.07
    13   1    -0.05  -0.23   0.29    -0.01   0.08  -0.01    -0.05  -0.07  -0.05
    14   1    -0.01   0.01  -0.17    -0.16  -0.07  -0.13     0.12  -0.06   0.43
    15   1    -0.08  -0.01  -0.01     0.02   0.09   0.12     0.18  -0.08  -0.39
    16   1     0.10   0.26   0.17     0.04   0.03  -0.02    -0.03   0.08  -0.13
    17   1     0.00   0.08  -0.10    -0.36  -0.10  -0.13    -0.02  -0.11   0.10
    18   1    -0.04  -0.07   0.09     0.40  -0.01  -0.19     0.10  -0.09   0.09
    19   1    -0.08   0.14  -0.02     0.07  -0.09  -0.07    -0.06  -0.18   0.06
    20   1    -0.12  -0.23  -0.01    -0.06  -0.04   0.03     0.06   0.02   0.03
    21   1     0.08  -0.09   0.00    -0.17   0.24  -0.02     0.15   0.17  -0.12
    22   1     0.13   0.18  -0.07     0.00  -0.14  -0.10    -0.01   0.01   0.00
    23   1    -0.11   0.17  -0.24     0.12  -0.06   0.01    -0.05  -0.07  -0.00
    24   1     0.13  -0.01  -0.10     0.05   0.09  -0.35     0.22  -0.09  -0.26
    25   1     0.01   0.08   0.26    -0.05   0.21   0.23     0.10   0.04   0.20
    26   1     0.07  -0.24  -0.28     0.04   0.03   0.06    -0.13   0.01   0.04
    27   1     0.10   0.08   0.09    -0.11   0.13  -0.04     0.11   0.07   0.20
    28   1    -0.06   0.14  -0.09    -0.15  -0.15  -0.06     0.10  -0.06   0.20
                     25                     26                     27
                      A                      A                      A
 Frequencies --    953.7100               977.3869               993.0059
 Red. masses --      2.0281                 2.8695                 2.3703
 Frc consts  --      1.0868                 1.6151                 1.3771
 IR Inten    --      1.8241                 7.2667                 0.4880
  Atom  AN      X      Y      Z        X      Y      Z        X      Y      Z
     1   8     0.02   0.00   0.01     0.02   0.01   0.02    -0.02   0.01   0.00
     2   6     0.01  -0.03   0.01     0.02  -0.02  -0.05    -0.01   0.03  -0.00
     3   6    -0.02  -0.03   0.00    -0.00  -0.09  -0.03     0.13   0.07   0.02
     4   6     0.10   0.01  -0.03    -0.06  -0.01   0.03    -0.10  -0.04  -0.05
     5   6    -0.09   0.03   0.03     0.08   0.13  -0.07    -0.02   0.03   0.02
     6   6     0.09   0.02  -0.04    -0.08   0.08   0.08     0.08   0.06   0.04
     7   6     0.00  -0.02  -0.05     0.06  -0.10  -0.01     0.05  -0.04   0.09
     8   6     0.06   0.05  -0.00    -0.03  -0.04   0.03    -0.03   0.05  -0.10
     9   6    -0.05  -0.06   0.05    -0.12   0.09   0.06    -0.00  -0.07  -0.02
    10   6    -0.01  -0.04  -0.09     0.10   0.07  -0.08     0.09  -0.06   0.01
    11   6    -0.04  -0.02   0.05     0.09  -0.10   0.12    -0.11   0.09   0.01
    12   6    -0.13   0.05   0.10    -0.06   0.06  -0.05    -0.05  -0.08   0.00
    13   1     0.01  -0.06   0.01     0.11  -0.20  -0.02     0.09   0.12   0.00
    14   1     0.13   0.18  -0.20     0.01  -0.00   0.09    -0.00  -0.06   0.07
    15   1     0.00   0.12   0.13    -0.18  -0.18  -0.04    -0.23  -0.25  -0.15
    16   1    -0.13   0.15   0.02     0.17  -0.03  -0.03    -0.12   0.12  -0.07
    17   1     0.15   0.13  -0.13    -0.30   0.03  -0.20    -0.09  -0.11   0.06
    18   1     0.03   0.07  -0.03     0.21  -0.13   0.02     0.21  -0.02   0.00
    19   1     0.11  -0.18  -0.06     0.03   0.02  -0.06     0.02   0.22  -0.09
    20   1     0.10   0.03  -0.03    -0.13  -0.06   0.05    -0.04  -0.33  -0.10
    21   1     0.03   0.16  -0.08     0.07   0.07  -0.07     0.09  -0.20   0.08
    22   1     0.07  -0.03  -0.08     0.12   0.06  -0.10     0.07   0.34  -0.02
    23   1    -0.02  -0.10   0.11    -0.14  -0.15   0.13     0.05  -0.11   0.07
    24   1    -0.03   0.03  -0.14    -0.04  -0.11   0.25     0.13  -0.15   0.08
    25   1     0.09  -0.05  -0.01    -0.09  -0.07  -0.36     0.10  -0.14  -0.05
    26   1    -0.15  -0.06   0.10     0.05  -0.17   0.09    -0.10   0.14   0.05
    27   1     0.10  -0.43  -0.12    -0.11  -0.02  -0.19    -0.16  -0.16  -0.22
    28   1     0.17   0.48  -0.10    -0.10   0.10  -0.16     0.13   0.02   0.09
                     28                     29                     30
                      A                      A                      A
 Frequencies --   1017.4935              1044.7883              1068.6910
 Red. masses --      2.2640                 2.2693                 1.8666
 Frc consts  --      1.3810                 1.4595                 1.2561
 IR Inten    --      8.2986                 0.8834                 2.0340
  Atom  AN      X      Y      Z        X      Y      Z        X      Y      Z
     1   8    -0.02   0.01   0.01     0.03   0.01   0.00     0.00  -0.01   0.00
     2   6     0.00  -0.06  -0.05     0.00  -0.06   0.04     0.01   0.02  -0.02
     3   6     0.04   0.05   0.13    -0.03   0.07  -0.11     0.01  -0.04  -0.01
     4   6    -0.00   0.04  -0.06     0.02  -0.07   0.06    -0.05  -0.03   0.02
     5   6    -0.05   0.03   0.01    -0.00   0.01  -0.08     0.07   0.06   0.03
     6   6     0.01  -0.04   0.11    -0.04  -0.05   0.05    -0.04  -0.08  -0.05
     7   6    -0.05  -0.03  -0.08    -0.11   0.04   0.07    -0.06  -0.01   0.03
     8   6     0.07   0.04   0.07     0.11   0.01  -0.05     0.07   0.07  -0.06
     9   6    -0.02  -0.06  -0.04    -0.11   0.04  -0.05     0.03  -0.07   0.07
    10   6     0.03   0.08   0.05     0.07  -0.07  -0.01    -0.07  -0.02  -0.03
    11   6     0.03   0.06  -0.11     0.05   0.03   0.03     0.07   0.06   0.05
    12   6    -0.03  -0.07  -0.03     0.01  -0.01   0.05    -0.03   0.01  -0.06
    13   1     0.10   0.05   0.09    -0.06   0.31  -0.31     0.05  -0.11   0.01
    14   1    -0.07  -0.09   0.02    -0.18  -0.06  -0.14    -0.01  -0.02   0.04
    15   1    -0.09  -0.09  -0.11    -0.04   0.04   0.21    -0.20  -0.18  -0.01
    16   1     0.06   0.09   0.15    -0.08   0.10  -0.13     0.13   0.18   0.16
    17   1    -0.08  -0.06  -0.00    -0.06  -0.15   0.18     0.15  -0.01   0.15
    18   1     0.07  -0.23   0.24    -0.06  -0.11   0.12    -0.25   0.04   0.04
    19   1     0.09  -0.32  -0.03    -0.04   0.03  -0.02    -0.17   0.05   0.13
    20   1     0.06   0.17   0.05    -0.28   0.14   0.17     0.09  -0.06  -0.03
    21   1    -0.09   0.28  -0.09    -0.01   0.04  -0.05     0.25   0.14  -0.15
    22   1     0.09  -0.20  -0.13     0.25   0.06  -0.19    -0.03   0.03   0.05
    23   1    -0.18  -0.16  -0.23    -0.14   0.18  -0.15     0.12  -0.03   0.17
    24   1    -0.15   0.07   0.21     0.09  -0.08  -0.01    -0.24   0.25  -0.17
    25   1     0.12  -0.18  -0.11     0.21  -0.17   0.00     0.15  -0.04   0.12
    26   1     0.02   0.07  -0.09     0.13   0.09   0.03     0.19   0.29   0.15
    27   1     0.03  -0.06   0.05     0.09  -0.06   0.08    -0.15   0.04  -0.18
    28   1    -0.18  -0.05  -0.24     0.12   0.06   0.10    -0.14  -0.02  -0.17
                     31                     32                     33
                      A                      A                      A
 Frequencies --   1086.8181              1091.0262              1124.6382
 Red. masses --      1.7496                 2.2980                 1.5967
 Frc consts  --      1.2176                 1.6117                 1.1899
 IR Inten    --      6.3709                10.9048                 0.6930
  Atom  AN      X      Y      Z        X      Y      Z        X      Y      Z
     1   8     0.01   0.01   0.01     0.01   0.02   0.01     0.01  -0.00  -0.00
     2   6     0.01  -0.04  -0.04     0.00  -0.10  -0.05    -0.01   0.01   0.04
     3   6     0.02  -0.04   0.06     0.04   0.12  -0.08     0.05  -0.01  -0.05
     4   6     0.01   0.07  -0.02    -0.12  -0.06  -0.03    -0.01   0.02  -0.01
     5   6    -0.01  -0.10   0.01     0.08  -0.02   0.12    -0.04   0.00  -0.04
     6   6     0.01   0.01   0.01     0.01   0.07  -0.05    -0.01  -0.02   0.08
     7   6    -0.03   0.07   0.01    -0.01   0.02  -0.02     0.05  -0.02   0.01
     8   6     0.01  -0.06   0.00     0.01  -0.02   0.03    -0.06  -0.01   0.01
     9   6    -0.03   0.11  -0.00     0.02   0.06   0.05     0.04   0.05  -0.01
    10   6     0.02  -0.07  -0.01    -0.05   0.02  -0.01    -0.07  -0.02   0.01
    11   6     0.02   0.07   0.03    -0.00  -0.06  -0.06     0.09   0.02  -0.06
    12   6    -0.08  -0.01  -0.03    -0.00  -0.01   0.12    -0.07   0.00   0.05
    13   1     0.20  -0.25   0.09     0.24   0.04  -0.18     0.16   0.09  -0.23
    14   1     0.05  -0.01   0.11    -0.38  -0.34   0.05     0.20   0.15   0.03
    15   1     0.13   0.05  -0.13    -0.03  -0.06  -0.10    -0.21  -0.20  -0.05
    16   1     0.05  -0.20   0.04     0.16  -0.10   0.19    -0.06  -0.10  -0.10
    17   1    -0.05  -0.15   0.17     0.02   0.23  -0.30    -0.10  -0.15   0.14
    18   1     0.09   0.20  -0.25     0.03  -0.10   0.11     0.06  -0.14   0.13
    19   1    -0.10   0.09   0.09    -0.13   0.02   0.15     0.05   0.04  -0.05
    20   1    -0.03   0.10   0.03     0.13   0.04  -0.03    -0.02  -0.08  -0.02
    21   1     0.00  -0.04  -0.01     0.08   0.09  -0.07    -0.05  -0.08   0.07
    22   1    -0.04  -0.07   0.06    -0.09  -0.12   0.10    -0.11   0.00   0.09
    23   1    -0.09   0.22  -0.13    -0.05   0.09  -0.05     0.16   0.17   0.11
    24   1     0.28  -0.19  -0.11     0.13  -0.09  -0.05    -0.17   0.21  -0.16
    25   1     0.15  -0.08   0.09    -0.07   0.08   0.03    -0.05   0.11   0.14
    26   1     0.09   0.25   0.12     0.13   0.10  -0.02     0.27  -0.06  -0.26
    27   1    -0.10  -0.11  -0.16     0.01  -0.19  -0.06     0.22  -0.21   0.18
    28   1    -0.21   0.08  -0.31     0.12   0.17   0.02    -0.03   0.20  -0.17
                     34                     35                     36
                      A                      A                      A
 Frequencies --   1138.8819              1153.2444              1162.2572
 Red. masses --      1.5471                 1.0713                 1.7836
 Frc consts  --      1.1823                 0.8395                 1.4196
 IR Inten    --      8.8849                 0.0673                 1.3259
  Atom  AN      X      Y      Z        X      Y      Z        X      Y      Z
     1   8     0.00  -0.00  -0.01     0.00   0.00  -0.00    -0.00   0.00  -0.01
     2   6    -0.02   0.06   0.08    -0.00  -0.01   0.01    -0.01  -0.02   0.04
     3   6     0.05  -0.06  -0.02    -0.01   0.02  -0.02    -0.02   0.02  -0.02
     4   6    -0.05   0.02   0.00     0.00  -0.03   0.00     0.01  -0.05   0.01
     5   6     0.05  -0.02   0.03    -0.01   0.03  -0.00    -0.01   0.11   0.04
     6   6     0.00   0.01  -0.02     0.00  -0.00   0.00     0.01  -0.06  -0.03
     7   6    -0.03  -0.01  -0.05     0.03  -0.02  -0.00     0.07  -0.05  -0.08
     8   6     0.01  -0.00   0.06    -0.03  -0.00  -0.00    -0.07  -0.04   0.08
     9   6    -0.04   0.02  -0.09     0.02   0.01   0.00     0.01   0.07  -0.07
    10   6     0.05  -0.05   0.01    -0.01   0.00   0.01     0.01  -0.06   0.02
    11   6     0.01   0.02   0.01     0.00  -0.01  -0.01     0.00   0.05   0.05
    12   6    -0.04   0.00  -0.01     0.02   0.00   0.02     0.01   0.02  -0.02
    13   1    -0.11  -0.03   0.10    -0.02  -0.25   0.24    -0.14   0.19  -0.09
    14   1     0.04  -0.01   0.12     0.03   0.05  -0.06     0.10   0.10  -0.09
    15   1     0.09   0.01  -0.11     0.25   0.23   0.04    -0.34  -0.23   0.11
    16   1     0.07  -0.09   0.04    -0.27   0.04  -0.32     0.09   0.18   0.19
    17   1     0.03   0.06  -0.06    -0.01  -0.01  -0.01     0.16   0.06   0.01
    18   1    -0.02  -0.06   0.07    -0.08  -0.31   0.38    -0.15   0.04   0.02
    19   1    -0.05  -0.10   0.06     0.07  -0.03  -0.05     0.11  -0.15  -0.05
    20   1     0.06   0.10   0.01    -0.01  -0.02  -0.00     0.20  -0.07  -0.11
    21   1    -0.18   0.06   0.05    -0.02  -0.04   0.03    -0.17  -0.04   0.10
    22   1    -0.00  -0.15  -0.03    -0.02   0.03   0.01    -0.10  -0.13   0.05
    23   1     0.03   0.14  -0.06     0.00  -0.00  -0.02    -0.10   0.09  -0.23
    24   1    -0.26   0.23  -0.03     0.06  -0.04   0.00     0.29  -0.21  -0.06
    25   1     0.16  -0.14   0.02    -0.03   0.02   0.01     0.08  -0.05   0.08
    26   1     0.15  -0.11  -0.21     0.28   0.34   0.09    -0.05   0.25   0.26
    27   1    -0.27  -0.07  -0.36    -0.19   0.00  -0.23    -0.01   0.08   0.01
    28   1     0.35   0.05   0.41    -0.07   0.00  -0.09    -0.05  -0.03  -0.04
                     37                     38                     39
                      A                      A                      A
 Frequencies --   1233.6812              1241.9335              1250.5663
 Red. masses --      1.1543                 1.1130                 1.5574
 Frc consts  --      1.0351                 1.0114                 1.4350
 IR Inten    --      0.0339                 0.1818                13.1988
  Atom  AN      X      Y      Z        X      Y      Z        X      Y      Z
     1   8     0.01  -0.01   0.00     0.01  -0.00   0.01    -0.01   0.01   0.01
     2   6     0.01   0.03  -0.01     0.01   0.01  -0.03     0.01  -0.09  -0.08
     3   6    -0.03  -0.03   0.02    -0.02  -0.02   0.01    -0.01   0.01   0.08
     4   6     0.02   0.02   0.01     0.00   0.01  -0.00     0.05  -0.01  -0.02
     5   6    -0.03   0.00  -0.05    -0.02   0.00   0.03    -0.05   0.03  -0.00
     6   6    -0.01  -0.01   0.02     0.02  -0.01  -0.02    -0.00  -0.01   0.00
     7   6     0.03  -0.01   0.03    -0.01   0.03  -0.03     0.07   0.01   0.03
     8   6    -0.04   0.01  -0.03    -0.01  -0.03   0.00    -0.04  -0.05   0.00
     9   6     0.03   0.01   0.01    -0.03   0.02   0.01     0.01   0.09   0.01
    10   6    -0.02  -0.01   0.01     0.01  -0.01  -0.00    -0.00  -0.03  -0.02
    11   6     0.02   0.01  -0.01    -0.01   0.02   0.02     0.02   0.04   0.03
    12   6    -0.00  -0.00  -0.01    -0.00  -0.00  -0.01    -0.00  -0.01  -0.03
    13   1     0.26  -0.10  -0.17     0.13  -0.03  -0.11    -0.17   0.25  -0.01
    14   1    -0.30  -0.23   0.00    -0.26  -0.22   0.03    -0.19  -0.15  -0.07
    15   1     0.13   0.10  -0.00     0.05   0.04  -0.01     0.08   0.11   0.06
    16   1     0.10   0.07   0.13     0.01   0.37   0.19    -0.15   0.11  -0.09
    17   1     0.03   0.21  -0.28     0.01  -0.17   0.22    -0.01  -0.07   0.10
    18   1    -0.02  -0.09   0.11    -0.02   0.03  -0.02    -0.03  -0.01   0.03
    19   1     0.21  -0.07  -0.18     0.21  -0.20  -0.14     0.01   0.13  -0.00
    20   1    -0.12  -0.01   0.05     0.06   0.03  -0.04     0.01  -0.10  -0.04
    21   1    -0.09  -0.15   0.11    -0.18  -0.13   0.11     0.41   0.20  -0.27
    22   1    -0.07   0.06   0.04     0.17   0.10  -0.14    -0.24  -0.09   0.23
    23   1     0.10   0.27   0.01     0.14  -0.06   0.29    -0.05  -0.11   0.01
    24   1    -0.13   0.13  -0.04     0.06  -0.05  -0.01    -0.15   0.15  -0.08
    25   1     0.30  -0.23   0.07    -0.26   0.22  -0.01     0.11  -0.05   0.04
    26   1    -0.27   0.01   0.21     0.26  -0.01  -0.21     0.04  -0.21  -0.20
    27   1    -0.01   0.01  -0.01    -0.05   0.02  -0.05    -0.12   0.04  -0.12
    28   1    -0.00  -0.02   0.01     0.03  -0.02   0.05     0.16  -0.04   0.23
                     40                     41                     42
                      A                      A                      A
 Frequencies --   1261.0453              1281.6954              1294.6069
 Red. masses --      1.1258                 1.3559                 1.4702
 Frc consts  --      1.0548                 1.3124                 1.4518
 IR Inten    --      1.1502                 4.9712                 4.8368
  Atom  AN      X      Y      Z        X      Y      Z        X      Y      Z
     1   8     0.01  -0.00   0.01     0.01   0.02   0.02     0.02  -0.01  -0.01
     2   6     0.01  -0.00  -0.01     0.02  -0.09  -0.10    -0.02   0.04   0.07
     3   6    -0.00   0.01  -0.01     0.03   0.02   0.01    -0.01   0.03  -0.02
     4   6    -0.01  -0.01  -0.00    -0.01  -0.00  -0.00    -0.02  -0.03  -0.02
     5   6     0.02   0.01   0.00     0.03   0.01   0.02     0.00   0.04   0.05
     6   6    -0.02   0.03  -0.00    -0.00  -0.01  -0.02     0.00  -0.01  -0.03
     7   6    -0.01   0.00  -0.00    -0.02  -0.02  -0.02     0.02  -0.01  -0.03
     8   6     0.03   0.02   0.02    -0.01   0.00   0.02    -0.01  -0.04   0.04
     9   6    -0.03  -0.02   0.01    -0.04   0.03  -0.03    -0.01   0.06  -0.07
    10   6     0.03   0.03  -0.02     0.01  -0.02   0.02     0.05  -0.05   0.02
    11   6    -0.02  -0.04   0.02    -0.03   0.03   0.02    -0.05   0.04   0.03
    12   6     0.01  -0.01   0.01     0.01  -0.01   0.00     0.01  -0.03  -0.01
    13   1     0.08  -0.09   0.01    -0.33   0.17   0.19     0.42  -0.25  -0.14
    14   1    -0.05  -0.04  -0.01     0.09   0.07   0.01    -0.08  -0.05  -0.06
    15   1     0.05   0.04  -0.00     0.01   0.01  -0.01     0.13   0.11  -0.01
    16   1    -0.23   0.32  -0.18    -0.03  -0.20  -0.12    -0.14  -0.04  -0.15
    17   1    -0.11  -0.17   0.19     0.05   0.11  -0.13     0.04   0.01   0.00
    18   1     0.03   0.05  -0.08    -0.06  -0.04   0.06    -0.09   0.03   0.01
    19   1    -0.09   0.03   0.10    -0.06  -0.02   0.04    -0.18   0.11   0.14
    20   1     0.39  -0.26  -0.26    -0.01   0.05   0.03     0.02   0.04   0.00
    21   1    -0.16  -0.04   0.10    -0.16  -0.04   0.08     0.11   0.12  -0.12
    22   1    -0.17  -0.20   0.13     0.16   0.10  -0.14     0.15   0.06  -0.11
    23   1     0.04   0.38  -0.08     0.42   0.25   0.50    -0.00  -0.39   0.14
    24   1    -0.10   0.06   0.06    -0.08   0.07  -0.00    -0.22   0.20  -0.01
    25   1     0.14  -0.14  -0.08     0.08  -0.06   0.06     0.04  -0.02   0.04
    26   1    -0.07  -0.13  -0.02    -0.12  -0.07   0.01    -0.16  -0.08   0.01
    27   1     0.08   0.00   0.10     0.06   0.03   0.09     0.18   0.00   0.24
    28   1    -0.08  -0.02  -0.09    -0.12  -0.02  -0.15    -0.17  -0.06  -0.19
                     43                     44                     45
                      A                      A                      A
 Frequencies --   1308.9119              1340.5577              1341.0810
 Red. masses --      1.3638                 1.4967                 1.6591
 Frc consts  --      1.3767                 1.5847                 1.7580
[...]
 04,0.00031088,0.00058100,0.00030053,0.00004971,0.00001457,0.00007182,-
 0.00005987,-0.00000154,0.00002617,0.00040072,0.00066888,0.00126701,0.0
 0058744,0.00042941,-0.00092059,-0.00438224,-0.00196015,0.05450606,0.00
 120361,-0.00024891,0.00024567,-0.00053473,0.00089453,0.00042938,-0.000
 00883,-0.00015140,0.00013360,-0.00031708,0.00003703,-0.00040233,-0.001
 01570,0.00044289,0.00161091,0.00009040,0.00016435,0.00013039,-0.017315
 36,0.00038834,-0.00667968,-0.25296818,0.00655591,-0.10864032,0.0050604
 7,-0.00039062,0.00233349,0.00056017,0.00097223,0.00095256,0.00011763,-
 0.00005909,0.00025335,-0.00000668,0.00003084,0.00000814,0.00004324,0.0
 0001190,-0.00004427,0.00010438,-0.00005822,0.00005788,0.00014539,-0.00
 008211,0.00013497,-0.00009700,-0.00060691,-0.00013110,-0.00002978,-0.0
 0006009,-0.00008067,0.00010545,-0.00002459,0.00000956,-0.00149147,-0.0
 0233108,0.00140582,0.00144865,-0.00033259,0.00033598,-0.00913802,0.001
 02240,-0.00505937,0.27307734,0.00041899,0.00021970,0.00065756,-0.00235
 454,-0.00041197,-0.00148464,0.00028868,0.00003264,-0.00025478,-0.00024
 383,0.00006449,-0.00004198,-0.00128882,-0.00000706,0.00136604,0.000162
 97,0.00004983,0.00009432,-0.01771625,-0.00033597,-0.00779749,0.0070711
 6,-0.05200647,0.00413595,-0.00861467,-0.00101467,-0.00678236,0.0013392
 1,0.00024148,-0.00207346,0.00002540,0.00012922,0.00028948,-0.00004769,
 0.00013466,-0.00004120,0.00002578,-0.00000973,-0.00001315,0.00012629,0
 .00000070,-0.00002517,0.00010031,-0.00019779,0.00012670,-0.00003453,-0
 .00061378,-0.00001778,-0.00003851,-0.00002315,-0.00005010,0.00003638,-
 0.00002659,0.00000664,-0.00169710,-0.00084894,0.00081289,0.00001295,0.
 00130085,-0.00047674,0.02887525,-0.00049182,0.01668364,-0.00588047,0.0
 5333168,0.00184035,0.00081626,0.00114080,-0.00437212,0.00028661,-0.000
 29197,0.00017685,0.00006065,-0.00049512,-0.00007679,0.00019290,0.00015
 939,0.00082529,-0.00064341,-0.00076232,0.00011744,0.00000559,-0.000075
 72,0.01719234,0.00157057,0.00464009,-0.10756526,0.00291726,-0.10156036
 ,-0.02751674,-0.00124382,-0.01866996,0.00323387,-0.00152114,-0.0055348
 9,0.00012858,0.00051122,-0.00042039,-0.00024010,0.00009072,-0.00000936
 ,0.00001188,-0.00011197,0.00005018,0.00003777,0.00003208,-0.00000491,-
 0.00001671,-0.00000079,0.00010868,0.00003945,0.00023001,0.00006789,-0.
 00001113,-0.00001710,0.00017247,-0.00003306,0.00001238,-0.00001518,0.0
 0239495,0.00130132,-0.00098195,0.00132611,0.00046272,0.00159280,0.0004
 7465,0.00041090,0.00046654,0.11328963,-0.00523829,0.12040743,0.0015098
 3,0.00020245,0.00032313,0.00861077,0.01272716,-0.00677041,-0.00171111,
 0.00220912,0.00056332,-0.00018502,-0.00012027,0.00020665,0.00004646,0.
 00037335,-0.00024850,0.00028608,0.00015971,-0.00024688,0.00140172,0.00
 041552,0.00126649,-0.00421182,-0.00477328,0.00368968,-0.14921928,-0.11
 405774,0.05776524,-0.01652252,-0.01981434,0.00728605,-0.00304797,0.002
 71332,-0.00340565,-0.00016288,0.00035469,0.00007968,0.00053121,0.00072
 094,0.00018259,0.00002111,-0.00000700,-0.00002792,0.00002808,-0.000026
 91,0.00003645,0.00007152,-0.00003082,0.00008721,-0.00005883,-0.0000940
 3,0.00012898,0.00000958,-0.00000171,0.00003660,0.00001566,0.00001735,-
 0.00004876,-0.00038187,-0.00014592,0.00037265,-0.00009217,0.00011713,-
 0.00020735,0.00064396,0.00036681,-0.00007445,0.16164315,-0.00043865,0.
 00565377,-0.00195593,-0.02060839,-0.02848074,0.01213526,0.00475845,-0.
 00298951,-0.00104230,0.00031248,0.00062951,-0.00033518,0.00016560,-0.0
 0009190,-0.00005155,0.00010137,0.00011408,-0.00004721,-0.00021333,0.00
 015266,-0.00197016,0.00662370,0.00617605,-0.00531557,-0.11058170,-0.17
 362159,0.06801913,0.00024427,0.00068780,-0.00025847,0.00021312,0.00077
 475,-0.00030533,0.00023709,0.00010205,0.00049592,-0.00082208,-0.001513
 79,-0.00016584,-0.00009038,-0.00000552,0.00003276,-0.00001948,-0.00002
 016,0.00010083,-0.00006173,0.00008427,0.00009664,0.00002642,-0.0000107
 3,0.00000525,-0.00006051,0.00002203,0.00000452,0.00009160,0.00002716,0
 .00005191,0.00027754,0.00027432,-0.00036898,0.00039342,0.00124461,0.00
 015784,-0.00002406,0.00012084,0.00060597,0.11998881,0.19006811,-0.0014
 6884,-0.00037563,-0.00051269,0.00167175,-0.00278408,0.00056465,0.00006
 217,-0.00019379,0.00063453,-0.00000404,-0.00018245,0.00010077,-0.00064
 255,-0.00066737,0.00013693,-0.00008893,-0.00010558,-0.00033485,-0.0010
 4284,-0.00313272,-0.00435334,0.02160886,0.02132228,-0.01722490,0.05675
 913,0.06900136,-0.07908594,-0.01349144,-0.01541055,0.00473257,-0.00313
 092,0.00119831,-0.00178351,-0.00015365,0.00046960,0.00007693,0.0000624
 1,-0.00000625,0.00018640,-0.00008435,0.00009798,0.00004276,0.00003672,
 -0.00006909,0.00000596,0.00005814,0.00006972,0.00011946,0.00003640,-0.
 00006414,0.00026985,-0.00003645,-0.00000810,-0.00000617,0.00061525,0.0
 0020475,-0.00063086,0.00089288,0.00061895,-0.00097695,0.00025332,-0.00
 005942,0.00148315,-0.00050040,0.00052376,0.00079704,-0.06101799,-0.068
 90418,0.09460535,-0.00248689,0.00241191,0.00053970,-0.00148995,-0.0056
 3670,-0.00282228,-0.00007809,-0.00002198,0.00036556,-0.00007653,-0.000
 04016,0.00018042,-0.00011347,0.00010181,0.00009940,0.00107920,-0.00002
 889,-0.00048758,0.00000062,0.00002858,-0.00032626,0.00184261,0.0006644
 3,0.00196482,-0.01754370,0.02231217,0.00294202,-0.13981814,0.11591471,
 0.03888304,0.01104542,-0.01352428,-0.00407262,-0.00157021,-0.00282741,
 0.00035895,0.00008533,0.00014166,0.00009409,0.00006911,0.00003382,-0.0
 0008940,-0.00000802,-0.00001278,0.00003272,0.00003748,-0.00004149,0.00
 000430,0.00014278,0.00005833,-0.00026571,0.00005505,0.00028813,-0.0001
 3141,0.00017319,0.00000453,-0.00016521,0.00010381,-0.00001385,-0.00002
 983,0.00011889,-0.00093769,-0.00088148,0.00010420,-0.00034100,0.000473
 50,-0.00004778,-0.00029491,0.00026143,0.15295762,0.00038857,-0.0000037
 2,0.00018731,-0.00064866,0.00082116,-0.00038110,-0.00044536,0.00061324
 ,-0.00018594,0.00012674,0.00004485,-0.00026667,-0.00007055,-0.00019981
 ,0.00027765,0.00180100,0.00104807,-0.00099432,0.00007227,-0.00020339,0
 .00002299,-0.00040456,0.00092960,-0.00030281,0.00021320,0.00054419,0.0
 0022409,0.11476108,-0.19440745,-0.04705229,0.01808099,-0.02274048,-0.0
 0693133,-0.00540888,-0.00421302,0.00036348,0.00010448,0.00000305,0.000
 12174,-0.00003761,0.00004440,-0.00000081,-0.00005424,0.00002564,0.0001
 2271,-0.00001266,0.00002356,0.00007221,-0.00016552,0.00050232,-0.00025
 390,-0.00100538,0.00036056,0.00085365,-0.00016169,0.00010055,0.0002299
 5,-0.00006083,0.00008567,-0.00003368,0.00019157,0.00015349,0.00071576,
 -0.00016240,0.00017834,-0.00006802,0.00039359,0.00001202,0.00029931,-0
 .12530958,0.21252696,-0.00171505,0.00170555,0.00062524,-0.00256104,-0.
 00267429,-0.00241408,0.00030495,-0.00020494,0.00020079,-0.00002126,0.0
 0000028,0.00019424,-0.00006769,0.00009688,0.00000330,-0.00068863,0.000
 67111,0.00045861,0.00013604,0.00010012,-0.00012174,-0.00006130,0.00134
 674,0.00142075,-0.01364340,0.01692726,0.00240055,0.03930424,-0.0480662
 5,-0.06565162,-0.00096973,0.00223435,-0.00042606,-0.00005165,0.0004817
 3,0.00020230,0.00006921,0.00004177,0.00004860,0.00003386,0.00001173,-0
 .00005954,0.00000249,-0.00001748,0.00001852,0.00001660,-0.00005833,0.0
 0000034,-0.00011490,-0.00012334,0.00002344,0.00003776,-0.00010526,0.00
 019984,0.00000004,0.00004919,-0.00020460,0.00002322,-0.00006069,0.0000
 4622,0.00015244,-0.00050235,0.00014715,0.00015435,-0.00005773,0.000341
 14,0.00027437,-0.00030428,0.00013379,-0.03946842,0.05307597,0.06929561
 ,-0.00033826,-0.00006654,0.00036841,0.00093899,-0.00079268,-0.00065596
 ,0.00000310,0.00008550,-0.00018064,-0.00002180,0.00005074,0.00014173,-
 0.00025226,-0.00007673,-0.00022461,-0.00097050,-0.00357920,-0.00111751
 ,-0.00023889,-0.00008875,0.00023342,-0.00454565,0.00107160,-0.00206385
 ,0.00546221,0.00286037,-0.02833690,-0.06847202,-0.00708358,0.06995470,
 -0.00708982,-0.00339386,0.01701579,0.00018904,0.00091278,-0.00040102,0
 .00004332,0.00003118,-0.00000872,0.00000048,0.00004258,-0.00002220,0.0
 0007732,-0.00006670,0.00001547,0.00014282,0.00008304,0.00014560,-0.000
 40017,-0.00063298,0.00113266,0.00034876,0.00003139,-0.00040659,0.00013
 193,-0.00001098,-0.00014205,0.00015442,0.00007273,0.00001149,-0.000003
 79,-0.00011913,0.00019483,0.00013710,-0.00065102,-0.00152747,0.0013955
 3,-0.00001654,-0.00013453,-0.00594840,-0.00318747,0.01909919,0.0788393
 5,0.00000734,0.00009092,-0.00014441,-0.00016746,-0.00034511,0.00039930
 ,0.00019656,-0.00010647,-0.00008509,-0.00013678,0.00021028,0.00002568,
 -0.00012564,0.00008494,-0.00043532,-0.00213526,-0.00524763,-0.00179683
 ,0.00013288,-0.00028528,-0.00006685,-0.00052222,0.00053295,-0.00081357
 ,-0.00076715,-0.00048430,-0.00053183,-0.00672435,-0.05538400,0.0340550
 4,-0.01002528,-0.00642817,0.02917457,-0.00066136,0.00141367,0.00142597
 ,0.00002927,-0.00003347,0.00000962,-0.00000565,0.00002289,-0.00002702,
 0.00008856,-0.00004712,-0.00003614,0.00011335,0.00001215,0.00009865,-0
 .00114331,-0.00028477,0.00158140,-0.00014899,0.00023699,-0.00005984,-0
 .00005659,0.00003615,0.00003367,0.00001551,0.00008087,0.00003952,0.000
 02807,0.00033592,0.00030525,-0.00014168,0.00020875,-0.00032004,-0.0000
 6537,0.00060154,-0.00081158,0.00714025,0.00431567,-0.02460473,0.014235
 46,0.05916457,-0.00084949,0.00032500,0.00031953,0.00078472,-0.00107772
 ,-0.00071970,-0.00015095,0.00006424,-0.00023985,0.00012824,-0.00005215
 ,0.00001656,-0.00008881,-0.00030575,0.00027759,0.00043512,0.00054808,0
 .00166544,-0.00017044,-0.00010252,0.00055386,-0.00438436,0.00073320,-0
 .00066715,0.00415370,0.00206900,-0.01769244,0.06981830,0.03399487,-0.2
 7716631,0.00072909,-0.00035146,-0.00181347,-0.00012536,-0.00048574,-0.
 00007315,0.00000280,0.00006836,0.00000230,0.00000343,0.00005218,0.0000
 0351,-0.00003379,-0.00001200,0.00006144,0.00004551,0.00009739,0.000015
 29,0.00009565,0.00011957,-0.00025524,-0.00015142,-0.00005984,0.0000467
 0,0.00004125,0.00001899,0.00003134,0.00000819,0.00004188,-0.00005582,0
 .00010823,0.00007964,0.00031500,0.00013058,-0.00036649,-0.00130156,-0.
 00014121,-0.00054428,0.00104977,0.00278469,0.00052186,-0.00765331,-0.0
 7298761,-0.03608428,0.30135128,-0.00041448,-0.00009699,-0.00001174,0.0
 0118477,0.00016597,0.00034177,-0.00158753,0.00381379,0.00216368,-0.000
 17415,0.00005301,0.00061050,-0.00149739,-0.00038310,0.00234647,0.01135
 232,-0.00108205,0.01363177,0.00003242,-0.00023722,0.00018253,-0.000262
 70,0.00002342,0.00015793,-0.00007919,-0.00320119,0.00137165,-0.0132597
 4,-0.00097129,-0.01183352,-0.17040346,0.00511909,-0.12623094,-0.015292
 52,0.00112725,-0.01503294,-0.00085162,-0.00005634,-0.00110796,0.000053
 80,0.00001359,-0.00007200,0.00011799,-0.00010414,-0.00011630,0.0004186
 2,-0.00023370,0.00074130,0.00089212,0.00028514,-0.00057344,0.00073902,
 0.00008597,-0.00073956,0.00004237,0.00000968,-0.00003931,0.00009915,0.
 00017018,0.00000877,0.00004548,-0.00000868,-0.00005563,0.00004854,0.00
 002856,-0.00016224,-0.00076404,-0.00006971,-0.00064238,0.00062916,-0.0
 0020359,0.00011266,0.00007768,0.00036175,0.00033204,0.18766558,0.00000
 969,0.00092103,-0.00007717,0.00010926,-0.00209522,0.00007563,0.0030434
 1,-0.00388371,-0.00231640,-0.00019288,0.00018120,-0.00044653,-0.000636
 55,0.00054690,0.00043471,0.00297887,-0.00045441,0.00405794,0.00003672,
 -0.00022180,0.00034145,-0.00021344,0.00016293,0.00016714,-0.00147401,-
 0.00481001,0.00197048,-0.02351809,-0.00139198,-0.02124922,0.00477720,-
 0.04806498,0.00387664,0.01945423,-0.00158883,0.01944747,0.00116680,0.0
 0007745,0.00125164,-0.00000522,-0.00002396,0.00002544,-0.00004912,0.00
 002858,0.00008104,0.00003862,0.00014562,0.00012419,0.00047778,0.000120
 66,0.00014441,-0.00037160,0.00016048,-0.00026126,0.00002325,0.00006481
 ,-0.00003244,0.00009542,0.00012306,-0.00003400,0.00000187,0.00002621,0
 .00000174,0.00005030,-0.00001588,-0.00027167,-0.00146948,-0.00002303,-
 0.00090573,0.00081467,0.00082096,-0.00022302,0.00037391,0.00128940,0.0
 0013510,-0.00402794,0.05619223,0.00002660,0.00002910,-0.00007093,0.000
 10310,-0.00001301,0.00005565,0.00117032,-0.00098184,0.00065070,0.00060
 791,-0.00052710,0.00009426,0.00549583,0.00118440,-0.00299073,-0.020472
 95,0.00158433,-0.02448096,0.00004256,0.00028263,0.00015530,0.00042556,
 0.00009393,0.00003525,0.00046668,-0.00004128,0.00127931,0.00135966,0.0
 0037704,0.00045443,-0.12693790,0.00421488,-0.17833248,0.00532020,-0.00
 012355,0.00529570,0.00031019,-0.00012292,0.00031366,-0.00005103,0.0000
 6537,0.00001225,-0.00014487,0.00001252,0.00008555,-0.00115440,0.000404
 96,-0.00157757,-0.00001838,0.00044943,0.00117263,-0.00002797,-0.000727
 89,0.00087406,-0.00000137,-0.00005913,-0.00000466,-0.00012412,-0.00018
 165,-0.00007413,-0.00005196,-0.00005378,0.00002970,-0.00007449,-0.0000
 1925,0.00010395,-0.00010782,0.00011144,-0.00004921,-0.00004921,-0.0003
 3197,-0.00014363,0.00024952,-0.00026752,0.00113487,0.13417001,-0.00642
 782,0.19511902,0.00000207,0.00036330,0.00021023,0.00145783,0.00010774,
 -0.00044882,0.01116740,0.00257489,-0.02264193,-0.00411710,-0.00056305,
 -0.00319484,-0.00050847,0.00028026,-0.00036743,-0.00232867,0.00457648,
 -0.00028707,0.00009264,-0.00008112,0.00008534,-0.00007051,0.00002255,-
 0.00002204,0.00000241,0.00005696,-0.00008154,0.00050305,-0.00125032,-0
 .00012077,-0.01008177,-0.00343715,0.01968258,-0.09795387,-0.01444406,0
 .09950018,0.00101661,0.00014588,0.00092715,-0.00008137,0.00015731,0.00
 007713,0.00078849,0.00027749,-0.00153660,0.00017065,-0.00009927,0.0000
 8663,0.00037589,0.00016355,-0.00045928,-0.00055060,0.00008690,0.001661
 72,0.00002284,-0.00010895,-0.00005195,0.00007424,0.00006153,0.00008531
 ,0.00000775,0.00000481,0.00000608,0.00002159,0.00001280,-0.00002019,0.
 00008135,-0.00002033,0.00003403,-0.00009656,-0.00011220,-0.00032971,0.
 00044499,0.00052702,-0.00041810,0.00026193,-0.00073979,-0.00026800,0.1
 0667949,0.00039719,0.00006873,0.00004767,-0.00019116,-0.00001564,-0.00
 068194,-0.00079051,-0.00064786,0.00017293,0.00034378,0.00039412,0.0007
 6920,0.00028196,-0.00006583,0.00021810,0.00252436,-0.00452363,0.000151
 90,-0.00000975,0.00007387,-0.00004603,0.00011008,0.00008422,-0.0000706
 3,-0.00015672,-0.00018846,0.00028241,0.00032595,0.00139209,-0.00111230
 ,0.01106038,0.00257559,-0.02405562,-0.01502801,-0.05532474,0.02688678,
 -0.00021244,-0.00000726,0.00026840,0.00026783,0.00034950,-0.00050250,-
 0.00002954,0.00037584,0.00035212,-0.00010118,0.00003004,-0.00004633,0.
 00026587,0.00025000,0.00002077,0.00086573,0.00043475,-0.00138747,-0.00
 002944,0.00005885,0.00003823,-0.00003364,-0.00004442,-0.00002029,-0.00
 001715,-0.00000140,0.00004592,-0.00000785,-0.00000836,0.00004410,-0.00
 003871,-0.00001299,-0.00003825,0.00002038,0.00035708,0.00028685,-0.000
 15262,-0.00034656,0.00050771,-0.00065335,0.00097283,0.00051915,0.01327
 562,0.05667721,-0.00125849,-0.00028949,0.00034376,0.00201522,0.0012406
 4,-0.00070733,0.00899478,0.00180655,-0.02015600,-0.00497058,-0.0004748
 0,-0.00221374,-0.00036180,0.00032863,0.00058193,0.00050053,-0.00138355
 ,0.00143030,0.00011787,0.00009329,-0.00002006,0.00012350,0.00007956,-0
 .00009551,-0.00030899,-0.00033744,-0.00027042,-0.00015446,0.00069904,-
 0.00006020,0.00255337,0.00056431,-0.00451971,0.09894362,0.02621632,-0.
 25089234,-0.00002739,0.00039876,0.00078791,-0.00007562,0.00001846,0.00
 037383,0.00083227,0.00009813,-0.00139417,0.00005787,-0.00004063,-0.000
 00167,-0.00002829,0.00013376,0.00004489,0.00011741,0.00009861,-0.00031
 205,0.00000023,-0.00008353,0.00000725,-0.00003741,-0.00000804,0.000034
 57,-0.00001005,-0.00004257,0.00003840,-0.00002022,0.00001494,0.0000576
 8,-0.00002427,-0.00014083,-0.00002766,-0.00011413,-0.00005614,0.000350
 17,-0.00018854,-0.00068196,0.00045229,0.00026645,-0.00028331,0.0007189
 3,-0.10694253,-0.02863079,0.27437915,-0.00184955,-0.00178740,0.0008894
 4,-0.00087013,0.00472319,-0.00420154,-0.01398196,-0.02244529,-0.003235
 11,0.00091226,0.00007757,0.00191312,-0.00004930,0.00007917,-0.00025812
 ,0.00108763,0.00044452,-0.00037070,-0.00011196,0.00005615,0.00001162,-
 0.00001023,0.00003486,0.00024624,-0.00013658,-0.00013480,0.00048731,-0
 .00278287,0.00289625,0.00133318,0.01161546,0.01893553,0.00068741,-0.11
 268905,-0.11158876,0.00022267,0.00031011,0.00020703,0.00065342,0.00064
 430,0.00058031,-0.00068368,-0.00005376,0.00037648,0.00028197,0.0000931
 9,-0.00009374,-0.00000264,-0.00013154,-0.00019125,-0.00001235,0.000110
 89,-0.00007872,-0.00029767,0.00003472,0.00001858,-0.00001416,0.0000177
 2,-0.00000286,-0.00001345,0.00002093,-0.00006604,-0.00008155,0.0000107
 3,0.00001691,0.00005360,0.00010928,-0.00011206,0.00008685,0.00083329,0
 .00131770,-0.00002863,-0.00010547,-0.00004893,-0.00009999,0.00092587,-
 0.00075390,-0.00026367,-0.00738227,-0.01228706,-0.00000035,0.12342833,
 -0.00015389,0.00003070,-0.00034050,0.00044224,0.00084667,0.00078546,0.
 00067267,0.00218509,0.00052116,0.00025476,0.00029599,0.00018211,0.0002
 3047,0.00003544,-0.00031731,-0.00162772,0.00040636,0.00089442,-0.00003
 497,-0.00007944,0.00017727,-0.00014345,-0.00003717,0.00010721,0.000493
 83,0.00066922,0.00021103,0.00540086,-0.00268830,-0.00156945,-0.0134821
 1,-0.02235789,-0.00000380,-0.11020413,-0.23752101,-0.00333226,-0.00038
 832,0.00058261,-0.00039591,0.00011410,0.00015292,-0.00066007,0.0001260
 8,0.00021006,-0.00008358,-0.00002172,-0.00001080,-0.00011213,0.0008925
 6,0.00074713,-0.00066938,0.00025247,0.00042609,0.00031625,0.00001354,0
 .00002083,0.00000448,0.00003638,0.00005950,-0.00001739,0.00002696,0.00
 004959,0.00001180,-0.00000865,-0.00000098,-0.00011499,-0.00011442,0.00
 002437,-0.00008714,-0.00090465,-0.00174351,-0.00002684,0.00006750,0.00
 035522,0.00006516,0.00007187,0.00073944,0.00054949,-0.00183883,-0.0029
 0758,0.00066208,0.11982657,0.25950942,-0.00210736,-0.00165807,0.001058
 02,-0.00128682,0.00349907,-0.00427216,-0.01363347,-0.02269999,-0.00290
 716,-0.00020287,-0.00144689,0.00166732,0.00008474,0.00011126,-0.000222
 73,-0.00063921,-0.00094975,0.00020441,-0.00010934,-0.00002800,0.000082
 44,-0.00002162,0.00003561,0.00017724,0.00013537,0.00013799,0.00028304,
 0.00083744,-0.00057200,0.00004028,-0.00257225,-0.00475556,-0.00124589,
 0.00062748,-0.00229754,-0.05038565,0.00058929,0.00043265,0.00078456,0.
 00031210,0.00069109,-0.00030941,0.00006932,0.00030949,0.00036775,0.000
 05649,-0.00002326,-0.00004174,0.00031531,0.00004785,-0.00004777,-0.000
 04075,0.00017962,0.00006868,0.00002501,0.00004063,-0.00000231,0.000026
 21,0.00003189,0.00000070,0.00003032,-0.00001229,-0.00004525,0.00001660
 ,0.00002870,0.00001758,0.00002210,-0.00010739,0.00004618,-0.00008110,-
 0.00022972,0.00056399,-0.00016461,-0.00038165,0.00034123,0.00018043,0.
 00039354,0.00013906,0.01483442,0.02597992,0.00106981,0.00269680,0.0032
 4282,0.05256781\\0.00005398,-0.00000513,-0.00003418,-0.00006636,-0.000
 00734,-0.00000807,0.00004964,-0.00002731,0.00004482,-0.00000304,-0.000
 00194,0.00001123,0.00004993,0.00000892,-0.00002277,-0.00002018,0.00001
 977,0.00000160,0.00001645,0.00000222,-0.00000641,-0.00003463,0.0000133
 5,0.00001085,-0.00001490,0.00004841,-0.00001363,0.00004701,-0.00002885
 ,0.00002544,-0.00009353,0.00002168,-0.00001618,0.00000204,-0.00010677,
 -0.00000895,-0.00000213,0.00000829,0.00000839,-0.00000917,0.00000788,-
 0.00000635,0.00000621,0.00001690,-0.00001232,0.00001691,-0.00000154,0.
 00000457,-0.00000197,0.00001479,-0.00000884,-0.00000590,-0.00001413,0.
 00002193,-0.00001423,-0.00000499,-0.00007664,-0.00003998,0.00004194,0.
 00002380,0.00004379,0.00001165,0.00004600,0.00000385,-0.00006556,-0.00
 001767,-0.00002145,0.00001906,-0.00000313,0.00000472,-0.00000187,0.000
 00859,0.00000013,0.00000760,0.00000184,0.00000740,0.00001300,0.0000028
 4,-0.00000028,0.00000637,0.00000908,0.00002569,0.00000359,0.00001417\\
 \@


 THE DIFFICULTY IN SCIENCE IS OFTEN NOT SO MUCH HOW
 TO MAKE A DISCOVERY BUT RATHER TO KNOW ONE HAS MADE IT.

                                                   -- J. D. BERNAL
 Job cpu time:       0 days  0 hours  3 minutes 28.9 seconds.
 Elapsed time:       0 days  0 hours  3 minutes 33.3 seconds.
 File lengths (MBytes):  RWF=    151 Int=      0 D2E=      0 Chk=      6 Scr=      1
 Normal termination of Gaussian 16 at Thu Feb 22 10:58:45 2024.
