 Entering Gaussian System, Link 0=g16
 Input=/Volumes/SSD-PMU3/b3lyp_6-31gd_freq/CFXXKBANTXJILF-CKYFFXLPSA-N_calculating/gaussianinput0.gjf
 Output=/Volumes/SSD-PMU3/b3lyp_6-31gd_freq/CFXXKBANTXJILF-CKYFFXLPSA-N_calculating/gaussianinput0.log
 Initial command:
 /Applications/g16/l1.exe "/Users/macmini_m1_2022/PycharmProjects/sphere_model/sphere_model_lib/Gau-81523.inp" -scrdir="/Users/macmini_m1_2022/PycharmProjects/sphere_model/sphere_model_lib/"
 Entering Link 1 = /Applications/g16/l1.exe PID=     81524.
  
 Copyright (c) 1988,1990,1992,1993,1995,1998,2003,2009,2016,
            Gaussian, Inc.  All Rights Reserved.
  
 This is part of the Gaussian(R) 16 program.  It is based on
 the Gaussian(R) 09 system (copyright 2009, Gaussian, Inc.),
 the Gaussian(R) 03 system (copyright 2003, Gaussian, Inc.),
 the Gaussian(R) 98 system (copyright 1998, Gaussian, Inc.),
 the Gaussian(R) 94 system (copyright 1995, Gaussian, Inc.),
 the Gaussian 92(TM) system (copyright 1992, Gaussian, Inc.),
 the Gaussian 90(TM) system (copyright 1990, Gaussian, Inc.),
 the Gaussian 88(TM) system (copyright 1988, Gaussian, Inc.),
 the Gaussian 86(TM) system (copyright 1986, Carnegie Mellon
 University), and the Gaussian 82(TM) system (copyright 1983,
 Carnegie Mellon University). Gaussian is a federally registered
 trademark of Gaussian, Inc.
  
 This software contains proprietary and confidential information,
 including trade secrets, belonging to Gaussian, Inc.
  
 This software is provided under written license and may be
 used, copied, transmitted, or stored only in accord with that
 written license.
  
 The following legend is applicable only to US Government
 contracts under FAR:
  
                    RESTRICTED RIGHTS LEGEND
  
 Use, reproduction and disclosure by the US Government is
 subject to restrictions as set forth in subparagraphs (a)
 and (c) of the Commercial Computer Software - Restricted
 Rights clause in FAR 52.227-19.
  
 Gaussian, Inc.
 340 Quinnipiac St., Bldg. 40, Wallingford CT 06492
  
  
 ---------------------------------------------------------------
 Warning -- This program may not be used in any manner that
 competes with the business of Gaussian, Inc. or will provide
 assistance to any competitor of Gaussian, Inc.  The licensee
 of this program is prohibited from giving any competitor of
 Gaussian, Inc. access to this program.  By using this program,
 the user acknowledges that Gaussian, Inc. is engaged in the
 business of creating and licensing software in the field of
 computational chemistry and represents and warrants to the
 licensee that it is not a competitor of Gaussian, Inc. and that
 it will not use this program in any manner prohibited above.
 ---------------------------------------------------------------
  

 Cite this work as:
 Gaussian 16, Revision A.03,
 M. J. Frisch, G. W. Trucks, H. B. Schlegel, G. E. Scuseria, 
 M. A. Robb, J. R. Cheeseman, G. Scalmani, V. Barone, 
 G. A. Petersson, H. Nakatsuji, X. Li, M. Caricato, A. V. Marenich, 
 J. Bloino, B. G. Janesko, R. Gomperts, B. Mennucci, H. P. Hratchian, 
 J. V. Ortiz, A. F. Izmaylov, J. L. Sonnenberg, D. Williams-Young, 
 F. Ding, F. Lipparini, F. Egidi, J. Goings, B. Peng, A. Petrone, 
 T. Henderson, D. Ranasinghe, V. G. Zakrzewski, J. Gao, N. Rega, 
 G. Zheng, W. Liang, M. Hada, M. Ehara, K. Toyota, R. Fukuda, 
 J. Hasegawa, M. Ishida, T. Nakajima, Y. Honda, O. Kitao, H. Nakai, 
 T. Vreven, K. Throssell, J. A. Montgomery, Jr., J. E. Peralta, 
 F. Ogliaro, M. J. Bearpark, J. J. Heyd, E. N. Brothers, K. N. Kudin, 
 V. N. Staroverov, T. A. Keith, R. Kobayashi, J. Normand, 
 K. Raghavachari, A. P. Rendell, J. C. Burant, S. S. Iyengar, 
 J. Tomasi, M. Cossi, J. M. Millam, M. Klene, C. Adamo, R. Cammi, 
 J. W. Ochterski, R. L. Martin, K. Morokuma, O. Farkas, 
 J. B. Foresman, and D. J. Fox, Gaussian, Inc., Wallingford CT, 2016.
 
 ******************************************
 Gaussian 16:  EM64M-G16RevA.03 25-Dec-2016
                24-Feb-2024 
 ******************************************
 %nprocshared=10
 Will use up to   10 processors via shared memory.
 %mem=12GB
 %chk= 0.chk
 ---------------------
 # freq b3lyp/6-31g(d)
 ---------------------
 1/10=4,30=1,38=1/1,3;
 2/12=2,17=6,18=5,40=1/2;
 3/5=1,6=6,7=1,11=2,25=1,30=1,71=2,74=-5,140=1/1,2,3;
 4//1;
 5/5=2,38=5,98=1/2;
 8/6=4,10=90,11=11/1;
 11/6=1,8=1,9=11,15=111,16=1/1,2,10;
 10/6=1/2;
 6/7=2,8=2,9=2,10=2,28=1/1;
 7/8=1,10=1,25=1/1,2,3,16;
 1/10=4,30=1/3;
 99//99;
 ---------
 good luck
 ---------
 Symbolic Z-matrix:
 Charge =  0 Multiplicity = 1
 O                     1.21654   0.        0. 
 C                     0.        0.        0. 
 C                    -0.81592  -1.28595   0.00301 
 C                    -1.86918  -1.27515   1.12722 
 C                    -2.72272  -0.0056    1.07575 
 O                    -3.62644   0.01159   2.21196 
 C                    -4.80164  -0.6521    2.07901 
 O                    -5.13245  -1.25189   1.07961 
 C                    -5.62413  -0.53331   3.341 
 C                    -1.87625   1.27074   1.1498 
 C                    -2.72423   2.55459   1.11296 
 C                    -1.85262   3.81797   1.15979 
 C                    -0.80754   3.82498   0.03477 
 C                     0.04632   2.54983   0.05307 
 C                    -0.82476   1.28775   0.00301 
 H                    -1.32363  -1.37083  -0.96953 
 H                    -0.13441  -2.13578   0.0971 
 H                    -2.51671  -2.15377   1.04706 
 H                    -1.37034  -1.32036   2.10405 
 H                    -3.33211  -0.00587   0.16469 
 H                    -5.071    -0.94792   4.19021 
 H                    -5.82291   0.51992   3.56475 
 H                    -6.56464  -1.07004   3.21329 
 H                    -1.32956   1.24822   2.10592 
 H                    -3.32344   2.5577    0.18925 
 H                    -3.43241   2.54695   1.94855 
 H                    -2.48712   4.71093   1.09778 
 H                    -1.33973   3.86667   2.13154 
 H                    -0.16244   4.70825   0.1203 
 H                    -1.32061   3.90727  -0.9351 
 H                     0.65771   2.52096   0.96474 
 H                     0.75269   2.53905  -0.78379 
 H                    -1.39187   1.28565  -0.94533 
 

 GradGradGradGradGradGradGradGradGradGradGradGradGradGradGradGradGradGrad
 Berny optimization.
 Initialization pass.
 Trust Radius=3.00D-01 FncErr=1.00D-07 GrdErr=1.00D-07 EigMax=2.50D+02 EigMin=1.00D-04
 Number of steps in this run=      2 maximum allowed number of steps=      2.
 GradGradGradGradGradGradGradGradGradGradGradGradGradGradGradGradGradGrad

                          Input orientation:                          
 ---------------------------------------------------------------------
 Center     Atomic      Atomic             Coordinates (Angstroms)
 Number     Number       Type             X           Y           Z
 ---------------------------------------------------------------------
      1          8           0        1.216543    0.000000    0.000000
      2          6           0        0.000000    0.000000    0.000000
      3          6           0       -0.815924   -1.285950    0.003008
      4          6           0       -1.869183   -1.275146    1.127219
      5          6           0       -2.722717   -0.005599    1.075746
      6          8           0       -3.626441    0.011590    2.211956
      7          6           0       -4.801637   -0.652102    2.079009
      8          8           0       -5.132452   -1.251886    1.079608
      9          6           0       -5.624127   -0.533309    3.341004
     10          6           0       -1.876247    1.270738    1.149801
     11          6           0       -2.724225    2.554585    1.112958
     12          6           0       -1.852616    3.817972    1.159792
     13          6           0       -0.807535    3.824981    0.034769
     14          6           0        0.046321    2.549832    0.053065
     15          6           0       -0.824762    1.287754    0.003008
     16          1           0       -1.323629   -1.370825   -0.969525
     17          1           0       -0.134409   -2.135777    0.097103
     18          1           0       -2.516710   -2.153775    1.047060
     19          1           0       -1.370336   -1.320359    2.104049
     20          1           0       -3.332115   -0.005872    0.164686
     21          1           0       -5.070997   -0.947915    4.190207
     22          1           0       -5.822913    0.519924    3.564745
     23          1           0       -6.564643   -1.070040    3.213291
     24          1           0       -1.329557    1.248224    2.105920
     25          1           0       -3.323438    2.557701    0.189247
     26          1           0       -3.432412    2.546951    1.948545
     27          1           0       -2.487118    4.710930    1.097776
     28          1           0       -1.339725    3.866670    2.131541
     29          1           0       -0.162439    4.708250    0.120299
     30          1           0       -1.320609    3.907271   -0.935095
     31          1           0        0.657705    2.520964    0.964742
     32          1           0        0.752686    2.539047   -0.783792
     33          1           0       -1.391870    1.285653   -0.945330
 ---------------------------------------------------------------------
                    Distance matrix (angstroms):
                    1          2          3          4          5
     1  O    0.000000
     2  C    1.216543   0.000000
     3  C    2.405119   1.522960   0.000000
     4  C    3.523964   2.527937   1.540559   0.000000
     5  C    4.083507   2.927533   2.534941   1.530660   0.000000
     6  O    5.324226   4.247818   3.802902   2.433167   1.451890
     7  C    6.400469   5.272877   4.538442   3.145374   2.397167
     8  O    6.560679   5.392109   4.448892   3.263699   2.712945
     9  C    7.631611   6.563348   5.901483   4.421625   3.718609
    10  C    3.535840   2.541086   2.996009   2.545994   1.533307
    11  C    4.826410   3.896920   4.429821   3.924046   2.560455
    12  C    5.034060   4.399342   5.335063   5.093249   3.922223
    13  C    4.327653   3.909450   5.111037   5.322766   4.407369
    14  C    2.806043   2.550805   3.931818   4.410603   3.904315
    15  C    2.413555   1.529232   2.573719   2.987160   2.534909
    16  H    3.044932   2.138021   1.100358   2.168668   2.829209
    17  H    2.529040   2.142204   1.093400   2.193460   3.492097
    18  H    4.435342   3.474034   2.176198   1.094397   2.158222
    19  H    3.586407   2.836933   2.173230   1.097766   2.148240
    20  H    4.551642   3.336187   2.827712   2.162798   1.096082
    21  H    7.615086   6.646156   5.979344   4.443038   4.012760
    22  H    7.907697   6.847192   6.404459   4.979537   4.010300
    23  H    8.486288   7.386796   6.587891   5.142092   4.523553
    24  H    3.532080   2.785800   3.332881   2.759791   2.138744
    25  H    5.214315   4.197962   4.593034   4.205397   2.777994
    26  H    5.647705   4.697365   5.032122   4.210307   2.789437
    27  H    6.092215   5.439093   6.320916   6.017958   4.722461
    28  H    5.101873   4.614051   5.599510   5.265668   4.245213
    29  H    4.907513   4.712587   6.030857   6.303006   5.448695
    30  H    4.751664   4.229087   5.301348   5.604598   4.617352
    31  H    2.756499   2.778230   4.193937   4.563114   4.221741
    32  H    2.697453   2.761816   4.208348   5.007417   4.691645
    33  H    3.057838   2.117511   2.800750   3.328810   2.742851
                    6          7          8          9         10
     6  O    0.000000
     7  C    1.356189   0.000000
     8  O    2.268624   1.211603   0.000000
     9  C    2.358477   1.511037   2.423223   0.000000
    10  C    2.403499   3.621967   4.119640   4.701336   0.000000
    11  C    2.913523   3.941032   4.504430   4.786304   1.539054
    12  C    4.329209   5.433530   6.038809   6.157567   2.547363
    13  C    5.218077   6.338457   6.750642   7.288720   2.984895
    14  C    4.959099   6.153010   6.505885   7.243637   2.556400
    15  C    3.789123   4.887572   5.115177   6.123103   1.555971
    16  H    4.163633   4.680455   4.326688   6.146249   3.431441
    17  H    4.612816   5.283205   5.169818   6.574785   3.968188
    18  H    2.697645   2.922470   2.767051   4.188571   3.485404
    19  H    2.622164   3.495858   3.899703   4.499360   2.807191
    20  H    2.068392   2.498348   2.372940   3.952278   2.172495
    21  H    2.630754   2.148771   3.126020   1.094987   4.936893
    22  H    2.629245   2.150363   3.129210   1.094932   4.687414
    23  H    3.287191   2.137629   2.576207   1.090395   5.631899
    24  H    2.610782   3.958194   4.665391   4.810678   1.101608
    25  H    3.265860   4.007382   4.310247   4.978060   2.161782
    26  H    2.556382   3.482203   4.251629   4.028717   2.165262
    27  H    4.962182   5.923000   6.523289   6.509604   3.494394
    28  H    4.482988   5.692705   6.456853   6.259290   2.826753
    29  H    6.199432   7.354732   7.819496   8.226598   3.976619
    30  H    5.513358   6.479989   6.723546   7.518247   3.406880
    31  H    5.119219   6.412048   6.911838   7.378118   2.831647
    32  H    5.877014   7.016378   7.244190   8.192500   3.501240
    33  H    4.072468   4.952578   4.952922   6.292319   2.150446
                   11         12         13         14         15
    11  C    0.000000
    12  C    1.535592   0.000000
    13  C    2.539704   1.535552   0.000000
    14  C    2.966365   2.537516   1.534734   0.000000
    15  C    2.538663   2.965912   2.537484   1.534318   0.000000
    16  H    4.659104   5.633599   5.317082   4.277149   2.874497
    17  H    5.453311   6.287183   5.998968   4.689300   3.493709
    18  H    4.713391   6.009617   6.300122   5.448034   3.974526
    19  H    4.222614   5.246586   5.574333   4.603459   3.393269
    20  H    2.797265   4.219116   4.589751   4.237678   2.826027
    21  H    5.219608   6.500390   7.630551   7.452323   6.368780
    22  H    4.444432   5.694223   6.966933   7.134447   6.185228
    23  H    5.683143   7.093146   8.198081   8.172842   6.986512
    24  H    2.153521   2.787894   3.346917   2.793105   2.163012
    25  H    1.101049   2.166462   2.821282   3.372519   2.809062
    26  H    1.095351   2.175633   3.490828   3.961620   3.488629
    27  H    2.169395   1.097184   2.176210   3.489997   3.959808
    28  H    2.162387   1.099875   2.163658   2.824048   3.383289
    29  H    3.490901   2.174819   1.097100   2.169532   3.486004
    30  H    2.827440   2.163228   1.100297   2.165086   2.826264
    31  H    3.385343   2.832311   2.170769   1.098080   2.154866
    32  H    3.960658   3.492960   2.181274   1.095170   2.161742
    33  H    2.760780   3.325126   2.783923   2.159476   1.104971
                   16         17         18         19         20
    16  H    0.000000
    17  H    1.771184   0.000000
    18  H    2.470439   2.564781   0.000000
    19  H    3.074343   2.494044   1.768044   0.000000
    20  H    2.680214   3.842706   2.461088   3.055746   0.000000
    21  H    6.390967   6.521842   4.225855   4.264465   4.485084
    22  H    6.661688   7.171915   4.941496   5.034453   4.247462
    23  H    6.712276   7.224565   4.717287   5.317321   4.568991
    24  H    4.039532   4.112808   3.755544   2.568907   3.058003
    25  H    4.557994   5.675133   4.856404   4.745569   2.563705
    26  H    5.320815   6.019352   4.873193   4.385479   3.115946
    27  H    6.528031   7.308487   6.864956   6.215805   4.881895
    28  H    6.086725   6.451441   6.229539   5.187192   4.778569
    29  H    6.284205   6.844124   7.313608   6.460527   5.680824
    30  H    5.278209   6.244272   6.488133   6.047064   4.535236
    31  H    4.776306   4.802653   5.651272   4.490739   4.789953
    32  H    4.430878   4.839100   6.005293   5.267054   4.905285
    33  H    2.657465   3.791313   4.130926   4.011293   2.581612
                   21         22         23         24         25
    21  H    0.000000
    22  H    1.763840   0.000000
    23  H    1.788926   1.789321   0.000000
    24  H    4.813071   4.780046   5.831530   0.000000
    25  H    5.599195   4.668393   5.728067   3.060053   0.000000
    26  H    4.463642   3.526391   4.949048   2.476582   1.762703
    27  H    6.947092   5.897287   7.383849   3.787695   2.482187
    28  H    6.429675   5.775271   7.269185   2.618591   3.069369
    29  H    8.523514   7.838830   9.162066   4.156517   3.823811
    30  H    7.994183   7.210646   8.335624   4.039602   2.663984
    31  H    7.433355   7.263786   8.373386   2.621329   4.056136
    32  H    8.415156   8.137883   9.085455   3.788456   4.190697
    33  H    6.700637   6.368772   7.042798   3.052116   2.576107
                   26         27         28         29         30
    26  H    0.000000
    27  H    2.510019   0.000000
    28  H    2.480823   1.760101   0.000000
    29  H    4.325092   2.521825   2.477772   0.000000
    30  H    3.824338   2.477736   3.066964   1.759767   0.000000
    31  H    4.206852   3.834522   2.676205   2.483936   3.073264
    32  H    4.998077   4.330555   3.826217   2.521959   2.488671
    33  H    3.758882   4.135985   4.016404   3.789622   2.622606
                   31         32         33
    31  H    0.000000
    32  H    1.751205   0.000000
    33  H    3.061883   2.489219   0.000000
 Stoichiometry    C12H18O3
 Framework group  C1[X(C12H18O3)]
 Deg. of freedom    93
 Full point group                 C1      NOp   1
 Largest Abelian subgroup         C1      NOp   1
 Largest concise Abelian subgroup C1      NOp   1
                         Standard orientation:                         
 ---------------------------------------------------------------------
 Center     Atomic      Atomic             Coordinates (Angstroms)
 Number     Number       Type             X           Y           Z
 ---------------------------------------------------------------------
      1          8           0        2.676394    2.282075   -0.565644
      2          6           0        1.709752    1.760011   -0.043121
      3          6           0        0.435917    2.532885    0.272184
      4          6           0       -0.805513    1.814459   -0.289988
      5          6           0       -0.848496    0.350570    0.155098
      6          8           0       -1.972381   -0.312008   -0.481972
      7          6           0       -3.179980   -0.205981    0.126066
      8          8           0       -3.369795    0.404626    1.155197
      9          6           0       -4.235831   -0.951237   -0.656880
     10          6           0        0.416853   -0.418412   -0.243135
     11          6           0        0.379896   -1.895757    0.186719
     12          6           0        1.668854   -2.636412   -0.198066
     13          6           0        2.912731   -1.936875    0.368801
     14          6           0        2.965343   -0.460369   -0.046615
     15          6           0        1.678613    0.280105    0.340886
     16          1           0        0.345781    2.611496    1.366023
     17          1           0        0.530486    3.546445   -0.126908
     18          1           0       -1.717445    2.322680    0.038336
     19          1           0       -0.787148    1.844739   -1.387182
     20          1           0       -1.000762    0.297560    1.239257
     21          1           0       -4.307181   -0.545699   -1.671496
     22          1           0       -3.963916   -2.008040   -0.746911
     23          1           0       -5.197217   -0.856640   -0.151164
     24          1           0        0.491804   -0.382701   -1.341610
     25          1           0        0.241979   -1.944466    1.278009
     26          1           0       -0.491096   -2.384009   -0.263588
     27          1           0        1.620891   -3.674820    0.152963
     28          1           0        1.745830   -2.681005   -1.294337
     29          1           0        3.823026   -2.451422    0.036790
     30          1           0        2.898526   -2.007253    1.466753
     31          1           0        3.104812   -0.381183   -1.132920
     32          1           0        3.826405    0.043487    0.405156
     33          1           0        1.572650    0.255362    1.440486
 ---------------------------------------------------------------------
 Rotational constants (GHZ):           0.8914021           0.4166878           0.3052070
 Standard basis: 6-31G(d) (6D, 7F)
 There are   261 symmetry adapted cartesian basis functions of A   symmetry.
 There are   261 symmetry adapted basis functions of A   symmetry.
   261 basis functions,   492 primitive gaussians,   261 cartesian basis functions
    57 alpha electrons       57 beta electrons
       nuclear repulsion energy      1060.1096296913 Hartrees.
 NAtoms=   33 NActive=   33 NUniq=   33 SFac= 1.00D+00 NAtFMM=   60 NAOKFM=F Big=F
 Integral buffers will be    131072 words long.
 Raffenetti 2 integral format.
 Two-electron integral symmetry is turned on.
 One-electron integrals computed using PRISM.
 NBasis=   261 RedAO= T EigKep=  2.31D-03  NBF=   261
 NBsUse=   261 1.00D-06 EigRej= -1.00D+00 NBFU=   261
 ExpMin= 1.61D-01 ExpMax= 5.48D+03 ExpMxC= 8.25D+02 IAcc=3 IRadAn=         5 AccDes= 0.00D+00
 Harris functional with IExCor=  402 and IRadAn=       5 diagonalized for initial guess.
 HarFok:  IExCor=  402 AccDes= 0.00D+00 IRadAn=         5 IDoV= 1 UseB2=F ITyADJ=14
 ICtDFT=  3500011 ScaDFX=  1.000000  1.000000  1.000000  1.000000
 FoFCou: FMM=F IPFlag=           0 FMFlag=      100000 FMFlg1=           0
         NFxFlg=           0 DoJE=T BraDBF=F KetDBF=T FulRan=T
         wScrn=  0.000000 ICntrl=       500 IOpCl=  0 I1Cent=   200000004 NGrid=           0
         NMat0=    1 NMatS0=      1 NMatT0=    0 NMatD0=    1 NMtDS0=    0 NMtDT0=    0
 Petite list used in FoFCou.
 Requested convergence on RMS density matrix=1.00D-08 within 128 cycles.
 Requested convergence on MAX density matrix=1.00D-06.
 Requested convergence on             energy=1.00D-06.
 No special actions if energy rises.
 Integral accuracy reduced to 1.0D-05 until final iterations.
 Initial convergence to 1.0D-05 achieved.  Increase integral accuracy.
 SCF Done:  E(RB3LYP) =  -693.825193833     A.U. after   14 cycles
            NFock= 14  Conv=0.91D-08     -V/T= 2.0094
 DoSCS=F DFT=T ScalE2(SS,OS)=  1.000000  1.000000
 Range of M.O.s used for correlation:     1   261
 NBasis=   261 NAE=    57 NBE=    57 NFC=     0 NFV=     0
 NROrb=    261 NOA=    57 NOB=    57 NVA=   204 NVB=   204
 Symmetrizing basis deriv contribution to polar:
 IMax=3 JMax=2 DiffMx= 0.00D+00
 G2DrvN: will do    34 centers at a time, making    1 passes.
 Calling FoFCou, ICntrl=  3107 FMM=F I1Cent=   0 AccDes= 0.00D+00.
 End of G2Drv F.D. properties file   721 does not exist.
 End of G2Drv F.D. properties file   722 does not exist.
 End of G2Drv F.D. properties file   788 does not exist.
          IDoAtm=111111111111111111111111111111111
          Differentiating once with respect to electric field.
                with respect to dipole field.
          Differentiating once with respect to nuclear coordinates.
 Keep R1 ints in memory in canonical form, NReq=595457185.
          There are   102 degrees of freedom in the 1st order CPHF.  IDoFFX=6 NUNeed=     3.
     99 vectors produced by pass  0 Test12= 1.16D-14 1.00D-09 XBig12= 8.98D+01 2.25D+00.
 AX will form    99 AO Fock derivatives at one time.
     99 vectors produced by pass  1 Test12= 1.16D-14 1.00D-09 XBig12= 1.24D+01 1.13D+00.
     99 vectors produced by pass  2 Test12= 1.16D-14 1.00D-09 XBig12= 8.25D-02 2.45D-02.
     99 vectors produced by pass  3 Test12= 1.16D-14 1.00D-09 XBig12= 2.23D-04 1.58D-03.
     99 vectors produced by pass  4 Test12= 1.16D-14 1.00D-09 XBig12= 2.78D-07 8.15D-05.
     57 vectors produced by pass  5 Test12= 1.16D-14 1.00D-09 XBig12= 2.13D-10 1.37D-06.
      4 vectors produced by pass  6 Test12= 1.16D-14 1.00D-09 XBig12= 1.27D-13 3.36D-08.
      1 vectors produced by pass  7 Test12= 1.16D-14 1.00D-09 XBig12= 1.06D-16 1.26D-09.
 InvSVY:  IOpt=1 It=  1 EMax= 5.33D-15
 Solved reduced A of dimension   557 with   102 vectors.
 Isotropic polarizability for W=    0.000000      126.94 Bohr**3.
 End of Minotr F.D. properties file   721 does not exist.
 End of Minotr F.D. properties file   722 does not exist.
 End of Minotr F.D. properties file   788 does not exist.

 **********************************************************************

            Population analysis using the SCF density.

 **********************************************************************

 Orbital symmetries:
       Occupied  (A) (A) (A) (A) (A) (A) (A) (A) (A) (A) (A) (A)
                 (A) (A) (A) (A) (A) (A) (A) (A) (A) (A) (A) (A)
                 (A) (A) (A) (A) (A) (A) (A) (A) (A) (A) (A) (A)
                 (A) (A) (A) (A) (A) (A) (A) (A) (A) (A) (A) (A)
                 (A) (A) (A) (A) (A) (A) (A) (A) (A)
       Virtual   (A) (A) (A) (A) (A) (A) (A) (A) (A) (A) (A) (A)
                 (A) (A) (A) (A) (A) (A) (A) (A) (A) (A) (A) (A)
                 (A) (A) (A) (A) (A) (A) (A) (A) (A) (A) (A) (A)
                 (A) (A) (A) (A) (A) (A) (A) (A) (A) (A) (A) (A)
                 (A) (A) (A) (A) (A) (A) (A) (A) (A) (A) (A) (A)
                 (A) (A) (A) (A) (A) (A) (A) (A) (A) (A) (A) (A)
                 (A) (A) (A) (A) (A) (A) (A) (A) (A) (A) (A) (A)
                 (A) (A) (A) (A) (A) (A) (A) (A) (A) (A) (A) (A)
                 (A) (A) (A) (A) (A) (A) (A) (A) (A) (A) (A) (A)
                 (A) (A) (A) (A) (A) (A) (A) (A) (A) (A) (A) (A)
                 (A) (A) (A) (A) (A) (A) (A) (A) (A) (A) (A) (A)
                 (A) (A) (A) (A) (A) (A) (A) (A) (A) (A) (A) (A)
                 (A) (A) (A) (A) (A) (A) (A) (A) (A) (A) (A) (A)
                 (A) (A) (A) (A) (A) (A) (A) (A) (A) (A) (A) (A)
                 (A) (A) (A) (A) (A) (A) (A) (A) (A) (A) (A) (A)
                 (A) (A) (A) (A) (A) (A) (A) (A) (A) (A) (A) (A)
                 (A) (A) (A) (A) (A) (A) (A) (A) (A) (A) (A) (A)
 The electronic state is 1-A.
 Alpha  occ. eigenvalues --  -19.19269 -19.13942 -19.13902 -10.32103 -10.27255
 Alpha  occ. eigenvalues --  -10.25080 -10.20336 -10.20061 -10.20021 -10.19804
 Alpha  occ. eigenvalues --  -10.19699 -10.18652 -10.18425 -10.18269 -10.18115
 Alpha  occ. eigenvalues --   -1.10181  -1.03805  -1.01691  -0.85580  -0.81011
 Alpha  occ. eigenvalues --   -0.77025  -0.74956  -0.74771  -0.70678  -0.63495
 Alpha  occ. eigenvalues --   -0.62632  -0.60520  -0.57323  -0.55542  -0.53399
 Alpha  occ. eigenvalues --   -0.49580  -0.48520  -0.47589  -0.47286  -0.45491
 Alpha  occ. eigenvalues --   -0.45281  -0.44764  -0.44505  -0.42246  -0.41588
 Alpha  occ. eigenvalues --   -0.41380  -0.40142  -0.39788  -0.38998  -0.37275
 Alpha  occ. eigenvalues --   -0.37067  -0.35823  -0.35485  -0.35240  -0.34364
 Alpha  occ. eigenvalues --   -0.33593  -0.32500  -0.31796  -0.30556  -0.29433
 Alpha  occ. eigenvalues --   -0.27451  -0.23983
 Alpha virt. eigenvalues --   -0.01727   0.00822   0.08338   0.08886   0.09103
 Alpha virt. eigenvalues --    0.10335   0.12417   0.13203   0.13603   0.13918
 Alpha virt. eigenvalues --    0.14825   0.15413   0.15706   0.16340   0.16646
 Alpha virt. eigenvalues --    0.17555   0.17996   0.18273   0.18741   0.19206
 Alpha virt. eigenvalues --    0.19818   0.20558   0.21151   0.21602   0.22407
 Alpha virt. eigenvalues --    0.23916   0.25417   0.26008   0.26740   0.28968
 Alpha virt. eigenvalues --    0.29005   0.29614   0.30604   0.34452   0.36528
 Alpha virt. eigenvalues --    0.37239   0.48676   0.50161   0.51140   0.51817
 Alpha virt. eigenvalues --    0.52902   0.53954   0.54929   0.55816   0.56480
 Alpha virt. eigenvalues --    0.57694   0.58241   0.60056   0.60969   0.61301
 Alpha virt. eigenvalues --    0.62412   0.63111   0.65382   0.66046   0.67578
 Alpha virt. eigenvalues --    0.68028   0.70463   0.70856   0.70945   0.71755
 Alpha virt. eigenvalues --    0.73566   0.76173   0.76890   0.78036   0.79527
 Alpha virt. eigenvalues --    0.80631   0.81797   0.82990   0.84096   0.84702
 Alpha virt. eigenvalues --    0.85349   0.86251   0.86819   0.86976   0.87916
 Alpha virt. eigenvalues --    0.89132   0.89579   0.90102   0.90720   0.91674
 Alpha virt. eigenvalues --    0.92184   0.93098   0.93354   0.94223   0.94998
 Alpha virt. eigenvalues --    0.95527   0.96707   0.97235   1.01218   1.02227
 Alpha virt. eigenvalues --    1.02531   1.04664   1.09632   1.10534   1.11032
 Alpha virt. eigenvalues --    1.13227   1.15094   1.17957   1.19814   1.21499
 Alpha virt. eigenvalues --    1.24399   1.30504   1.32815   1.35354   1.36214
 Alpha virt. eigenvalues --    1.40614   1.41730   1.42935   1.45182   1.48292
 Alpha virt. eigenvalues --    1.50147   1.54002   1.56057   1.57062   1.58214
 Alpha virt. eigenvalues --    1.62975   1.65597   1.68265   1.69067   1.71595
 Alpha virt. eigenvalues --    1.72223   1.73686   1.75782   1.76102   1.78580
 Alpha virt. eigenvalues --    1.79679   1.80737   1.81852   1.82976   1.85027
 Alpha virt. eigenvalues --    1.86287   1.87092   1.88707   1.90398   1.91765
 Alpha virt. eigenvalues --    1.92523   1.94365   1.95497   1.96051   1.97174
 Alpha virt. eigenvalues --    1.98393   1.98930   1.99511   2.01712   2.03915
 Alpha virt. eigenvalues --    2.04491   2.05322   2.08225   2.09327   2.11392
 Alpha virt. eigenvalues --    2.13311   2.14637   2.16917   2.20165   2.21651
 Alpha virt. eigenvalues --    2.22713   2.27969   2.30141   2.32507   2.33194
 Alpha virt. eigenvalues --    2.34580   2.38516   2.38683   2.39473   2.39814
 Alpha virt. eigenvalues --    2.43912   2.44355   2.45859   2.48773   2.52755
 Alpha virt. eigenvalues --    2.58152   2.59779   2.61151   2.61493   2.63728
 Alpha virt. eigenvalues --    2.65472   2.66737   2.73403   2.75056   2.75724
 Alpha virt. eigenvalues --    2.77878   2.81132   2.85548   2.88610   2.96321
 Alpha virt. eigenvalues --    2.98732   3.04757   3.07836   3.13402   3.99121
 Alpha virt. eigenvalues --    4.04373   4.10583   4.14464   4.18003   4.22784
 Alpha virt. eigenvalues --    4.26010   4.31396   4.35901   4.44740   4.54380
 Alpha virt. eigenvalues --    4.55261   4.59858   4.63257   4.70951
          Condensed to atoms (all electrons):
               1          2          3          4          5          6
     1  O    8.002237   0.586628  -0.073992   0.001167   0.000163   0.000000
     2  C    0.586628   4.523325   0.343913  -0.030395  -0.012001   0.000157
     3  C   -0.073992   0.343913   5.301296   0.314622  -0.036148   0.002590
     4  C    0.001167  -0.030395   0.314622   5.109928   0.367988  -0.030728
     5  C    0.000163  -0.012001  -0.036148   0.367988   4.853960   0.155883
     6  O    0.000000   0.000157   0.002590  -0.030728   0.155883   8.349778
     7  C    0.000000   0.000003   0.000046  -0.004387  -0.006353   0.238467
     8  O    0.000000  -0.000001  -0.000043  -0.004176  -0.001949  -0.077298
     9  C    0.000000   0.000000   0.000001  -0.000474   0.005507  -0.098683
    10  C    0.000275  -0.017636  -0.006306  -0.042474   0.362052  -0.040220
    11  C   -0.000057   0.002478  -0.000148   0.004844  -0.034618  -0.002381
    12  C   -0.000011  -0.000026  -0.000023  -0.000106   0.003321   0.000203
    13  C    0.000628   0.004378  -0.000069  -0.000024   0.000173  -0.000006
    14  C    0.006781  -0.027564   0.006039  -0.000053   0.003470  -0.000038
    15  C   -0.093523   0.279454  -0.137659   0.000017  -0.035838   0.002160
    16  H    0.001273  -0.031282   0.352862  -0.035553  -0.003468  -0.000018
    17  H    0.005225  -0.022970   0.343164  -0.022830   0.003460  -0.000043
    18  H   -0.000055   0.003262  -0.024873   0.364000  -0.026321  -0.004093
    19  H    0.000418  -0.003213  -0.036963   0.365720  -0.035843   0.000480
    20  H   -0.000005  -0.001593   0.001994  -0.052046   0.361172  -0.037434
    21  H   -0.000000   0.000000  -0.000000   0.000083  -0.000154   0.002741
    22  H   -0.000000  -0.000000   0.000000   0.000004  -0.000195   0.002534
    23  H   -0.000000  -0.000000  -0.000000   0.000011  -0.000167   0.003479
    24  H    0.000425  -0.003429   0.000728  -0.007671  -0.037786  -0.000138
    25  H   -0.000000  -0.000010  -0.000010   0.000048  -0.004217  -0.000138
    26  H    0.000000  -0.000074  -0.000004   0.000190  -0.007576   0.009208
    27  H    0.000000   0.000007  -0.000000   0.000002  -0.000114  -0.000000
    28  H   -0.000000  -0.000035  -0.000000   0.000003   0.000036   0.000002
    29  H    0.000002  -0.000076   0.000002  -0.000000   0.000006  -0.000000
    30  H   -0.000003  -0.000067  -0.000000   0.000001  -0.000026   0.000000
    31  H    0.003876  -0.004472   0.000260  -0.000053   0.000064  -0.000000
    32  H    0.004894  -0.003034   0.000205  -0.000004  -0.000119   0.000000
    33  H    0.001195  -0.035776   0.002582  -0.001802  -0.003443  -0.000023
               7          8          9         10         11         12
     1  O    0.000000   0.000000   0.000000   0.000275  -0.000057  -0.000011
     2  C    0.000003  -0.000001   0.000000  -0.017636   0.002478  -0.000026
     3  C    0.000046  -0.000043   0.000001  -0.006306  -0.000148  -0.000023
     4  C   -0.004387  -0.004176  -0.000474  -0.042474   0.004844  -0.000106
     5  C   -0.006353  -0.001949   0.005507   0.362052  -0.034618   0.003321
     6  O    0.238467  -0.077298  -0.098683  -0.040220  -0.002381   0.000203
     7  C    4.296489   0.563119   0.366217   0.004111   0.000341  -0.000004
     8  O    0.563119   8.029154  -0.070208   0.000922  -0.000081  -0.000000
     9  C    0.366217  -0.070208   5.251269  -0.000144  -0.000074   0.000000
    10  C    0.004111   0.000922  -0.000144   5.040707   0.371536  -0.033368
    11  C    0.000341  -0.000081  -0.000074   0.371536   5.042213   0.374722
    12  C   -0.000004  -0.000000   0.000000  -0.033368   0.374722   5.000894
    13  C    0.000000  -0.000000  -0.000000  -0.012573  -0.045833   0.378864
    14  C    0.000001   0.000000  -0.000000  -0.033380  -0.012047  -0.042152
    15  C   -0.000011   0.000013   0.000003   0.336634  -0.034209  -0.013269
    16  H   -0.000006   0.000012   0.000000  -0.001319  -0.000014   0.000001
    17  H   -0.000006  -0.000000  -0.000000  -0.000105   0.000011   0.000000
    18  H    0.004076   0.006295   0.000085   0.004734  -0.000140   0.000002
    19  H    0.000253   0.000080   0.000006  -0.008680  -0.000023   0.000001
    20  H   -0.005095   0.016939   0.000853  -0.047770  -0.007127   0.000013
    21  H   -0.021254   0.001047   0.357200  -0.000020   0.000003  -0.000000
    22  H   -0.019988   0.001169   0.355739  -0.000010   0.000006  -0.000000
    23  H   -0.023784   0.003698   0.358726   0.000002   0.000000   0.000000
    24  H   -0.000218  -0.000010  -0.000006   0.358457  -0.046332  -0.003519
    25  H    0.000030  -0.000011  -0.000003  -0.042685   0.366822  -0.039192
    26  H    0.000159   0.000003   0.000034  -0.033196   0.365925  -0.030275
    27  H   -0.000000   0.000000   0.000000   0.004355  -0.032323   0.369347
    28  H    0.000000  -0.000000  -0.000000  -0.005738  -0.040217   0.372141
    29  H   -0.000000   0.000000  -0.000000   0.000184   0.004735  -0.032700
    30  H   -0.000000  -0.000000  -0.000000  -0.000996  -0.004301  -0.041443
    31  H   -0.000000  -0.000000  -0.000000  -0.006506  -0.000760  -0.004568
    32  H    0.000000   0.000000   0.000000   0.004273   0.000058   0.004615
    33  H   -0.000006  -0.000005  -0.000000  -0.044909  -0.007648  -0.000717
              13         14         15         16         17         18
     1  O    0.000628   0.006781  -0.093523   0.001273   0.005225  -0.000055
     2  C    0.004378  -0.027564   0.279454  -0.031282  -0.022970   0.003262
     3  C   -0.000069   0.006039  -0.137659   0.352862   0.343164  -0.024873
     4  C   -0.000024  -0.000053   0.000017  -0.035553  -0.022830   0.364000
     5  C    0.000173   0.003470  -0.035838  -0.003468   0.003460  -0.026321
     6  O   -0.000006  -0.000038   0.002160  -0.000018  -0.000043  -0.004093
     7  C    0.000000   0.000001  -0.000011  -0.000006  -0.000006   0.004076
     8  O   -0.000000   0.000000   0.000013   0.000012  -0.000000   0.006295
     9  C   -0.000000  -0.000000   0.000003   0.000000  -0.000000   0.000085
    10  C   -0.012573  -0.033380   0.336634  -0.001319  -0.000105   0.004734
    11  C   -0.045833  -0.012047  -0.034209  -0.000014   0.000011  -0.000140
    12  C    0.378864  -0.042152  -0.013269   0.000001   0.000000   0.000002
    13  C    5.025607   0.356667  -0.034161  -0.000004   0.000001   0.000000
    14  C    0.356667   5.010753   0.354158  -0.000104  -0.000157   0.000008
    15  C   -0.034161   0.354158   5.337844   0.003637   0.006739  -0.000273
    16  H   -0.000004  -0.000104   0.003637   0.572547  -0.026008  -0.005965
    17  H    0.000001  -0.000157   0.006739  -0.026008   0.550842  -0.002354
    18  H    0.000000   0.000008  -0.000273  -0.005965  -0.002354   0.552756
    19  H   -0.000001  -0.000048   0.000793   0.005484  -0.003681  -0.034714
    20  H   -0.000028  -0.000031  -0.001376   0.004132  -0.000134  -0.005464
    21  H    0.000000   0.000000  -0.000000  -0.000000   0.000000  -0.000048
    22  H    0.000000   0.000000   0.000000   0.000000   0.000000   0.000000
    23  H    0.000000   0.000000  -0.000000  -0.000000   0.000000   0.000002
    24  H   -0.000537  -0.004390  -0.047869   0.000097  -0.000049  -0.000095
    25  H   -0.004514  -0.000550  -0.007454  -0.000006  -0.000000   0.000002
    26  H    0.004522  -0.000033   0.005006   0.000000  -0.000000   0.000001
    27  H   -0.032500   0.004590   0.000237  -0.000000   0.000000  -0.000000
    28  H   -0.040656  -0.003961  -0.001112  -0.000000  -0.000000   0.000000
    29  H    0.371184  -0.032894   0.004357  -0.000000  -0.000000   0.000000
    30  H    0.369587  -0.038246  -0.005995  -0.000001   0.000000  -0.000000
    31  H   -0.039612   0.375710  -0.041751  -0.000004  -0.000000   0.000000
    32  H   -0.032250   0.371786  -0.033554  -0.000015  -0.000004   0.000000
    33  H   -0.002758  -0.040749   0.346025   0.001543  -0.000125  -0.000038
              19         20         21         22         23         24
     1  O    0.000418  -0.000005  -0.000000  -0.000000  -0.000000   0.000425
     2  C   -0.003213  -0.001593   0.000000  -0.000000  -0.000000  -0.003429
     3  C   -0.036963   0.001994  -0.000000   0.000000  -0.000000   0.000728
     4  C    0.365720  -0.052046   0.000083   0.000004   0.000011  -0.007671
     5  C   -0.035843   0.361172  -0.000154  -0.000195  -0.000167  -0.037786
     6  O    0.000480  -0.037434   0.002741   0.002534   0.003479  -0.000138
     7  C    0.000253  -0.005095  -0.021254  -0.019988  -0.023784  -0.000218
     8  O    0.000080   0.016939   0.001047   0.001169   0.003698  -0.000010
     9  C    0.000006   0.000853   0.357200   0.355739   0.358726  -0.000006
    10  C   -0.008680  -0.047770  -0.000020  -0.000010   0.000002   0.358457
    11  C   -0.000023  -0.007127   0.000003   0.000006   0.000000  -0.046332
    12  C    0.000001   0.000013  -0.000000  -0.000000   0.000000  -0.003519
    13  C   -0.000001  -0.000028   0.000000   0.000000   0.000000  -0.000537
    14  C   -0.000048  -0.000031   0.000000   0.000000   0.000000  -0.004390
    15  C    0.000793  -0.001376  -0.000000   0.000000  -0.000000  -0.047869
    16  H    0.005484   0.004132  -0.000000   0.000000  -0.000000   0.000097
    17  H   -0.003681  -0.000134   0.000000   0.000000   0.000000  -0.000049
    18  H   -0.034714  -0.005464  -0.000048   0.000000   0.000002  -0.000095
    19  H    0.586611   0.006079   0.000002   0.000001   0.000001   0.005399
    20  H    0.006079   0.595850  -0.000005  -0.000049   0.000011   0.006254
    21  H    0.000002  -0.000005   0.524276  -0.024522  -0.022165   0.000002
    22  H    0.000001  -0.000049  -0.024522   0.525160  -0.022186   0.000005
    23  H    0.000001   0.000011  -0.022165  -0.022186   0.518318   0.000000
    24  H    0.005399   0.006254   0.000002   0.000005   0.000000   0.626302
    25  H    0.000006   0.005159   0.000000   0.000000   0.000000   0.006294
    26  H    0.000007   0.000200  -0.000003   0.000348  -0.000001  -0.003665
    27  H    0.000000  -0.000001  -0.000000  -0.000000   0.000000  -0.000066
    28  H   -0.000001   0.000005   0.000000  -0.000000  -0.000000   0.004982
    29  H   -0.000000  -0.000000  -0.000000  -0.000000   0.000000  -0.000029
    30  H   -0.000000  -0.000005  -0.000000  -0.000000  -0.000000   0.000150
    31  H   -0.000010   0.000004   0.000000   0.000000  -0.000000   0.005241
    32  H    0.000000   0.000003  -0.000000   0.000000  -0.000000  -0.000032
    33  H    0.000108   0.005124  -0.000000   0.000000   0.000000   0.006997
              25         26         27         28         29         30
     1  O   -0.000000   0.000000   0.000000  -0.000000   0.000002  -0.000003
     2  C   -0.000010  -0.000074   0.000007  -0.000035  -0.000076  -0.000067
     3  C   -0.000010  -0.000004  -0.000000  -0.000000   0.000002  -0.000000
     4  C    0.000048   0.000190   0.000002   0.000003  -0.000000   0.000001
     5  C   -0.004217  -0.007576  -0.000114   0.000036   0.000006  -0.000026
     6  O   -0.000138   0.009208  -0.000000   0.000002  -0.000000   0.000000
     7  C    0.000030   0.000159  -0.000000   0.000000  -0.000000  -0.000000
     8  O   -0.000011   0.000003   0.000000  -0.000000   0.000000  -0.000000
     9  C   -0.000003   0.000034   0.000000  -0.000000  -0.000000  -0.000000
    10  C   -0.042685  -0.033196   0.004355  -0.005738   0.000184  -0.000996
    11  C    0.366822   0.365925  -0.032323  -0.040217   0.004735  -0.004301
    12  C   -0.039192  -0.030275   0.369347   0.372141  -0.032700  -0.041443
    13  C   -0.004514   0.004522  -0.032500  -0.040656   0.371184   0.369587
    14  C   -0.000550  -0.000033   0.004590  -0.003961  -0.032894  -0.038246
    15  C   -0.007454   0.005006   0.000237  -0.001112   0.004357  -0.005995
    16  H   -0.000006   0.000000  -0.000000  -0.000000  -0.000000  -0.000001
    17  H   -0.000000  -0.000000   0.000000  -0.000000  -0.000000   0.000000
    18  H    0.000002   0.000001  -0.000000   0.000000   0.000000  -0.000000
    19  H    0.000006   0.000007   0.000000  -0.000001  -0.000000  -0.000000
    20  H    0.005159   0.000200  -0.000001   0.000005  -0.000000  -0.000005
    21  H    0.000000  -0.000003  -0.000000   0.000000  -0.000000  -0.000000
    22  H    0.000000   0.000348  -0.000000  -0.000000  -0.000000  -0.000000
    23  H    0.000000  -0.000001   0.000000  -0.000000   0.000000  -0.000000
    24  H    0.006294  -0.003665  -0.000066   0.004982  -0.000029   0.000150
    25  H    0.615485  -0.035081  -0.004374   0.005931  -0.000049   0.004811
    26  H   -0.035081   0.583656  -0.002070  -0.004076  -0.000151  -0.000047
    27  H   -0.004374  -0.002070   0.601727  -0.036590  -0.002209  -0.004417
    28  H    0.005931  -0.004076  -0.036590   0.610330  -0.004369   0.006023
    29  H   -0.000049  -0.000151  -0.002209  -0.004369   0.598430  -0.036694
    30  H    0.004811  -0.000047  -0.004417   0.006023  -0.036694   0.616893
    31  H    0.000146  -0.000022  -0.000055   0.004591  -0.004087   0.005688
    32  H   -0.000024   0.000013  -0.000149  -0.000051  -0.002095  -0.004078
    33  H    0.005826  -0.000011  -0.000045   0.000177  -0.000050   0.005017
              31         32         33
     1  O    0.003876   0.004894   0.001195
     2  C   -0.004472  -0.003034  -0.035776
     3  C    0.000260   0.000205   0.002582
     4  C   -0.000053  -0.000004  -0.001802
     5  C    0.000064  -0.000119  -0.003443
     6  O   -0.000000   0.000000  -0.000023
     7  C   -0.000000   0.000000  -0.000006
     8  O   -0.000000   0.000000  -0.000005
     9  C   -0.000000   0.000000  -0.000000
    10  C   -0.006506   0.004273  -0.044909
    11  C   -0.000760   0.000058  -0.007648
    12  C   -0.004568   0.004615  -0.000717
    13  C   -0.039612  -0.032250  -0.002758
    14  C    0.375710   0.371786  -0.040749
    15  C   -0.041751  -0.033554   0.346025
    16  H   -0.000004  -0.000015   0.001543
    17  H   -0.000000  -0.000004  -0.000125
    18  H    0.000000   0.000000  -0.000038
    19  H   -0.000010   0.000000   0.000108
    20  H    0.000004   0.000003   0.005124
    21  H    0.000000  -0.000000  -0.000000
    22  H    0.000000   0.000000   0.000000
    23  H   -0.000000  -0.000000   0.000000
    24  H    0.005241  -0.000032   0.006997
    25  H    0.000146  -0.000024   0.005826
    26  H   -0.000022   0.000013  -0.000011
    27  H   -0.000055  -0.000149  -0.000045
    28  H    0.004591  -0.000051   0.000177
    29  H   -0.004087  -0.002095  -0.000050
    30  H    0.005688  -0.004078   0.005017
    31  H    0.590422  -0.033107   0.006121
    32  H   -0.033107   0.576849  -0.003914
    33  H    0.006121  -0.003914   0.621786
 Mulliken charges:
               1
     1  O   -0.447540
     2  C    0.450049
     3  C   -0.354065
     4  C   -0.295850
     5  C    0.129081
     6  O   -0.476438
     7  C    0.607800
     8  O   -0.468668
     9  C   -0.526050
    10  C   -0.110206
    11  C   -0.265362
    12  C   -0.262751
    13  C   -0.266085
    14  C   -0.253565
    15  C   -0.189022
    16  H    0.162177
    17  H    0.169025
    18  H    0.169212
    19  H    0.151732
    20  H    0.154372
    21  H    0.182817
    22  H    0.181983
    23  H    0.184054
    24  H    0.134508
    25  H    0.127757
    26  H    0.147011
    27  H    0.134648
    28  H    0.132587
    29  H    0.136502
    30  H    0.128149
    31  H    0.142883
    32  H    0.149734
    33  H    0.139521
 Sum of Mulliken charges =  -0.00000
 Mulliken charges with hydrogens summed into heavy atoms:
               1
     1  O   -0.447540
     2  C    0.450049
     3  C   -0.022863
     4  C    0.025095
     5  C    0.283452
     6  O   -0.476438
     7  C    0.607800
     8  O   -0.468668
     9  C    0.022804
    10  C    0.024303
    11  C    0.009406
    12  C    0.004484
    13  C   -0.001434
    14  C    0.039052
    15  C   -0.049502
 APT charges:
               1
     1  O   -0.642766
     2  C    0.729376
     3  C   -0.048876
     4  C    0.053032
     5  C    0.510802
     6  O   -0.969850
     7  C    1.187677
     8  O   -0.696094
     9  C   -0.076460
    10  C    0.069434
    11  C    0.087671
    12  C    0.127173
    13  C    0.123392
    14  C    0.095004
    15  C   -0.068363
    16  H   -0.003810
    17  H   -0.027538
    18  H   -0.018079
    19  H   -0.023101
    20  H   -0.026135
    21  H    0.022475
    22  H    0.023327
    23  H    0.011440
    24  H   -0.043845
    25  H   -0.045075
    26  H   -0.035637
    27  H   -0.062129
    28  H   -0.048517
    29  H   -0.061529
    30  H   -0.050403
    31  H   -0.029235
    32  H   -0.034819
    33  H   -0.028541
 Sum of APT charges =   0.00000
 APT charges with hydrogens summed into heavy atoms:
               1
     1  O   -0.642766
     2  C    0.729376
     3  C   -0.080225
     4  C    0.011851
     5  C    0.484667
     6  O   -0.969850
     7  C    1.187677
     8  O   -0.696094
     9  C   -0.019217
    10  C    0.025589
    11  C    0.006959
    12  C    0.016527
    13  C    0.011460
    14  C    0.030950
    15  C   -0.096904
 Electronic spatial extent (au):  <R**2>=           3657.5525
 Charge=              0.0000 electrons
 Dipole moment (field-independent basis, Debye):
    X=             -1.2724    Y=             -2.0985    Z=             -0.4121  Tot=              2.4885
 Quadrupole moment (field-independent basis, Debye-Ang):
   XX=            -96.9397   YY=            -90.8870   ZZ=            -90.8789
   XY=             -3.5124   XZ=             10.0194   YZ=              1.5906
 Traceless Quadrupole moment (field-independent basis, Debye-Ang):
   XX=             -4.0378   YY=              2.0149   ZZ=              2.0229
   XY=             -3.5124   XZ=             10.0194   YZ=              1.5906
 Octapole moment (field-independent basis, Debye-Ang**2):
  XXX=            -47.9941  YYY=              0.2060  ZZZ=             -3.3990  XYY=            -26.2512
  XXY=            -40.2895  XXZ=            -19.4475  XZZ=              3.7161  YZZ=              2.1642
  YYZ=              5.5628  XYZ=             11.2470
 Hexadecapole moment (field-independent basis, Debye-Ang**3):
 XXXX=          -2998.3559 YYYY=          -1460.3486 ZZZZ=           -261.4472 XXXY=             19.9239
 XXXZ=            110.9232 YYYX=            -20.7196 YYYZ=             11.6060 ZZZX=              1.5361
 ZZZY=             -2.1039 XXYY=           -794.6628 XXZZ=           -575.7165 YYZZ=           -288.8513
 XXYZ=             11.6179 YYXZ=             14.2313 ZZXY=              8.8457
 N-N= 1.060109629691D+03 E-N=-3.734860591881D+03  KE= 6.873616778932D+02
  Exact polarizability: 148.236   1.844 128.851  -2.388   1.874 103.729
 Approx polarizability: 187.358   6.742 170.809 -12.969   4.878 178.579
 Calling FoFJK, ICntrl=    100127 FMM=F ISym2X=0 I1Cent= 0 IOpClX= 0 NMat=1 NMatS=1 NMatT=0.
 Full mass-weighted force constant matrix:
 Low frequencies ---   -6.4752   -0.0004    0.0006    0.0007    0.9420    7.5650
 Low frequencies ---   44.3965   50.8830   62.0760
 Diagonal vibrational polarizability:
       30.2698828      47.7355591      29.9139715
 Harmonic frequencies (cm**-1), IR intensities (KM/Mole), Raman scattering
 activities (A**4/AMU), depolarization ratios for plane and unpolarized
 incident light, reduced masses (AMU), force constants (mDyne/A),
 and normal coordinates:
                      1                      2                      3
                      A                      A                      A
 Frequencies --     44.3954                50.8821                62.0737
 Red. masses --      2.2765                 3.1231                 2.5270
 Frc consts  --      0.0026                 0.0048                 0.0057
 IR Inten    --      3.2903                 0.6630                 1.7590
  Atom  AN      X      Y      Z        X      Y      Z        X      Y      Z
     1   8    -0.01   0.02   0.05     0.09   0.00   0.13     0.04   0.04   0.16
     2   6    -0.01  -0.00   0.03     0.03   0.01   0.02    -0.02   0.00   0.03
     3   6    -0.02  -0.02   0.04     0.02   0.04  -0.09    -0.06  -0.02  -0.09
     4   6    -0.01  -0.03   0.03     0.02   0.05  -0.12    -0.02  -0.06  -0.10
     5   6     0.00  -0.03   0.03    -0.00   0.06  -0.09    -0.00  -0.04  -0.04
     6   8     0.01  -0.06   0.04    -0.02   0.07  -0.06    -0.02  -0.09   0.03
     7   6    -0.02   0.05  -0.02     0.02  -0.04   0.04    -0.01   0.02   0.03
     8   8    -0.05   0.20  -0.12     0.06  -0.08   0.07     0.03   0.13  -0.02
     9   6     0.01  -0.07   0.06     0.02  -0.14   0.14    -0.06   0.04   0.09
    10   6     0.01  -0.02   0.01    -0.01   0.04  -0.07     0.01  -0.03  -0.04
    11   6     0.03  -0.02  -0.00    -0.06   0.03  -0.10     0.03  -0.04  -0.05
    12   6     0.03  -0.00  -0.04    -0.05   0.01  -0.05     0.05  -0.00  -0.04
    13   6     0.03   0.00  -0.06    -0.08  -0.02   0.05     0.03   0.01   0.00
    14   6     0.01   0.01  -0.04    -0.02  -0.02   0.07     0.01   0.02   0.02
    15   6     0.01  -0.01   0.00    -0.03   0.01   0.00    -0.02  -0.01  -0.01
    16   1    -0.02  -0.04   0.04    -0.03   0.09  -0.10    -0.11   0.03  -0.10
    17   1    -0.03  -0.02   0.05     0.06   0.02  -0.12    -0.05  -0.04  -0.13
    18   1    -0.02  -0.04   0.02     0.02   0.07  -0.15    -0.04  -0.07  -0.15
    19   1    -0.01  -0.03   0.03     0.05   0.03  -0.12     0.01  -0.11  -0.10
    20   1     0.01  -0.03   0.03     0.00   0.09  -0.09     0.03   0.01  -0.03
    21   1     0.29  -0.50  -0.13     0.18  -0.46   0.00    -0.42   0.38   0.25
    22   1    -0.16  -0.16   0.57    -0.08  -0.20   0.51     0.12   0.13  -0.34
    23   1    -0.08   0.30  -0.17    -0.02   0.10   0.01     0.05  -0.28   0.36
    24   1    -0.01  -0.01   0.01     0.03   0.06  -0.06     0.02  -0.02  -0.04
    25   1     0.05  -0.04   0.00    -0.13   0.01  -0.11     0.01  -0.05  -0.06
    26   1     0.02  -0.03   0.01    -0.05   0.06  -0.16     0.05  -0.05  -0.07
    27   1     0.05  -0.01  -0.05    -0.10   0.01  -0.07     0.07  -0.01  -0.05
    28   1     0.00   0.01  -0.04     0.01   0.04  -0.04     0.08   0.01  -0.04
    29   1     0.03   0.02  -0.09    -0.07  -0.03   0.10     0.04   0.03   0.02
    30   1     0.06  -0.02  -0.06    -0.15  -0.04   0.04     0.00  -0.00   0.00
    31   1    -0.01   0.03  -0.04     0.05  -0.00   0.08     0.04   0.03   0.02
    32   1     0.01   0.01  -0.05    -0.04  -0.04   0.13    -0.01   0.03   0.05
    33   1     0.03  -0.03   0.00    -0.09   0.00  -0.00    -0.04  -0.03  -0.01
                      4                      5                      6
                      A                      A                      A
 Frequencies --     78.6670                89.3501               131.9352
 Red. masses --      3.3814                 2.2998                 3.2093
 Frc consts  --      0.0123                 0.0108                 0.0329
 IR Inten    --      0.7931                 1.6220                 2.1192
  Atom  AN      X      Y      Z        X      Y      Z        X      Y      Z
     1   8    -0.10  -0.07  -0.18     0.01   0.04   0.07    -0.08   0.06  -0.01
     2   6    -0.04  -0.02  -0.02    -0.02   0.00  -0.01    -0.03   0.00   0.04
     3   6    -0.02  -0.01   0.04    -0.04  -0.02  -0.05    -0.02  -0.05   0.20
     4   6    -0.02  -0.02   0.05    -0.02  -0.05  -0.05     0.03   0.02   0.01
     5   6     0.01  -0.04  -0.01    -0.00  -0.05  -0.02     0.01  -0.01  -0.11
     6   8    -0.00  -0.02   0.00    -0.02  -0.03  -0.00    -0.01   0.04  -0.14
     7   6     0.01   0.03   0.02    -0.01   0.02   0.01     0.04   0.02  -0.03
     8   8     0.05   0.04   0.02     0.06  -0.09   0.09     0.13   0.03  -0.02
     9   6    -0.04   0.08   0.04    -0.09   0.20  -0.06    -0.03  -0.01   0.10
    10   6     0.03   0.00  -0.06     0.00  -0.04  -0.01     0.00  -0.02  -0.10
    11   6     0.03  -0.04  -0.19     0.04  -0.03   0.03    -0.02  -0.00  -0.02
    12   6     0.09   0.03  -0.10     0.05  -0.01   0.05     0.01  -0.05   0.15
    13   6    -0.01   0.01   0.14     0.04   0.03   0.01     0.00   0.03   0.08
    14   6     0.03   0.02   0.21     0.01   0.02  -0.03    -0.01  -0.02  -0.10
    15   6    -0.02  -0.00   0.06    -0.01  -0.00  -0.03    -0.00  -0.02  -0.08
    16   1     0.01  -0.03   0.04    -0.06   0.01  -0.06    -0.06  -0.29   0.21
    17   1    -0.03  -0.01   0.04    -0.05  -0.03  -0.08    -0.03   0.03   0.40
    18   1    -0.02  -0.05   0.10    -0.03  -0.06  -0.08    -0.00  -0.02  -0.01
    19   1    -0.06   0.03   0.05    -0.01  -0.08  -0.05     0.12   0.14   0.01
    20   1     0.05  -0.09  -0.01     0.01  -0.03  -0.02    -0.00  -0.07  -0.12
    21   1     0.02   0.02   0.01     0.26  -0.01  -0.16    -0.17  -0.03   0.10
    22   1    -0.13   0.05   0.12    -0.41   0.09   0.25    -0.02  -0.01   0.08
    23   1    -0.04   0.20   0.01    -0.16   0.61  -0.27     0.03  -0.03   0.22
    24   1     0.07   0.10  -0.05    -0.00  -0.06  -0.01     0.03  -0.06  -0.10
    25   1    -0.10  -0.14  -0.21     0.04   0.00   0.03    -0.11   0.08  -0.03
    26   1     0.09  -0.02  -0.33     0.04  -0.06   0.05     0.02  -0.04  -0.06
    27   1     0.07  -0.01  -0.20     0.07  -0.00   0.08    -0.00   0.00   0.31
    28   1     0.24   0.13  -0.09     0.04  -0.05   0.05     0.06  -0.23   0.16
    29   1     0.05   0.03   0.25     0.05   0.04   0.01     0.01  -0.01   0.15
    30   1    -0.18  -0.05   0.13     0.06   0.06   0.01    -0.00   0.17   0.09
    31   1     0.19   0.07   0.23    -0.01  -0.01  -0.04    -0.08  -0.14  -0.12
    32   1    -0.03   0.01   0.35     0.00   0.05  -0.06     0.01   0.04  -0.20
    33   1    -0.14   0.02   0.05     0.00  -0.01  -0.03    -0.00  -0.09  -0.08
                      7                      8                      9
                      A                      A                      A
 Frequencies --    161.3176               215.6539               228.4718
 Red. masses --      2.8210                 5.5170                 2.7257
 Frc consts  --      0.0433                 0.1512                 0.0838
 IR Inten    --      0.6367                 0.6319                 3.7960
  Atom  AN      X      Y      Z        X      Y      Z        X      Y      Z
     1   8     0.10   0.04   0.06    -0.10   0.16   0.00     0.04  -0.02   0.03
     2   6     0.04   0.01  -0.08    -0.05   0.06  -0.01    -0.01  -0.00  -0.04
     3   6     0.04   0.01  -0.06    -0.10   0.01  -0.02     0.00   0.04  -0.08
     4   6    -0.05   0.01   0.16    -0.08  -0.03  -0.01    -0.11   0.01   0.19
     5   6     0.01  -0.03   0.06     0.07  -0.01   0.04    -0.02  -0.05   0.00
     6   8    -0.01  -0.01   0.07     0.17  -0.19   0.11     0.01  -0.00  -0.14
     7   6    -0.04  -0.00   0.02     0.16  -0.04   0.02     0.05  -0.01  -0.08
     8   8    -0.09   0.00   0.00     0.19   0.04  -0.02     0.15   0.00  -0.06
     9   6     0.01  -0.02  -0.04     0.17   0.06  -0.07    -0.06   0.00   0.06
    10   6    -0.01   0.01  -0.09     0.05   0.05   0.01    -0.01  -0.01   0.01
    11   6    -0.01  -0.01  -0.13    -0.12   0.05  -0.04     0.01   0.02   0.09
    12   6     0.04  -0.02   0.07    -0.19  -0.04  -0.01    -0.03   0.00  -0.00
    13   6    -0.02   0.04   0.13    -0.18  -0.08   0.02     0.00  -0.02  -0.04
    14   6    -0.00  -0.03  -0.09    -0.03  -0.07  -0.02    -0.01   0.02   0.06
    15   6     0.01  -0.00  -0.13     0.03   0.04  -0.00    -0.03   0.01   0.01
    16   1     0.19   0.12  -0.05    -0.12   0.02  -0.02     0.15   0.23  -0.08
    17   1     0.01  -0.02  -0.14    -0.13   0.01  -0.03    -0.03  -0.03  -0.25
    18   1     0.00  -0.01   0.36    -0.10  -0.08   0.00    -0.04  -0.05   0.46
    19   1    -0.27   0.07   0.16    -0.09  -0.06  -0.01    -0.39   0.13   0.19
    20   1     0.08  -0.12   0.07     0.13   0.02   0.05    -0.07  -0.20  -0.02
    21   1     0.05  -0.00  -0.04     0.30   0.11  -0.05    -0.17  -0.03   0.05
    22   1     0.05  -0.01  -0.05     0.10   0.04  -0.09    -0.10  -0.01   0.06
    23   1    -0.01  -0.05  -0.08     0.13   0.11  -0.15     0.01   0.05   0.17
    24   1    -0.09   0.07  -0.09     0.04   0.08   0.01    -0.00  -0.05   0.01
    25   1    -0.17  -0.02  -0.15    -0.17   0.04  -0.05     0.12   0.08   0.11
    26   1     0.05  -0.02  -0.25    -0.15   0.17  -0.09    -0.04  -0.00   0.20
    27   1     0.00   0.01   0.16    -0.25  -0.03   0.02    -0.01  -0.00  -0.02
    28   1     0.17  -0.13   0.08    -0.17  -0.08  -0.01    -0.10   0.03  -0.01
    29   1     0.01  -0.02   0.31    -0.19  -0.15   0.09    -0.01   0.01  -0.13
    30   1    -0.15   0.20   0.14    -0.25  -0.04   0.02     0.07  -0.09  -0.05
    31   1    -0.03  -0.19  -0.10    -0.05  -0.11  -0.02     0.06   0.09   0.07
    32   1     0.01   0.04  -0.18     0.03  -0.17  -0.04    -0.04  -0.01   0.14
    33   1     0.02   0.01  -0.12     0.05   0.05   0.00    -0.06   0.06   0.00
                     10                     11                     12
                      A                      A                      A
 Frequencies --    269.2480               305.8142               311.2937
 Red. masses --      3.1340                 2.3789                 2.5768
 Frc consts  --      0.1339                 0.1311                 0.1471
 IR Inten    --      1.9784                 4.0662                 1.3755
  Atom  AN      X      Y      Z        X      Y      Z        X      Y      Z
     1   8     0.04   0.19  -0.02     0.05  -0.05  -0.02    -0.03   0.02   0.04
     2   6     0.08   0.05  -0.09     0.05   0.00   0.02    -0.06  -0.01  -0.05
     3   6     0.03  -0.07   0.06     0.04  -0.01   0.02    -0.03  -0.01  -0.00
     4   6     0.02  -0.02   0.00     0.04  -0.02  -0.01     0.01  -0.03   0.01
     5   6    -0.00  -0.02  -0.03    -0.03  -0.00   0.05     0.00  -0.02   0.02
     6   8    -0.04  -0.05   0.00     0.02  -0.08  -0.02    -0.01   0.11  -0.03
     7   6    -0.06  -0.03  -0.01     0.01  -0.06  -0.05     0.03   0.07   0.02
     8   8    -0.08  -0.02  -0.01     0.05  -0.03  -0.06     0.05   0.03   0.05
     9   6    -0.11  -0.01   0.02    -0.11   0.00   0.04     0.14  -0.01  -0.03
    10   6     0.02   0.00  -0.04    -0.01   0.03   0.12    -0.06  -0.10   0.01
    11   6     0.04   0.05   0.09    -0.01   0.01   0.01     0.03  -0.10   0.10
    12   6    -0.05   0.02  -0.06    -0.00   0.10  -0.08     0.04   0.03  -0.11
    13   6    -0.04  -0.09   0.05    -0.07   0.08   0.08    -0.05   0.03   0.08
    14   6     0.10  -0.07   0.09    -0.04   0.01  -0.11    -0.04  -0.01  -0.02
    15   6     0.08   0.03  -0.12     0.03   0.03   0.05    -0.06  -0.03  -0.10
    16   1     0.07  -0.26   0.08     0.03  -0.03   0.02    -0.00  -0.03  -0.00
    17   1    -0.04   0.01   0.24     0.02  -0.00   0.03    -0.04   0.00   0.01
    18   1     0.03   0.00   0.00     0.05   0.04  -0.10    -0.01  -0.06  -0.03
    19   1     0.04   0.02   0.00     0.12  -0.08  -0.01     0.03  -0.06   0.00
    20   1     0.02  -0.03  -0.03    -0.12   0.03   0.04    -0.02  -0.02   0.02
    21   1    -0.14  -0.01   0.02    -0.18  -0.00   0.04     0.18  -0.02  -0.04
    22   1    -0.17  -0.02   0.02    -0.23  -0.03   0.03     0.28   0.03  -0.01
    23   1    -0.08   0.05   0.07    -0.04   0.11   0.14     0.08  -0.13  -0.12
    24   1    -0.03  -0.08  -0.05    -0.01   0.06   0.12    -0.14  -0.20   0.01
    25   1     0.23   0.15   0.12    -0.00  -0.11   0.01     0.24  -0.09   0.13
    26   1    -0.06   0.05   0.28    -0.01   0.05  -0.04    -0.02  -0.16   0.26
    27   1    -0.08  -0.03  -0.21     0.02   0.03  -0.27     0.11  -0.06  -0.36
    28   1    -0.07   0.18  -0.07     0.05   0.30  -0.08     0.05   0.31  -0.12
    29   1    -0.04  -0.13   0.12    -0.03   0.02   0.31     0.02   0.02   0.29
    30   1    -0.16  -0.13   0.04    -0.28   0.22   0.09    -0.28   0.10   0.09
    31   1     0.34  -0.06   0.12    -0.26  -0.15  -0.15     0.00  -0.10  -0.02
    32   1     0.05  -0.13   0.28     0.05   0.06  -0.34    -0.07   0.05  -0.03
    33   1     0.03   0.12  -0.12     0.15   0.03   0.06    -0.04   0.01  -0.09
                     13                     14                     15
                      A                      A                      A
 Frequencies --    333.6083               377.7520               416.5536
 Red. masses --      3.8551                 3.4552                 3.0501
 Frc consts  --      0.2528                 0.2905                 0.3118
 IR Inten    --      4.8178                 0.7830                 2.9988
  Atom  AN      X      Y      Z        X      Y      Z        X      Y      Z
     1   8    -0.09   0.19  -0.03     0.09   0.06  -0.04    -0.03  -0.03  -0.01
     2   6     0.00   0.08   0.02     0.04   0.11  -0.06    -0.02   0.07   0.08
     3   6    -0.03   0.07  -0.08     0.09   0.07   0.05     0.02   0.19   0.04
     4   6     0.02  -0.04   0.01     0.17  -0.08   0.03     0.05   0.10   0.01
     5   6     0.00  -0.01   0.07     0.03  -0.09   0.06     0.06   0.02  -0.07
     6   8    -0.03   0.15  -0.09     0.01  -0.03   0.01     0.03  -0.07   0.05
     7   6    -0.02   0.05  -0.05     0.01  -0.02  -0.01     0.01  -0.05   0.01
     8   8    -0.03  -0.02  -0.00     0.01  -0.01  -0.02    -0.05  -0.01  -0.02
     9   6    -0.04  -0.01   0.04    -0.02  -0.01   0.00    -0.04   0.01   0.01
    10   6     0.06  -0.02   0.15    -0.04  -0.10   0.02     0.03  -0.01  -0.11
    11   6     0.04  -0.11  -0.06    -0.08  -0.13  -0.02     0.14  -0.00   0.03
    12   6     0.05  -0.15  -0.02    -0.05  -0.08   0.02     0.06  -0.12  -0.06
    13   6     0.01  -0.12   0.02    -0.09   0.09  -0.08    -0.03  -0.07   0.03
    14   6     0.01  -0.10  -0.03    -0.09   0.13   0.07    -0.13  -0.05  -0.00
    15   6     0.09   0.03   0.11    -0.10   0.08  -0.04    -0.09   0.02   0.00
    16   1    -0.05   0.28  -0.10     0.14   0.04   0.06    -0.03   0.35   0.02
    17   1    -0.04  -0.01  -0.28    -0.06   0.09   0.05     0.07   0.12  -0.12
    18   1    -0.01  -0.05  -0.06     0.12  -0.06  -0.15     0.01   0.03   0.02
    19   1     0.02  -0.16   0.01     0.32  -0.17   0.03     0.07   0.19   0.01
    20   1    -0.12  -0.03   0.05     0.00  -0.11   0.05     0.15   0.02  -0.06
    21   1    -0.16  -0.07   0.02    -0.04  -0.00   0.00    -0.04   0.04   0.02
    22   1    -0.00  -0.00   0.08    -0.04  -0.01  -0.00    -0.15  -0.02  -0.02
    23   1     0.00  -0.03   0.13    -0.00   0.02   0.03    -0.02   0.09   0.04
    24   1     0.10   0.06   0.16    -0.09  -0.11   0.01     0.06  -0.04  -0.11
    25   1    -0.09  -0.30  -0.08    -0.17  -0.20  -0.04     0.42   0.17   0.08
    26   1     0.07  -0.00  -0.24    -0.05  -0.09  -0.13     0.02  -0.05   0.33
    27   1     0.02  -0.14   0.02     0.09  -0.03   0.19     0.00  -0.11  -0.04
    28   1     0.10  -0.18  -0.01    -0.09  -0.25   0.03     0.07  -0.12  -0.06
    29   1     0.04  -0.09   0.05    -0.07   0.18  -0.15     0.06   0.04   0.12
    30   1    -0.02  -0.09   0.02    -0.01   0.03  -0.08    -0.14  -0.06   0.03
    31   1    -0.17  -0.17  -0.06     0.07   0.29   0.10    -0.23  -0.12  -0.02
    32   1     0.12  -0.15  -0.20    -0.16   0.07   0.27    -0.08  -0.04  -0.13
    33   1     0.20   0.07   0.13    -0.14   0.17  -0.04    -0.18  -0.05  -0.01
                     16                     17                     18
                      A                      A                      A
 Frequencies --    455.0029               455.4090               495.2440
 Red. masses --      2.8743                 3.3475                 2.4809
 Frc consts  --      0.3506                 0.4090                 0.3585
 IR Inten    --      6.1191                 0.2774                 1.0557
  Atom  AN      X      Y      Z        X      Y      Z        X      Y      Z
     1   8    -0.11  -0.04   0.02    -0.05   0.04   0.04    -0.04   0.02  -0.00
     2   6    -0.05  -0.04   0.11    -0.06  -0.03  -0.06    -0.01  -0.01   0.03
     3   6    -0.01   0.07  -0.02     0.02   0.08   0.01     0.01   0.02   0.01
     4   6     0.07  -0.05   0.03    -0.02   0.19  -0.03     0.09  -0.11   0.03
     5   6     0.12  -0.03   0.01    -0.02   0.16   0.06    -0.04  -0.03   0.14
     6   8     0.05   0.05   0.01     0.08  -0.03   0.06     0.01   0.02   0.01
     7   6     0.02   0.01  -0.03     0.06  -0.07  -0.04     0.00   0.01  -0.04
     8   8    -0.09  -0.04  -0.02     0.03  -0.03  -0.07     0.06  -0.01  -0.02
     9   6    -0.04   0.01   0.04    -0.05   0.01   0.02    -0.01  -0.01  -0.01
    10   6     0.06  -0.06  -0.07    -0.11  -0.05   0.08    -0.09   0.07  -0.07
    11   6    -0.07  -0.00   0.03    -0.08  -0.13   0.01     0.02   0.13  -0.04
    12   6    -0.08   0.06   0.01     0.05   0.01   0.02     0.01   0.09   0.03
    13   6    -0.06   0.07  -0.01     0.10  -0.04   0.01     0.09  -0.07   0.04
    14   6     0.16   0.06  -0.05     0.06  -0.04   0.01    -0.04  -0.07   0.02
    15   6     0.07  -0.07  -0.05    -0.03  -0.08  -0.11    -0.07  -0.03  -0.08
    16   1    -0.07   0.41  -0.05     0.04   0.03   0.01     0.00   0.24  -0.01
    17   1     0.08  -0.07  -0.34     0.16   0.09   0.06    -0.01  -0.07  -0.21
    18   1     0.01  -0.12  -0.02    -0.01   0.21  -0.04     0.03   0.01  -0.30
    19   1     0.09  -0.09   0.03     0.01   0.19  -0.03     0.33  -0.36   0.03
    20   1     0.17  -0.09   0.01    -0.07   0.28   0.06    -0.05  -0.11   0.13
    21   1    -0.16  -0.03   0.03    -0.11   0.04   0.03    -0.06  -0.04  -0.02
    22   1    -0.11  -0.01   0.06    -0.23  -0.03  -0.02     0.00  -0.01   0.02
    23   1     0.03   0.08   0.17     0.02   0.16   0.13     0.01  -0.02   0.03
    24   1     0.04  -0.11  -0.07    -0.24  -0.11   0.06    -0.26   0.15  -0.07
    25   1    -0.05   0.07   0.03    -0.24  -0.29  -0.02     0.03   0.22  -0.03
    26   1    -0.09   0.01   0.06     0.05  -0.17  -0.20     0.04   0.04   0.02
    27   1     0.01   0.05   0.01     0.09  -0.04  -0.11    -0.13   0.07  -0.04
    28   1    -0.12   0.06   0.00     0.06   0.13   0.02     0.06   0.14   0.03
    29   1    -0.09  -0.08   0.16     0.06  -0.05  -0.09     0.03  -0.04  -0.17
    30   1    -0.19   0.20  -0.01     0.19  -0.09   0.01     0.25  -0.17   0.03
    31   1     0.32   0.13  -0.02     0.22  -0.04   0.03    -0.04  -0.16   0.02
    32   1     0.09  -0.01   0.14    -0.04   0.03   0.14    -0.08   0.03  -0.03
    33   1     0.08  -0.22  -0.05     0.02  -0.01  -0.10    -0.15  -0.07  -0.08
                     19                     20                     21
                      A                      A                      A
 Frequencies --    512.8780               539.2706               579.4156
 Red. masses --      2.8031                 2.2228                 3.4882
 Frc consts  --      0.4344                 0.3809                 0.6900
 IR Inten    --      0.5212                 5.8915                 8.1349
  Atom  AN      X      Y      Z        X      Y      Z        X      Y      Z
     1   8     0.03  -0.08   0.04     0.00  -0.04  -0.01     0.14  -0.15  -0.02
     2   6    -0.06  -0.03  -0.09     0.01   0.00   0.05    -0.02   0.16  -0.01
     3   6    -0.09  -0.07  -0.01    -0.01   0.05   0.03    -0.19   0.20   0.10
     4   6    -0.06  -0.03  -0.03    -0.02   0.04  -0.00    -0.07  -0.04  -0.00
     5   6     0.04   0.05   0.12    -0.11   0.03   0.07     0.02  -0.05  -0.01
     6   8     0.11   0.10   0.03    -0.08  -0.03  -0.01    -0.01  -0.01  -0.01
     7   6     0.07   0.04  -0.08    -0.06  -0.02   0.02    -0.02   0.05  -0.02
     8   8    -0.06  -0.07  -0.05     0.12   0.04   0.02    -0.01  -0.01   0.02
     9   6    -0.00   0.04   0.06    -0.03  -0.05  -0.06     0.00   0.00   0.00
    10   6     0.02   0.06   0.02    -0.05   0.04   0.04     0.04  -0.02   0.02
    11   6     0.09   0.05  -0.04     0.06   0.01  -0.02    -0.04  -0.03   0.02
    12   6     0.02  -0.09  -0.03     0.02  -0.09  -0.03    -0.02   0.03   0.03
    13   6    -0.05   0.01  -0.02    -0.04   0.01  -0.03     0.05  -0.08   0.03
    14   6    -0.03   0.02   0.01     0.11   0.02  -0.03     0.09  -0.05  -0.03
    15   6    -0.02   0.03  -0.04     0.05   0.00  -0.05     0.04   0.08  -0.07
    16   1    -0.06  -0.36   0.02    -0.05   0.17   0.01    -0.22   0.06   0.11
    17   1    -0.13   0.03   0.26     0.03   0.01  -0.08    -0.39   0.26   0.20
    18   1    -0.08  -0.03  -0.11    -0.03   0.13  -0.17    -0.21  -0.18  -0.15
    19   1    -0.02  -0.18  -0.03     0.12  -0.06  -0.00     0.06  -0.07  -0.00
    20   1     0.02   0.07   0.12    -0.18   0.04   0.05     0.02  -0.07  -0.01
    21   1    -0.23  -0.06   0.04     0.09  -0.01  -0.05    -0.04  -0.06  -0.02
    22   1    -0.09   0.01   0.12     0.04  -0.03  -0.08     0.09   0.02   0.05
    23   1     0.12   0.14   0.28    -0.11  -0.12  -0.19     0.00  -0.06   0.01
    24   1    -0.09   0.14   0.02    -0.15   0.09   0.03     0.02  -0.09   0.01
    25   1     0.24   0.08  -0.01     0.20   0.01  -0.00    -0.21  -0.10  -0.01
    26   1     0.01   0.07   0.11    -0.01   0.01   0.11     0.03   0.02  -0.17
    27   1    -0.03  -0.01   0.22    -0.00   0.00   0.24    -0.03  -0.05  -0.19
    28   1     0.03  -0.34  -0.02     0.01  -0.36  -0.02    -0.01   0.24   0.02
    29   1     0.03   0.05   0.12     0.03  -0.06   0.26    -0.02  -0.12  -0.11
    30   1    -0.18   0.04  -0.02    -0.29   0.16  -0.02     0.17  -0.13   0.03
    31   1     0.08   0.08   0.03     0.35   0.14   0.01     0.11  -0.15  -0.03
    32   1    -0.07  -0.02   0.13     0.03  -0.07   0.23     0.11  -0.06  -0.05
    33   1    -0.01   0.10  -0.04     0.12  -0.07  -0.04     0.09   0.09  -0.07
                     22                     23                     24
                      A                      A                      A
 Frequencies --    606.0548               662.4844               694.0656
 Red. masses --      2.8864                 4.2376                 3.8352
 Frc consts  --      0.6246                 1.0958                 1.0885
 IR Inten    --      4.0777                 4.4299                 2.5759
  Atom  AN      X      Y      Z        X      Y      Z        X      Y      Z
     1   8    -0.01   0.02  -0.00     0.03   0.03  -0.05     0.09   0.05  -0.12
     2   6     0.02  -0.01   0.02     0.10   0.03   0.10     0.21   0.10   0.22
     3   6     0.04  -0.00  -0.00     0.02  -0.00   0.03    -0.06  -0.06  -0.03
     4   6    -0.00   0.04  -0.02    -0.05  -0.00  -0.00    -0.11  -0.04  -0.06
     5   6     0.00   0.01  -0.01    -0.17  -0.03  -0.05     0.01   0.05   0.06
     6   8     0.02  -0.12   0.08     0.02  -0.14  -0.13     0.03   0.11   0.09
     7   6    -0.08   0.27  -0.17     0.09   0.04  -0.01     0.03  -0.03  -0.03
     8   8     0.05  -0.09   0.07    -0.17  -0.06  -0.01     0.05  -0.01  -0.04
     9   6    -0.03   0.00  -0.04     0.23   0.16   0.17    -0.04  -0.03  -0.03
    10   6    -0.00  -0.01  -0.01    -0.12   0.03   0.03    -0.10  -0.03  -0.12
    11   6    -0.01  -0.01   0.01    -0.00  -0.00  -0.01    -0.06  -0.09   0.01
    12   6     0.00  -0.00  -0.00     0.02  -0.01  -0.01     0.01  -0.01   0.00
    13   6    -0.00   0.01  -0.00     0.01  -0.00  -0.01     0.01   0.03   0.00
    14   6    -0.01   0.00   0.00     0.02  -0.02  -0.02    -0.01   0.00   0.00
    15   6    -0.00  -0.01   0.01    -0.01  -0.02  -0.02    -0.00  -0.06   0.04
    16   1     0.02   0.00  -0.01    -0.06   0.21   0.00    -0.37  -0.11  -0.05
    17   1     0.08  -0.00  -0.00     0.01  -0.07  -0.15    -0.13  -0.01   0.06
    18   1     0.03   0.07   0.05    -0.01   0.11  -0.06    -0.04  -0.05   0.18
    19   1    -0.04   0.09  -0.02     0.02   0.01  -0.00    -0.38  -0.06  -0.06
    20   1     0.06   0.05   0.00    -0.34  -0.05  -0.07     0.14   0.10   0.08
    21   1    -0.39  -0.44  -0.18     0.17   0.11   0.15    -0.10  -0.02  -0.02
    22   1     0.44   0.09   0.34     0.24   0.16   0.19    -0.15  -0.06  -0.05
    23   1     0.02  -0.30   0.13     0.28   0.20   0.25     0.01   0.05   0.04
    24   1     0.01  -0.01  -0.01    -0.20   0.04   0.02    -0.19  -0.02  -0.12
    25   1     0.00  -0.00   0.01     0.05  -0.03   0.00     0.07   0.07   0.04
    26   1    -0.01  -0.02   0.02     0.01  -0.08   0.04    -0.07  -0.22   0.19
    27   1     0.02  -0.00  -0.00     0.00   0.02   0.09     0.11  -0.03  -0.04
    28   1    -0.00  -0.00  -0.00     0.02  -0.10  -0.00     0.01   0.04   0.00
    29   1     0.00   0.01   0.01     0.04  -0.03   0.10     0.01   0.02   0.01
    30   1    -0.01   0.01  -0.00    -0.08   0.06  -0.01     0.01   0.06   0.00
    31   1    -0.02   0.02   0.00     0.16   0.05   0.01    -0.03   0.04   0.00
    32   1    -0.01   0.01   0.00    -0.05  -0.02   0.12    -0.02   0.02   0.01
    33   1    -0.02  -0.03   0.01     0.01  -0.11  -0.02    -0.14  -0.36   0.02
                     25                     26                     27
                      A                      A                      A
 Frequencies --    792.2845               825.4869               847.4107
 Red. masses --      1.9637                 2.0309                 2.5662
 Frc consts  --      0.7262                 0.8154                 1.0857
 IR Inten    --      0.5696                 2.1164                 9.2890
  Atom  AN      X      Y      Z        X      Y      Z        X      Y      Z
     1   8     0.02   0.02   0.01    -0.00   0.02  -0.00     0.06   0.06  -0.02
     2   6    -0.03  -0.00  -0.09    -0.03   0.06  -0.02     0.06  -0.07  -0.10
     3   6    -0.01   0.05  -0.01     0.02   0.10  -0.06    -0.08   0.02   0.09
     4   6    -0.00   0.03   0.02     0.07  -0.03  -0.03    -0.10   0.03   0.04
     5   6    -0.03  -0.01   0.03     0.04  -0.05   0.00     0.01   0.02  -0.04
     6   8    -0.01  -0.01   0.00     0.00  -0.01  -0.01     0.01   0.02   0.02
     7   6     0.00  -0.00  -0.01    -0.00   0.00   0.01     0.01   0.00   0.00
     8   8     0.00  -0.01  -0.01    -0.00   0.00   0.01     0.00   0.00   0.00
     9   6     0.02   0.01   0.01    -0.01  -0.00  -0.00    -0.01  -0.01  -0.01
    10   6    -0.05  -0.04  -0.07    -0.06  -0.04   0.05     0.02  -0.04  -0.00
    11   6    -0.10  -0.04  -0.05     0.02   0.08  -0.01     0.05  -0.00   0.01
    12   6    -0.04   0.00  -0.05     0.01   0.10  -0.00     0.05   0.14   0.02
    13   6     0.05   0.02   0.03     0.05  -0.05  -0.05    -0.07   0.05  -0.09
    14   6     0.12   0.04   0.05     0.01  -0.06  -0.04    -0.07  -0.11   0.03
    15   6     0.03  -0.03   0.13    -0.09  -0.10   0.07     0.01  -0.13   0.06
    16   1     0.14  -0.10   0.02    -0.03  -0.33  -0.03     0.12   0.32   0.08
    17   1    -0.05   0.10   0.11    -0.08   0.26   0.31    -0.08  -0.09  -0.19
    18   1    -0.05   0.07  -0.17     0.11  -0.14   0.26    -0.28  -0.03  -0.37
    19   1     0.15  -0.08   0.02    -0.24   0.04  -0.03     0.34  -0.03   0.04
    20   1    -0.01  -0.09   0.03     0.00  -0.01  -0.00     0.08  -0.02  -0.03
    21   1     0.02   0.01   0.01     0.01  -0.00  -0.00    -0.04  -0.02  -0.01
    22   1     0.02   0.01   0.01     0.00  -0.00  -0.00    -0.03  -0.02  -0.01
    23   1     0.03   0.02   0.02    -0.02  -0.01  -0.02     0.00   0.00   0.01
    24   1    -0.01   0.09  -0.07    -0.03  -0.01   0.06     0.15  -0.09   0.00
    25   1     0.30   0.19   0.01    -0.02   0.01  -0.02    -0.01  -0.06  -0.00
    26   1    -0.24  -0.17   0.37     0.10  -0.01  -0.07     0.16  -0.12  -0.08
    27   1     0.00   0.07   0.14    -0.12   0.18   0.21     0.13   0.22   0.27
    28   1     0.02  -0.21  -0.04    -0.06  -0.14   0.00    -0.03  -0.11   0.03
    29   1    -0.00  -0.08   0.02     0.08  -0.22   0.30    -0.06   0.00   0.02
    30   1     0.01  -0.06   0.02    -0.26   0.16  -0.04    -0.19   0.09  -0.08
    31   1    -0.29  -0.12  -0.02     0.11   0.14  -0.01    -0.06   0.02   0.04
    32   1     0.27   0.14  -0.36    -0.10  -0.04   0.14    -0.06  -0.19   0.10
    33   1    -0.07   0.02   0.11    -0.02  -0.19   0.08    -0.02  -0.02   0.06
                     28                     29                     30
                      A                      A                      A
 Frequencies --    859.6494               870.2099               898.6854
 Red. masses --      1.7174                 1.8622                 3.1090
 Frc consts  --      0.7478                 0.8309                 1.4794
 IR Inten    --      1.4395                 1.6086                 5.2729
  Atom  AN      X      Y      Z        X      Y      Z        X      Y      Z
     1   8     0.02   0.02  -0.00     0.02  -0.01  -0.01    -0.02  -0.04   0.02
     2   6     0.00  -0.01  -0.05     0.02  -0.00   0.00    -0.06   0.04   0.00
     3   6    -0.01  -0.02   0.01    -0.04  -0.06   0.07     0.03  -0.05  -0.01
     4   6    -0.03  -0.00   0.04     0.04  -0.07   0.00     0.05  -0.01   0.01
     5   6    -0.02   0.02  -0.02     0.02   0.04  -0.10    -0.12  -0.03  -0.06
     6   8     0.00   0.01   0.02     0.02   0.02   0.04    -0.08   0.07   0.15
     7   6     0.00  -0.00  -0.00     0.01   0.01   0.00     0.00  -0.04  -0.06
     8   8     0.00  -0.00  -0.01     0.00   0.00   0.01     0.05  -0.05  -0.09
     9   6     0.00  -0.00  -0.00    -0.02  -0.02  -0.02     0.08   0.03   0.02
    10   6     0.02   0.05  -0.05    -0.06  -0.00   0.08    -0.06  -0.03  -0.08
    11   6    -0.06   0.03   0.06    -0.06   0.05   0.01     0.10  -0.02   0.04
    12   6     0.01  -0.12   0.01    -0.01   0.01  -0.09     0.02   0.06   0.06
    13   6     0.12  -0.05  -0.02     0.10  -0.02   0.01    -0.07  -0.06  -0.07
    14   6    -0.01   0.04  -0.05     0.02   0.02   0.04     0.09  -0.02  -0.00
    15   6    -0.05  -0.02   0.07    -0.03   0.03  -0.05    -0.00   0.15   0.05
    16   1     0.14   0.05   0.02    -0.05   0.30   0.03     0.08  -0.00  -0.01
    17   1    -0.07  -0.04  -0.06    -0.13  -0.19  -0.27    -0.06  -0.07  -0.07
    18   1    -0.08   0.05  -0.19     0.04  -0.19   0.18     0.14   0.11   0.07
    19   1     0.20  -0.08   0.04    -0.01   0.22   0.01     0.04   0.11   0.01
[...]
 10862,0.00020859,0.00026860,0.00061285,0.00012852,-0.00939429,-0.00094
 172,-0.01702949,0.11520006,0.00010181,0.00004372,0.00003027,-0.0000613
 6,-0.00002040,-0.00005984,-0.00000170,0.00001232,0.00000286,0.00005986
 ,0.00002333,0.00008500,-0.00026840,-0.00005036,0.00015680,0.00010242,-
 0.00005138,0.00003150,-0.00003224,0.00003567,-0.00006568,0.00003590,-0
 .00000871,0.00003829,0.00000713,0.00001113,0.00000199,-0.00072666,0.00
 180672,-0.00124740,-0.01452877,-0.00245285,-0.02559308,-0.00207762,-0.
 05165262,-0.00823660,0.00034371,-0.00047983,0.00120481,-0.00050765,0.0
 0012585,-0.00082581,0.00003692,-0.00025612,0.00000781,-0.00000263,0.00
 000625,0.00000613,0.00000715,0.00000730,-0.00000313,-0.00000714,0.0000
 2058,0.00000065,0.00002784,-0.00004840,0.00001673,0.00017713,0.0000931
 8,0.00015394,-0.00000244,-0.00000713,0.00000452,-0.00000194,0.00000029
 ,-0.00001063,0.00000248,-0.00000049,0.00000022,0.00042760,-0.00040625,
 0.00051726,-0.00333651,-0.00453269,-0.00039327,0.00068701,0.00116764,0
 .00040516,0.01242806,0.00162171,0.02445037,0.00709070,0.05374602,0.000
 11982,-0.00006585,0.00003838,-0.00017073,0.00005493,-0.00001631,0.0000
 2523,-0.00003108,-0.00000818,-0.00004912,-0.00004765,-0.00001542,0.000
 19098,-0.00011819,0.00029429,-0.00001999,-0.00008995,0.00003027,0.0000
 4796,0.00003474,-0.00003856,-0.00000031,-0.00000480,0.00002170,-0.0000
 0432,0.00000463,0.00000690,-0.00005521,0.00038455,-0.00014064,-0.00058
 352,-0.00016226,-0.00049698,-0.10372159,-0.00867400,-0.24284268,-0.011
 31527,-0.00010672,-0.02424207,-0.00150035,0.00060326,0.00065893,0.0002
 7810,-0.00017094,0.00005138,0.00000139,0.00000446,0.00000676,-0.000004
 92,-0.00001916,0.00000084,0.00000859,-0.00001888,0.00000721,0.00000396
 ,-0.00001954,0.00001677,0.00005525,0.00016188,-0.00002163,-0.00000106,
 -0.00000884,0.00000280,-0.00000250,0.00000187,-0.00001195,-0.00000019,
 0.00000008,0.00000273,0.00035629,-0.00062980,0.00024099,0.00003611,0.0
 0014021,0.00134337,-0.00022422,-0.00041225,0.00079344,-0.00116925,0.00
 074699,-0.00166692,0.11229660,0.00857347,0.26682562,-0.00001070,-0.000
 16361,0.00001302,0.00105641,0.00087018,0.00000909,-0.00031759,0.000334
 63,-0.00000980,-0.00012291,-0.00007277,0.00007324,0.00002522,-0.000009
 56,-0.00000780,-0.00000221,-0.00023709,-0.00003876,0.00024073,0.000165
 11,0.00000505,-0.00007263,-0.00008212,-0.00005733,-0.00001009,0.000013
 86,0.00001060,-0.00037267,0.00051663,0.00013019,-0.00232905,0.00160468
 ,0.00464342,-0.01358190,-0.01829057,-0.00324915,-0.13961207,-0.1229900
 4,-0.01449126,0.01254525,0.01729054,0.00177259,-0.00239756,0.00310115,
 -0.00019862,-0.00000897,-0.00001050,0.00000464,0.00007923,0.00014175,-
 0.00001734,0.00003021,-0.00003982,-0.00001523,0.00001036,-0.00000414,-
 0.00001011,0.00000478,0.00001439,0.00000710,0.00000161,0.00000018,0.00
 000109,0.00001676,0.00000005,-0.00001504,-0.00000434,-0.00000883,-0.00
 000062,0.00006878,-0.00008748,-0.00001630,0.00036949,0.00043909,-0.000
 02192,-0.00066031,-0.00150488,0.00015671,0.00016551,0.00031197,-0.0006
 8155,0.00115725,0.00029706,0.00001878,0.15166682,0.00060355,0.00003869
 ,-0.00002191,-0.00244194,-0.00051392,0.00015544,0.00054907,-0.00048522
 ,0.00000774,0.00005231,0.00004821,-0.00010899,0.00018024,0.00018573,-0
 .00007663,-0.00037428,-0.00014115,0.00013550,0.00030904,0.00014275,0.0
 0000592,-0.00012545,-0.00006034,-0.00002380,-0.00003245,-0.00000742,0.
 00001586,0.00043826,0.00032908,-0.00044829,0.00030406,0.00110989,0.000
 16868,0.00087977,0.00123916,0.00044079,-0.12245771,-0.21426592,-0.0181
 2751,-0.01665982,-0.02278041,-0.00277710,0.00556310,-0.00345933,0.0003
 7398,-0.00001399,0.00000316,-0.00000512,-0.00011533,-0.00024086,0.0000
 1010,-0.00003301,-0.00001257,0.00003061,0.00000287,0.00001014,0.000023
 72,0.00000430,-0.00000335,0.00000795,0.00000055,-0.00000196,-0.0000011
 0,-0.00000069,0.00000120,0.00000003,-0.00001189,-0.00000299,0.00000893
 ,-0.00004737,-0.00002401,0.00008783,-0.00001108,-0.00004079,-0.0000717
 1,0.00003227,0.00004201,-0.00017534,-0.00029573,0.00052108,0.00039450,
 0.00001211,0.00013548,0.00043816,0.13221243,0.23357732,0.00009806,-0.0
 0007911,-0.00010097,-0.00015639,0.00010742,0.00042865,0.00000532,-0.00
 005649,-0.00008810,0.00008072,0.00003705,-0.00002112,-0.00002820,0.000
 00528,-0.00005027,-0.00001267,0.00016114,0.00004534,-0.00014088,-0.000
 10162,-0.00002234,0.00003921,0.00004222,0.00004923,0.00000491,-0.00000
 756,-0.00000313,0.00010881,-0.00047831,-0.00001778,0.00294499,-0.00131
 438,-0.00402220,0.01587721,0.02189475,0.00189333,-0.01509308,-0.018931
 92,-0.05237394,0.00004830,0.00139881,-0.00071311,0.00016589,-0.0003244
 1,0.00060152,-0.00000871,-0.00002274,0.00000644,-0.00000921,-0.0000116
 6,0.00000218,-0.00001946,0.00002283,0.00000457,-0.00000293,0.00000371,
 0.00000369,0.00000683,-0.00000518,0.00000490,-0.00000024,0.00000118,-0
 .00000052,-0.00001056,-0.00000052,0.00001068,0.00000166,0.00000521,-0.
 00000066,-0.00005093,0.00004117,-0.00001719,0.00028193,0.00007723,0.00
 023584,0.00097126,0.00123326,0.00016776,-0.00068342,-0.00038504,0.0008
 2955,-0.00083284,0.00028849,0.00096376,0.01328246,0.02018612,0.0541748
 9,0.00029099,0.00025901,0.00008479,-0.00039148,-0.00008803,0.00024598,
 0.00001029,0.00003746,-0.00005886,-0.00000817,0.00000920,0.00001865,-0
 .00002178,-0.00007899,-0.00000509,0.00014790,0.00008055,-0.00005066,-0
 .00011987,-0.00005900,-0.00001601,0.00004701,0.00002453,0.00001869,0.0
 0001155,0.00000393,-0.00000459,-0.00010995,0.00007152,0.00015678,0.001
 42429,0.00058450,0.00019891,0.01058665,-0.00159939,0.02229197,-0.10451
 621,0.00570068,-0.10311911,-0.01097562,0.00198210,-0.01772267,0.000325
 84,-0.00135462,0.00022547,0.00001149,0.00000401,0.00000096,0.00000701,
 0.00001862,-0.00001315,0.00001515,0.00000479,-0.00000873,-0.00000611,-
 0.00000305,0.00000518,0.00000322,-0.00000377,-0.00001290,-0.00000008,0
 .00000141,0.00000087,0.00000086,-0.00000065,0.00000073,0.00000455,0.00
 000060,-0.00000412,-0.00013854,0.00000876,-0.00000516,-0.00015235,0.00
 003614,-0.00040274,0.00008345,0.00030247,-0.00022178,0.00116035,-0.000
 01148,-0.00084574,-0.00269720,-0.00049116,0.00429129,-0.00953977,0.001
 53699,-0.01740442,0.11477441,-0.00047767,-0.00035293,-0.00012603,0.000
 80649,0.00001205,-0.00035789,-0.00005607,0.00004338,0.00007816,0.00000
 599,-0.00001863,-0.00001659,-0.00002338,0.00000827,0.00005642,0.000002
 69,0.00003412,-0.00001601,-0.00005344,-0.00003585,0.00001890,0.0000158
 7,0.00002024,-0.00000192,0.00000260,-0.00000347,-0.00000371,-0.0000000
 9,-0.00022238,-0.00001611,0.00052830,0.00009806,0.00080377,-0.00025304
 ,-0.00050204,-0.00092390,0.00557171,-0.05253679,0.01476949,0.01453753,
 -0.00315030,0.02604761,0.00068427,0.00198801,0.00117162,-0.00001525,-0
 .00000857,-0.00001410,-0.00000149,0.00002180,0.00000436,-0.00001187,0.
 00000673,0.00000511,0.00000101,0.00000815,-0.00001032,-0.00003445,-0.0
 0002643,-0.00001732,0.00000004,-0.00000017,-0.00000084,-0.00000288,0.0
 0000004,0.00000224,0.00000118,0.00000173,0.00000014,-0.00000658,0.0000
 3840,-0.00019936,-0.00017779,0.00012249,0.00004821,-0.00003576,-0.0000
 1583,-0.00012653,-0.00032289,0.00015922,-0.00028666,0.00043756,0.00097
 511,-0.00014333,-0.01218614,0.00241857,-0.02410375,-0.01088610,0.05466
 924,0.00020247,-0.00004053,-0.00005388,-0.00004677,0.00029136,0.000217
 90,-0.00004151,0.00001940,-0.00007509,0.00004425,0.00003414,0.00000100
 ,-0.00010492,0.00001957,-0.00003170,0.00008698,0.00006230,0.00002853,-
 0.00011298,-0.00006966,-0.00007222,0.00004783,0.00003160,0.00006657,0.
 00000887,0.00000120,0.00000287,0.00022509,0.00011500,0.00007664,-0.001
 50093,-0.00057295,0.00057077,-0.01138856,0.00089282,-0.02439083,-0.102
 92359,0.01503152,-0.24099565,-0.00024582,0.00000759,0.00022105,0.00012
 105,-0.00042284,0.00011855,0.00000541,0.00000074,0.00001392,0.00000844
 ,0.00001866,0.00000319,-0.00000568,0.00002071,-0.00000331,-0.00000050,
 -0.00000784,0.00000965,0.00002975,0.00003528,0.00001159,-0.00000101,-0
 .00000643,0.00000255,-0.00000893,0.00000063,-0.00000403,0.00000390,0.0
 0000453,-0.00000102,0.00000269,-0.00021485,0.00007314,0.00088222,0.000
 81109,0.00059000,0.00025846,-0.00018287,0.00045791,0.00002610,-0.00045
 904,0.00094181,0.00433394,0.00016999,-0.00287054,-0.00157173,-0.000621
 44,-0.00240939,0.11146112,-0.01578491,0.26515157,0.00086507,0.00020461
 ,0.00015374,-0.00073751,0.00115632,0.00031605,-0.00000769,-0.00016470,
 -0.00007676,0.00004728,0.00002855,-0.00010929,0.00018319,-0.00015440,0
 .00010666,-0.00002833,-0.00001379,0.00014800,-0.00000730,-0.00000348,-
 0.00001943,0.00001494,0.00001275,0.00002390,-0.00000449,0.00000037,0.0
 0000113,0.00051574,0.00075304,-0.00169589,-0.00021312,-0.00000169,0.00
 028277,0.00038110,-0.00076374,-0.00131808,-0.01049122,0.00116521,-0.01
 525633,-0.12665460,0.00274825,-0.11577640,-0.01194008,-0.00190734,-0.0
 1654338,0.00002825,0.00004324,0.00007263,0.00000295,-0.00005280,0.0000
 5649,-0.00001405,0.00001532,0.00003220,-0.00000025,-0.00003064,0.00004
 537,0.00014142,0.00014641,0.00010656,-0.00000183,-0.00000482,0.0000012
 9,-0.00000489,0.00000158,-0.00000144,-0.00000015,0.00000130,0.00000234
 ,-0.00017488,-0.00020665,0.00088934,0.00025554,0.00001077,0.00009225,-
 0.00006599,0.00001183,0.00003631,0.00036584,-0.00000258,0.00029218,-0.
 00017020,0.00018638,0.00085322,0.00087225,-0.00017652,0.00045067,-0.00
 115766,0.00307381,0.00013838,0.13731014,0.00136200,-0.00004441,0.00042
 498,-0.00220739,0.00117449,-0.00089528,0.00004358,-0.00005010,-0.00001
 203,0.00001701,0.00008921,-0.00003042,0.00014623,-0.00005815,-0.000161
 01,-0.00005855,-0.00006880,0.00017055,0.00006824,0.00003952,-0.0000042
 5,-0.00002355,-0.00002549,0.00000207,-0.00001160,0.00000046,0.00000095
 ,0.00081206,0.00100189,-0.00115803,0.00000371,-0.00019630,0.00001260,-
 0.00097224,0.00101451,0.00087657,0.01664725,-0.00204349,0.02539070,0.0
 0297446,-0.04797316,0.00612205,-0.01599482,-0.00135672,-0.02423899,0.0
 0013262,0.00009930,0.00012389,0.00004811,-0.00007332,0.00007031,0.0000
 2097,-0.00001348,-0.00000306,-0.00001492,-0.00002869,0.00004554,0.0001
 2269,0.00008076,0.00014891,-0.00000092,0.00000012,0.00000034,-0.000000
 83,0.00000042,0.00000211,-0.00000348,-0.00000027,0.00000270,0.00001747
 ,0.00008941,0.00065644,-0.00001663,-0.00014041,0.00000655,-0.00000933,
 0.00012988,-0.00000583,-0.00044809,-0.00003179,-0.00008941,0.00000259,
 0.00011153,-0.00081916,-0.00079230,0.00109459,0.00017865,0.00403135,-0
 .00457608,-0.00025145,-0.00270886,0.05674042,0.00145309,0.00099640,0.0
 0073793,-0.00238791,0.00062670,0.00010749,0.00032168,-0.00020159,-0.00
 021472,0.00002240,0.00006010,-0.00000258,0.00017562,0.00014679,0.00032
 031,-0.00014528,-0.00015595,0.00003709,0.00007987,0.00005669,0.0000234
 7,-0.00001482,-0.00002956,-0.00001747,-0.00001522,0.00000157,0.0000011
 6,0.00047512,0.00009949,0.00052072,-0.00000754,0.00005664,0.00010921,0
 .00045250,-0.00019513,0.00073067,0.00031013,0.00065719,-0.00043105,-0.
 11547943,0.00462591,-0.22829461,-0.00022676,-0.00130690,-0.00141095,0.
 00003969,0.00003670,0.00002716,-0.00003490,-0.00009680,0.00000576,0.00
 003307,-0.00001064,-0.00001114,-0.00000723,-0.00001277,0.00002683,0.00
 010752,0.00010747,-0.00007846,0.00000038,-0.00000143,0.00000080,0.0000
 0050,-0.00000010,-0.00000315,-0.00000375,-0.00000038,0.00000313,-0.000
 29252,0.00007584,0.00056904,0.00007560,-0.00000191,-0.00012914,-0.0000
 3170,-0.00000820,-0.00000837,-0.00004845,0.00005598,0.00022137,-0.0003
 9681,-0.00005004,0.00051834,0.00002983,0.00059665,0.00026777,0.0004195
 5,0.00013533,0.00137156,0.12927972,-0.00644288,0.24574418,0.00104919,0
 .00073276,-0.00038975,-0.00092466,0.00079420,-0.00015956,-0.00002486,0
 .00000531,0.00014096,-0.00010353,0.00003240,0.00000323,0.00006235,0.00
 085611,0.00081730,-0.00074161,-0.00058128,0.00014968,0.00040151,0.0002
 4497,0.00021772,-0.00012748,-0.00012630,-0.00012687,-0.00007063,-0.000
 01274,-0.00000642,-0.00117884,-0.00350719,-0.00179510,0.00061385,-0.00
 004354,-0.00019990,-0.00072378,0.00355707,-0.00149689,-0.01188749,0.00
 032990,0.01361620,-0.15497103,0.00024267,0.12889713,-0.01324939,-0.001
 83747,0.01504242,-0.00001545,0.00002753,-0.00002309,0.00005028,-0.0000
 2767,-0.00002973,0.00002888,-0.00005499,-0.00000056,0.00001565,-0.0000
 2062,-0.00000192,-0.00000459,0.00002812,-0.00002811,0.00000244,-0.0000
 0039,-0.00000259,0.00000178,-0.00000004,-0.00000055,-0.00002033,-0.000
 00121,0.00001900,0.00010496,-0.00004328,0.00020536,-0.00007218,-0.0000
 0030,-0.00003607,-0.00001152,0.00001877,0.00002499,-0.00060485,-0.0000
 5288,0.00091417,0.00007374,0.00003148,0.00023982,0.00074666,-0.0000107
 9,-0.00024166,0.00025691,-0.00064633,-0.00023693,0.01237734,0.00007954
 ,-0.01419530,0.16862994,0.00145938,-0.00018383,-0.00049097,-0.00201223
 ,0.00068099,0.00086866,0.00004798,0.00010495,-0.00001192,-0.00003946,0
 .00018910,0.00009526,-0.00051661,0.00116463,0.00098107,-0.00100119,-0.
 00076117,0.00024211,0.00038758,0.00021743,0.00027995,-0.00013037,-0.00
 012806,-0.00012286,-0.00009552,-0.00002502,-0.00001396,-0.00238149,-0.
 00560601,-0.00147107,0.00007545,-0.00051697,-0.00012502,0.00259143,-0.
 00530883,0.00172114,0.01836337,0.00035902,-0.02347370,0.00101697,-0.04
 781500,-0.00297231,-0.01751023,-0.00048905,0.02269071,0.00001004,0.000
 03714,0.00000949,0.00006327,-0.00000544,-0.00004169,0.00006052,-0.0000
 4455,-0.00003932,0.00003361,-0.00001978,-0.00000253,-0.00002942,-0.000
 03883,-0.00005168,0.00000233,-0.00000071,-0.00000439,-0.00000771,0.000
 00005,0.00000844,-0.00002596,0.00000435,0.00002687,0.00025698,-0.00001
 795,-0.00017290,0.00000090,0.00013236,0.00001307,-0.00000091,0.0001749
 2,0.00002336,0.00153738,0.00003860,-0.00126326,-0.00029287,-0.00001979
 ,0.00016110,-0.00085877,0.00084402,-0.00024465,-0.00058848,0.00118022,
 0.00044009,-0.00021859,-0.00019140,0.00048813,-0.00063504,0.05495484,-
 0.00137442,-0.00127520,0.00052574,0.00223220,-0.00028642,0.00016807,-0
 .00035283,0.00011387,-0.00016177,0.00004870,-0.00005561,-0.00007565,0.
 00015756,-0.00030199,0.00025818,0.00002963,0.00007247,0.00002663,-0.00
 013739,-0.00007475,-0.00000100,0.00005206,0.00004735,0.00001169,0.0000
 0826,-0.00000066,-0.00000381,-0.00010146,-0.00013024,0.00067060,-0.000
 22555,0.00003246,-0.00001072,-0.00027308,-0.00017248,0.00094598,-0.002
 76910,0.00017073,0.00183352,0.12904476,-0.00114932,-0.20764264,-0.0027
 9057,0.00039415,0.00170908,-0.00005986,-0.00008137,-0.00002284,0.00001
 946,0.00008841,-0.00000075,-0.00002946,0.00002632,0.00003326,-0.000004
 02,-0.00000382,0.00001485,0.00004271,0.00009191,-0.00000269,-0.0000015
 2,-0.00000282,-0.00000009,-0.00000433,0.00000098,0.00000128,0.00000383
 ,0.00000166,-0.00000092,-0.00018807,-0.00008343,0.00047839,0.00004134,
 0.00001149,-0.00000232,0.00002308,-0.00000715,-0.00003891,0.00020850,0
 .00017017,0.00014337,-0.00022668,0.00012017,0.00046801,0.00008051,-0.0
 0050949,-0.00004679,0.00016553,-0.00047034,0.00081063,0.01748330,-0.00
 002918,-0.02186311,-0.14120443,0.00276534,0.22099468,-0.00125259,0.003
 56375,0.00261104,-0.01315220,-0.00033911,-0.01810237,0.00038770,-0.000
 33570,0.00109217,-0.00007150,-0.00025192,-0.00001711,0.00093601,-0.000
 11981,0.00078974,0.00016830,0.00032021,-0.00018551,-0.00006490,-0.0000
 5555,-0.00017281,0.00001529,0.00003741,0.00000098,0.00004062,-0.000005
 12,0.00001630,0.00954271,-0.00064200,0.02139074,0.00153118,-0.00031746
 ,0.00027103,-0.00003623,0.00000464,0.00007200,0.00052637,0.00118399,0.
 00023930,-0.01121618,-0.00119280,-0.01690071,-0.10728290,0.00131579,-0
 .11045425,0.00068808,0.00041434,0.00032877,-0.00007025,-0.00010742,0.0
 0041608,-0.00002526,-0.00001256,0.00001565,-0.00010863,0.00005367,0.00
 002909,-0.00013247,0.00002516,-0.00024377,-0.00000137,0.00000396,0.000
 00022,0.00000201,-0.00000119,0.00000004,0.00000847,-0.00000100,-0.0000
 1038,-0.00277334,-0.00002082,0.00345157,-0.00013527,-0.00011555,-0.000
 33524,0.00020527,-0.00035355,-0.00014929,0.00004860,0.00002021,-0.0000
 4112,-0.00016614,-0.00000443,-0.00000087,-0.00001455,0.00012714,0.0003
 2738,0.00067286,-0.00047781,0.00030290,-0.00168683,-0.00326637,0.00001
 139,0.00031675,0.00043762,0.00010134,0.12310040,0.00299079,-0.00331076
 ,-0.00349495,0.01424703,0.00323095,0.02647260,-0.00153293,-0.00051117,
 -0.00311959,0.00033995,0.00021822,-0.00011527,0.00034841,0.00007180,0.
 00117950,0.00006183,0.00000879,-0.00018098,-0.00007253,-0.00001267,0.0
 0006021,0.00006134,0.00003247,-0.00006072,0.00001546,-0.00000169,-0.00
 000954,-0.00076919,0.00054971,0.00024858,-0.00060816,0.00009682,-0.001
 04074,0.00007903,-0.00021323,0.00010565,-0.00051546,0.00168540,-0.0011
 7537,-0.01562006,-0.00144349,-0.02445227,0.00313471,-0.05074729,0.0065
 8459,-0.00025746,-0.00170455,0.00014899,0.00004649,0.00051385,-0.00029
 389,0.00003434,-0.00003547,-0.00002809,0.00000268,0.00010563,-0.000057
 55,-0.00028279,0.00004279,-0.00004691,0.00000155,-0.00000062,-0.000000
 98,0.00000284,-0.00000167,-0.00000603,0.00000418,0.00000029,-0.0000032
 3,-0.00006233,0.00060970,-0.00032374,0.00020116,0.00017774,-0.00001897
 ,-0.00000146,-0.00001123,0.00008335,0.00008425,-0.00003302,-0.00004188
 ,-0.00000907,0.00004317,0.00023205,0.00002493,0.00029914,0.00038283,0.
 00046611,-0.00035636,0.00062658,-0.00314916,-0.00479446,-0.00030931,0.
 00062124,0.00108977,0.00052681,0.00011229,0.05440144,0.00063842,0.0005
 3618,-0.00084891,-0.00124625,-0.00049884,-0.00021535,-0.00049720,-0.00
 021946,-0.00064791,0.00027699,0.00022407,-0.00006441,-0.00163638,-0.00
 079442,-0.00049434,0.00026717,-0.00014456,0.00071921,-0.00000740,0.000
 01088,-0.00009566,0.00005538,0.00001090,0.00014519,-0.00001190,0.00001
 761,-0.00000407,-0.01078054,0.00098462,-0.02764886,-0.00197857,0.00074
 829,0.00107678,0.00019548,-0.00026240,0.00002479,0.00000604,0.00037673
 ,0.00005921,-0.00101853,-0.00020849,-0.00100502,-0.10620264,0.00161097
 ,-0.21755024,0.00029768,0.00000120,0.00069025,0.00008883,0.00017676,0.
 00029615,-0.00001006,0.00004921,0.00000602,0.00001147,-0.00018422,0.00
 016358,0.00084088,0.00067120,0.00053888,-0.00000440,-0.00001092,0.0000
 0416,-0.00001131,0.00000388,-0.00000101,-0.00000166,0.00000375,0.00000
 453,0.00421003,0.00005928,-0.00309284,0.00089704,-0.00072295,0.0005912
 2,0.00016391,0.00034050,0.00043672,0.00000085,-0.00007780,-0.00002115,
 0.00001747,0.00021906,0.00007937,0.00016424,-0.00012005,0.00019742,0.0
 0030928,-0.00052173,0.00016626,-0.00006751,-0.00009490,0.00112077,-0.0
 0011252,-0.00031258,0.00078001,0.11514570,-0.00187174,0.24458925\\0.00
 005512,-0.00002213,-0.00000637,-0.00007330,-0.00000441,0.00005795,-0.0
 0000447,0.00001924,-0.00001674,0.00000862,-0.00002271,-0.00000150,-0.0
 0004240,-0.00000754,0.00003013,0.00005651,0.00006441,-0.00005084,-0.00
 002711,-0.00001759,0.00002932,-0.00001491,-0.00001526,-0.00004305,0.00
 000254,0.00000284,0.00000470,0.00001959,-0.00002111,0.00001346,0.00000
 866,0.00000088,-0.00001771,-0.00000027,-0.00001241,0.00002432,0.000005
 46,0.00001384,-0.00002490,-0.00000041,0.00001387,0.00002575,-0.0000230
 2,0.00000765,-0.00001021,0.00000310,0.00000244,-0.00000009,0.00000329,
 -0.00000082,-0.00000255,0.00000222,0.00000848,0.00000568,-0.00001142,0
 .00000415,0.00000090,-0.00000640,-0.00001435,-0.00000522,0.00000219,-0
 .00000768,-0.00000235,0.00001160,-0.00000390,0.00000315,0.00001661,0.0
 0000036,0.00000382,0.00000219,0.00001333,-0.00000314,0.00000500,0.0000
 0637,-0.00000044,0.00000862,-0.00000293,-0.00000082,0.00000107,-0.0000
 0277,-0.00000332,-0.00000112,-0.00000098,0.00000027,-0.00000463,-0.000
 00439,0.00000116,0.00000052,-0.00000533,0.00000400,0.00000266,0.000002
 72,-0.00000239,-0.00001054,0.00000215,-0.00000149,0.00000444,0.0000036
 0,-0.00001148\\\@



 WE LOSE BECAUSE WE WIN

 GAMBLERS,

 RECOLLECTING WHICH,

 TOSS THEIR DICE AGAIN....


                          EMILY DICKINSON  BOLTS OF MELODY NO. 533
 Job cpu time:       0 days  0 hours  4 minutes  8.7 seconds.
 Elapsed time:       0 days  0 hours  4 minutes 18.2 seconds.
 File lengths (MBytes):  RWF=    272 Int=      0 D2E=      0 Chk=     16 Scr=      1
 Normal termination of Gaussian 16 at Sat Feb 24 00:32:40 2024.
