 Entering Gaussian System, Link 0=g16
 Input=/Volumes/SSD-PMU3/b3lyp_6-31gd_freq/SORUNZRWXXOVLF-SPJNRGJMSA-N_calculating/gaussianinput0.gjf
 Output=/Volumes/SSD-PMU3/b3lyp_6-31gd_freq/SORUNZRWXXOVLF-SPJNRGJMSA-N_calculating/gaussianinput0.log
 Initial command:
 /Applications/g16/l1.exe "/Users/macmini_m1_2022/PycharmProjects/sphere_model/sphere_model_lib/Gau-56740.inp" -scrdir="/Users/macmini_m1_2022/PycharmProjects/sphere_model/sphere_model_lib/"
 Entering Link 1 = /Applications/g16/l1.exe PID=     56741.
  
 Copyright (c) 1988,1990,1992,1993,1995,1998,2003,2009,2016,
            Gaussian, Inc.  All Rights Reserved.
  
 This is part of the Gaussian(R) 16 program.  It is based on
 the Gaussian(R) 09 system (copyright 2009, Gaussian, Inc.),
 the Gaussian(R) 03 system (copyright 2003, Gaussian, Inc.),
 the Gaussian(R) 98 system (copyright 1998, Gaussian, Inc.),
 the Gaussian(R) 94 system (copyright 1995, Gaussian, Inc.),
 the Gaussian 92(TM) system (copyright 1992, Gaussian, Inc.),
 the Gaussian 90(TM) system (copyright 1990, Gaussian, Inc.),
 the Gaussian 88(TM) system (copyright 1988, Gaussian, Inc.),
 the Gaussian 86(TM) system (copyright 1986, Carnegie Mellon
 University), and the Gaussian 82(TM) system (copyright 1983,
 Carnegie Mellon University). Gaussian is a federally registered
 trademark of Gaussian, Inc.
  
 This software contains proprietary and confidential information,
 including trade secrets, belonging to Gaussian, Inc.
  
 This software is provided under written license and may be
 used, copied, transmitted, or stored only in accord with that
 written license.
  
 The following legend is applicable only to US Government
 contracts under FAR:
  
                    RESTRICTED RIGHTS LEGEND
  
 Use, reproduction and disclosure by the US Government is
 subject to restrictions as set forth in subparagraphs (a)
 and (c) of the Commercial Computer Software - Restricted
 Rights clause in FAR 52.227-19.
  
 Gaussian, Inc.
 340 Quinnipiac St., Bldg. 40, Wallingford CT 06492
  
  
 ---------------------------------------------------------------
 Warning -- This program may not be used in any manner that
 competes with the business of Gaussian, Inc. or will provide
 assistance to any competitor of Gaussian, Inc.  The licensee
 of this program is prohibited from giving any competitor of
 Gaussian, Inc. access to this program.  By using this program,
 the user acknowledges that Gaussian, Inc. is engaged in the
 business of creating and licensing software in the field of
 computational chemistry and represents and warrants to the
 licensee that it is not a competitor of Gaussian, Inc. and that
 it will not use this program in any manner prohibited above.
 ---------------------------------------------------------------
  

 Cite this work as:
 Gaussian 16, Revision A.03,
 M. J. Frisch, G. W. Trucks, H. B. Schlegel, G. E. Scuseria, 
 M. A. Robb, J. R. Cheeseman, G. Scalmani, V. Barone, 
 G. A. Petersson, H. Nakatsuji, X. Li, M. Caricato, A. V. Marenich, 
 J. Bloino, B. G. Janesko, R. Gomperts, B. Mennucci, H. P. Hratchian, 
 J. V. Ortiz, A. F. Izmaylov, J. L. Sonnenberg, D. Williams-Young, 
 F. Ding, F. Lipparini, F. Egidi, J. Goings, B. Peng, A. Petrone, 
 T. Henderson, D. Ranasinghe, V. G. Zakrzewski, J. Gao, N. Rega, 
 G. Zheng, W. Liang, M. Hada, M. Ehara, K. Toyota, R. Fukuda, 
 J. Hasegawa, M. Ishida, T. Nakajima, Y. Honda, O. Kitao, H. Nakai, 
 T. Vreven, K. Throssell, J. A. Montgomery, Jr., J. E. Peralta, 
 F. Ogliaro, M. J. Bearpark, J. J. Heyd, E. N. Brothers, K. N. Kudin, 
 V. N. Staroverov, T. A. Keith, R. Kobayashi, J. Normand, 
 K. Raghavachari, A. P. Rendell, J. C. Burant, S. S. Iyengar, 
 J. Tomasi, M. Cossi, J. M. Millam, M. Klene, C. Adamo, R. Cammi, 
 J. W. Ochterski, R. L. Martin, K. Morokuma, O. Farkas, 
 J. B. Foresman, and D. J. Fox, Gaussian, Inc., Wallingford CT, 2016.
 
 ******************************************
 Gaussian 16:  EM64M-G16RevA.03 25-Dec-2016
                22-Feb-2024 
 ******************************************
 %nprocshared=8
 Will use up to    8 processors via shared memory.
 %mem=4GB
 %chk= 0.chk
 ---------------------
 # freq b3lyp/6-31g(d)
 ---------------------
 1/10=4,30=1,38=1/1,3;
 2/12=2,17=6,18=5,40=1/2;
 3/5=1,6=6,7=1,11=2,25=1,30=1,71=2,74=-5,140=1/1,2,3;
 4//1;
 5/5=2,38=5,98=1/2;
 8/6=4,10=90,11=11/1;
 11/6=1,8=1,9=11,15=111,16=1/1,2,10;
 10/6=1/2;
 6/7=2,8=2,9=2,10=2,28=1/1;
 7/8=1,10=1,25=1/1,2,3,16;
 1/10=4,30=1/3;
 99//99;
 ---------
 good luck
 ---------
 Symbolic Z-matrix:
 Charge =  0 Multiplicity = 1
 O                     1.207     0.        0. 
 C                     0.        0.        0. 
 C                    -1.01227  -1.15843  -0.01159 
 C                    -1.76839  -0.79363  -1.32057 
 C                    -1.76839   0.79363  -1.32057 
 C                    -3.24768   1.22484  -1.46785 
 C                    -4.10232   0.       -1.07638 
 C                    -3.24768  -1.22484  -1.46785 
 C                    -1.01227   1.15843  -0.01159 
 C                    -1.83626   0.78651   1.2441 
 C                    -1.83626  -0.78651   1.2441 
 H                    -0.57637  -2.15881   0.00113 
 H                    -1.18119  -1.17852  -2.16145 
 H                    -1.18119   1.17852  -2.16145 
 H                    -3.43663   1.48257  -2.51717 
 H                    -3.49207   2.11606  -0.87852 
 H                    -4.30316   0.        0.00048 
 H                    -5.0771    0.       -1.57685 
 H                    -3.43663  -1.48257  -2.51717 
 H                    -3.49207  -2.11606  -0.87852 
 H                    -0.57637   2.15881   0.00113 
 H                    -1.34711   1.17616   2.14311 
 H                    -2.84464   1.20865   1.22035 
 H                    -2.84464  -1.20865   1.22035 
 H                    -1.34711  -1.17616   2.14311 
 

 GradGradGradGradGradGradGradGradGradGradGradGradGradGradGradGradGradGrad
 Berny optimization.
 Initialization pass.
 Trust Radius=3.00D-01 FncErr=1.00D-07 GrdErr=1.00D-07 EigMax=2.50D+02 EigMin=1.00D-04
 Number of steps in this run=      2 maximum allowed number of steps=      2.
 GradGradGradGradGradGradGradGradGradGradGradGradGradGradGradGradGradGrad

                          Input orientation:                          
 ---------------------------------------------------------------------
 Center     Atomic      Atomic             Coordinates (Angstroms)
 Number     Number       Type             X           Y           Z
 ---------------------------------------------------------------------
      1          8           0        1.206996    0.000000    0.000000
      2          6           0        0.000000    0.000000    0.000000
      3          6           0       -1.012269   -1.158426   -0.011588
      4          6           0       -1.768385   -0.793627   -1.320565
      5          6           0       -1.768385    0.793627   -1.320565
      6          6           0       -3.247680    1.224839   -1.467852
      7          6           0       -4.102322    0.000000   -1.076376
      8          6           0       -3.247681   -1.224839   -1.467852
      9          6           0       -1.012269    1.158426   -0.011588
     10          6           0       -1.836259    0.786511    1.244096
     11          6           0       -1.836259   -0.786511    1.244096
     12          1           0       -0.576374   -2.158813    0.001132
     13          1           0       -1.181188   -1.178521   -2.161445
     14          1           0       -1.181188    1.178521   -2.161445
     15          1           0       -3.436628    1.482571   -2.517168
     16          1           0       -3.492073    2.116065   -0.878522
     17          1           0       -4.303160    0.000000    0.000481
     18          1           0       -5.077104    0.000000   -1.576847
     19          1           0       -3.436629   -1.482571   -2.517168
     20          1           0       -3.492073   -2.116064   -0.878522
     21          1           0       -0.576374    2.158813    0.001132
     22          1           0       -1.347106    1.176156    2.143106
     23          1           0       -2.844644    1.208654    1.220354
     24          1           0       -2.844644   -1.208654    1.220354
     25          1           0       -1.347106   -1.176156    2.143106
 ---------------------------------------------------------------------
                    Distance matrix (angstroms):
                    1          2          3          4          5
     1  O    0.000000
     2  C    1.206996   0.000000
     3  C    2.503442   1.538432   0.000000
     4  C    3.350616   2.345404   1.555060   0.000000
     5  C    3.350616   2.345404   2.468936   1.587254   0.000000
     6  C    4.847572   3.768587   3.577390   2.506833   1.547886
     7  C    5.417328   4.241183   3.467586   2.477243   2.477243
     8  C    4.847573   3.768588   2.668742   1.547887   2.506834
     9  C    2.503442   1.538432   2.316852   2.468936   1.555060
    10  C    3.380499   2.353343   2.457332   3.013126   2.565569
    11  C    3.380499   2.353343   1.547263   2.565569   3.013126
    12  H    2.800158   2.234431   1.091302   2.243102   3.447416
    13  H    3.429895   2.730561   2.156577   1.095456   2.222892
    14  H    3.429895   2.730561   3.179896   2.222892   1.095456
    15  H    5.486109   4.510495   4.373821   3.065285   2.165534
    16  H    5.227885   4.176614   4.198011   3.410691   2.217058
    17  H    5.510156   4.303160   3.488848   2.966495   2.966495
    18  H    6.478917   5.316336   4.507202   3.412205   3.412205
    19  H    5.486110   4.510496   3.501503   2.165535   3.065285
    20  H    5.227885   4.176614   2.796082   2.217057   3.410690
    21  H    2.800158   2.234431   3.345780   3.447416   2.243102
    22  H    3.535489   2.791226   3.194541   4.006811   3.510103
    23  H    4.400670   3.322967   3.237027   3.409359   2.790493
    24  H    4.400670   3.322967   2.208575   2.790493   3.409359
    25  H    3.535489   2.791226   2.180628   3.510103   4.006811
                    6          7          8          9         10
     6  C    0.000000
     7  C    1.543987   0.000000
     8  C    2.449678   1.543987   0.000000
     9  C    2.668741   3.467586   3.577391   0.000000
    10  C    3.088511   3.337399   3.659550   1.547263   0.000000
    11  C    3.659549   3.337399   3.088512   2.457332   1.573022
    12  H    4.554436   4.272447   3.188433   3.345780   3.436161
    13  H    3.244626   3.331563   2.180277   3.179896   3.985998
    14  H    2.180277   3.331563   3.244627   2.156577   3.490057
    15  H    1.096901   2.171876   2.909782   3.501502   4.146419
    16  H    1.096048   2.211172   3.401276   2.796082   3.002489
    17  H    2.184095   1.095425   2.184094   3.488848   2.872417
    18  H    2.204292   1.095751   2.204291   4.507202   4.367997
    19  H    2.909783   2.171876   1.096901   4.373822   4.675150
    20  H    3.401275   2.211171   1.096047   4.198010   3.958809
    21  H    3.188432   4.272447   4.554437   1.091302   2.239527
    22  H    4.080878   4.397684   4.734552   2.180628   1.095131
    23  H    2.718299   2.884019   3.648394   2.208575   1.093439
    24  H    3.648394   2.884019   2.718300   3.237027   2.235640
    25  H    4.734551   4.397684   4.080879   3.194541   2.213493
                   11         12         13         14         15
    11  C    0.000000
    12  H    2.239527   0.000000
    13  H    3.490057   2.450206   0.000000
    14  H    3.985998   4.022479   2.357042   0.000000
    15  H    4.675149   5.270917   3.506417   2.303475   0.000000
    16  H    3.958810   5.248778   4.223787   2.804473   1.757711
    17  H    2.872417   4.306902   3.976122   3.976122   3.047532
    18  H    4.367997   5.235175   4.112035   4.112035   2.402786
    19  H    4.146419   3.870426   2.303475   3.506417   2.965142
    20  H    3.002489   3.045804   2.804473   4.223786   3.954543
    21  H    3.436161   4.317626   4.022479   2.450206   3.870425
    22  H    2.213493   4.037833   4.909296   4.307748   5.116458
    23  H    2.235640   4.239267   4.461194   3.768894   3.794015
    24  H    1.093439   2.744878   3.768894   4.461194   4.643512
    25  H    1.095131   2.479455   4.307748   4.909296   5.757872
                   16         17         18         19         20
    16  H    0.000000
    17  H    2.430687   0.000000
    18  H    2.734541   1.756973   0.000000
    19  H    3.954544   3.047532   2.402786   0.000000
    20  H    4.232129   2.430686   2.734540   1.757711   0.000000
    21  H    3.045804   4.306902   5.235175   5.270917   5.248777
    22  H    3.822898   3.835680   5.397618   5.757872   4.956797
    23  H    2.376518   2.253043   3.777440   4.643513   3.984745
    24  H    3.984746   2.253043   3.777440   3.794015   2.376518
    25  H    4.956797   3.835680   5.397618   5.116459   3.822898
                   21         22         23         24         25
    21  H    0.000000
    22  H    2.479455   0.000000
    23  H    2.744878   1.759303   0.000000
    24  H    4.239267   2.963344   2.417308   0.000000
    25  H    4.037833   2.352312   2.963344   1.759303   0.000000
 Stoichiometry    C10H14O
 Framework group  C1[X(C10H14O)]
 Deg. of freedom    69
 Full point group                 C1      NOp   1
 Largest Abelian subgroup         C1      NOp   1
 Largest concise Abelian subgroup C1      NOp   1
                         Standard orientation:                         
 ---------------------------------------------------------------------
 Center     Atomic      Atomic             Coordinates (Angstroms)
 Number     Number       Type             X           Y           Z
 ---------------------------------------------------------------------
      1          8           0        2.855829    0.000000   -0.895474
      2          6           0        1.759152    0.000000   -0.391353
      3          6           0        0.834564   -1.158426    0.020907
      4          6           0       -0.399159   -0.793627   -0.852626
      5          6           0       -0.399159    0.793627   -0.852625
      6          6           0       -1.804764    1.224839   -0.368599
      7          6           0       -2.417786   -0.000000    0.344050
      8          6           0       -1.804765   -1.224839   -0.368600
      9          6           0        0.834564    1.158426    0.020909
     10          6           0        0.610342    0.786510    1.505976
     11          6           0        0.610342   -0.786512    1.505975
     12          1           0        1.235931   -2.158813   -0.149594
     13          1           0       -0.216838   -1.178520   -1.861903
     14          1           0       -0.216838    1.178522   -1.861901
     15          1           0       -2.414706    1.482572   -1.243091
     16          1           0       -1.780677    2.116065    0.268942
     17          1           0       -2.150501   -0.000001    1.406367
     18          1           0       -3.512503   -0.000000    0.296455
     19          1           0       -2.414707   -1.482570   -1.243092
     20          1           0       -1.780677   -2.116064    0.268939
     21          1           0        1.235931    2.158813   -0.149592
     22          1           0        1.430273    1.176155    2.118515
     23          1           0       -0.315793    1.208653    1.905573
     24          1           0       -0.315793   -1.208655    1.905571
     25          1           0        1.430273   -1.176157    2.118514
 ---------------------------------------------------------------------
 Rotational constants (GHZ):           2.0271477           0.9960580           0.9771665
 Standard basis: 6-31G(d) (6D, 7F)
 There are   193 symmetry adapted cartesian basis functions of A   symmetry.
 There are   193 symmetry adapted basis functions of A   symmetry.
   193 basis functions,   364 primitive gaussians,   193 cartesian basis functions
    41 alpha electrons       41 beta electrons
       nuclear repulsion energy       656.8951108031 Hartrees.
 NAtoms=   25 NActive=   25 NUniq=   25 SFac= 1.00D+00 NAtFMM=   60 NAOKFM=F Big=F
 Integral buffers will be    131072 words long.
 Raffenetti 2 integral format.
 Two-electron integral symmetry is turned on.
 One-electron integrals computed using PRISM.
 NBasis=   193 RedAO= T EigKep=  1.20D-03  NBF=   193
 NBsUse=   193 1.00D-06 EigRej= -1.00D+00 NBFU=   193
 ExpMin= 1.61D-01 ExpMax= 5.48D+03 ExpMxC= 8.25D+02 IAcc=3 IRadAn=         5 AccDes= 0.00D+00
 Harris functional with IExCor=  402 and IRadAn=       5 diagonalized for initial guess.
 HarFok:  IExCor=  402 AccDes= 0.00D+00 IRadAn=         5 IDoV= 1 UseB2=F ITyADJ=14
 ICtDFT=  3500011 ScaDFX=  1.000000  1.000000  1.000000  1.000000
 FoFCou: FMM=F IPFlag=           0 FMFlag=      100000 FMFlg1=           0
         NFxFlg=           0 DoJE=T BraDBF=F KetDBF=T FulRan=T
         wScrn=  0.000000 ICntrl=       500 IOpCl=  0 I1Cent=   200000004 NGrid=           0
         NMat0=    1 NMatS0=      1 NMatT0=    0 NMatD0=    1 NMtDS0=    0 NMtDT0=    0
 Petite list used in FoFCou.
 Requested convergence on RMS density matrix=1.00D-08 within 128 cycles.
 Requested convergence on MAX density matrix=1.00D-06.
 Requested convergence on             energy=1.00D-06.
 No special actions if energy rises.
 Integral accuracy reduced to 1.0D-05 until final iterations.
 Initial convergence to 1.0D-05 achieved.  Increase integral accuracy.
 SCF Done:  E(RB3LYP) =  -464.702440888     A.U. after   13 cycles
            NFock= 13  Conv=0.92D-08     -V/T= 2.0096
 DoSCS=F DFT=T ScalE2(SS,OS)=  1.000000  1.000000
 Range of M.O.s used for correlation:     1   193
 NBasis=   193 NAE=    41 NBE=    41 NFC=     0 NFV=     0
 NROrb=    193 NOA=    41 NOB=    41 NVA=   152 NVB=   152
 Symmetrizing basis deriv contribution to polar:
 IMax=3 JMax=2 DiffMx= 0.00D+00
 G2DrvN: will do    26 centers at a time, making    1 passes.
 Calling FoFCou, ICntrl=  3107 FMM=F I1Cent=   0 AccDes= 0.00D+00.
 End of G2Drv F.D. properties file   721 does not exist.
 End of G2Drv F.D. properties file   722 does not exist.
 End of G2Drv F.D. properties file   788 does not exist.
          IDoAtm=1111111111111111111111111
          Differentiating once with respect to electric field.
                with respect to dipole field.
          Differentiating once with respect to nuclear coordinates.
 Keep R1 ints in memory in canonical form, NReq=183418872.
          There are    78 degrees of freedom in the 1st order CPHF.  IDoFFX=6 NUNeed=     3.
     75 vectors produced by pass  0 Test12= 7.99D-15 1.28D-09 XBig12= 7.38D+01 2.57D+00.
 AX will form    75 AO Fock derivatives at one time.
     75 vectors produced by pass  1 Test12= 7.99D-15 1.28D-09 XBig12= 1.04D+01 8.64D-01.
     75 vectors produced by pass  2 Test12= 7.99D-15 1.28D-09 XBig12= 1.39D-01 4.30D-02.
     75 vectors produced by pass  3 Test12= 7.99D-15 1.28D-09 XBig12= 7.01D-04 4.57D-03.
     75 vectors produced by pass  4 Test12= 7.99D-15 1.28D-09 XBig12= 1.03D-06 1.80D-04.
     41 vectors produced by pass  5 Test12= 7.99D-15 1.28D-09 XBig12= 7.11D-10 2.93D-06.
      4 vectors produced by pass  6 Test12= 7.99D-15 1.28D-09 XBig12= 4.08D-13 8.99D-08.
      1 vectors produced by pass  7 Test12= 7.99D-15 1.28D-09 XBig12= 2.68D-16 2.02D-09.
 InvSVY:  IOpt=1 It=  1 EMax= 4.44D-15
 Solved reduced A of dimension   421 with    78 vectors.
 Isotropic polarizability for W=    0.000000       94.78 Bohr**3.
 End of Minotr F.D. properties file   721 does not exist.
 End of Minotr F.D. properties file   722 does not exist.
 End of Minotr F.D. properties file   788 does not exist.

 **********************************************************************

            Population analysis using the SCF density.

 **********************************************************************

 Orbital symmetries:
       Occupied  (A) (A) (A) (A) (A) (A) (A) (A) (A) (A) (A) (A)
                 (A) (A) (A) (A) (A) (A) (A) (A) (A) (A) (A) (A)
                 (A) (A) (A) (A) (A) (A) (A) (A) (A) (A) (A) (A)
                 (A) (A) (A) (A) (A)
       Virtual   (A) (A) (A) (A) (A) (A) (A) (A) (A) (A) (A) (A)
                 (A) (A) (A) (A) (A) (A) (A) (A) (A) (A) (A) (A)
                 (A) (A) (A) (A) (A) (A) (A) (A) (A) (A) (A) (A)
                 (A) (A) (A) (A) (A) (A) (A) (A) (A) (A) (A) (A)
                 (A) (A) (A) (A) (A) (A) (A) (A) (A) (A) (A) (A)
                 (A) (A) (A) (A) (A) (A) (A) (A) (A) (A) (A) (A)
                 (A) (A) (A) (A) (A) (A) (A) (A) (A) (A) (A) (A)
                 (A) (A) (A) (A) (A) (A) (A) (A) (A) (A) (A) (A)
                 (A) (A) (A) (A) (A) (A) (A) (A) (A) (A) (A) (A)
                 (A) (A) (A) (A) (A) (A) (A) (A) (A) (A) (A) (A)
                 (A) (A) (A) (A) (A) (A) (A) (A) (A) (A) (A) (A)
                 (A) (A) (A) (A) (A) (A) (A) (A) (A) (A) (A) (A)
                 (A) (A) (A) (A) (A) (A) (A) (A)
 The electronic state is 1-A.
 Alpha  occ. eigenvalues --  -19.13920 -10.26557 -10.19415 -10.19400 -10.19196
 Alpha  occ. eigenvalues --  -10.19180 -10.19083 -10.19080 -10.18480 -10.18477
 Alpha  occ. eigenvalues --  -10.18419  -1.03726  -0.87925  -0.80624  -0.74794
 Alpha  occ. eigenvalues --   -0.73174  -0.68573  -0.65419  -0.59616  -0.56915
 Alpha  occ. eigenvalues --   -0.53065  -0.52141  -0.50805  -0.47820  -0.46279
 Alpha  occ. eigenvalues --   -0.43673  -0.43452  -0.41633  -0.39351  -0.39099
 Alpha  occ. eigenvalues --   -0.37367  -0.36329  -0.35884  -0.34464  -0.34244
 Alpha  occ. eigenvalues --   -0.33672  -0.33020  -0.32039  -0.30996  -0.29661
 Alpha  occ. eigenvalues --   -0.22713
 Alpha virt. eigenvalues --   -0.00631   0.06673   0.08197   0.11296   0.12300
 Alpha virt. eigenvalues --    0.12490   0.14327   0.14560   0.15379   0.16069
 Alpha virt. eigenvalues --    0.17726   0.17781   0.18702   0.18974   0.19858
 Alpha virt. eigenvalues --    0.20463   0.21422   0.22368   0.22690   0.23366
 Alpha virt. eigenvalues --    0.25093   0.26334   0.27896   0.28564   0.30515
 Alpha virt. eigenvalues --    0.33255   0.34268   0.37471   0.48112   0.53834
 Alpha virt. eigenvalues --    0.55824   0.56134   0.56289   0.57212   0.57506
 Alpha virt. eigenvalues --    0.60014   0.60434   0.62832   0.62979   0.63543
 Alpha virt. eigenvalues --    0.64690   0.64951   0.67063   0.69024   0.69425
 Alpha virt. eigenvalues --    0.70754   0.74052   0.74623   0.76953   0.78179
 Alpha virt. eigenvalues --    0.80492   0.81247   0.83156   0.83399   0.84722
 Alpha virt. eigenvalues --    0.84891   0.85680   0.87578   0.88491   0.89174
 Alpha virt. eigenvalues --    0.90437   0.91303   0.91316   0.94519   0.94671
 Alpha virt. eigenvalues --    0.94787   0.96762   0.97075   0.97467   1.02276
 Alpha virt. eigenvalues --    1.06940   1.08360   1.09197   1.10768   1.18987
 Alpha virt. eigenvalues --    1.22655   1.25977   1.29919   1.32244   1.38218
 Alpha virt. eigenvalues --    1.40946   1.45427   1.47017   1.54224   1.61976
 Alpha virt. eigenvalues --    1.64142   1.67508   1.67835   1.69897   1.72450
 Alpha virt. eigenvalues --    1.73622   1.74884   1.76596   1.77943   1.79095
 Alpha virt. eigenvalues --    1.79682   1.81542   1.83491   1.85614   1.90025
 Alpha virt. eigenvalues --    1.90609   1.92023   1.96822   1.97782   2.01602
 Alpha virt. eigenvalues --    2.03292   2.04687   2.05967   2.06678   2.08870
 Alpha virt. eigenvalues --    2.12078   2.13892   2.15990   2.19820   2.20033
 Alpha virt. eigenvalues --    2.21469   2.22658   2.30700   2.31293   2.32546
 Alpha virt. eigenvalues --    2.35838   2.42429   2.44085   2.46415   2.48913
 Alpha virt. eigenvalues --    2.52270   2.56414   2.57108   2.61364   2.62486
 Alpha virt. eigenvalues --    2.65227   2.66897   2.68648   2.69551   2.71744
 Alpha virt. eigenvalues --    2.73610   2.77793   2.80248   2.88913   3.01785
 Alpha virt. eigenvalues --    3.06437   4.08352   4.15890   4.25756   4.26925
 Alpha virt. eigenvalues --    4.35157   4.50942   4.52160   4.57490   4.68171
 Alpha virt. eigenvalues --    4.81037   5.00589
          Condensed to atoms (all electrons):
               1          2          3          4          5          6
     1  O    7.962996   0.595999  -0.062422   0.000705   0.000705  -0.000031
     2  C    0.595999   4.649495   0.302785  -0.058468  -0.058468   0.004136
     3  C   -0.062422   0.302785   5.219413   0.370001  -0.057239  -0.000732
     4  C    0.000705  -0.058468   0.370001   5.043431   0.372638  -0.057801
     5  C    0.000705  -0.058468  -0.057239   0.372638   5.043431   0.361329
     6  C   -0.000031   0.004136  -0.000732  -0.057801   0.361329   5.062065
     7  C   -0.000000  -0.000167   0.000032  -0.060233  -0.060233   0.373706
     8  C   -0.000031   0.004136  -0.029432   0.361329  -0.057801  -0.070910
     9  C   -0.062422   0.302785  -0.150263  -0.057239   0.370001  -0.029432
    10  C    0.001523  -0.060545  -0.051985  -0.014235  -0.034437  -0.009558
    11  C    0.001523  -0.060545   0.363072  -0.034437  -0.014235   0.000999
    12  H    0.001075  -0.027922   0.355483  -0.030134   0.005863  -0.000141
    13  H    0.000618   0.001174  -0.043329   0.366128  -0.034580   0.005469
    14  H    0.000618   0.001174   0.003986  -0.034580   0.366128  -0.040626
    15  H    0.000001  -0.000135   0.000053   0.000762  -0.029495   0.369542
    16  H   -0.000001   0.000077  -0.000107   0.004573  -0.034827   0.369154
    17  H    0.000000  -0.000181   0.000761   0.000124   0.000124  -0.039922
    18  H   -0.000000   0.000005  -0.000056   0.004817   0.004817  -0.030636
    19  H    0.000001  -0.000135   0.003822  -0.029495   0.000762   0.000398
    20  H   -0.000001   0.000077  -0.006814  -0.034827   0.004573   0.005241
    21  H    0.001075  -0.027922   0.006613   0.005863  -0.030134  -0.000205
    22  H    0.000449   0.000346   0.002295  -0.000106   0.005008   0.000027
    23  H   -0.000063   0.004215   0.000829   0.001302  -0.013218   0.006750
    24  H   -0.000063   0.004215  -0.027314  -0.013218   0.001302  -0.000393
    25  H    0.000449   0.000346  -0.034249   0.005008  -0.000106  -0.000014
               7          8          9         10         11         12
     1  O   -0.000000  -0.000031  -0.062422   0.001523   0.001523   0.001075
     2  C   -0.000167   0.004136   0.302785  -0.060545  -0.060545  -0.027922
     3  C    0.000032  -0.029432  -0.150263  -0.051985   0.363072   0.355483
     4  C   -0.060233   0.361329  -0.057239  -0.014235  -0.034437  -0.030134
     5  C   -0.060233  -0.057801   0.370001  -0.034437  -0.014235   0.005863
     6  C    0.373706  -0.070910  -0.029432  -0.009558   0.000999  -0.000141
     7  C    5.044069   0.373706   0.000032  -0.001539  -0.001539  -0.000125
     8  C    0.373706   5.062065  -0.000732   0.000999  -0.009558  -0.000205
     9  C    0.000032  -0.000732   5.219413   0.363072  -0.051985   0.006613
    10  C   -0.001539   0.000999   0.363072   5.103006   0.343585   0.005652
    11  C   -0.001539  -0.009558  -0.051985   0.343585   5.103006  -0.035341
    12  H   -0.000125  -0.000205   0.006613   0.005652  -0.035341   0.588787
    13  H    0.004790  -0.040626   0.003986  -0.000115   0.005594  -0.004492
    14  H    0.004790   0.005469  -0.043329   0.005594  -0.000115  -0.000204
    15  H   -0.037427   0.000398   0.003822   0.000201  -0.000040   0.000002
    16  H   -0.031428   0.005241  -0.006814  -0.000017   0.000059   0.000003
    17  H    0.376254  -0.039922   0.000761  -0.000144  -0.000144   0.000031
    18  H    0.368669  -0.030636  -0.000056   0.000038   0.000038   0.000003
    19  H   -0.037427   0.369542   0.000053  -0.000040   0.000201  -0.000053
    20  H   -0.031428   0.369154  -0.000107   0.000059  -0.000017   0.000947
    21  H   -0.000125  -0.000141   0.355483  -0.035341   0.005652  -0.000165
    22  H    0.000098  -0.000014  -0.034249   0.369207  -0.029567  -0.000186
    23  H   -0.001320  -0.000393  -0.027314   0.366626  -0.030887  -0.000078
    24  H   -0.001320   0.006750   0.000829  -0.030887   0.366626   0.000618
    25  H    0.000098   0.000027   0.002295  -0.029567   0.369207  -0.003342
              13         14         15         16         17         18
     1  O    0.000618   0.000618   0.000001  -0.000001   0.000000  -0.000000
     2  C    0.001174   0.001174  -0.000135   0.000077  -0.000181   0.000005
     3  C   -0.043329   0.003986   0.000053  -0.000107   0.000761  -0.000056
     4  C    0.366128  -0.034580   0.000762   0.004573   0.000124   0.004817
     5  C   -0.034580   0.366128  -0.029495  -0.034827   0.000124   0.004817
     6  C    0.005469  -0.040626   0.369542   0.369154  -0.039922  -0.030636
     7  C    0.004790   0.004790  -0.037427  -0.031428   0.376254   0.368669
     8  C   -0.040626   0.005469   0.000398   0.005241  -0.039922  -0.030636
     9  C    0.003986  -0.043329   0.003822  -0.006814   0.000761  -0.000056
    10  C   -0.000115   0.005594   0.000201  -0.000017  -0.000144   0.000038
    11  C    0.005594  -0.000115  -0.000040   0.000059  -0.000144   0.000038
    12  H   -0.004492  -0.000204   0.000002   0.000003   0.000031   0.000003
    13  H    0.611228  -0.009250  -0.000159  -0.000141  -0.000129  -0.000193
    14  H   -0.009250   0.611228  -0.007989   0.002972  -0.000129  -0.000193
    15  H   -0.000159  -0.007989   0.597810  -0.035697   0.005342  -0.007416
    16  H   -0.000141   0.002972  -0.035697   0.587457  -0.007305   0.002183
    17  H   -0.000129  -0.000129   0.005342  -0.007305   0.594842  -0.035052
    18  H   -0.000193  -0.000193  -0.007416   0.002183  -0.035052   0.589914
    19  H   -0.007989  -0.000159   0.001559  -0.000116   0.005342  -0.007416
    20  H    0.002972  -0.000141  -0.000116  -0.000152  -0.007305   0.002183
    21  H   -0.000204  -0.004492  -0.000053   0.000947   0.000031   0.000003
    22  H    0.000011  -0.000168   0.000000  -0.000157   0.000053  -0.000002
    23  H   -0.000008   0.000100  -0.000106   0.003088   0.002742   0.000050
    24  H    0.000100  -0.000008   0.000000  -0.000012   0.002742   0.000050
    25  H   -0.000168   0.000011   0.000001   0.000000   0.000053  -0.000002
              19         20         21         22         23         24
     1  O    0.000001  -0.000001   0.001075   0.000449  -0.000063  -0.000063
     2  C   -0.000135   0.000077  -0.027922   0.000346   0.004215   0.004215
     3  C    0.003822  -0.006814   0.006613   0.002295   0.000829  -0.027314
     4  C   -0.029495  -0.034827   0.005863  -0.000106   0.001302  -0.013218
     5  C    0.000762   0.004573  -0.030134   0.005008  -0.013218   0.001302
     6  C    0.000398   0.005241  -0.000205   0.000027   0.006750  -0.000393
     7  C   -0.037427  -0.031428  -0.000125   0.000098  -0.001320  -0.001320
     8  C    0.369542   0.369154  -0.000141  -0.000014  -0.000393   0.006750
     9  C    0.000053  -0.000107   0.355483  -0.034249  -0.027314   0.000829
    10  C   -0.000040   0.000059  -0.035341   0.369207   0.366626  -0.030887
    11  C    0.000201  -0.000017   0.005652  -0.029567  -0.030887   0.366626
    12  H   -0.000053   0.000947  -0.000165  -0.000186  -0.000078   0.000618
    13  H   -0.007989   0.002972  -0.000204   0.000011  -0.000008   0.000100
    14  H   -0.000159  -0.000141  -0.004492  -0.000168   0.000100  -0.000008
    15  H    0.001559  -0.000116  -0.000053   0.000000  -0.000106   0.000000
    16  H   -0.000116  -0.000152   0.000947  -0.000157   0.003088  -0.000012
    17  H    0.005342  -0.007305   0.000031   0.000053   0.002742   0.002742
    18  H   -0.007416   0.002183   0.000003  -0.000002   0.000050   0.000050
    19  H    0.597810  -0.035696   0.000002   0.000001   0.000000  -0.000106
    20  H   -0.035696   0.587457   0.000003   0.000000  -0.000012   0.003088
    21  H    0.000002   0.000003   0.588787  -0.003342   0.000618  -0.000078
    22  H    0.000001   0.000000  -0.003342   0.580559  -0.036110   0.003723
    23  H    0.000000  -0.000012   0.000618  -0.036110   0.579819  -0.009197
    24  H   -0.000106   0.003088  -0.000078   0.003723  -0.009197   0.579819
    25  H    0.000000  -0.000157  -0.000186  -0.009530   0.003723  -0.036110
              25
     1  O    0.000449
     2  C    0.000346
     3  C   -0.034249
     4  C    0.005008
     5  C   -0.000106
     6  C   -0.000014
     7  C    0.000098
     8  C    0.000027
     9  C    0.002295
    10  C   -0.029567
    11  C    0.369207
    12  H   -0.003342
    13  H   -0.000168
    14  H    0.000011
    15  H    0.000001
    16  H    0.000000
    17  H    0.000053
    18  H   -0.000002
    19  H    0.000000
    20  H   -0.000157
    21  H   -0.000186
    22  H   -0.009530
    23  H    0.003723
    24  H   -0.036110
    25  H    0.580559
 Mulliken charges:
               1
     1  O   -0.442704
     2  C    0.423523
     3  C   -0.165205
     4  C   -0.111908
     5  C   -0.111908
     6  C   -0.278416
     7  C   -0.281935
     8  C   -0.278416
     9  C   -0.165205
    10  C   -0.291154
    11  C   -0.291154
    12  H    0.137311
    13  H    0.139313
    14  H    0.139313
    15  H    0.139141
    16  H    0.141017
    17  H    0.141031
    18  H    0.138888
    19  H    0.139141
    20  H    0.141017
    21  H    0.137311
    22  H    0.151653
    23  H    0.148845
    24  H    0.148845
    25  H    0.151653
 Sum of Mulliken charges =  -0.00000
 Mulliken charges with hydrogens summed into heavy atoms:
               1
     1  O   -0.442704
     2  C    0.423523
     3  C   -0.027894
     4  C    0.027406
     5  C    0.027406
     6  C    0.001743
     7  C   -0.002015
     8  C    0.001743
     9  C   -0.027894
    10  C    0.009344
    11  C    0.009344
 APT charges:
               1
     1  O   -0.659718
     2  C    0.746196
     3  C   -0.070855
     4  C    0.090714
     5  C    0.090714
     6  C    0.090076
     7  C    0.081309
     8  C    0.090075
     9  C   -0.070855
    10  C    0.087164
    11  C    0.087164
    12  H   -0.034515
    13  H   -0.062996
    14  H   -0.062996
    15  H   -0.050090
    16  H   -0.031379
    17  H   -0.036563
    18  H   -0.042639
    19  H   -0.050090
    20  H   -0.031378
    21  H   -0.034515
    22  H   -0.038197
    23  H   -0.024214
    24  H   -0.024214
    25  H   -0.038197
 Sum of APT charges =   0.00000
 APT charges with hydrogens summed into heavy atoms:
               1
     1  O   -0.659718
     2  C    0.746196
     3  C   -0.105371
     4  C    0.027719
     5  C    0.027719
     6  C    0.008607
     7  C    0.002106
     8  C    0.008606
     9  C   -0.105370
    10  C    0.024753
    11  C    0.024753
 Electronic spatial extent (au):  <R**2>=           1472.9329
 Charge=             -0.0000 electrons
 Dipole moment (field-independent basis, Debye):
    X=             -2.8630    Y=             -0.0000    Z=              1.0901  Tot=              3.0635
 Quadrupole moment (field-independent basis, Debye-Ang):
   XX=            -75.8707   YY=            -64.9658   ZZ=            -65.6091
   XY=             -0.0000   XZ=              4.8637   YZ=             -0.0000
 Traceless Quadrupole moment (field-independent basis, Debye-Ang):
   XX=             -7.0555   YY=              3.8494   ZZ=              3.2061
   XY=             -0.0000   XZ=              4.8637   YZ=             -0.0000
 Octapole moment (field-independent basis, Debye-Ang**2):
  XXX=            -26.6295  YYY=             -0.0000  ZZZ=             -4.1966  XYY=              5.5891
  XXY=             -0.0000  XXZ=             12.1091  XZZ=              0.1978  YZZ=              0.0000
  YYZ=             -1.0124  XYZ=              0.0000
 Hexadecapole moment (field-independent basis, Debye-Ang**3):
 XXXX=          -1166.3405 YYYY=           -448.2665 ZZZZ=           -415.3276 XXXY=              0.0000
 XXXZ=             39.5730 YYYX=              0.0000 YYYZ=             -0.0000 ZZZX=             -2.6179
 ZZZY=             -0.0000 XXYY=           -252.0021 XXZZ=           -252.5837 YYZZ=           -143.6909
 XXYZ=             -0.0000 YYXZ=             -3.3729 ZZXY=              0.0000
 N-N= 6.568951108031D+02 E-N=-2.391864532492D+03  KE= 4.602946272086D+02
  Exact polarizability: 106.189   0.000  90.359  -0.452   0.000  87.789
 Approx polarizability: 150.970   0.000 131.341  -6.320   0.000 132.836
 Calling FoFJK, ICntrl=    100127 FMM=F ISym2X=0 I1Cent= 0 IOpClX= 0 NMat=1 NMatS=1 NMatT=0.
 Full mass-weighted force constant matrix:
 Low frequencies ---   -8.3846   -7.6381   -0.0011   -0.0010   -0.0007    4.2420
 Low frequencies ---  123.6708  133.0355  217.0221
 Diagonal vibrational polarizability:
        3.9796878       3.6630585       5.3790513
 Harmonic frequencies (cm**-1), IR intensities (KM/Mole), Raman scattering
 activities (A**4/AMU), depolarization ratios for plane and unpolarized
 incident light, reduced masses (AMU), force constants (mDyne/A),
 and normal coordinates:
                      1                      2                      3
                      A                      A                      A
 Frequencies --    123.6706               133.0310               217.0207
 Red. masses --      6.9656                 2.8625                 2.2897
 Frc consts  --      0.0628                 0.0298                 0.0635
 IR Inten    --      2.8398                 0.4772                 0.0689
  Atom  AN      X      Y      Z        X      Y      Z        X      Y      Z
     1   8     0.24  -0.00   0.44     0.00   0.12   0.00    -0.04   0.00  -0.02
     2   6     0.01  -0.00  -0.05     0.00   0.03  -0.00    -0.02   0.00   0.03
     3   6    -0.05   0.00  -0.18     0.05  -0.03  -0.06    -0.02   0.00   0.01
     4   6    -0.11   0.00  -0.07    -0.02  -0.03   0.03     0.03  -0.00  -0.06
     5   6    -0.11  -0.00  -0.07     0.02  -0.03  -0.03     0.03   0.00  -0.06
     6   6    -0.06  -0.01   0.07    -0.00   0.03  -0.18     0.02  -0.04  -0.04
     7   6     0.03  -0.00   0.16    -0.00   0.14   0.00     0.21   0.00   0.17
     8   6    -0.06   0.01   0.07     0.00   0.03   0.18     0.02   0.04  -0.04
     9   6    -0.05  -0.00  -0.18    -0.05  -0.03   0.06    -0.02  -0.00   0.01
    10   6     0.05   0.00  -0.15    -0.07  -0.12   0.03    -0.10   0.00   0.00
    11   6     0.05  -0.00  -0.15     0.07  -0.12  -0.03    -0.10  -0.00   0.00
    12   1    -0.05  -0.00  -0.19     0.07  -0.01  -0.12    -0.01   0.00   0.03
    13   1    -0.21  -0.00  -0.09    -0.14  -0.07   0.03     0.05  -0.03  -0.04
    14   1    -0.21   0.00  -0.09     0.14  -0.07  -0.03     0.05   0.03  -0.04
    15   1    -0.16  -0.03   0.14     0.04  -0.14  -0.26    -0.06  -0.27  -0.05
    16   1     0.00   0.01   0.05    -0.05   0.15  -0.34    -0.02   0.08  -0.20
    17   1     0.16  -0.00   0.12    -0.00   0.30   0.00     0.52   0.00   0.08
    18   1     0.02  -0.00   0.29    -0.00   0.13  -0.00     0.20   0.00   0.48
    19   1    -0.16   0.03   0.14    -0.04  -0.14   0.26    -0.06   0.27  -0.05
    20   1     0.00  -0.01   0.05     0.05   0.15   0.34    -0.02  -0.08  -0.20
    21   1    -0.05   0.00  -0.19    -0.07  -0.01   0.12    -0.01  -0.00   0.03
    22   1     0.10  -0.00  -0.22    -0.12  -0.08   0.07    -0.13  -0.01   0.04
    23   1     0.08   0.01  -0.09    -0.11  -0.21   0.03    -0.11   0.02  -0.04
    24   1     0.08  -0.01  -0.09     0.11  -0.21  -0.03    -0.11  -0.02  -0.04
    25   1     0.10   0.00  -0.22     0.12  -0.08  -0.07    -0.13   0.01   0.04
                      4                      5                      6
                      A                      A                      A
 Frequencies --    261.3772               268.3610               305.5535
 Red. masses --      1.7743                 2.3431                 3.0453
 Frc consts  --      0.0714                 0.0994                 0.1675
 IR Inten    --      0.0270                 0.3556                 1.0165
  Atom  AN      X      Y      Z        X      Y      Z        X      Y      Z
     1   8    -0.00  -0.02   0.00    -0.03   0.00   0.04     0.00   0.23  -0.00
     2   6    -0.00  -0.01  -0.00    -0.04   0.00   0.00     0.00   0.02  -0.00
     3   6     0.01  -0.01   0.02    -0.03  -0.00   0.03     0.03  -0.07   0.05
     4   6    -0.00  -0.02   0.02    -0.03  -0.00   0.03    -0.01  -0.14   0.04
     5   6     0.00  -0.02  -0.02    -0.03   0.00   0.03     0.01  -0.14  -0.04
     6   6     0.04   0.03   0.06    -0.09  -0.04  -0.12     0.12   0.03   0.06
     7   6    -0.00   0.02  -0.00    -0.00   0.00  -0.01    -0.00   0.06  -0.00
     8   6    -0.04   0.03  -0.06    -0.09   0.04  -0.12    -0.12   0.03  -0.06
     9   6    -0.01  -0.01  -0.02    -0.03   0.00   0.03    -0.03  -0.07  -0.05
    10   6    -0.16   0.00  -0.03     0.16   0.00   0.07     0.06  -0.01  -0.03
    11   6     0.16   0.00   0.03     0.16  -0.00   0.07    -0.06  -0.01   0.03
    12   1     0.02  -0.01   0.00    -0.02   0.00   0.01     0.07  -0.06   0.10
    13   1     0.03  -0.04   0.04     0.04   0.01   0.03    -0.01  -0.20   0.07
    14   1    -0.03  -0.04  -0.04     0.04  -0.01   0.03     0.01  -0.20  -0.07
    15   1     0.02   0.14   0.11    -0.05  -0.25  -0.22     0.08   0.25   0.15
    16   1     0.13  -0.02   0.12    -0.23   0.07  -0.27     0.35  -0.05   0.16
    17   1     0.00  -0.06  -0.00     0.20   0.00  -0.06    -0.00  -0.02   0.00
    18   1    -0.00   0.06   0.00    -0.01  -0.00   0.18    -0.00   0.17  -0.00
    19   1    -0.02   0.14  -0.11    -0.05   0.25  -0.22    -0.08   0.25  -0.15
    20   1    -0.13  -0.02  -0.12    -0.23  -0.07  -0.27    -0.35  -0.05  -0.16
    21   1    -0.02  -0.01  -0.00    -0.02  -0.00   0.01    -0.07  -0.06  -0.10
    22   1    -0.37   0.21   0.11     0.26   0.00  -0.06     0.17  -0.06  -0.15
    23   1    -0.33  -0.19  -0.23     0.22   0.00   0.20     0.15   0.08   0.08
    24   1     0.33  -0.19   0.23     0.22  -0.00   0.20    -0.15   0.08  -0.08
    25   1     0.37   0.21  -0.11     0.26  -0.00  -0.06    -0.17  -0.06   0.15
                      7                      8                      9
                      A                      A                      A
 Frequencies --    417.7162               484.3833               509.0858
 Red. masses --      2.8579                 3.6348                 3.5674
 Frc consts  --      0.2938                 0.5025                 0.5447
 IR Inten    --      0.6475                 0.6019                 6.9252
  Atom  AN      X      Y      Z        X      Y      Z        X      Y      Z
     1   8     0.16  -0.00  -0.08    -0.00  -0.10   0.00     0.00   0.19  -0.00
     2   6     0.16   0.00  -0.05    -0.00   0.04   0.00     0.00  -0.19  -0.00
     3   6     0.10  -0.00   0.00     0.16   0.02   0.12    -0.09  -0.14   0.10
     4   6     0.01   0.01   0.10     0.12   0.04   0.10     0.01   0.12   0.00
     5   6     0.01  -0.01   0.10    -0.12   0.04  -0.10    -0.01   0.12  -0.00
     6   6    -0.10  -0.06  -0.00    -0.12   0.09   0.01    -0.10   0.04   0.01
     7   6    -0.12  -0.00   0.08     0.00   0.04  -0.00    -0.00  -0.02   0.00
     8   6    -0.10   0.06  -0.00     0.12   0.09  -0.01     0.10   0.04  -0.01
     9   6     0.10   0.00   0.00    -0.16   0.02  -0.12     0.09  -0.14  -0.10
    10   6    -0.06  -0.00  -0.04    -0.01  -0.13  -0.07     0.00  -0.03  -0.10
    11   6    -0.06   0.00  -0.04     0.01  -0.13   0.07    -0.00  -0.03   0.10
    12   1     0.06  -0.02   0.02     0.22   0.07  -0.03    -0.37  -0.26   0.11
    13   1    -0.05   0.04   0.08     0.19  -0.03   0.14     0.08   0.13   0.01
    14   1    -0.05  -0.04   0.08    -0.19  -0.03  -0.14    -0.08   0.13  -0.01
    15   1    -0.01  -0.32  -0.14    -0.21   0.22   0.11    -0.08  -0.07  -0.04
    16   1    -0.30   0.08  -0.20     0.02   0.02   0.11    -0.23   0.07  -0.03
    17   1    -0.14   0.00   0.08    -0.00   0.08   0.00     0.00  -0.00   0.00
    18   1    -0.12  -0.00   0.04     0.00  -0.12  -0.00    -0.00  -0.13   0.00
    19   1    -0.01   0.32  -0.14     0.21   0.22  -0.11     0.08  -0.07   0.04
    20   1    -0.30  -0.08  -0.20    -0.02   0.02  -0.11     0.23   0.07   0.03
    21   1     0.06   0.02   0.02    -0.22   0.07   0.03     0.37  -0.26  -0.11
    22   1    -0.19   0.01   0.13     0.14  -0.12  -0.27    -0.06   0.04  -0.07
    23   1    -0.15  -0.01  -0.23     0.10  -0.09   0.14    -0.03   0.01  -0.23
    24   1    -0.15   0.01  -0.23    -0.10  -0.09  -0.14     0.03   0.01   0.23
    25   1    -0.19  -0.01   0.13    -0.14  -0.12   0.27     0.06   0.04   0.07
                     10                     11                     12
                      A                      A                      A
 Frequencies --    597.6930               635.3815               650.3383
 Red. masses --      2.3849                 3.3814                 5.5462
 Frc consts  --      0.5020                 0.8043                 1.3821
 IR Inten    --      0.9284                 0.6936                 2.2554
  Atom  AN      X      Y      Z        X      Y      Z        X      Y      Z
     1   8     0.14  -0.00  -0.06    -0.12  -0.00   0.08    -0.00  -0.00   0.00
     2   6     0.12   0.00  -0.04    -0.14  -0.00  -0.03    -0.00   0.19   0.00
     3   6    -0.02   0.02   0.03     0.08  -0.06  -0.03    -0.15   0.15   0.13
     4   6    -0.07  -0.02  -0.00     0.02  -0.05   0.19    -0.10   0.11   0.14
     5   6    -0.07   0.02  -0.00     0.02   0.05   0.19     0.10   0.11  -0.14
     6   6    -0.08   0.11  -0.03    -0.02   0.09  -0.01     0.15  -0.11  -0.02
     7   6     0.07   0.00  -0.09     0.09   0.00  -0.10    -0.00  -0.10  -0.00
     8   6    -0.08  -0.11  -0.03    -0.02  -0.09  -0.01    -0.15  -0.11   0.02
     9   6    -0.02  -0.02   0.03     0.08   0.06  -0.03     0.15   0.15  -0.13
    10   6    -0.02  -0.01   0.07     0.00   0.02  -0.12     0.03  -0.17  -0.11
    11   6    -0.02   0.01   0.07     0.00  -0.02  -0.12    -0.03  -0.17   0.11
    12   1    -0.11  -0.03   0.08     0.24   0.02  -0.11    -0.15   0.19  -0.11
    13   1    -0.02   0.01  -0.00     0.01   0.14   0.12     0.01  -0.02   0.22
    14   1    -0.02  -0.01  -0.00     0.01  -0.14   0.12    -0.01  -0.02  -0.22
    15   1    -0.10   0.36   0.05     0.11   0.12  -0.10     0.09  -0.18  -0.01
    16   1     0.01  -0.05   0.20    -0.18   0.03   0.08     0.03  -0.09  -0.04
    17   1     0.51  -0.00  -0.20     0.41   0.00  -0.18     0.00  -0.19  -0.00
    18   1     0.05   0.00   0.39     0.08  -0.00   0.25    -0.00   0.16   0.00
    19   1    -0.10  -0.36   0.05     0.11  -0.12  -0.10    -0.09  -0.18   0.01
    20   1     0.01   0.05   0.20    -0.18  -0.03   0.08    -0.03  -0.09   0.04
    21   1    -0.11   0.03   0.08     0.24  -0.02  -0.11     0.15   0.19   0.11
    22   1    -0.03   0.01   0.07    -0.11   0.00   0.04    -0.02  -0.18  -0.04
    23   1    -0.02   0.00   0.05    -0.07  -0.02  -0.25     0.02  -0.12  -0.20
    24   1    -0.02  -0.00   0.05    -0.07   0.02  -0.25    -0.02  -0.12   0.20
    25   1    -0.03  -0.01   0.07    -0.11  -0.00   0.04     0.02  -0.18   0.04
                     13                     14                     15
                      A                      A                      A
 Frequencies --    723.2860               761.9300               778.8635
 Red. masses --      3.5317                 1.9658                 2.5363
 Frc consts  --      1.0886                 0.6724                 0.9065
 IR Inten    --      0.9485                 0.3139                 4.2798
  Atom  AN      X      Y      Z        X      Y      Z        X      Y      Z
     1   8    -0.10  -0.00   0.00    -0.00   0.02  -0.00    -0.01   0.00  -0.05
     2   6     0.02  -0.00   0.23     0.00  -0.01   0.00     0.13  -0.00   0.25
     3   6     0.16  -0.02  -0.00    -0.09   0.03  -0.03    -0.05  -0.04   0.01
     4   6     0.01  -0.07  -0.16     0.01  -0.03   0.11     0.02   0.04   0.05
     5   6     0.01   0.07  -0.16    -0.01  -0.03  -0.11     0.02  -0.04   0.05
     6   6    -0.12   0.02   0.01    -0.08   0.02  -0.07    -0.01  -0.01   0.00
     7   6    -0.09   0.00   0.05    -0.00  -0.06   0.00    -0.02  -0.00  -0.02
     8   6    -0.12  -0.02   0.01     0.08   0.02   0.07    -0.01   0.01   0.00
     9   6     0.16   0.02  -0.00     0.09   0.03   0.03    -0.05   0.04   0.01
    10   6     0.04   0.04   0.00     0.02   0.01   0.08    -0.04   0.02  -0.13
    11   6     0.04  -0.04   0.00    -0.02   0.01  -0.08    -0.04  -0.02  -0.13
    12   1     0.42   0.09  -0.05    -0.21  -0.02   0.01    -0.13  -0.07   0.01
    13   1    -0.03  -0.17  -0.13    -0.06  -0.17   0.15    -0.00   0.11   0.02
    14   1    -0.03   0.17  -0.13     0.06  -0.17  -0.15    -0.00  -0.11   0.02
    15   1    -0.21   0.15   0.10    -0.17   0.37   0.10     0.05   0.04  -0.03
    16   1    -0.03  -0.05   0.11     0.15  -0.17   0.19    -0.02  -0.03   0.03
    17   1     0.07  -0.00   0.01    -0.00   0.13   0.00     0.12   0.00  -0.05
    18   1    -0.10   0.00   0.22    -0.00  -0.27   0.00    -0.02  -0.00   0.12
    19   1    -0.21  -0.15   0.10     0.17   0.37  -0.10     0.05  -0.04  -0.03
    20   1    -0.03   0.05   0.11    -0.15  -0.17  -0.19    -0.02   0.03   0.03
    21   1     0.42  -0.09  -0.05     0.21  -0.02  -0.01    -0.13   0.07   0.01
    22   1    -0.05   0.05   0.12    -0.05  -0.05   0.21     0.25  -0.26  -0.34
    23   1    -0.02  -0.01  -0.10    -0.03  -0.03   0.02     0.20   0.23   0.20
    24   1    -0.02   0.01  -0.10     0.03  -0.03  -0.02     0.20  -0.23   0.20
    25   1    -0.05  -0.05   0.12     0.05  -0.05  -0.21     0.25   0.26  -0.34
                     16                     17                     18
                      A                      A                      A
 Frequencies --    795.7176               821.7987               865.0821
 Red. masses --      3.5204                 2.2183                 1.9702
 Frc consts  --      1.3133                 0.8827                 0.8687
 IR Inten    --      7.2269                 0.2308                 2.9706
  Atom  AN      X      Y      Z        X      Y      Z        X      Y      Z
     1   8    -0.00  -0.01   0.00    -0.04   0.00  -0.00    -0.00  -0.00  -0.03
     2   6    -0.00   0.16   0.00     0.01  -0.00   0.08     0.07   0.00   0.14
     3   6    -0.13   0.04   0.05     0.01   0.07  -0.03    -0.04  -0.01  -0.02
     4   6     0.05  -0.16  -0.13    -0.03   0.18   0.03    -0.06  -0.01   0.01
     5   6    -0.05  -0.16   0.13    -0.03  -0.18   0.03    -0.06   0.01   0.01
     6   6    -0.10   0.06   0.05     0.01  -0.08  -0.03     0.02   0.12   0.00
     7   6    -0.00   0.09  -0.00    -0.05  -0.00  -0.01     0.09  -0.00   0.02
     8   6     0.10   0.06  -0.05     0.01   0.08  -0.03     0.02  -0.12   0.00
     9   6     0.13   0.04  -0.05     0.01  -0.07  -0.03    -0.04   0.01  -0.02
    10   6     0.08  -0.06  -0.05     0.05   0.02   0.01     0.06   0.04  -0.01
    11   6    -0.08  -0.06   0.05     0.05  -0.02   0.01     0.06  -0.04  -0.01
    12   1     0.10   0.13   0.09    -0.10   0.06  -0.19    -0.13  -0.03  -0.10
    13   1     0.14  -0.12  -0.13    -0.02   0.21   0.02    -0.03   0.06  -0.01
    14   1    -0.14  -0.12   0.13    -0.02  -0.21   0.02    -0.03  -0.06  -0.01
    15   1     0.01  -0.04  -0.06     0.06   0.13   0.00    -0.03  -0.13  -0.04
    16   1    -0.12   0.15  -0.07     0.23  -0.15   0.05    -0.08   0.25  -0.17
    17   1     0.00   0.10  -0.00     0.26  -0.00  -0.09    -0.29   0.00   0.12
    18   1    -0.00  -0.13   0.00    -0.06  -0.00   0.29     0.10  -0.00  -0.34
    19   1    -0.01  -0.04   0.06     0.06  -0.13   0.00    -0.03   0.13  -0.04
    20   1     0.12   0.15   0.07     0.23   0.15   0.05    -0.08  -0.25  -0.17
    21   1    -0.10   0.13  -0.09    -0.10  -0.06  -0.19    -0.13   0.03  -0.10
    22   1    -0.14  -0.05   0.23    -0.15   0.24   0.13    -0.12   0.29   0.07
    23   1    -0.05  -0.03  -0.40    -0.12  -0.16  -0.19    -0.12  -0.25  -0.12
    24   1     0.05  -0.03   0.40    -0.12   0.16  -0.19    -0.12   0.25  -0.12
    25   1     0.14  -0.05  -0.23    -0.15  -0.24   0.13    -0.12  -0.29   0.07
                     19                     20                     21
                      A                      A                      A
 Frequencies --    879.3044               882.7504               895.5048
 Red. masses --      2.4100                 3.4289                 1.7551
 Frc consts  --      1.0979                 1.5743                 0.8292
 IR Inten    --      0.0032                 3.7173                 2.5650
  Atom  AN      X      Y      Z        X      Y      Z        X      Y      Z
     1   8     0.02  -0.00  -0.01     0.03   0.00  -0.01    -0.00   0.01  -0.00
     2   6    -0.01   0.00  -0.02     0.03  -0.00  -0.02     0.00  -0.04   0.00
     3   6     0.04  -0.02  -0.09    -0.08  -0.25   0.01    -0.01   0.03   0.06
     4   6    -0.04   0.03   0.02     0.04  -0.06  -0.01     0.04  -0.02   0.06
     5   6    -0.04  -0.03   0.02     0.04   0.06  -0.01    -0.04  -0.02  -0.06
     6   6     0.02   0.01   0.00    -0.01  -0.13   0.01     0.01   0.01   0.08
     7   6     0.03  -0.00  -0.02     0.01   0.00  -0.05     0.00   0.05  -0.00
     8   6     0.02  -0.01   0.00    -0.01   0.13   0.01    -0.01   0.01  -0.08
     9   6     0.04   0.02  -0.09    -0.08   0.25   0.01     0.01   0.03  -0.06
    10   6    -0.06   0.18   0.12     0.03   0.12   0.00    -0.02   0.01   0.12
    11   6    -0.06  -0.18   0.12     0.03  -0.12   0.00     0.02   0.01  -0.12
    12   1     0.15   0.06  -0.34    -0.14  -0.28  -0.04    -0.16  -0.05   0.19
    13   1    -0.12   0.13  -0.04    -0.02  -0.08  -0.01     0.19  -0.09   0.12
    14   1    -0.12  -0.13  -0.04    -0.02   0.08  -0.01    -0.19  -0.09  -0.12
    15   1     0.03  -0.06  -0.02    -0.04   0.03   0.08    -0.08  -0.33   0.03
    16   1    -0.02   0.05  -0.05    -0.01  -0.25   0.18    -0.07   0.21  -0.19
    17   1    -0.05   0.00   0.00     0.12  -0.00  -0.08    -0.00  -0.25   0.00
    18   1     0.04  -0.00  -0.11     0.01   0.00   0.06     0.00   0.21  -0.00
    19   1     0.03   0.06  -0.02    -0.04  -0.03   0.08     0.08  -0.33  -0.03
    20   1    -0.02  -0.05  -0.05    -0.01   0.25   0.18     0.07   0.21   0.19
    21   1     0.15  -0.06  -0.34    -0.14   0.28  -0.04     0.16  -0.05  -0.19
    22   1     0.10  -0.02   0.03    -0.12   0.28   0.10    -0.00  -0.09   0.17
    23   1     0.07   0.45   0.16    -0.12  -0.22   0.02    -0.03  -0.10   0.21
    24   1     0.07  -0.45   0.16    -0.12   0.22   0.02     0.03  -0.10  -0.21
    25   1     0.10   0.02   0.03    -0.12  -0.28   0.10     0.00  -0.09  -0.17
                     22                     23                     24
                      A                      A                      A
 Frequencies --    910.4095               960.7328               989.4662
 Red. masses --      2.7797                 1.9993                 2.1469
 Frc consts  --      1.3574                 1.0873                 1.2384
 IR Inten    --      2.7152                 0.0072                 0.2892
  Atom  AN      X      Y      Z        X      Y      Z        X      Y      Z
     1   8    -0.01  -0.00  -0.01    -0.00   0.01   0.00     0.01  -0.00  -0.01
     2   6     0.03   0.00   0.07    -0.00  -0.04  -0.00     0.01   0.00  -0.00
     3   6     0.02   0.10  -0.02     0.01   0.03   0.06    -0.07   0.13   0.01
     4   6    -0.07  -0.03   0.00     0.08   0.04  -0.07     0.08  -0.08  -0.00
     5   6    -0.07   0.03   0.00    -0.08   0.04   0.07     0.08   0.08  -0.00
     6   6    -0.03  -0.13   0.08     0.02  -0.12  -0.05     0.01   0.01   0.03
     7   6     0.20   0.00  -0.18    -0.00   0.11   0.00    -0.08  -0.00  -0.00
     8   6    -0.03   0.13   0.08    -0.02  -0.12   0.05     0.01  -0.01   0.03
     9   6     0.02  -0.10  -0.02    -0.01   0.03  -0.06    -0.07  -0.13   0.01
    10   6     0.00  -0.04   0.00     0.01  -0.01   0.03     0.01   0.11  -0.02
    11   6     0.00   0.04   0.00    -0.01  -0.01  -0.03     0.01  -0.11  -0.02
    12   1     0.06   0.11  -0.01    -0.07  -0.02   0.19    -0.11   0.12  -0.03
    13   1    -0.19  -0.16   0.03     0.21   0.18  -0.10     0.16  -0.34   0.11
    14   1    -0.19   0.16   0.03    -0.21   0.18   0.10     0.16   0.34   0.11
    15   1    -0.04  -0.21   0.06     0.07   0.17   0.01     0.15  -0.00  -0.07
    16   1    -0.33  -0.21   0.19     0.13  -0.27   0.15    -0.15   0.01   0.04
    17   1    -0.00   0.00  -0.13     0.00   0.43   0.00     0.16  -0.00  -0.06
    18   1     0.21   0.00  -0.37    -0.00   0.32   0.00    -0.09  -0.00   0.25
    19   1    -0.04   0.21   0.06    -0.07   0.17  -0.01     0.15   0.00  -0.07
    20   1    -0.33   0.21   0.19    -0.13  -0.27  -0.15    -0.15  -0.01   0.04
    21   1     0.06  -0.11  -0.01     0.07  -0.02  -0.19    -0.11  -0.12  -0.03
    22   1    -0.00   0.00  -0.01    -0.06  -0.04   0.15     0.01   0.34  -0.16
    23   1     0.00  -0.01  -0.04    -0.03  -0.09   0.00    -0.03   0.12  -0.13
    24   1     0.00   0.01  -0.04     0.03  -0.09  -0.00    -0.03  -0.12  -0.13
    25   1    -0.00  -0.00  -0.01     0.06  -0.04  -0.15     0.01  -0.34  -0.16
                     25                     26                     27
                      A                      A                      A
 Frequencies --   1006.3174              1024.7608              1047.5141
 Red. masses --      2.1109                 2.2515                 1.8554
 Frc consts  --      1.2595                 1.3931                 1.1995
 IR Inten    --      1.3834                 0.8002                 1.2810
  Atom  AN      X      Y      Z        X      Y      Z        X      Y      Z
     1   8    -0.00  -0.00   0.00     0.01  -0.00   0.01    -0.00  -0.01   0.00
     2   6    -0.00   0.02  -0.00    -0.03   0.00  -0.06    -0.00   0.03  -0.00
     3   6    -0.04  -0.03  -0.12     0.03   0.02   0.14     0.06  -0.07   0.00
     4   6     0.07  -0.01   0.07    -0.04   0.05  -0.01     0.05   0.05   0.05
     5   6    -0.07  -0.01  -0.07    -0.04  -0.05  -0.01    -0.05   0.05  -0.05
     6   6    -0.04  -0.08   0.05    -0.05  -0.01  -0.05     0.04   0.01  -0.03
     7   6    -0.00   0.14   0.00     0.09  -0.00   0.04     0.00  -0.06  -0.00
     8   6     0.04  -0.08  -0.05    -0.05   0.01  -0.05    -0.04   0.01   0.03
     9   6     0.04  -0.03   0.12     0.03  -0.02   0.14    -0.06  -0.07  -0.00
    10   6     0.01   0.02  -0.06     0.02   0.11  -0.09     0.13   0.01   0.04
    11   6    -0.01   0.02   0.06     0.02  -0.11  -0.09    -0.13   0.01  -0.04
    12   1    -0.10  -0.00  -0.40    -0.03  -0.02   0.22     0.23  -0.01   0.05
    13   1     0.11  -0.02   0.08     0.16   0.01   0.05    -0.09   0.13  -0.01
    14   1    -0.11  -0.02  -0.08     0.16  -0.01   0.05     0.09   0.13   0.01
    15   1    -0.23  -0.14   0.16    -0.26   0.08   0.13    -0.09  -0.03   0.05
    16   1     0.06  -0.03  -0.02     0.17  -0.07   0.02     0.14   0.06  -0.10
    17   1    -0.00   0.02   0.00    -0.24   0.00   0.12    -0.00  -0.25   0.00
    18   1    -0.00   0.46   0.00     0.11  -0.00  -0.32     0.00   0.07  -0.00
    19   1     0.23  -0.14  -0.16    -0.26  -0.08   0.13     0.09  -0.03  -0.05
    20   1    -0.06  -0.03   0.02     0.17   0.07   0.02    -0.14   0.06   0.10
    21   1     0.10  -0.00   0.40    -0.03   0.02   0.22    -0.23  -0.01  -0.05
    22   1     0.01   0.08  -0.10     0.02   0.03  -0.03    -0.14   0.10   0.33
    23   1     0.03   0.14  -0.14     0.04   0.29  -0.24    -0.07  -0.01  -0.39
    24   1    -0.03   0.14   0.14     0.04  -0.29  -0.24     0.07  -0.01   0.39
    25   1    -0.01   0.08   0.10     0.02  -0.03  -0.03     0.14   0.10  -0.33
                     28                     29                     30
                      A                      A                      A
 Frequencies --   1067.2547              1090.0621              1113.2309
 Red. masses --      2.4268                 1.7170                 1.6636
 Frc consts  --      1.6286                 1.2020                 1.2147
 IR Inten    --      0.0659                 1.3712                 0.7221
  Atom  AN      X      Y      Z        X      Y      Z        X      Y      Z
     1   8    -0.02   0.00   0.01    -0.00  -0.01   0.00     0.03   0.00  -0.02
     2   6    -0.02  -0.00  -0.03    -0.00   0.04  -0.00     0.02  -0.00   0.02
     3   6    -0.02   0.01  -0.04     0.02  -0.05   0.04    -0.05   0.04  -0.03
     4   6     0.17   0.09  -0.02    -0.12   0.01   0.04     0.01  -0.07   0.07
     5   6     0.17  -0.09  -0.02     0.12   0.01  -0.04     0.01   0.07   0.07
     6   6    -0.13   0.04   0.05    -0.06  -0.03   0.05    -0.02  -0.04  -0.09
     7   6     0.07  -0.00  -0.00     0.00   0.08   0.00     0.03  -0.00   0.08
     8   6    -0.13  -0.04   0.05     0.06  -0.03  -0.05    -0.02   0.04  -0.09
     9   6    -0.02  -0.01  -0.04    -0.02  -0.05  -0.04    -0.05  -0.04  -0.03
    10   6    -0.01  -0.01   0.03     0.02   0.00   0.04    -0.02  -0.01   0.00
    11   6    -0.01   0.01   0.03    -0.02   0.00  -0.04    -0.02   0.01   0.00
    12   1    -0.15  -0.03  -0.12     0.24   0.02   0.13     0.34   0.21  -0.15
    13   1     0.31   0.28  -0.08    -0.24  -0.05   0.04     0.11   0.10   0.03
    14   1     0.31  -0.28  -0.08     0.24  -0.05  -0.04     0.11  -0.10   0.03
    15   1    -0.22  -0.01   0.09    -0.06  -0.02   0.05    -0.16   0.16   0.08
    16   1    -0.30  -0.03   0.16    -0.40  -0.16   0.24     0.20  -0.15   0.07
    17   1    -0.14  -0.00   0.05    -0.00   0.21   0.00    -0.17   0.00   0.13
    18   1     0.07  -0.00  -0.17     0.00   0.32  -0.00     0.04  -0.00  -0.15
    19   1    -0.22   0.01   0.09     0.06  -0.02  -0.05    -0.16  -0.16   0.08
    20   1    -0.30   0.03   0.16     0.40  -0.16  -0.24     0.20   0.15   0.07
    21   1    -0.15   0.03  -0.12    -0.24   0.02  -0.13     0.34  -0.21  -0.15
    22   1     0.01   0.05  -0.04    -0.02   0.02   0.07     0.02   0.11  -0.13
    23   1    -0.01  -0.06   0.07    -0.02  -0.00  -0.04    -0.03  -0.20   0.18
    24   1    -0.01   0.06   0.07     0.02  -0.00   0.04    -0.03   0.20   0.18
    25   1     0.01  -0.05  -0.04     0.02   0.02  -0.07     0.02  -0.11  -0.13
                     31                     32                     33
                      A                      A                      A
 Frequencies --   1136.5701              1139.3617              1174.2033
 Red. masses --      1.1435                 2.8101                 1.2983
 Frc consts  --      0.8703                 2.1493                 1.0546
 IR Inten    --      0.2416                26.3842                 7.6357
  Atom  AN      X      Y      Z        X      Y      Z        X      Y      Z
     1   8     0.01   0.00  -0.00     0.00  -0.05  -0.00    -0.00  -0.02   0.00
     2   6    -0.01  -0.00  -0.03    -0.00   0.27  -0.00     0.00   0.11   0.00
     3   6     0.00  -0.00   0.03    -0.04  -0.15   0.02    -0.00  -0.02   0.01
     4   6    -0.01   0.02  -0.03     0.06   0.02   0.03    -0.02   0.00  -0.03
     5   6    -0.01  -0.02  -0.03    -0.06   0.02  -0.03     0.02   0.00   0.03
     6   6     0.01   0.01   0.03     0.04   0.01  -0.00    -0.04  -0.01  -0.02
     7   6    -0.02   0.00  -0.03    -0.00  -0.03  -0.00    -0.00   0.01   0.00
     8   6     0.01  -0.01   0.03    -0.04   0.01   0.00     0.04  -0.01   0.02
     9   6     0.00   0.00   0.03     0.04  -0.15  -0.02     0.00  -0.02  -0.01
    10   6    -0.02   0.02  -0.01    -0.06   0.01   0.08    -0.04  -0.01  -0.01
    11   6    -0.02  -0.02  -0.01     0.06   0.01  -0.08     0.04  -0.01   0.01
    12   1     0.27   0.06   0.31    -0.16  -0.19  -0.08    -0.17  -0.14   0.28
    13   1    -0.14   0.30  -0.15     0.26   0.11   0.03    -0.26   0.15  -0.13
    14   1    -0.14  -0.30  -0.15    -0.26   0.11  -0.03     0.26   0.15   0.13
    15   1     0.06  -0.08  -0.02     0.29   0.07  -0.16    -0.28  -0.01   0.15
    16   1    -0.08   0.05  -0.02    -0.15  -0.02   0.04     0.27   0.02  -0.09
    17   1     0.07  -0.00  -0.06     0.00   0.26  -0.00    -0.00  -0.27   0.00
    18   1    -0.02   0.00   0.08    -0.00  -0.17   0.00    -0.00   0.17  -0.00
    19   1     0.06   0.08  -0.02    -0.29   0.07   0.16     0.28  -0.01  -0.15
    20   1    -0.08  -0.05  -0.02     0.15  -0.02  -0.04    -0.27   0.02   0.09
    21   1     0.27  -0.06   0.31     0.16  -0.19   0.08     0.17  -0.14  -0.28
    22   1     0.04   0.27  -0.24     0.07   0.04  -0.11     0.04  -0.05  -0.09
    23   1    -0.02  -0.11   0.13     0.02   0.24   0.02     0.01   0.03   0.06
    24   1    -0.02   0.11   0.13    -0.02   0.24  -0.02    -0.01   0.03  -0.06
    25   1     0.04  -0.27  -0.24    -0.07   0.04   0.11    -0.04  -0.05   0.09
                     34                     35                     36
                      A                      A                      A
 Frequencies --   1181.2490              1198.9136              1210.3344
 Red. masses --      1.4719                 1.4191                 1.5583
 Frc consts  --      1.2101                 1.2018                 1.3449
 IR Inten    --      1.1339                 0.0007                 0.7162
  Atom  AN      X      Y      Z        X      Y      Z        X      Y      Z
     1   8    -0.03   0.00   0.00     0.00   0.02  -0.00    -0.00   0.01   0.00
     2   6     0.01  -0.00   0.04    -0.00  -0.05  -0.00     0.00  -0.02   0.00
     3   6     0.01   0.01  -0.08    -0.09  -0.04   0.04    -0.05  -0.01   0.01
     4   6     0.01  -0.07   0.02    -0.02   0.02   0.01     0.07   0.00  -0.04
     5   6     0.01   0.07   0.02     0.02   0.02  -0.01    -0.07   0.00   0.04
     6   6     0.02  -0.02  -0.04    -0.02  -0.03   0.00     0.03   0.05  -0.07
     7   6    -0.01   0.00   0.05    -0.00   0.03   0.00     0.00  -0.10  -0.00
     8   6     0.02   0.02  -0.04     0.02  -0.03  -0.00    -0.03   0.05   0.07
     9   6     0.01  -0.01  -0.08     0.09  -0.04  -0.04     0.05  -0.01  -0.01
    10   6     0.01  -0.03   0.05    -0.05   0.01   0.03    -0.04   0.00   0.00
    11   6     0.01   0.03   0.05     0.05   0.01  -0.03     0.04   0.00  -0.00
    12   1    -0.23  -0.16   0.34     0.48   0.21  -0.10     0.16   0.08  -0.03
    13   1    -0.06   0.27  -0.12     0.07   0.18  -0.03     0.02  -0.15   0.01
    14   1    -0.06  -0.27  -0.12    -0.07   0.18   0.03    -0.02  -0.15  -0.01
    15   1    -0.01   0.09   0.01    -0.08  -0.01   0.05    -0.10   0.06   0.02
    16   1    -0.04  -0.10   0.08     0.24   0.05  -0.12    -0.22  -0.09   0.14
    17   1    -0.06   0.00   0.06    -0.00   0.01   0.00     0.00  -0.32  -0.00
    18   1    -0.00  -0.00  -0.03    -0.00  -0.22   0.00     0.00   0.70  -0.00
    19   1    -0.01  -0.09   0.01     0.08  -0.01  -0.05     0.10   0.06  -0.02
    20   1    -0.04   0.10   0.08    -0.24   0.05   0.12     0.22  -0.09  -0.14
    21   1    -0.23   0.16   0.34    -0.48   0.21   0.10    -0.16   0.08   0.03
    22   1    -0.00   0.15  -0.04     0.04  -0.13  -0.01     0.03  -0.12  -0.01
    23   1     0.03   0.28  -0.24     0.02   0.15   0.07     0.02   0.11   0.04
    24   1     0.03  -0.28  -0.24    -0.02   0.15  -0.07    -0.02   0.11  -0.04
    25   1    -0.00  -0.15  -0.04    -0.04  -0.13   0.01    -0.03  -0.12   0.01
                     37                     38                     39
                      A                      A                      A
 Frequencies --   1238.8396              1266.4980              1275.5318
 Red. masses --      1.3671                 1.2439                 1.4534
 Frc consts  --      1.2362                 1.1755                 1.3932
 IR Inten    --      0.5443                 1.9440                 1.7850
  Atom  AN      X      Y      Z        X      Y      Z        X      Y      Z
     1   8    -0.03   0.00   0.01    -0.00  -0.00   0.00     0.01   0.00  -0.01
     2   6    -0.01   0.00  -0.01    -0.00   0.03  -0.00     0.01   0.00   0.02
     3   6     0.07  -0.01  -0.04    -0.03  -0.03   0.05    -0.07  -0.02  -0.03
     4   6     0.02   0.04   0.03    -0.02   0.00  -0.04     0.04   0.00   0.02
     5   6     0.02  -0.04   0.03     0.02   0.00   0.04     0.04  -0.00   0.02
     6   6    -0.05   0.01  -0.01    -0.02  -0.00  -0.02    -0.04  -0.01   0.05
     7   6     0.04   0.00  -0.00     0.00  -0.00   0.00    -0.00   0.00  -0.09
     8   6    -0.05  -0.01  -0.01     0.02  -0.00   0.02    -0.04   0.01   0.05
     9   6     0.07   0.01  -0.04     0.03  -0.03  -0.05    -0.07   0.02  -0.03
    10   6    -0.04  -0.01   0.02     0.05   0.01   0.04     0.02  -0.03   0.02
    11   6    -0.04   0.01   0.02    -0.05   0.01  -0.04     0.02   0.03   0.02
    12   1    -0.14  -0.13   0.14     0.02   0.04  -0.23     0.23   0.08   0.10
    13   1    -0.19  -0.36   0.14     0.06  -0.04  -0.00     0.02  -0.03   0.03
    14   1    -0.19   0.36   0.14    -0.06  -0.04   0.00     0.02   0.03   0.03
    15   1    -0.02   0.05  -0.02    -0.06   0.02   0.02    -0.20  -0.13   0.13
    16   1     0.21   0.06  -0.09     0.08  -0.01  -0.01     0.35   0.19  -0.24
    17   1    -0.04   0.00   0.01    -0.00  -0.13   0.00     0.12  -0.00  -0.13
    18   1     0.04  -0.00  -0.08     0.00   0.10  -0.00    -0.01  -0.00   0.02
    19   1    -0.02  -0.05  -0.02     0.06   0.02  -0.02    -0.20   0.13   0.13
    20   1     0.21  -0.06  -0.09    -0.08  -0.01   0.01     0.35  -0.19  -0.24
    21   1    -0.14   0.13   0.14    -0.02   0.04   0.23     0.23  -0.08   0.10
    22   1     0.05   0.26  -0.26     0.02   0.44  -0.20    -0.02   0.02   0.05
    23   1    -0.01  -0.08   0.17    -0.06  -0.37   0.17     0.02   0.21  -0.23
    24   1    -0.01   0.08   0.17     0.06  -0.37  -0.17     0.02  -0.21  -0.23
    25   1     0.05  -0.26  -0.26    -0.02   0.44   0.20    -0.02  -0.02   0.05
                     40                     41                     42
                      A                      A                      A
 Frequencies --   1295.0097              1303.5307              1322.1187
 Red. masses --      1.5282                 1.4099                 1.3104
 Frc consts  --      1.5100                 1.4115                 1.3496
 IR Inten    --      0.1115                 0.1003                 0.0038
  Atom  AN      X      Y      Z        X      Y      Z        X      Y      Z
     1   8     0.00   0.00  -0.00     0.02  -0.00  -0.01     0.00   0.00   0.00
     2   6     0.00  -0.01   0.00     0.00   0.00   0.01    -0.00  -0.01  -0.00
     3   6     0.06   0.01   0.08    -0.07  -0.04  -0.01     0.02   0.01   0.06
     4   6    -0.04   0.03  -0.07     0.02   0.07  -0.01    -0.02  -0.08   0.03
     5   6     0.04   0.03   0.07     0.02  -0.07  -0.01     0.02  -0.08  -0.03
     6   6    -0.03  -0.02   0.00    -0.03   0.01  -0.02     0.01   0.02  -0.03
     7   6     0.00   0.02  -0.00     0.05  -0.00   0.07     0.00   0.03   0.00
     8   6     0.03  -0.02  -0.00    -0.03  -0.01  -0.02    -0.01   0.02   0.03
     9   6    -0.06   0.01  -0.08    -0.07   0.04  -0.01    -0.02   0.01  -0.06
    10   6    -0.02  -0.01   0.06     0.02  -0.03   0.01     0.00   0.03  -0.00
    11   6     0.02  -0.01  -0.06     0.02   0.03   0.01    -0.00   0.03   0.00
    12   1    -0.19  -0.01  -0.37     0.29   0.08   0.09    -0.16   0.00  -0.34
    13   1    -0.05  -0.33   0.06    -0.17  -0.19   0.05     0.01   0.45  -0.16
    14   1     0.05  -0.33  -0.06    -0.17   0.19   0.05    -0.01   0.45   0.16
    15   1    -0.03   0.03   0.02     0.34   0.20  -0.22    -0.06   0.01   0.02
    16   1     0.15   0.01  -0.05    -0.14  -0.07   0.11    -0.15  -0.06   0.10
    17   1     0.00  -0.08  -0.00    -0.12   0.00   0.12    -0.00  -0.24   0.00
    18   1     0.00   0.01  -0.00     0.06   0.00  -0.11     0.00  -0.04  -0.00
    19   1     0.03   0.03  -0.02     0.34  -0.20  -0.22     0.06   0.01  -0.02
    20   1    -0.15   0.01   0.05    -0.14   0.07   0.11     0.15  -0.06  -0.10
    21   1     0.19  -0.01   0.37     0.29  -0.08   0.09     0.16   0.00   0.34
    22   1    -0.00  -0.06   0.07    -0.02   0.02   0.03    -0.01  -0.16   0.13
    23   1     0.02   0.32  -0.20     0.02   0.15  -0.17    -0.01  -0.04   0.04
    24   1    -0.02   0.32   0.20     0.02  -0.15  -0.17     0.01  -0.04  -0.04
    25   1     0.00  -0.06  -0.07    -0.02  -0.02   0.03     0.01  -0.16  -0.13
                     43                     44                     45
                      A                      A                      A
 Frequencies --   1334.5263              1345.9456              1350.7804
 Red. masses --      1.3707                 1.4718                 1.3323
 Frc consts  --      1.4383                 1.5709                 1.4323
 IR Inten    --      0.2782                 0.2747                 0.0569
  Atom  AN      X      Y      Z        X      Y      Z        X      Y      Z
     1   8     0.00  -0.01  -0.00     0.01   0.00  -0.00    -0.00   0.01   0.00
     2   6     0.00   0.03   0.00    -0.00  -0.00   0.00     0.00  -0.03   0.00
     3   6    -0.00  -0.03   0.03     0.02  -0.06   0.03     0.01   0.03  -0.02
     4   6     0.03   0.02   0.00    -0.05   0.03  -0.00    -0.04  -0.02   0.04
     5   6    -0.03   0.02  -0.00    -0.05  -0.03  -0.01     0.04  -0.02  -0.04
     6   6    -0.04  -0.01   0.04     0.06   0.02  -0.02    -0.09  -0.01   0.02
     7   6    -0.00  -0.06  -0.00    -0.03  -0.00  -0.00     0.00  -0.03  -0.00
     8   6     0.04  -0.01  -0.04     0.06  -0.02  -0.02     0.09  -0.01  -0.02
     9   6     0.00  -0.03  -0.03     0.02   0.06   0.03    -0.01   0.03   0.02
    10   6     0.01   0.06  -0.06    -0.02  -0.09   0.03    -0.00  -0.03   0.02
    11   6    -0.01   0.06   0.06    -0.02   0.09   0.03     0.00  -0.03  -0.02
    12   1    -0.01  -0.00  -0.18     0.06   0.01  -0.27     0.00   0.01   0.08
    13   1    -0.26  -0.09  -0.00     0.21  -0.09   0.08     0.13   0.19  -0.01
    14   1     0.26  -0.09   0.00     0.21   0.09   0.08    -0.13   0.19   0.01
    15   1     0.20   0.04  -0.11    -0.16  -0.09   0.10     0.36   0.22  -0.23
    16   1     0.16   0.09  -0.10    -0.18  -0.05   0.09     0.13   0.06  -0.09
    17   1     0.00   0.25  -0.00     0.03  -0.00  -0.02    -0.00  -0.29   0.00
    18   1    -0.00   0.27   0.00    -0.04   0.00   0.06     0.00   0.42  -0.00
    19   1    -0.20   0.04   0.11    -0.16   0.09   0.10    -0.36   0.22   0.23
    20   1    -0.16   0.09   0.10    -0.18   0.05   0.09    -0.13   0.06   0.09
    21   1     0.01  -0.00   0.18     0.06  -0.01  -0.27    -0.00   0.01  -0.08
    22   1    -0.03  -0.26   0.20     0.04   0.31  -0.30     0.02   0.10  -0.08
    23   1    -0.02  -0.24   0.19     0.04   0.20  -0.16     0.01   0.11  -0.10
    24   1     0.02  -0.24  -0.19     0.04  -0.20  -0.16    -0.01   0.11   0.10
    25   1     0.03  -0.26  -0.20     0.03  -0.31  -0.30    -0.02   0.10   0.08
                     46                     47                     48
                      A                      A                      A
 Frequencies --   1357.7505              1372.3249              1380.0143
 Red. masses --      1.3999                 1.3444                 1.3679
 Frc consts  --      1.5205                 1.4918                 1.5348
 IR Inten    --      1.4418                 1.6787                 5.2554
  Atom  AN      X      Y      Z        X      Y      Z        X      Y      Z
     1   8    -0.00   0.01   0.00    -0.00  -0.00  -0.00     0.00   0.00   0.00
     2   6     0.00  -0.04   0.00     0.00   0.00   0.01    -0.00  -0.00   0.00
     3   6    -0.01   0.04   0.02    -0.00  -0.01  -0.09     0.03  -0.01   0.00
     4   6     0.02  -0.04   0.02    -0.05   0.05   0.01    -0.05  -0.04  -0.02
     5   6    -0.02  -0.04  -0.02    -0.05  -0.05   0.01    -0.05   0.04  -0.02
     6   6     0.01   0.03   0.03     0.03   0.01  -0.00    -0.07  -0.04   0.06
     7   6    -0.00  -0.12  -0.00    -0.02  -0.00   0.00     0.04  -0.00  -0.00
     8   6    -0.01   0.03  -0.03     0.03  -0.01  -0.00    -0.07   0.04   0.06
     9   6     0.01   0.03  -0.02    -0.00   0.01  -0.09     0.03   0.01   0.00
    10   6    -0.01  -0.04   0.04    -0.00   0.03   0.00    -0.01  -0.02   0.00
    11   6     0.01  -0.04  -0.04    -0.00  -0.03   0.00    -0.01   0.02   0.00
    12   1    -0.05   0.04  -0.06     0.15  -0.03   0.38    -0.05  -0.03  -0.09
    13   1    -0.19   0.20  -0.11     0.44  -0.15   0.17     0.42   0.14  -0.01
    14   1     0.19   0.20   0.11     0.44   0.15   0.17     0.42  -0.14  -0.01
    15   1    -0.12  -0.11   0.07    -0.06  -0.09   0.03     0.38   0.09  -0.21
    16   1     0.03   0.10  -0.06    -0.11  -0.06   0.09     0.20   0.07  -0.11
    17   1     0.00   0.68   0.00     0.03   0.00  -0.01    -0.01   0.00   0.01
    18   1    -0.00   0.24  -0.00    -0.02  -0.00   0.02     0.05   0.00  -0.06
    19   1     0.12  -0.11  -0.07    -0.06   0.09   0.03     0.38  -0.09  -0.21
    20   1    -0.03   0.10   0.06    -0.11   0.06   0.09     0.20  -0.07  -0.11
    21   1     0.05   0.04   0.06     0.15   0.03   0.38    -0.05   0.03  -0.09
    22   1     0.00   0.19  -0.12    -0.03  -0.07   0.11     0.00   0.10  -0.08
    23   1     0.02   0.14  -0.07    -0.00  -0.07   0.11     0.02   0.03   0.01
    24   1    -0.02   0.14   0.07    -0.00   0.07   0.11     0.02  -0.03   0.01
    25   1    -0.00   0.19   0.12    -0.03   0.07   0.11     0.00  -0.10  -0.08
                     49                     50                     51
                      A                      A                      A
 Frequencies --   1385.2062              1514.4969              1521.6507
 Red. masses --      1.4516                 1.0864                 1.0788
 Frc consts  --      1.6411                 1.4681                 1.4717
 IR Inten    --      0.0631                 0.7317                 1.3804
  Atom  AN      X      Y      Z        X      Y      Z        X      Y      Z
     1   8    -0.00   0.01  -0.00     0.00   0.00  -0.00     0.00  -0.00  -0.00
     2   6     0.00  -0.03   0.00     0.00  -0.00  -0.00    -0.00   0.00   0.00
     3   6    -0.03   0.02   0.02    -0.00   0.00  -0.00     0.00  -0.00   0.00
     4   6     0.11   0.00   0.02     0.00  -0.00  -0.00    -0.00  -0.00  -0.00
     5   6    -0.11   0.00  -0.02    -0.00  -0.00   0.00    -0.00   0.00  -0.00
     6   6     0.01  -0.02   0.02     0.02  -0.04   0.01    -0.01   0.03  -0.01
     7   6    -0.00   0.08   0.00     0.00  -0.00  -0.00     0.03   0.00  -0.05
     8   6    -0.01  -0.02  -0.02    -0.02  -0.04  -0.01    -0.01  -0.03  -0.01
     9   6     0.03   0.02  -0.02     0.00   0.00   0.00     0.00   0.00   0.00
    10   6    -0.01  -0.03   0.03    -0.00   0.02   0.02    -0.00   0.01   0.01
    11   6     0.01  -0.03  -0.03     0.00   0.02  -0.02    -0.00  -0.01   0.01
    12   1    -0.00   0.05  -0.03    -0.01   0.00   0.00    -0.01  -0.00  -0.00
    13   1    -0.53  -0.02  -0.08    -0.02  -0.01  -0.01    -0.01   0.01  -0.01
    14   1     0.53  -0.02   0.08     0.02  -0.01   0.01    -0.01  -0.01  -0.01
    15   1     0.21   0.03  -0.10    -0.06   0.37   0.17     0.04  -0.31  -0.14
    16   1    -0.10  -0.05   0.06    -0.24   0.19  -0.28     0.20  -0.16   0.23
    17   1     0.00  -0.32  -0.00    -0.00   0.03   0.00    -0.49  -0.00   0.10
    18   1    -0.00  -0.22   0.00    -0.00  -0.01   0.00    -0.01   0.00   0.50
    19   1    -0.21   0.03   0.10     0.06   0.37  -0.17     0.04   0.31  -0.14
    20   1     0.10  -0.05  -0.06     0.24   0.19   0.28     0.20   0.16   0.23
    21   1     0.00   0.05   0.03     0.01   0.00  -0.00    -0.01   0.00  -0.00
    22   1     0.02   0.14  -0.11     0.19  -0.14  -0.15     0.06  -0.04  -0.05
    23   1     0.01   0.07  -0.01    -0.15  -0.15  -0.18    -0.04  -0.02  -0.07
    24   1    -0.01   0.07   0.01     0.15  -0.15   0.18    -0.04   0.02  -0.07
    25   1    -0.02   0.14   0.11    -0.19  -0.14   0.15     0.06   0.04  -0.05
                     52                     53                     54
                      A                      A                      A
 Frequencies --   1527.8941              1532.4032              1552.7467
 Red. masses --      1.0787                 1.1033                 1.0919
 Frc consts  --      1.4836                 1.5265                 1.5510
 IR Inten    --      4.7425                 8.1146                 5.2903
[...]
 018684,0.,0.05610913,0.00004447,0.,-0.00012275,-0.00018447,0.,0.000339
 10,0.00030805,0.00000146,-0.00003836,0.00006677,-0.00017990,-0.0002152
 5,0.00006677,0.00017990,-0.00021525,0.00022660,0.00074676,-0.00701124,
 0.04373212,0.,-0.30200304,0.00022660,-0.00074677,-0.00701125,0.0003080
 5,-0.00000146,-0.00003836,-0.00052950,-0.00025678,-0.00085801,-0.00052
 950,0.00025678,-0.00085801,-0.00000751,0.00000403,0.00008336,0.0001930
 6,-0.00003841,0.00013686,0.00019306,0.00003841,0.00013686,0.00144652,0
 .00103477,0.00110879,-0.00017027,0.00025387,0.00105712,-0.04639236,0.0
 0000001,0.32862109,-0.00030099,0.,0.00005459,0.00028612,0.,-0.00015719
 ,-0.00018910,-0.00010538,0.00017757,-0.00127218,0.00120822,0.00107876,
 -0.00127218,-0.00120821,0.00107876,-0.01232879,0.00117932,-0.00694689,
 -0.25230301,0.,-0.10887972,-0.01232881,-0.00117930,-0.00694690,-0.0001
 8910,0.00010538,0.00017757,0.00004464,0.00004258,0.00007548,0.00004464
 ,-0.00004258,0.00007548,-0.00002536,0.00003897,-0.00008037,-0.00078534
 ,-0.00000401,-0.00007597,-0.00078534,0.00000401,-0.00007597,0.00088778
 ,0.00043207,0.00047422,-0.00044411,-0.00058778,0.00010059,0.00618757,0
 .,0.00200179,0.27422115,0.,0.00034334,0.,0.,-0.00102459,0.,0.00040235,
 0.00066820,0.00000014,0.00153759,-0.00440858,-0.00132494,-0.00153759,-
 0.00440858,0.00132494,-0.02396202,0.00123337,-0.01234470,0.,-0.0474453
 3,0.,0.02396205,0.00123335,0.01234471,-0.00040235,0.00066820,-0.000000
 14,0.00018598,-0.00024965,-0.00007536,-0.00018598,-0.00024965,0.000075
 36,-0.00002443,0.00003853,-0.00003516,0.00112295,0.00042793,0.00003854
 ,-0.00112295,0.00042793,-0.00003854,0.00080619,0.00159428,-0.00010823,
 -0.00010313,-0.00072621,-0.00020556,0.,0.00017095,0.,-0.00000003,0.050
 55760,0.00001382,0.,-0.00011881,0.00002800,0.,0.00026699,0.00030109,0.
 00005742,-0.00007126,0.00216186,-0.00078437,0.00004318,0.00216186,0.00
 078438,0.00004318,0.00916390,0.00014272,0.00357599,-0.11155415,0.00000
 001,-0.10921650,0.00916390,-0.00014274,0.00357599,0.00030109,-0.000057
 42,-0.00007126,0.00027979,-0.00007271,-0.00037242,0.00027979,0.0000727
 1,-0.00037242,-0.00003261,0.00000494,0.00006553,0.00035444,0.00002399,
 -0.00004671,0.00035444,-0.00002399,-0.00004671,0.00043453,-0.00044359,
 0.00119806,-0.00019783,0.00000417,0.00004065,-0.02975639,0.,-0.0154559
 4,0.11750522,0.,0.11536650,-0.00081370,-0.00077415,0.00052646,-0.00014
 443,0.00211872,-0.00160064,-0.00446710,-0.00387076,-0.00021207,-0.0095
 7645,-0.00570155,-0.03061440,-0.00079324,-0.00003932,0.00000895,-0.000
 11874,-0.00027189,0.00008040,0.00079812,0.00528932,0.02065376,-0.05205
 031,-0.01156767,-0.04267890,0.00032815,-0.00026851,0.00028268,-0.00012
 524,0.00015137,0.00015201,-0.00042060,0.00003681,0.00096982,-0.0000735
 7,0.00008606,-0.00008600,0.00094600,0.00058312,-0.00070422,-0.00006476
 ,-0.00036850,-0.00006893,0.00034414,0.00003321,-0.00013879,-0.00000794
 ,-0.00000985,-0.00009152,-0.00137525,0.00429235,0.00144653,0.00088778,
 -0.00080619,0.00043454,0.06465157,-0.00000560,-0.00007656,0.00002639,-
 0.00016823,0.00018850,-0.00009585,-0.00048204,-0.00011806,0.00085304,-
 0.00169612,-0.00125795,-0.00814965,-0.00016000,-0.00028156,0.00056818,
 0.00006374,0.00072541,-0.00014900,-0.00251465,-0.00568447,-0.02670855,
 -0.01149936,-0.06475805,-0.05504656,0.00000155,0.00009935,0.00005186,0
 .00025338,-0.00005059,-0.00000236,0.00002540,0.00001475,0.00021204,-0.
 00016356,0.00001994,-0.00011268,0.00029603,0.00092424,0.00034307,-0.00
 019919,-0.00017515,-0.00006650,-0.00003321,-0.00053904,0.00037135,0.00
 009550,-0.00003314,0.00037145,0.00234816,-0.00400524,-0.00103477,-0.00
 043207,0.00159428,0.00044359,0.00911315,0.06615068,-0.00034287,-0.0001
 8791,-0.00001445,0.00014343,0.00042476,-0.00015421,-0.00029119,-0.0007
 3505,0.00082546,0.00123859,0.00031886,-0.00196221,-0.00019435,-0.00008
 408,-0.00014136,-0.00017792,0.00014020,-0.00004055,0.00015269,-0.00137
 868,-0.00780360,-0.04288254,-0.05433073,-0.28782354,-0.00002099,-0.000
 10121,0.00000135,-0.00004770,0.00004293,-0.00002256,0.00027873,0.00013
 101,0.00024525,-0.00001714,0.00003073,-0.00003027,-0.00009622,0.000296
 83,0.00195102,-0.00012035,-0.00012767,0.00001668,-0.00013879,-0.000371
 35,0.00023651,-0.00003343,-0.00021002,0.00017178,0.00084875,-0.0016225
 3,0.00110879,0.00047421,0.00010823,0.00119806,0.04463785,0.06153273,0.
 30991996,0.00026069,0.00025436,-0.00009144,0.00018923,-0.00060765,0.00
 068726,0.00235547,0.00055112,0.00078126,-0.00585075,-0.02460546,0.0160
 2911,-0.00438988,-0.00032652,0.00044479,-0.00320784,0.00230738,0.00111
 847,0.00542065,0.01562755,-0.01102216,-0.06023211,-0.04660026,0.031386
 73,-0.00001239,-0.00070339,0.00023307,-0.00007525,0.00000576,0.0001230
 6,-0.00002377,0.00008529,-0.00055833,-0.00037981,0.00023386,-0.0001754
 8,-0.00171805,-0.00043465,0.00009377,0.00008239,-0.00098047,-0.0000879
 9,-0.00000794,-0.00009550,-0.00003343,0.00087479,0.00069004,-0.0001881
 2,0.00103358,-0.00100196,-0.00017027,-0.00044411,0.00010313,-0.0001978
 3,0.00151256,0.00493822,-0.00302149,0.06428686,0.00008556,0.00025242,0
 .00005916,-0.00004699,-0.00058915,-0.00000862,0.00044390,0.00098724,0.
 00070689,-0.00105605,-0.00463749,0.00275846,0.00010418,-0.00086174,0.0
 0005944,0.00191044,-0.00308364,-0.00197855,-0.00652791,-0.01731297,0.0
 1291520,-0.04620398,-0.21758427,0.11585416,-0.00007971,0.00007757,0.00
 025266,0.00024352,-0.00017510,0.00012744,-0.00063007,-0.00005777,0.000
 10501,-0.00032425,0.00002287,-0.00036643,-0.00042942,-0.00043738,-0.00
 008505,-0.00022831,-0.00035075,-0.00004793,0.00000985,-0.00003314,0.00
 021002,-0.00069004,-0.00107683,0.00045887,-0.00056186,0.00145132,-0.00
 025387,0.00058778,-0.00072621,-0.00000417,0.00207210,0.00725306,-0.003
 73196,0.05070103,0.23656560,0.00020245,0.00016497,-0.00003953,0.000036
 37,-0.00049973,0.00009347,-0.00018598,0.00003395,-0.00010972,-0.000008
 62,-0.00485213,0.00264783,-0.00075127,-0.00147308,-0.00012304,0.000291
 12,-0.00201166,-0.00006766,-0.00284419,-0.00895590,0.00511860,0.031528
 67,0.11803991,-0.12828531,-0.00022200,-0.00020995,-0.00002894,0.000001
 69,-0.00011991,0.00000606,-0.00057531,-0.00048755,0.00006793,0.0002138
 8,-0.00000605,0.00019426,0.00024132,0.00023466,0.00013915,-0.00005634,
 -0.00020058,0.00000336,-0.00009152,-0.00037145,0.00017178,-0.00018812,
 -0.00045888,0.00023874,-0.00061338,0.00018684,0.00105712,0.00010059,0.
 00020555,0.00004065,0.00720892,0.02679378,-0.01804373,-0.03419814,-0.1
 2599322,0.13755316,0.00123547,-0.00391450,-0.00003157,0.01307902,0.020
 49730,0.00035153,-0.00206054,0.00506608,0.00005604,-0.00072751,0.00110
 740,-0.00300844,-0.00555003,-0.01437326,0.00094308,0.00085669,-0.00053
 585,-0.00034564,0.00007353,-0.00002680,0.00029613,0.00005588,-0.000421
 75,0.00022121,-0.09399561,-0.10457016,-0.00076795,-0.00517935,-0.01564
 048,-0.00163188,-0.00135023,0.00086126,0.00307098,0.00106804,0.0008315
 6,0.00001323,-0.00007915,-0.00052207,0.00002732,0.00084242,0.00087186,
 0.00029555,-0.00007357,0.00016356,-0.00001714,-0.00037981,0.00032425,0
 .00021388,0.00002656,0.00003241,-0.00000751,-0.00002536,0.00002443,-0.
 00003261,0.00003501,0.00000993,-0.00001117,-0.00019716,-0.00006552,-0.
 00004419,0.09183257,0.00129469,0.00363287,0.00003087,-0.01438131,-0.01
 615877,-0.00027223,0.00147770,-0.00416372,0.00001622,0.00048419,-0.000
 26004,0.00044963,0.00077045,-0.00135650,0.00088473,-0.00014524,0.00012
 836,-0.00019889,-0.00005175,-0.00002253,-0.00002397,0.00013544,0.00011
 305,-0.00008522,-0.09966889,-0.27947791,-0.00267228,0.00053607,-0.0011
 3721,-0.00072339,0.00037504,-0.00024097,-0.00051554,-0.00083156,-0.000
 67709,-0.00003815,-0.00009606,-0.00021932,-0.00009618,0.00007932,0.000
 40369,-0.00060830,-0.00008606,0.00001994,-0.00003073,-0.00023386,0.000
 02287,0.00000605,0.00003284,0.00000274,-0.00000403,-0.00003897,0.00003
 853,-0.00000494,-0.00007523,-0.00001126,-0.00002650,-0.00001932,0.0000
 8419,-0.00000961,0.11063040,0.29909865,0.00000323,-0.00006884,-0.00069
 804,0.00021392,0.00038548,-0.00161055,0.00005600,0.00014203,-0.0009659
 4,-0.00239550,-0.00131636,-0.00382578,-0.00793366,-0.02413860,0.000837
 64,0.00095697,-0.00041462,-0.00023077,0.00012829,-0.00014912,-0.000002
 14,0.00023719,-0.00079668,0.00021377,-0.00099135,-0.00280500,-0.048188
 13,0.00682319,0.02329500,0.00173056,0.00300852,0.00165461,-0.00316768,
 0.00001323,0.00003815,0.00036915,-0.00007937,-0.00097674,-0.00011349,0
 .00062651,0.00031756,0.00124301,-0.00008600,0.00011268,-0.00003027,-0.
 00017548,0.00036643,0.00019427,-0.00014366,0.00003371,0.00008336,-0.00
 008037,0.00003516,0.00006553,-0.00007508,-0.00002795,0.00001010,-0.000
 40828,-0.00019013,-0.00006652,0.00080247,0.00293101,0.05323320,-0.0001
 2820,-0.00031035,-0.00023852,0.00140249,-0.00016212,0.00048324,-0.0001
 4684,0.00072668,0.00004949,-0.00009061,-0.00025249,-0.00008492,-0.0029
 2314,-0.00066840,0.00243082,-0.00015223,-0.00012544,-0.00002507,-0.000
 36240,-0.00004394,0.00037473,-0.00007562,0.00012388,-0.00010336,0.0089
 8707,0.00703523,0.01651878,-0.10738257,-0.04099414,-0.09981099,-0.0006
 6126,0.00141241,0.00069765,-0.00007729,0.00008278,0.00009117,-0.000009
 46,0.00000024,-0.00006458,0.00058926,0.00023763,0.00100961,0.00011754,
 -0.00004677,-0.00015854,0.00018382,-0.00027862,0.00013431,0.00034460,0
 .00017937,-0.00041562,0.00002935,-0.00004874,-0.00028646,0.00006204,-0
 .00005659,-0.00004993,0.00006168,0.00000269,0.00001401,0.00094017,0.00
 000080,-0.00085674,0.11118295,0.00077515,0.00025348,0.00028147,-0.0010
 5123,-0.00085122,-0.00072177,-0.00010829,-0.00341817,0.00089370,-0.000
 00104,-0.00006412,0.00050868,-0.00150396,0.00026422,0.00212262,-0.0002
 6114,-0.00004821,-0.00010560,0.00004103,-0.00007687,0.00002576,0.00000
 620,-0.00004632,0.00002213,0.00543867,0.00355359,0.00844880,-0.0409071
 7,-0.07859535,-0.07699866,-0.01386714,-0.01264683,-0.02398144,0.000559
 79,-0.00016834,-0.00088738,-0.00000987,0.00010111,-0.00006422,0.000161
 25,0.00026196,0.00070881,-0.00002443,0.00004918,0.00004364,-0.00004388
 ,0.00014567,-0.00016394,0.00001229,-0.00013839,0.00008578,-0.00000279,
 0.00005059,0.00003119,-0.00003848,0.00005787,-0.00006541,0.00009607,0.
 00016396,0.00001949,0.00070278,0.00034906,-0.00018992,0.04458395,0.088
 04827,0.00120686,0.00000389,0.00037190,-0.00240814,0.00074944,-0.00039
 552,0.00000077,-0.00028514,0.00013309,-0.00012257,0.00051660,0.0003957
 5,0.00478634,0.00193739,-0.00325854,0.00056559,-0.00002035,0.00040050,
 0.00006260,0.00007444,0.00005861,0.00006630,-0.00003913,0.00004312,-0.
 01183428,-0.00927043,-0.02167828,-0.09898099,-0.07658809,-0.22499779,0
 .00199641,0.00205211,0.00309945,-0.00005827,-0.00007743,-0.00009538,0.
 00004722,-0.00005334,0.00006241,-0.00083621,-0.00067436,-0.00158809,-0
 .00004883,0.00001388,-0.00001023,-0.00007322,0.00003087,0.00015061,-0.
 00004463,-0.00004020,-0.00002350,-0.00004207,-0.00003035,0.00000952,0.
 00000888,-0.00001155,0.00000241,-0.00007777,-0.00006906,-0.00000402,-0
 .00025316,0.00056717,0.00111712,0.10615390,0.08027087,0.24423955,-0.00
 077833,0.00137555,-0.00038609,-0.00104063,-0.00415907,0.00265736,0.000
 46416,-0.00044015,-0.00093571,-0.00012231,0.00001190,-0.00006592,0.000
 35578,-0.00054688,-0.00207659,-0.00000830,0.00049427,0.00011386,-0.000
 43048,-0.00026324,-0.00081909,-0.00008561,-0.00004880,0.00001953,-0.01
 413456,0.00674782,0.00237784,-0.27726772,0.09527727,-0.00942173,0.0042
 0492,-0.00190330,-0.00023493,0.00011812,-0.00001174,-0.00011434,0.0000
 2193,-0.00000259,0.00000465,0.00005082,-0.00009574,-0.00010236,0.00025
 354,-0.00024533,-0.00018455,0.00023792,-0.00044652,-0.00015396,-0.0000
 0803,-0.00026287,-0.00071888,0.00003771,-0.00009948,-0.00029696,0.0000
 9486,-0.00002654,0.00001488,0.00003944,-0.00004208,-0.00004032,-0.0004
 6786,-0.00011765,0.00037911,-0.01379664,0.00527992,-0.00102589,0.30064
 273,-0.00081321,0.00094019,-0.00031191,0.00020574,-0.00286216,0.001671
 58,0.00017892,-0.00341135,0.00090108,0.00030009,-0.00018573,0.00000760
 ,0.00141853,0.00017223,-0.00055853,-0.00001810,0.00085699,0.00038900,0
 .00039219,-0.00014042,-0.00107158,0.00015917,-0.00013934,0.00010416,-0
 .01035431,0.00537014,-0.00056569,0.09268881,-0.08461419,0.00223814,0.0
 2736101,-0.01110828,0.00173173,0.00061190,0.00007376,-0.00113262,-0.00
 013121,0.00007430,-0.00013045,-0.00017152,-0.00009310,-0.00022845,-0.0
 0015809,-0.00019833,0.00004300,0.00027782,-0.00011196,0.00020776,-0.00
 090446,-0.00053515,0.00013671,-0.00005385,0.00007057,0.00039992,-0.000
 16665,0.00011216,0.00003348,0.00001532,0.00003450,0.00001435,0.0001188
 5,-0.00007405,-0.00025786,-0.01102293,0.00491831,0.00021471,-0.1003108
 0,0.09252457,0.00181503,-0.00203934,0.00131671,0.00217123,0.00493072,-
 0.00513641,-0.00058477,-0.00090836,0.00044109,0.00018144,-0.00013750,0
 .00012405,-0.00027661,-0.00036649,0.00213354,-0.00008863,-0.00070679,-
 0.00097820,-0.00067361,-0.00026701,-0.00094664,0.00017841,-0.00010558,
 0.00001265,0.02604113,-0.01234025,-0.00107107,-0.01103844,0.00278645,-
 0.04865753,-0.00048790,-0.00014097,-0.00173010,-0.00002678,-0.00009411
 ,-0.00014724,-0.00003421,0.00005512,-0.00001223,-0.00002009,0.00024648
 ,0.00054745,0.00000780,0.00021384,0.00032110,-0.00055698,0.00080001,-0
 .00070094,-0.00062834,-0.00060250,0.00007100,-0.00002365,-0.00000800,0
 .00013635,-0.00009921,0.00006566,0.00003823,-0.00003661,0.00005255,-0.
 00001332,-0.00005511,0.00025273,0.00004423,-0.02637011,0.01061968,0.00
 009110,0.01049883,-0.00315934,0.05278178,-0.00077833,-0.00137555,-0.00
 038609,-0.00104063,0.00415907,0.00265736,-0.01413456,-0.00674782,0.002
 37783,0.00035578,0.00054688,-0.00207659,-0.00012231,-0.00001190,-0.000
 06592,-0.00008561,0.00004880,0.00001953,-0.00043048,0.00026324,-0.0008
 1909,-0.00000830,-0.00049427,0.00011386,0.00046416,0.00044015,-0.00093
 571,0.00420491,0.00190329,-0.00023493,-0.27726772,-0.09527727,-0.00942
 173,-0.00046786,0.00011765,0.00037911,0.00005082,0.00009574,-0.0001023
 6,0.00002193,0.00000259,0.00000465,0.00009486,0.00002654,0.00001488,0.
 00003944,0.00004208,-0.00004032,-0.00000803,0.00026287,-0.00071888,0.0
 0003771,0.00009948,-0.00029696,0.00025354,0.00024533,-0.00018455,0.000
 23792,0.00044652,-0.00015396,0.00011812,0.00001174,-0.00011434,0.00031
 742,0.00036185,0.00059602,0.00130113,-0.00019790,-0.00008478,0.3006427
 4,0.00081321,0.00094019,0.00031191,-0.00020574,-0.00286216,-0.00167158
 ,0.01035431,0.00537014,0.00056569,-0.00141853,0.00017222,0.00055853,-0
 .00030009,-0.00018573,-0.00000760,-0.00015917,-0.00013934,-0.00010416,
 -0.00039219,-0.00014042,0.00107158,0.00001810,0.00085698,-0.00038900,-
 0.00017892,-0.00341135,-0.00090108,-0.02736101,-0.01110828,-0.00173173
 ,-0.09268881,-0.08461419,-0.00223814,-0.00011885,-0.00007405,0.0002578
 6,0.00017152,-0.00009310,0.00022845,0.00013121,0.00007430,0.00013045,0
 .00016665,0.00011216,-0.00003348,-0.00001532,0.00003450,-0.00001436,0.
 00090446,-0.00053515,-0.00013671,0.00005385,0.00007057,-0.00039992,0.0
 0015809,-0.00019833,-0.00004300,-0.00027782,-0.00011196,-0.00020776,-0
 .00061190,0.00007376,0.00113262,-0.00057467,-0.00388964,0.00068809,0.0
 0019790,0.00221600,-0.00001129,0.10031080,0.09252457,0.00181503,0.0020
 3934,0.00131671,0.00217123,-0.00493072,-0.00513641,0.02604113,0.012340
 25,-0.00107107,-0.00027661,0.00036649,0.00213354,0.00018144,0.00013750
 ,0.00012405,0.00017841,0.00010558,0.00001265,-0.00067361,0.00026701,-0
 .00094664,-0.00008863,0.00070679,-0.00097820,-0.00058477,0.00090836,0.
 00044109,-0.00048790,0.00014097,-0.00173010,-0.01103844,-0.00278645,-0
 .04865753,-0.00005511,-0.00025273,0.00004423,-0.00002009,-0.00024648,0
 .00054745,-0.00003421,-0.00005512,-0.00001223,-0.00009921,-0.00006566,
 0.00003823,-0.00003661,-0.00005255,-0.00001332,-0.00062834,0.00060250,
 0.00007100,-0.00002365,0.00000800,0.00013635,0.00000780,-0.00021384,0.
 00032110,-0.00055698,-0.00080001,-0.00070094,-0.00002678,0.00009411,-0
 .00014724,0.00019197,-0.00086429,0.00007969,-0.00008478,0.00001129,0.0
 0125471,0.01049884,0.00315934,0.05278178,-0.00012820,0.00031035,-0.000
 23852,0.00140249,0.00016212,0.00048324,0.00898707,-0.00703523,0.016518
 78,-0.00292314,0.00066840,0.00243082,-0.00009061,0.00025249,-0.0000849
 2,-0.00007562,-0.00012388,-0.00010336,-0.00036240,0.00004394,0.0003747
 3,-0.00015223,0.00012544,-0.00002507,-0.00014684,-0.00072668,0.0000494
 9,-0.00066126,-0.00141241,0.00069765,-0.10738258,0.04099414,-0.0998109
 9,0.00094017,-0.00000080,-0.00085674,0.00058926,-0.00023763,0.00100961
 ,-0.00000946,-0.00000024,-0.00006458,0.00006204,0.00005659,-0.00004993
 ,0.00006168,-0.00000269,0.00001401,0.00034460,-0.00017937,-0.00041562,
 0.00002935,0.00004874,-0.00028646,0.00011754,0.00004677,-0.00015854,0.
 00018382,0.00027862,0.00013431,-0.00007729,-0.00008278,0.00009117,0.00
 158789,-0.00019955,0.00031515,0.00031742,0.00057467,0.00019197,-0.0137
 9664,0.01102293,-0.02637011,0.11118295,-0.00077515,0.00025348,-0.00028
 147,0.00105123,-0.00085122,0.00072177,-0.00543867,0.00355359,-0.008448
 81,0.00150396,0.00026422,-0.00212262,0.00000104,-0.00006412,-0.0005086
 8,-0.00000620,-0.00004633,-0.00002213,-0.00004103,-0.00007687,-0.00002
 576,0.00026114,-0.00004821,0.00010560,0.00010829,-0.00341817,-0.000893
 70,0.01386714,-0.01264683,0.02398144,0.04090716,-0.07859535,0.07699866
 ,-0.00070278,0.00034906,0.00018992,-0.00016125,0.00026196,-0.00070881,
 0.00000987,0.00010111,0.00006422,0.00003848,0.00005787,0.00006541,-0.0
 0009607,0.00016396,-0.00001949,-0.00001229,-0.00013839,-0.00008578,0.0
 0000279,0.00005059,-0.00003119,0.00002443,0.00004918,-0.00004364,0.000
 04388,0.00014567,0.00016394,-0.00055979,-0.00016834,0.00088738,0.00019
 955,0.00172623,0.00003998,-0.00036185,-0.00388964,0.00086429,-0.005279
 92,0.00491831,-0.01061968,-0.04458395,0.08804827,0.00120686,-0.0000038
 9,0.00037190,-0.00240814,-0.00074944,-0.00039552,-0.01183428,0.0092704
 3,-0.02167828,0.00478634,-0.00193739,-0.00325854,-0.00012257,-0.000516
 59,0.00039575,0.00006630,0.00003913,0.00004312,0.00006260,-0.00007444,
 0.00005861,0.00056559,0.00002035,0.00040049,0.00000077,0.00028514,0.00
 013309,0.00199641,-0.00205211,0.00309945,-0.09898099,0.07658809,-0.224
 99779,-0.00025316,-0.00056717,0.00111712,-0.00083621,0.00067436,-0.001
 58809,0.00004722,0.00005334,0.00006241,0.00000888,0.00001155,0.0000024
 1,-0.00007777,0.00006906,-0.00000402,-0.00004463,0.00004020,-0.0000235
 0,-0.00004207,0.00003035,0.00000952,-0.00004883,-0.00001388,-0.0000102
 3,-0.00007322,-0.00003087,0.00015061,-0.00005827,0.00007743,-0.0000953
 8,0.00031515,-0.00003998,0.00179654,0.00059602,-0.00068809,0.00007969,
 -0.00102589,-0.00021471,0.00009110,0.10615390,-0.08027087,0.24423955\\
 0.00001599,0.,0.00000329,0.00002142,0.,0.00002966,0.00004630,-0.000004
 92,-0.00006003,-0.00000865,0.00002655,0.00000632,-0.00000895,-0.000026
 48,0.00000626,-0.00001021,0.00002060,-0.00001605,-0.00001649,-0.000000
 12,0.00002903,-0.00001097,-0.00002107,-0.00001576,0.00004627,0.0000049
 4,-0.00006004,-0.00003279,-0.00002840,0.00007092,-0.00003279,0.0000284
 0,0.00007092,-0.00001384,-0.00000160,0.00000286,-0.00000530,-0.0000037
 9,0.00001267,-0.00000533,0.00000380,0.00001266,-0.00001013,-0.00000283
 ,0.00000675,0.00000104,-0.00000785,0.00000411,0.00000055,-0.00000001,-
 0.00000920,0.00001656,-0.00000005,-0.00000972,-0.00001015,0.00000284,0
 .00000674,0.00000125,0.00000838,0.00000380,-0.00001384,0.00000160,0.00
 000286,0.00000417,-0.00000826,-0.00002985,0.00001086,-0.00000517,-0.00
 001918,0.00001086,0.00000517,-0.00001918,0.00000417,0.00000826,-0.0000
 2985\\\@


 CHARLIE BROWN -- WHICH DO YOU THINK LASTS LONGER IN LIFE, THE GOOD THINGS 
                  OR THE BAD THINGS?
 LINUS --         GOOD THINGS LAST EIGHT SECONDS ..
                  BAD THINGS LAST THREE WEEKS
 CHARLIE BROWN -- WHAT ABOUT IN BETWEEN?
 SNOOPY --        IN BETWEEN YOU SHOULD TAKE A NAP ...
 Job cpu time:       0 days  0 hours  2 minutes 32.0 seconds.
 Elapsed time:       0 days  0 hours 41 minutes 28.3 seconds.
 File lengths (MBytes):  RWF=    115 Int=      0 D2E=      0 Chk=      5 Scr=      1
 Normal termination of Gaussian 16 at Thu Feb 22 01:34:59 2024.
