 Entering Gaussian System, Link 0=g16
 Input=/Volumes/SSD-PMU3/b3lyp_6-31gd_freq/VDBMCPBDWGPOMD-SOSBWXJGSA-N_calculating/gaussianinput0.gjf
 Output=/Volumes/SSD-PMU3/b3lyp_6-31gd_freq/VDBMCPBDWGPOMD-SOSBWXJGSA-N_calculating/gaussianinput0.log
 Initial command:
 /Applications/g16/l1.exe "/Users/macmini_m1_2022/PycharmProjects/sphere_model/sphere_model_lib/Gau-57471.inp" -scrdir="/Users/macmini_m1_2022/PycharmProjects/sphere_model/sphere_model_lib/"
 Entering Link 1 = /Applications/g16/l1.exe PID=     57472.
  
 Copyright (c) 1988,1990,1992,1993,1995,1998,2003,2009,2016,
            Gaussian, Inc.  All Rights Reserved.
  
 This is part of the Gaussian(R) 16 program.  It is based on
 the Gaussian(R) 09 system (copyright 2009, Gaussian, Inc.),
 the Gaussian(R) 03 system (copyright 2003, Gaussian, Inc.),
 the Gaussian(R) 98 system (copyright 1998, Gaussian, Inc.),
 the Gaussian(R) 94 system (copyright 1995, Gaussian, Inc.),
 the Gaussian 92(TM) system (copyright 1992, Gaussian, Inc.),
 the Gaussian 90(TM) system (copyright 1990, Gaussian, Inc.),
 the Gaussian 88(TM) system (copyright 1988, Gaussian, Inc.),
 the Gaussian 86(TM) system (copyright 1986, Carnegie Mellon
 University), and the Gaussian 82(TM) system (copyright 1983,
 Carnegie Mellon University). Gaussian is a federally registered
 trademark of Gaussian, Inc.
  
 This software contains proprietary and confidential information,
 including trade secrets, belonging to Gaussian, Inc.
  
 This software is provided under written license and may be
 used, copied, transmitted, or stored only in accord with that
 written license.
  
 The following legend is applicable only to US Government
 contracts under FAR:
  
                    RESTRICTED RIGHTS LEGEND
  
 Use, reproduction and disclosure by the US Government is
 subject to restrictions as set forth in subparagraphs (a)
 and (c) of the Commercial Computer Software - Restricted
 Rights clause in FAR 52.227-19.
  
 Gaussian, Inc.
 340 Quinnipiac St., Bldg. 40, Wallingford CT 06492
  
  
 ---------------------------------------------------------------
 Warning -- This program may not be used in any manner that
 competes with the business of Gaussian, Inc. or will provide
 assistance to any competitor of Gaussian, Inc.  The licensee
 of this program is prohibited from giving any competitor of
 Gaussian, Inc. access to this program.  By using this program,
 the user acknowledges that Gaussian, Inc. is engaged in the
 business of creating and licensing software in the field of
 computational chemistry and represents and warrants to the
 licensee that it is not a competitor of Gaussian, Inc. and that
 it will not use this program in any manner prohibited above.
 ---------------------------------------------------------------
  

 Cite this work as:
 Gaussian 16, Revision A.03,
 M. J. Frisch, G. W. Trucks, H. B. Schlegel, G. E. Scuseria, 
 M. A. Robb, J. R. Cheeseman, G. Scalmani, V. Barone, 
 G. A. Petersson, H. Nakatsuji, X. Li, M. Caricato, A. V. Marenich, 
 J. Bloino, B. G. Janesko, R. Gomperts, B. Mennucci, H. P. Hratchian, 
 J. V. Ortiz, A. F. Izmaylov, J. L. Sonnenberg, D. Williams-Young, 
 F. Ding, F. Lipparini, F. Egidi, J. Goings, B. Peng, A. Petrone, 
 T. Henderson, D. Ranasinghe, V. G. Zakrzewski, J. Gao, N. Rega, 
 G. Zheng, W. Liang, M. Hada, M. Ehara, K. Toyota, R. Fukuda, 
 J. Hasegawa, M. Ishida, T. Nakajima, Y. Honda, O. Kitao, H. Nakai, 
 T. Vreven, K. Throssell, J. A. Montgomery, Jr., J. E. Peralta, 
 F. Ogliaro, M. J. Bearpark, J. J. Heyd, E. N. Brothers, K. N. Kudin, 
 V. N. Staroverov, T. A. Keith, R. Kobayashi, J. Normand, 
 K. Raghavachari, A. P. Rendell, J. C. Burant, S. S. Iyengar, 
 J. Tomasi, M. Cossi, J. M. Millam, M. Klene, C. Adamo, R. Cammi, 
 J. W. Ochterski, R. L. Martin, K. Morokuma, O. Farkas, 
 J. B. Foresman, and D. J. Fox, Gaussian, Inc., Wallingford CT, 2016.
 
 ******************************************
 Gaussian 16:  EM64M-G16RevA.03 25-Dec-2016
                22-Feb-2024 
 ******************************************
 %nprocshared=8
 Will use up to    8 processors via shared memory.
 %mem=4GB
 %chk= 0.chk
 ---------------------
 # freq b3lyp/6-31g(d)
 ---------------------
 1/10=4,30=1,38=1/1,3;
 2/12=2,17=6,18=5,40=1/2;
 3/5=1,6=6,7=1,11=2,25=1,30=1,71=2,74=-5,140=1/1,2,3;
 4//1;
 5/5=2,38=5,98=1/2;
 8/6=4,10=90,11=11/1;
 11/6=1,8=1,9=11,15=111,16=1/1,2,10;
 10/6=1/2;
 6/7=2,8=2,9=2,10=2,28=1/1;
 7/8=1,10=1,25=1/1,2,3,16;
 1/10=4,30=1/3;
 99//99;
 ---------
 good luck
 ---------
 Symbolic Z-matrix:
 Charge =  0 Multiplicity = 1
 O                     1.20637   0.        0. 
 C                     0.        0.        0. 
 C                    -1.01329  -1.15867  -0.00766 
 C                    -1.77784  -0.79271  -1.30852 
 C                    -1.77784   0.79271  -1.30852 
 C                    -3.2758    1.14027  -1.38949 
 O                    -3.97598   0.       -0.89774 
 C                    -3.2758   -1.14028  -1.38949 
 C                    -1.01329   1.15867  -0.00766 
 C                    -1.83567   0.78559   1.25028 
 C                    -1.83567  -0.78559   1.25028 
 H                    -0.57644  -2.15848  -0.00105 
 H                    -1.23882  -1.19586  -2.17182 
 H                    -1.23882   1.19586  -2.17182 
 H                    -3.57399   2.00047  -0.78356 
 H                    -3.55858   1.34025  -2.43608 
 H                    -3.55858  -1.34025  -2.43608 
 H                    -3.57399  -2.00047  -0.78356 
 H                    -0.57645   2.15848  -0.00105 
 H                    -2.84971   1.19045   1.22498 
 H                    -1.34435   1.18064   2.1456 
 H                    -1.34435  -1.18064   2.1456 
 H                    -2.84971  -1.19045   1.22498 
 

 GradGradGradGradGradGradGradGradGradGradGradGradGradGradGradGradGradGrad
 Berny optimization.
 Initialization pass.
 Trust Radius=3.00D-01 FncErr=1.00D-07 GrdErr=1.00D-07 EigMax=2.50D+02 EigMin=1.00D-04
 Number of steps in this run=      2 maximum allowed number of steps=      2.
 GradGradGradGradGradGradGradGradGradGradGradGradGradGradGradGradGradGrad

                          Input orientation:                          
 ---------------------------------------------------------------------
 Center     Atomic      Atomic             Coordinates (Angstroms)
 Number     Number       Type             X           Y           Z
 ---------------------------------------------------------------------
      1          8           0        1.206370    0.000000    0.000000
      2          6           0        0.000000    0.000000    0.000000
      3          6           0       -1.013289   -1.158674   -0.007656
      4          6           0       -1.777836   -0.792706   -1.308517
      5          6           0       -1.777836    0.792705   -1.308517
      6          6           0       -3.275797    1.140274   -1.389486
      7          8           0       -3.975975    0.000000   -0.897744
      8          6           0       -3.275796   -1.140275   -1.389486
      9          6           0       -1.013289    1.158674   -0.007656
     10          6           0       -1.835672    0.785588    1.250284
     11          6           0       -1.835672   -0.785588    1.250284
     12          1           0       -0.576444   -2.158478   -0.001052
     13          1           0       -1.238816   -1.195858   -2.171821
     14          1           0       -1.238816    1.195858   -2.171821
     15          1           0       -3.573988    2.000470   -0.783558
     16          1           0       -3.558583    1.340248   -2.436076
     17          1           0       -3.558583   -1.340249   -2.436076
     18          1           0       -3.573989   -2.000470   -0.783558
     19          1           0       -0.576445    2.158478   -0.001053
     20          1           0       -2.849710    1.190454    1.224982
     21          1           0       -1.344354    1.180638    2.145595
     22          1           0       -1.344353   -1.180638    2.145595
     23          1           0       -2.849710   -1.190454    1.224983
 ---------------------------------------------------------------------
                    Distance matrix (angstroms):
                    1          2          3          4          5
     1  O    0.000000
     2  C    1.206370   0.000000
     3  C    2.503891   1.539266   0.000000
     4  C    3.353518   2.345485   1.552644   0.000000
     5  C    3.353518   2.345485   2.466709   1.585411   0.000000
     6  C    4.829153   3.736541   3.509068   2.446805   1.539885
     7  O    5.259529   4.076067   3.303376   2.372537   2.372537
     8  C    4.829152   3.736541   2.651175   1.539885   2.446804
     9  C    2.503891   1.539266   2.317348   2.466709   1.552644
    10  C    3.381476   2.355854   2.457414   3.006962   2.559464
    11  C    3.381476   2.355854   1.548522   2.559464   3.006961
    12  H    2.799545   2.234125   1.091094   2.240121   3.444167
    13  H    3.482214   2.771561   2.176202   1.094700   2.233880
    14  H    3.482214   2.771561   3.205978   2.233881   1.094700
    15  H    5.240960   4.170040   4.139975   3.362079   2.227205
    16  H    5.516839   4.515999   4.315131   2.998657   2.177671
    17  H    5.516839   4.515999   3.522601   2.177671   2.998657
    18  H    5.240961   4.170041   2.804965   2.227205   3.362079
    19  H    2.799546   2.234126   3.345799   3.444167   2.240120
    20  H    4.401085   3.322440   3.226490   3.391232   2.779521
    21  H    3.536054   2.793702   3.196635   4.001610   3.502754
    22  H    3.536053   2.793702   2.178664   3.502754   4.001610
    23  H    4.401085   3.322441   2.211979   2.779521   3.391232
                    6          7          8          9         10
     6  C    0.000000
     7  O    1.425582   0.000000
     8  C    2.280549   1.425583   0.000000
     9  C    2.651176   3.303376   3.509068   0.000000
    10  C    3.027895   3.132422   3.570895   1.548522   0.000000
    11  C    3.570895   3.132422   3.027895   2.457414   1.571176
    12  H    4.482859   4.125518   3.201716   3.345800   3.437880
    13  H    3.196694   3.247366   2.182756   3.205978   3.999146
    14  H    2.182757   3.247366   3.196694   2.176202   3.497908
    15  H    1.093620   2.043652   3.212530   2.804964   2.938400
    16  H    1.102410   2.082534   2.707086   3.522601   4.106741
    17  H    2.707086   2.082534   1.102410   4.315132   4.590954
    18  H    3.212529   2.043651   1.093619   4.139976   3.862691
    19  H    3.201716   4.125516   4.482858   1.091093   2.244176
    20  H    2.649436   2.681719   3.528355   2.211978   1.092167
    21  H    4.028511   4.193000   4.649076   2.178664   1.095007
    22  H    4.649076   4.193000   4.028511   3.196635   2.215631
    23  H    3.528355   2.681720   2.649437   3.226491   2.221183
                   11         12         13         14         15
    11  C    0.000000
    12  H    2.244176   0.000000
    13  H    3.497908   2.465281   0.000000
    14  H    3.999146   4.050006   2.391716   0.000000
    15  H    3.862690   5.185984   4.194856   2.833320   0.000000
    16  H    4.590953   5.202267   3.447170   2.339230   1.779592
    17  H    4.106741   3.935987   2.339230   3.447171   3.727124
    18  H    2.938401   3.102025   2.833321   4.194856   4.000940
    19  H    3.437880   4.316956   4.050005   2.465280   3.102023
    20  H    2.221183   4.229213   4.452834   3.759425   2.283624
    21  H    2.215631   4.043201   4.929397   4.318733   3.771383
    22  H    1.095007   2.480715   4.318733   4.929397   4.865250
    23  H    1.092167   2.758255   3.759426   4.452835   3.839376
                   16         17         18         19         20
    16  H    0.000000
    17  H    2.680497   0.000000
    18  H    3.727124   1.779591   0.000000
    19  H    3.935986   5.202266   5.185984   0.000000
    20  H    3.732062   4.506695   3.839376   2.758254   0.000000
    21  H    5.091168   5.678855   4.865250   2.480716   1.764574
    22  H    5.678855   5.091169   3.771384   4.043201   2.955623
    23  H    4.506696   3.732063   2.283625   4.229213   2.380908
                   21         22         23
    21  H    0.000000
    22  H    2.361276   0.000000
    23  H    2.955622   1.764574   0.000000
 Stoichiometry    C9H12O2
 Framework group  C1[X(C9H12O2)]
 Deg. of freedom    63
 Full point group                 C1      NOp   1
 Largest Abelian subgroup         C1      NOp   1
 Largest concise Abelian subgroup C1      NOp   1
                         Standard orientation:                         
 ---------------------------------------------------------------------
 Center     Atomic      Atomic             Coordinates (Angstroms)
 Number     Number       Type             X           Y           Z
 ---------------------------------------------------------------------
      1          8           0        2.839768   -0.000002   -0.884199
      2          6           0        1.738127   -0.000001   -0.392554
      3          6           0        0.809684   -1.158674    0.013413
      4          6           0       -0.418644   -0.792708   -0.862933
      5          6           0       -0.418644    0.792703   -0.862936
      6          6           0       -1.819561    1.140274   -0.326397
      7          8           0       -2.258550    0.000001    0.408009
      8          6           0       -1.819560   -1.140275   -0.326393
      9          6           0        0.809684    1.158674    0.013409
     10          6           0        0.571356    0.785591    1.497298
     11          6           0        0.571356   -0.785585    1.497302
     12          1           0        1.211297   -2.158478   -0.158586
     13          1           0       -0.278250   -1.195862   -1.870963
     14          1           0       -0.278249    1.195854   -1.870968
     15          1           0       -1.844925    2.000471    0.348452
     16          1           0       -2.504325    1.340246   -1.166883
     17          1           0       -2.504325   -1.340251   -1.166877
     18          1           0       -1.844926   -2.000469    0.348461
     19          1           0        1.211295    2.158478   -0.158595
     20          1           0       -0.364962    1.190458    1.887454
     21          1           0        1.384897    1.180642    2.114652
     22          1           0        1.384898   -1.180634    2.114656
     23          1           0       -0.364961   -1.190450    1.887459
 ---------------------------------------------------------------------
 Rotational constants (GHZ):           2.1047651           1.0144539           1.0028208
 Standard basis: 6-31G(d) (6D, 7F)
 There are   189 symmetry adapted cartesian basis functions of A   symmetry.
 There are   189 symmetry adapted basis functions of A   symmetry.
   189 basis functions,   356 primitive gaussians,   189 cartesian basis functions
    41 alpha electrons       41 beta electrons
       nuclear repulsion energy       665.1539590518 Hartrees.
 NAtoms=   23 NActive=   23 NUniq=   23 SFac= 1.00D+00 NAtFMM=   60 NAOKFM=F Big=F
 Integral buffers will be    131072 words long.
 Raffenetti 2 integral format.
 Two-electron integral symmetry is turned on.
 One-electron integrals computed using PRISM.
 NBasis=   189 RedAO= T EigKep=  1.07D-03  NBF=   189
 NBsUse=   189 1.00D-06 EigRej= -1.00D+00 NBFU=   189
 ExpMin= 1.61D-01 ExpMax= 5.48D+03 ExpMxC= 8.25D+02 IAcc=3 IRadAn=         5 AccDes= 0.00D+00
 Harris functional with IExCor=  402 and IRadAn=       5 diagonalized for initial guess.
 HarFok:  IExCor=  402 AccDes= 0.00D+00 IRadAn=         5 IDoV= 1 UseB2=F ITyADJ=14
 ICtDFT=  3500011 ScaDFX=  1.000000  1.000000  1.000000  1.000000
 FoFCou: FMM=F IPFlag=           0 FMFlag=      100000 FMFlg1=           0
         NFxFlg=           0 DoJE=T BraDBF=F KetDBF=T FulRan=T
         wScrn=  0.000000 ICntrl=       500 IOpCl=  0 I1Cent=   200000004 NGrid=           0
         NMat0=    1 NMatS0=      1 NMatT0=    0 NMatD0=    1 NMtDS0=    0 NMtDT0=    0
 Petite list used in FoFCou.
 Requested convergence on RMS density matrix=1.00D-08 within 128 cycles.
 Requested convergence on MAX density matrix=1.00D-06.
 Requested convergence on             energy=1.00D-06.
 No special actions if energy rises.
 Integral accuracy reduced to 1.0D-05 until final iterations.
 Initial convergence to 1.0D-05 achieved.  Increase integral accuracy.
 SCF Done:  E(RB3LYP) =  -500.598087822     A.U. after   14 cycles
            NFock= 14  Conv=0.48D-08     -V/T= 2.0092
 DoSCS=F DFT=T ScalE2(SS,OS)=  1.000000  1.000000
 Range of M.O.s used for correlation:     1   189
 NBasis=   189 NAE=    41 NBE=    41 NFC=     0 NFV=     0
 NROrb=    189 NOA=    41 NOB=    41 NVA=   148 NVB=   148
 Symmetrizing basis deriv contribution to polar:
 IMax=3 JMax=2 DiffMx= 0.00D+00
 G2DrvN: will do    24 centers at a time, making    1 passes.
 Calling FoFCou, ICntrl=  3107 FMM=F I1Cent=   0 AccDes= 0.00D+00.
 End of G2Drv F.D. properties file   721 does not exist.
 End of G2Drv F.D. properties file   722 does not exist.
 End of G2Drv F.D. properties file   788 does not exist.
          IDoAtm=11111111111111111111111
          Differentiating once with respect to electric field.
                with respect to dipole field.
          Differentiating once with respect to nuclear coordinates.
 Keep R1 ints in memory in canonical form, NReq=169334607.
          There are    72 degrees of freedom in the 1st order CPHF.  IDoFFX=6 NUNeed=     3.
     69 vectors produced by pass  0 Test12= 8.43D-15 1.39D-09 XBig12= 6.92D+01 2.87D+00.
 AX will form    69 AO Fock derivatives at one time.
     69 vectors produced by pass  1 Test12= 8.43D-15 1.39D-09 XBig12= 1.09D+01 8.15D-01.
     69 vectors produced by pass  2 Test12= 8.43D-15 1.39D-09 XBig12= 1.42D-01 4.23D-02.
     69 vectors produced by pass  3 Test12= 8.43D-15 1.39D-09 XBig12= 8.79D-04 4.14D-03.
     69 vectors produced by pass  4 Test12= 8.43D-15 1.39D-09 XBig12= 1.45D-06 1.55D-04.
     41 vectors produced by pass  5 Test12= 8.43D-15 1.39D-09 XBig12= 1.27D-09 4.77D-06.
      5 vectors produced by pass  6 Test12= 8.43D-15 1.39D-09 XBig12= 9.52D-13 1.51D-07.
      1 vectors produced by pass  7 Test12= 8.43D-15 1.39D-09 XBig12= 7.11D-16 2.89D-09.
 InvSVY:  IOpt=1 It=  1 EMax= 1.78D-14
 Solved reduced A of dimension   392 with    72 vectors.
 Isotropic polarizability for W=    0.000000       88.02 Bohr**3.
 End of Minotr F.D. properties file   721 does not exist.
 End of Minotr F.D. properties file   722 does not exist.
 End of Minotr F.D. properties file   788 does not exist.

 **********************************************************************

            Population analysis using the SCF density.

 **********************************************************************

 Orbital symmetries:
       Occupied  (A) (A) (A) (A) (A) (A) (A) (A) (A) (A) (A) (A)
                 (A) (A) (A) (A) (A) (A) (A) (A) (A) (A) (A) (A)
                 (A) (A) (A) (A) (A) (A) (A) (A) (A) (A) (A) (A)
                 (A) (A) (A) (A) (A)
       Virtual   (A) (A) (A) (A) (A) (A) (A) (A) (A) (A) (A) (A)
                 (A) (A) (A) (A) (A) (A) (A) (A) (A) (A) (A) (A)
                 (A) (A) (A) (A) (A) (A) (A) (A) (A) (A) (A) (A)
                 (A) (A) (A) (A) (A) (A) (A) (A) (A) (A) (A) (A)
                 (A) (A) (A) (A) (A) (A) (A) (A) (A) (A) (A) (A)
                 (A) (A) (A) (A) (A) (A) (A) (A) (A) (A) (A) (A)
                 (A) (A) (A) (A) (A) (A) (A) (A) (A) (A) (A) (A)
                 (A) (A) (A) (A) (A) (A) (A) (A) (A) (A) (A) (A)
                 (A) (A) (A) (A) (A) (A) (A) (A) (A) (A) (A) (A)
                 (A) (A) (A) (A) (A) (A) (A) (A) (A) (A) (A) (A)
                 (A) (A) (A) (A) (A) (A) (A) (A) (A) (A) (A) (A)
                 (A) (A) (A) (A) (A) (A) (A) (A) (A) (A) (A) (A)
                 (A) (A) (A) (A)
 The electronic state is 1-A.
 Alpha  occ. eigenvalues --  -19.15253 -19.14438 -10.27108 -10.23595 -10.23594
 Alpha  occ. eigenvalues --  -10.20459 -10.20444 -10.19707 -10.19704 -10.19189
 Alpha  occ. eigenvalues --  -10.19173  -1.04348  -1.04078  -0.87603  -0.76614
 Alpha  occ. eigenvalues --   -0.76414  -0.70831  -0.68558  -0.60785  -0.59427
 Alpha  occ. eigenvalues --   -0.54223  -0.53911  -0.51780  -0.49577  -0.46765
 Alpha  occ. eigenvalues --   -0.45995  -0.44600  -0.42230  -0.41823  -0.39616
 Alpha  occ. eigenvalues --   -0.38336  -0.38235  -0.36722  -0.36581  -0.34820
 Alpha  occ. eigenvalues --   -0.34589  -0.32489  -0.32066  -0.30712  -0.25920
 Alpha  occ. eigenvalues --   -0.23305
 Alpha virt. eigenvalues --   -0.01095   0.07139   0.09468   0.11625   0.12272
 Alpha virt. eigenvalues --    0.12540   0.13045   0.13344   0.14498   0.15770
 Alpha virt. eigenvalues --    0.17070   0.17567   0.18705   0.18775   0.19674
 Alpha virt. eigenvalues --    0.20361   0.21989   0.23246   0.23852   0.24840
 Alpha virt. eigenvalues --    0.25921   0.27552   0.30796   0.31843   0.33874
 Alpha virt. eigenvalues --    0.37880   0.49130   0.52856   0.53929   0.54751
 Alpha virt. eigenvalues --    0.55954   0.56311   0.57073   0.59678   0.60129
 Alpha virt. eigenvalues --    0.62167   0.62221   0.62929   0.64065   0.65663
 Alpha virt. eigenvalues --    0.67022   0.70365   0.70654   0.71265   0.74459
 Alpha virt. eigenvalues --    0.76587   0.77618   0.81137   0.81295   0.82454
 Alpha virt. eigenvalues --    0.83286   0.84537   0.84979   0.87197   0.87618
 Alpha virt. eigenvalues --    0.87806   0.89806   0.90659   0.91187   0.92772
 Alpha virt. eigenvalues --    0.92876   0.93872   0.96097   0.99662   1.04063
 Alpha virt. eigenvalues --    1.05067   1.09580   1.10552   1.11498   1.19786
 Alpha virt. eigenvalues --    1.20184   1.24868   1.29439   1.30407   1.31528
 Alpha virt. eigenvalues --    1.37117   1.42717   1.43942   1.48318   1.53000
 Alpha virt. eigenvalues --    1.54184   1.60745   1.61057   1.68608   1.69015
 Alpha virt. eigenvalues --    1.70985   1.73130   1.74064   1.74843   1.78068
 Alpha virt. eigenvalues --    1.78740   1.81848   1.83059   1.84148   1.85979
 Alpha virt. eigenvalues --    1.90184   1.92769   1.94799   1.95046   1.98249
 Alpha virt. eigenvalues --    1.98951   2.04096   2.07209   2.07240   2.09474
 Alpha virt. eigenvalues --    2.11086   2.11545   2.13648   2.15185   2.17913
 Alpha virt. eigenvalues --    2.22979   2.23709   2.27034   2.30611   2.31889
 Alpha virt. eigenvalues --    2.33596   2.35462   2.44755   2.46452   2.48665
 Alpha virt. eigenvalues --    2.53201   2.53748   2.61776   2.63358   2.63931
 Alpha virt. eigenvalues --    2.66565   2.67960   2.69738   2.69990   2.72983
 Alpha virt. eigenvalues --    2.73235   2.74042   2.79235   2.83579   2.97616
 Alpha virt. eigenvalues --    3.01237   3.05885   3.94641   4.09227   4.20387
 Alpha virt. eigenvalues --    4.24765   4.32439   4.44802   4.51724   4.52020
 Alpha virt. eigenvalues --    4.68303   4.82298   5.01559
          Condensed to atoms (all electrons):
               1          2          3          4          5          6
     1  O    7.958040   0.597498  -0.062498   0.000919   0.000919  -0.000032
     2  C    0.597498   4.647992   0.304562  -0.056763  -0.056763   0.003538
     3  C   -0.062498   0.304562   5.221801   0.362012  -0.057876  -0.000825
     4  C    0.000919  -0.056763   0.362012   5.129662   0.377647  -0.061917
     5  C    0.000919  -0.056763  -0.057876   0.377647   5.129663   0.334907
     6  C   -0.000032   0.003538  -0.000825  -0.061917   0.334907   4.893857
     7  O   -0.000000  -0.000567  -0.001104  -0.052850  -0.052850   0.254494
     8  C   -0.000032   0.003538  -0.025307   0.334907  -0.061917  -0.066912
     9  C   -0.062498   0.304562  -0.154605  -0.057876   0.362012  -0.025307
    10  C    0.001498  -0.063351  -0.051045  -0.013558  -0.038209  -0.008548
    11  C    0.001498  -0.063351   0.369159  -0.038209  -0.013558   0.001304
    12  H    0.001011  -0.027286   0.356055  -0.030980   0.005719  -0.000133
    13  H    0.000498   0.000208  -0.040015   0.353997  -0.030227   0.005740
    14  H    0.000498   0.000208   0.003876  -0.030227   0.353997  -0.034939
    15  H   -0.000001   0.000120   0.000008   0.003804  -0.032078   0.376656
    16  H    0.000001  -0.000168   0.000007  -0.002720  -0.044299   0.358112
    17  H    0.000001  -0.000168   0.003511  -0.044298  -0.002720  -0.002541
    18  H   -0.000001   0.000120  -0.006662  -0.032078   0.003804   0.007700
    19  H    0.001011  -0.027286   0.006577   0.005719  -0.030980  -0.000202
    20  H   -0.000058   0.003742   0.000653   0.001574  -0.013803   0.005472
    21  H    0.000463   0.000221   0.002227  -0.000097   0.005172   0.000004
    22  H    0.000463   0.000221  -0.036039   0.005172  -0.000097  -0.000021
    23  H   -0.000058   0.003742  -0.024302  -0.013803   0.001574  -0.000827
               7          8          9         10         11         12
     1  O   -0.000000  -0.000032  -0.062498   0.001498   0.001498   0.001011
     2  C   -0.000567   0.003538   0.304562  -0.063351  -0.063351  -0.027286
     3  C   -0.001104  -0.025307  -0.154605  -0.051045   0.369159   0.356055
     4  C   -0.052850   0.334907  -0.057876  -0.013558  -0.038209  -0.030980
     5  C   -0.052850  -0.061917   0.362012  -0.038209  -0.013558   0.005719
     6  C    0.254494  -0.066912  -0.025307  -0.008548   0.001304  -0.000133
     7  O    8.208743   0.254494  -0.001104   0.001476   0.001476  -0.000065
     8  C    0.254494   4.893858  -0.000825   0.001304  -0.008548  -0.000202
     9  C   -0.001104  -0.000825   5.221801   0.369159  -0.051045   0.006577
    10  C    0.001476   0.001304   0.369159   5.089013   0.346077   0.005661
    11  C    0.001476  -0.008548  -0.051045   0.346077   5.089013  -0.033892
    12  H   -0.000065  -0.000202   0.006577   0.005661  -0.033892   0.583643
    13  H    0.003015  -0.034939   0.003876  -0.000074   0.005342  -0.004127
    14  H    0.003015   0.005740  -0.040015   0.005342  -0.000074  -0.000173
    15  H   -0.036192   0.007700  -0.006662   0.000355  -0.000059   0.000003
    16  H   -0.039744  -0.002541   0.003511   0.000439   0.000019   0.000001
    17  H   -0.039744   0.358112   0.000007   0.000019   0.000439  -0.000092
    18  H   -0.036192   0.376656   0.000008  -0.000059   0.000355   0.000690
    19  H   -0.000065  -0.000133   0.356056  -0.033892   0.005661  -0.000168
    20  H    0.003663  -0.000827  -0.024302   0.366774  -0.027724  -0.000076
    21  H    0.000195  -0.000021  -0.036039   0.367062  -0.030768  -0.000184
    22  H    0.000195   0.000004   0.002227  -0.030768   0.367062  -0.003517
    23  H    0.003663   0.005472   0.000653  -0.027724   0.366774   0.000911
              13         14         15         16         17         18
     1  O    0.000498   0.000498  -0.000001   0.000001   0.000001  -0.000001
     2  C    0.000208   0.000208   0.000120  -0.000168  -0.000168   0.000120
     3  C   -0.040015   0.003876   0.000008   0.000007   0.003511  -0.006662
     4  C    0.353997  -0.030227   0.003804  -0.002720  -0.044298  -0.032078
     5  C   -0.030227   0.353997  -0.032078  -0.044299  -0.002720   0.003804
     6  C    0.005740  -0.034939   0.376656   0.358112  -0.002541   0.007700
     7  O    0.003015   0.003015  -0.036192  -0.039744  -0.039744  -0.036192
     8  C   -0.034939   0.005740   0.007700  -0.002541   0.358112   0.376656
     9  C    0.003876  -0.040015  -0.006662   0.003511   0.000007   0.000008
    10  C   -0.000074   0.005342   0.000355   0.000439   0.000019  -0.000059
    11  C    0.005342  -0.000074  -0.000059   0.000019   0.000439   0.000355
    12  H   -0.004127  -0.000173   0.000003   0.000001  -0.000092   0.000690
    13  H    0.598027  -0.007472  -0.000158   0.000312  -0.002674   0.003000
    14  H   -0.007472   0.598027   0.003000  -0.002674   0.000312  -0.000158
    15  H   -0.000158   0.003000   0.576543  -0.046175  -0.000454  -0.000178
    16  H    0.000312  -0.002674  -0.046175   0.638429   0.007977  -0.000454
    17  H   -0.002674   0.000312  -0.000454   0.007977   0.638429  -0.046175
    18  H    0.003000  -0.000158  -0.000178  -0.000454  -0.046175   0.576543
    19  H   -0.000173  -0.004127   0.000690  -0.000092   0.000001   0.000003
    20  H   -0.000011   0.000071   0.002105   0.000108   0.000024  -0.000089
    21  H    0.000013  -0.000149  -0.000241   0.000006   0.000002  -0.000005
    22  H   -0.000149   0.000013  -0.000005   0.000002   0.000006  -0.000241
    23  H    0.000071  -0.000011  -0.000089   0.000024   0.000108   0.002105
              19         20         21         22         23
     1  O    0.001011  -0.000058   0.000463   0.000463  -0.000058
     2  C   -0.027286   0.003742   0.000221   0.000221   0.003742
     3  C    0.006577   0.000653   0.002227  -0.036039  -0.024302
     4  C    0.005719   0.001574  -0.000097   0.005172  -0.013803
     5  C   -0.030980  -0.013803   0.005172  -0.000097   0.001574
     6  C   -0.000202   0.005472   0.000004  -0.000021  -0.000827
     7  O   -0.000065   0.003663   0.000195   0.000195   0.003663
     8  C   -0.000133  -0.000827  -0.000021   0.000004   0.005472
     9  C    0.356056  -0.024302  -0.036039   0.002227   0.000653
    10  C   -0.033892   0.366774   0.367062  -0.030768  -0.027724
    11  C    0.005661  -0.027724  -0.030768   0.367062   0.366774
    12  H   -0.000168  -0.000076  -0.000184  -0.003517   0.000911
    13  H   -0.000173  -0.000011   0.000013  -0.000149   0.000071
    14  H   -0.004127   0.000071  -0.000149   0.000013  -0.000011
    15  H    0.000690   0.002105  -0.000241  -0.000005  -0.000089
    16  H   -0.000092   0.000108   0.000006   0.000002   0.000024
    17  H    0.000001   0.000024   0.000002   0.000006   0.000108
    18  H    0.000003  -0.000089  -0.000005  -0.000241   0.002105
    19  H    0.583643   0.000911  -0.003517  -0.000184  -0.000076
    20  H    0.000911   0.558171  -0.034910   0.003680  -0.007999
    21  H   -0.003517  -0.034910   0.585903  -0.008972   0.003680
    22  H   -0.000184   0.003680  -0.008972   0.585903  -0.034910
    23  H   -0.000076  -0.007999   0.003680  -0.034910   0.558171
 Mulliken charges:
               1
     1  O   -0.439140
     2  C    0.425432
     3  C   -0.170170
     4  C   -0.140038
     5  C   -0.140039
     6  C   -0.039582
     7  O   -0.473951
     8  C   -0.039582
     9  C   -0.170170
    10  C   -0.286951
    11  C   -0.286951
    12  H    0.140624
    13  H    0.145919
    14  H    0.145919
    15  H    0.151304
    16  H    0.129917
    17  H    0.129917
    18  H    0.151304
    19  H    0.140624
    20  H    0.162852
    21  H    0.149955
    22  H    0.149955
    23  H    0.162852
 Sum of Mulliken charges =  -0.00000
 Mulliken charges with hydrogens summed into heavy atoms:
               1
     1  O   -0.439140
     2  C    0.425432
     3  C   -0.029546
     4  C    0.005881
     5  C    0.005880
     6  C    0.241639
     7  O   -0.473951
     8  C    0.241639
     9  C   -0.029546
    10  C    0.025855
    11  C    0.025855
 APT charges:
               1
     1  O   -0.654017
     2  C    0.743455
     3  C   -0.070964
     4  C    0.042853
     5  C    0.042854
     6  C    0.457677
     7  O   -0.650718
     8  C    0.457677
     9  C   -0.070964
    10  C    0.090257
    11  C    0.090257
    12  H   -0.031101
    13  H   -0.046975
    14  H   -0.046975
    15  H   -0.022241
    16  H   -0.089418
    17  H   -0.089418
    18  H   -0.022241
    19  H   -0.031100
    20  H   -0.012206
    21  H   -0.037243
    22  H   -0.037243
    23  H   -0.012206
 Sum of APT charges =   0.00000
 APT charges with hydrogens summed into heavy atoms:
               1
     1  O   -0.654017
     2  C    0.743455
     3  C   -0.102064
     4  C   -0.004121
     5  C   -0.004121
     6  C    0.346018
     7  O   -0.650718
     8  C    0.346018
     9  C   -0.102065
    10  C    0.040808
    11  C    0.040808
 Electronic spatial extent (au):  <R**2>=           1405.5389
 Charge=             -0.0000 electrons
 Dipole moment (field-independent basis, Debye):
    X=             -1.8235    Y=             -0.0000    Z=              0.0219  Tot=              1.8237
 Quadrupole moment (field-independent basis, Debye-Ang):
   XX=            -78.1428   YY=            -60.4845   ZZ=            -64.1168
   XY=              0.0000   XZ=              7.0822   YZ=             -0.0000
 Traceless Quadrupole moment (field-independent basis, Debye-Ang):
   XX=            -10.5615   YY=              7.0969   ZZ=              3.4646
   XY=              0.0000   XZ=              7.0822   YZ=             -0.0000
 Octapole moment (field-independent basis, Debye-Ang**2):
  XXX=            -21.8673  YYY=              0.0000  ZZZ=             -2.6783  XYY=             -3.1997
  XXY=             -0.0000  XXZ=              6.8720  XZZ=             -2.0483  YZZ=             -0.0000
  YYZ=             -0.2074  XYZ=             -0.0000
 Hexadecapole moment (field-independent basis, Debye-Ang**3):
 XXXX=          -1106.7831 YYYY=           -414.1672 ZZZZ=           -397.5734 XXXY=              0.0001
 XXXZ=             46.2279 YYYX=             -0.0000 YYYZ=             -0.0000 ZZZX=             -6.1331
 ZZZY=              0.0000 XXYY=           -218.5223 XXZZ=           -234.5567 YYZZ=           -135.0178
 XXYZ=             -0.0000 YYXZ=             -5.9103 ZZXY=              0.0000
 N-N= 6.651539590518D+02 E-N=-2.495201263694D+03  KE= 4.960312522423D+02
  Exact polarizability:  95.568  -0.000  86.655   1.401  -0.000  81.849
 Approx polarizability: 139.700  -0.000 125.963  -6.342  -0.000 123.165
 Calling FoFJK, ICntrl=    100127 FMM=F ISym2X=0 I1Cent= 0 IOpClX= 0 NMat=1 NMatS=1 NMatT=0.
 Full mass-weighted force constant matrix:
 Low frequencies ---   -5.0616   -0.0004    0.0007    0.0010    6.7354    7.8029
 Low frequencies ---  117.0776  124.7412  213.6554
 Diagonal vibrational polarizability:
       10.3483035       7.8498230       8.5984405
 Harmonic frequencies (cm**-1), IR intensities (KM/Mole), Raman scattering
 activities (A**4/AMU), depolarization ratios for plane and unpolarized
 incident light, reduced masses (AMU), force constants (mDyne/A),
 and normal coordinates:
                      1                      2                      3
                      A                      A                      A
 Frequencies --    117.0696               124.7410               213.6554
 Red. masses --      2.9943                 7.7275                 5.5774
 Frc consts  --      0.0242                 0.0708                 0.1500
 IR Inten    --      1.5206                 4.8621                 6.4314
  Atom  AN      X      Y      Z        X      Y      Z        X      Y      Z
     1   8     0.00   0.10   0.00     0.24  -0.00   0.47    -0.06  -0.00  -0.05
     2   6     0.00   0.03  -0.00     0.01  -0.00  -0.05    -0.02  -0.00   0.04
     3   6     0.05  -0.04  -0.05    -0.05   0.00  -0.19    -0.03   0.00   0.00
     4   6    -0.02  -0.04   0.04    -0.12   0.00  -0.08     0.04  -0.01  -0.10
     5   6     0.02  -0.04  -0.04    -0.12  -0.00  -0.08     0.04   0.01  -0.10
     6   6     0.00   0.04  -0.17    -0.06  -0.01   0.08     0.08  -0.04   0.00
     7   8     0.00   0.15   0.00     0.05  -0.00   0.16     0.36  -0.00   0.24
     8   6    -0.00   0.04   0.17    -0.06   0.01   0.08     0.08   0.04   0.00
     9   6    -0.05  -0.04   0.05    -0.05  -0.00  -0.19    -0.03  -0.00   0.00
    10   6    -0.11  -0.12   0.02     0.05   0.00  -0.16    -0.23  -0.00  -0.03
    11   6     0.11  -0.12  -0.02     0.05  -0.00  -0.16    -0.23   0.00  -0.03
    12   1     0.08  -0.01  -0.12    -0.06  -0.00  -0.21    -0.02   0.00   0.04
    13   1    -0.13  -0.09   0.05    -0.23  -0.00  -0.10     0.04  -0.04  -0.09
    14   1     0.13  -0.09  -0.05    -0.23   0.00  -0.10     0.04   0.04  -0.09
    15   1    -0.03   0.15  -0.31     0.01   0.01   0.07     0.07   0.06  -0.14
    16   1     0.03  -0.10  -0.23    -0.17  -0.03   0.16    -0.07  -0.29   0.06
    17   1    -0.03  -0.10   0.23    -0.17   0.03   0.16    -0.07   0.29   0.06
    18   1     0.03   0.15   0.31     0.01  -0.01   0.07     0.07  -0.06  -0.14
    19   1    -0.08  -0.01   0.12    -0.06   0.00  -0.21    -0.02  -0.00   0.04
    20   1    -0.21  -0.28  -0.05     0.08   0.00  -0.09    -0.27  -0.01  -0.14
    21   1    -0.23  -0.02   0.10     0.10   0.00  -0.23    -0.30  -0.01   0.07
    22   1     0.23  -0.02  -0.10     0.10  -0.00  -0.23    -0.30   0.01   0.07
    23   1     0.21  -0.28   0.05     0.08  -0.00  -0.09    -0.27   0.01  -0.14
                      4                      5                      6
                      A                      A                      A
 Frequencies --    266.9758               312.7211               320.8300
 Red. masses --      1.8660                 3.0170                 2.2738
 Frc consts  --      0.0784                 0.1738                 0.1379
 IR Inten    --      0.4821                 1.5007                 3.0514
  Atom  AN      X      Y      Z        X      Y      Z        X      Y      Z
     1   8    -0.00   0.09  -0.00    -0.00   0.21  -0.00    -0.05  -0.00   0.03
     2   6    -0.00   0.02   0.00    -0.00   0.01   0.00    -0.06  -0.00   0.01
     3   6     0.00  -0.01  -0.02     0.03  -0.07   0.06    -0.04  -0.00   0.03
     4   6    -0.01  -0.02  -0.01    -0.01  -0.14   0.05    -0.02  -0.00  -0.00
     5   6     0.01  -0.02   0.01     0.01  -0.14  -0.05    -0.02   0.00  -0.00
     6   6    -0.02  -0.02  -0.08     0.13   0.05   0.08    -0.07  -0.06  -0.12
     7   8     0.00   0.02  -0.00     0.00   0.04   0.00     0.09  -0.00   0.06
     8   6     0.02  -0.02   0.08    -0.13   0.05  -0.08    -0.07   0.06  -0.12
     9   6    -0.00  -0.01   0.02    -0.03  -0.07  -0.06    -0.04   0.00   0.03
    10   6     0.15  -0.03   0.03     0.01  -0.01  -0.04     0.12   0.00   0.06
    11   6    -0.15  -0.03  -0.03    -0.01  -0.01   0.04     0.12  -0.00   0.06
    12   1     0.01  -0.01  -0.01     0.07  -0.07   0.10    -0.03   0.00   0.01
    13   1    -0.05  -0.02  -0.01     0.00  -0.20   0.07     0.05  -0.01   0.00
    14   1     0.05  -0.02   0.01    -0.00  -0.20  -0.07     0.05   0.01   0.00
    15   1    -0.08   0.04  -0.15     0.40  -0.03   0.19    -0.24   0.07  -0.30
    16   1     0.01  -0.13  -0.13     0.06   0.30   0.20    -0.07  -0.36  -0.20
    17   1    -0.01  -0.13   0.13    -0.06   0.30  -0.20    -0.07   0.36  -0.20
    18   1     0.08   0.04   0.15    -0.40  -0.03  -0.19    -0.24  -0.07  -0.30
    19   1    -0.01  -0.01   0.01    -0.07  -0.07  -0.10    -0.03  -0.00   0.01
    20   1     0.32   0.17   0.24     0.05   0.03   0.02     0.17   0.01   0.18
    21   1     0.37  -0.23  -0.12     0.07  -0.00  -0.12     0.21   0.00  -0.06
    22   1    -0.37  -0.23   0.12    -0.07  -0.00   0.12     0.21  -0.00  -0.06
    23   1    -0.32   0.17  -0.24    -0.05   0.03  -0.02     0.17  -0.01   0.18
                      7                      8                      9
                      A                      A                      A
 Frequencies --    420.2149               490.4560               514.7411
 Red. masses --      2.8739                 3.5179                 3.8560
 Frc consts  --      0.2990                 0.4986                 0.6020
 IR Inten    --      1.2860                 1.5916                 4.3022
  Atom  AN      X      Y      Z        X      Y      Z        X      Y      Z
     1   8     0.16   0.00  -0.07     0.00  -0.14   0.00    -0.00   0.18  -0.00
     2   6     0.16  -0.00  -0.05     0.00   0.07  -0.00    -0.00  -0.18   0.00
     3   6     0.09  -0.00  -0.00     0.17   0.05   0.10    -0.06  -0.14   0.12
     4   6     0.01   0.00   0.09     0.12   0.03   0.10     0.04   0.14   0.02
     5   6     0.01  -0.00   0.09    -0.12   0.03  -0.10    -0.04   0.14  -0.02
     6   6    -0.10  -0.06  -0.01    -0.10   0.07   0.02    -0.12   0.04   0.01
     7   8    -0.10   0.00   0.09    -0.00   0.04  -0.00    -0.00  -0.01  -0.00
     8   6    -0.10   0.06  -0.01     0.10   0.07  -0.02     0.12   0.04  -0.01
     9   6     0.09   0.00  -0.00    -0.17   0.05  -0.10     0.06  -0.14  -0.12
    10   6    -0.06  -0.00  -0.04    -0.00  -0.12  -0.05     0.00  -0.05  -0.12
    11   6    -0.06   0.00  -0.04     0.00  -0.12   0.05    -0.00  -0.05   0.12
    12   1     0.06  -0.02   0.02     0.27   0.12  -0.06    -0.35  -0.25   0.11
    13   1    -0.05   0.04   0.07     0.17  -0.05   0.13     0.12   0.14   0.02
    14   1    -0.05  -0.04   0.07    -0.17  -0.05  -0.13    -0.12   0.14  -0.02
    15   1    -0.33   0.07  -0.19     0.05   0.03   0.08    -0.26   0.05  -0.00
    16   1    -0.00  -0.34  -0.16    -0.21   0.17   0.13    -0.11  -0.06  -0.02
    17   1    -0.00   0.34  -0.16     0.21   0.17  -0.13     0.11  -0.06   0.02
    18   1    -0.33  -0.07  -0.19    -0.05   0.03  -0.08     0.26   0.05   0.00
    19   1     0.06   0.02   0.02    -0.27   0.12   0.06     0.35  -0.25  -0.11
    20   1    -0.14  -0.02  -0.22     0.11  -0.08   0.17    -0.01  -0.01  -0.22
    21   1    -0.19   0.01   0.12     0.15  -0.13  -0.25    -0.03   0.02  -0.12
    22   1    -0.19  -0.01   0.12    -0.15  -0.13   0.25     0.03   0.02   0.12
    23   1    -0.14   0.02  -0.22    -0.11  -0.08  -0.17     0.01  -0.01   0.22
                     10                     11                     12
                      A                      A                      A
 Frequencies --    623.5167               662.2238               710.9711
 Red. masses --      4.4662                 5.6790                 6.1812
 Frc consts  --      1.0230                 1.4673                 1.8409
 IR Inten    --      2.0578                 3.8039                 7.0972
  Atom  AN      X      Y      Z        X      Y      Z        X      Y      Z
     1   8     0.24  -0.00  -0.12    -0.00  -0.00   0.00     0.08   0.00   0.03
     2   6     0.22  -0.00  -0.04    -0.00   0.21  -0.00    -0.07  -0.00  -0.28
     3   6    -0.09   0.06   0.05    -0.17   0.16   0.13    -0.03  -0.04   0.02
     4   6    -0.10   0.02  -0.14    -0.11   0.09   0.13    -0.09  -0.10   0.23
     5   6    -0.10  -0.02  -0.14     0.11   0.09  -0.13    -0.09   0.10   0.23
     6   6    -0.06   0.04  -0.02     0.14  -0.09  -0.03    -0.05   0.17  -0.04
     7   8     0.05  -0.00  -0.01     0.00  -0.09  -0.00     0.30  -0.00  -0.17
     8   6    -0.06  -0.04  -0.02    -0.14  -0.09   0.03    -0.05  -0.17  -0.04
     9   6    -0.09  -0.06   0.05     0.17   0.16  -0.13    -0.03   0.04   0.02
    10   6    -0.02  -0.03   0.17     0.04  -0.17  -0.12    -0.00  -0.02   0.00
    11   6    -0.02   0.03   0.17    -0.04  -0.17   0.12    -0.00   0.02   0.00
    12   1    -0.32  -0.05   0.17    -0.15   0.21  -0.11    -0.05  -0.05   0.05
    13   1    -0.04  -0.09  -0.09     0.03  -0.04   0.20     0.04   0.14   0.15
    14   1    -0.04   0.09  -0.09    -0.03  -0.04  -0.20     0.04  -0.14   0.15
    15   1     0.14  -0.04   0.09     0.05  -0.11  -0.02    -0.26   0.03   0.14
    16   1    -0.21   0.19   0.14     0.16  -0.14  -0.04    -0.03   0.21  -0.05
    17   1    -0.21  -0.19   0.14    -0.16  -0.14   0.04    -0.03  -0.21  -0.05
    18   1     0.14   0.04   0.09    -0.05  -0.11   0.02    -0.26  -0.03   0.14
    19   1    -0.32   0.05   0.17     0.15   0.21   0.11    -0.05   0.05   0.05
    20   1     0.04   0.02   0.26     0.01  -0.13  -0.24    -0.12  -0.11  -0.17
    21   1     0.07   0.01   0.03    -0.05  -0.17  -0.01    -0.16   0.06   0.15
    22   1     0.07  -0.01   0.03     0.05  -0.17   0.01    -0.16  -0.06   0.15
    23   1     0.04  -0.02   0.26    -0.01  -0.13   0.24    -0.12   0.11  -0.17
                     13                     14                     15
                      A                      A                      A
 Frequencies --    744.0074               784.5657               796.1094
 Red. masses --      2.8641                 2.6635                 2.3792
 Frc consts  --      0.9341                 0.9660                 0.8884
 IR Inten    --      8.3561                 0.7440                 0.0308
  Atom  AN      X      Y      Z        X      Y      Z        X      Y      Z
     1   8    -0.06   0.00   0.00     0.00  -0.00  -0.05     0.00   0.02   0.00
     2   6     0.00   0.00   0.13     0.13   0.00   0.23    -0.00  -0.01  -0.00
     3   6     0.15  -0.02   0.00    -0.03  -0.06   0.02    -0.11   0.04  -0.02
     4   6    -0.04  -0.10  -0.11    -0.01  -0.03   0.05     0.03  -0.04   0.13
     5   6    -0.04   0.10  -0.11    -0.01   0.03   0.05    -0.03  -0.04  -0.13
     6   6    -0.13   0.07   0.00    -0.05   0.05   0.01    -0.11   0.03  -0.03
     7   8     0.04  -0.00  -0.01     0.07  -0.00  -0.04    -0.00  -0.02  -0.00
     8   6    -0.13  -0.07   0.00    -0.05  -0.05   0.01     0.11   0.03   0.03
     9   6     0.15   0.02   0.00    -0.03   0.06   0.02     0.11   0.04   0.02
    10   6     0.05   0.03   0.03    -0.04   0.02  -0.13     0.02   0.01   0.12
    11   6     0.05  -0.03   0.03    -0.04  -0.02  -0.13    -0.02   0.01  -0.12
    12   1     0.39   0.08  -0.04    -0.05  -0.08   0.06    -0.26  -0.03   0.05
    13   1    -0.04  -0.15  -0.09     0.00   0.06   0.02    -0.01  -0.23   0.20
    14   1    -0.04   0.15  -0.09     0.00  -0.06   0.02     0.01  -0.23  -0.20
    15   1    -0.10  -0.01   0.11    -0.15   0.00   0.07     0.13  -0.06   0.10
    16   1    -0.25   0.14   0.11    -0.03   0.05  -0.01    -0.29   0.19   0.16
    17   1    -0.25  -0.14   0.11    -0.03  -0.05  -0.01     0.29   0.19  -0.16
    18   1    -0.10   0.01   0.11    -0.15  -0.00   0.07    -0.13  -0.06  -0.10
    19   1     0.39  -0.08  -0.04    -0.05   0.08   0.06     0.26  -0.03  -0.05
    20   1    -0.08  -0.09  -0.16     0.19   0.25   0.20    -0.04  -0.06   0.03
    21   1    -0.13   0.12   0.20     0.25  -0.29  -0.32    -0.06  -0.08   0.29
    22   1    -0.13  -0.12   0.20     0.25   0.29  -0.32     0.06  -0.08  -0.29
    23   1    -0.08   0.09  -0.16     0.19  -0.25   0.20     0.04  -0.06  -0.03
                     16                     17                     18
                      A                      A                      A
 Frequencies --    818.0466               838.6153               882.5747
 Red. masses --      3.4862                 2.3096                 2.1516
 Frc consts  --      1.3746                 0.9570                 0.9874
 IR Inten    --      3.7673                 3.4013                 4.7524
  Atom  AN      X      Y      Z        X      Y      Z        X      Y      Z
     1   8     0.00   0.01   0.00    -0.03   0.00  -0.03    -0.01  -0.00   0.01
     2   6    -0.00  -0.16  -0.00     0.07   0.00   0.17    -0.03   0.00  -0.01
     3   6     0.11  -0.02  -0.04    -0.02   0.04  -0.02     0.08   0.12  -0.07
     4   6    -0.06   0.16   0.16    -0.06   0.15   0.05    -0.04   0.08   0.03
     5   6     0.06   0.16  -0.16    -0.06  -0.15   0.05    -0.04  -0.08   0.03
     6   6     0.11  -0.05  -0.05    -0.00   0.01  -0.03    -0.01   0.00  -0.00
     7   8    -0.00  -0.08  -0.00     0.05  -0.00  -0.02     0.04  -0.00  -0.03
     8   6    -0.11  -0.05   0.05    -0.00  -0.01  -0.03    -0.01  -0.00  -0.00
     9   6    -0.11  -0.02   0.04    -0.02  -0.04  -0.02     0.08  -0.12  -0.07
    10   6    -0.08   0.05   0.06     0.07   0.04  -0.03    -0.07   0.06   0.08
    11   6     0.08   0.05  -0.06     0.07  -0.04  -0.03    -0.07  -0.06   0.08
    12   1    -0.15  -0.11  -0.10    -0.18   0.01  -0.20     0.20   0.20  -0.23
    13   1    -0.11   0.08   0.18    -0.02   0.26   0.01    -0.08   0.17  -0.01
    14   1     0.11   0.08  -0.18    -0.02  -0.26   0.01    -0.08  -0.17  -0.01
    15   1     0.17  -0.15   0.06     0.10   0.00  -0.02    -0.02   0.00  -0.00
    16   1    -0.00   0.02   0.06    -0.02   0.06  -0.00     0.02   0.00  -0.03
    17   1     0.00   0.02  -0.06    -0.02  -0.06  -0.00     0.02  -0.00  -0.03
    18   1    -0.17  -0.15  -0.06     0.10  -0.00  -0.02    -0.02  -0.00  -0.00
    19   1     0.15  -0.11   0.10    -0.18  -0.01  -0.20     0.20  -0.20  -0.23
    20   1     0.05   0.02   0.41    -0.14  -0.27  -0.22     0.11   0.45   0.10
    21   1     0.14   0.02  -0.20    -0.17   0.33   0.10     0.13  -0.19  -0.03
    22   1    -0.14   0.02   0.20    -0.17  -0.33   0.10     0.13   0.19  -0.03
    23   1    -0.05   0.02  -0.41    -0.14   0.27  -0.22     0.11  -0.45   0.10
                     19                     20                     21
                      A                      A                      A
 Frequencies --    884.2080               940.0229               940.4804
 Red. masses --      4.6086                 2.0254                 2.6991
 Frc consts  --      2.1229                 1.0545                 1.4066
 IR Inten    --      3.6468                 8.7632                20.2749
  Atom  AN      X      Y      Z        X      Y      Z        X      Y      Z
     1   8     0.04  -0.00  -0.02     0.00   0.01   0.00     0.00  -0.00   0.01
     2   6     0.03  -0.00  -0.03    -0.00  -0.05  -0.00    -0.03   0.00  -0.06
     3   6    -0.04  -0.25  -0.08     0.02   0.04   0.13     0.03  -0.06   0.03
     4   6     0.01  -0.04   0.00     0.05   0.01  -0.03     0.02   0.06   0.01
     5   6     0.01   0.04   0.00    -0.05   0.01   0.03     0.02  -0.06   0.01
     6   6     0.03  -0.03   0.01     0.06  -0.03   0.04    -0.02   0.16  -0.11
     7   8    -0.01  -0.00  -0.01    -0.00   0.05   0.00    -0.07  -0.00   0.17
     8   6     0.03   0.03   0.01    -0.06  -0.03  -0.04    -0.02  -0.16  -0.11
     9   6    -0.04   0.25  -0.08    -0.02   0.04  -0.13     0.03   0.06   0.03
    10   6    -0.03   0.27   0.11    -0.02  -0.01   0.13    -0.01   0.00  -0.01
    11   6    -0.03  -0.27   0.11     0.02  -0.01  -0.13    -0.01   0.00  -0.01
    12   1    -0.01  -0.20  -0.36    -0.11  -0.05   0.38     0.04  -0.06   0.03
    13   1    -0.11   0.07  -0.06     0.29   0.06  -0.02     0.24   0.33  -0.07
    14   1    -0.11  -0.07  -0.06    -0.29   0.06   0.02     0.24  -0.33  -0.07
    15   1     0.02  -0.02  -0.01    -0.05   0.08  -0.11     0.29   0.20  -0.14
    16   1     0.04  -0.04  -0.00     0.16  -0.16  -0.09    -0.15   0.23   0.03
    17   1     0.04   0.04  -0.00    -0.16  -0.16   0.09    -0.15  -0.23   0.03
    18   1     0.02   0.02  -0.01     0.05   0.08   0.11     0.29  -0.20  -0.14
    19   1    -0.01   0.20  -0.36     0.11  -0.05  -0.38     0.04   0.06   0.03
    20   1    -0.04   0.18   0.18    -0.05  -0.17   0.22     0.03   0.07   0.03
    21   1    -0.01   0.26   0.11    -0.02  -0.12   0.19     0.04  -0.15   0.02
    22   1    -0.01  -0.26   0.11     0.02  -0.12  -0.19     0.04   0.15   0.02
    23   1    -0.04  -0.18   0.18     0.05  -0.17  -0.22     0.03  -0.07   0.03
                     22                     23                     24
                      A                      A                      A
 Frequencies --    962.8354              1008.5458              1015.6748
 Red. masses --      2.8244                 2.4244                 1.9639
 Frc consts  --      1.5427                 1.4529                 1.1937
 IR Inten    --      6.2063                 0.8452                 6.1682
  Atom  AN      X      Y      Z        X      Y      Z        X      Y      Z
     1   8    -0.01   0.00   0.02     0.01  -0.00   0.01     0.00   0.00   0.00
     2   6    -0.04  -0.00  -0.07    -0.03   0.00  -0.07    -0.00  -0.03  -0.00
     3   6     0.06  -0.12   0.05    -0.03   0.09   0.10     0.01  -0.00  -0.03
     4   6     0.02   0.12  -0.01     0.08   0.01  -0.01     0.12   0.04  -0.02
     5   6     0.02  -0.12  -0.01     0.08  -0.01  -0.01    -0.12   0.04   0.02
     6   6    -0.09  -0.16   0.01    -0.07  -0.02   0.00     0.04  -0.10  -0.07
     7   8     0.06  -0.00  -0.08     0.01  -0.00   0.01     0.00   0.07  -0.00
     8   6    -0.09   0.16   0.01    -0.07   0.02   0.00    -0.04  -0.10   0.07
     9   6     0.06   0.12   0.05    -0.03  -0.09   0.10    -0.01  -0.00   0.03
    10   6    -0.00  -0.05  -0.02     0.01   0.16  -0.07     0.06  -0.00  -0.02
    11   6    -0.00   0.05  -0.02     0.01  -0.16  -0.07    -0.06  -0.00   0.02
    12   1     0.04  -0.14   0.11    -0.10   0.07   0.10    -0.04  -0.01  -0.06
    13   1     0.01   0.24  -0.06     0.33  -0.17   0.10     0.18   0.24  -0.10
    14   1     0.01  -0.24  -0.06     0.33   0.17   0.10    -0.18   0.24   0.10
    15   1     0.19  -0.28   0.17     0.02  -0.10   0.11     0.46  -0.12  -0.04
    16   1    -0.25   0.10   0.19    -0.15   0.10   0.09    -0.08   0.17   0.08
    17   1    -0.25  -0.10   0.19    -0.15  -0.10   0.09     0.08   0.17  -0.08
    18   1     0.19   0.28   0.17     0.02   0.10   0.11    -0.46  -0.12   0.04
    19   1     0.04   0.14   0.11    -0.10  -0.07   0.10     0.04  -0.01   0.06
    20   1     0.03   0.00   0.02     0.01   0.26  -0.20    -0.02  -0.01  -0.23
    21   1    -0.00  -0.24   0.10     0.02   0.27  -0.15    -0.08   0.05   0.14
    22   1    -0.00   0.24   0.10     0.02  -0.27  -0.15     0.08   0.05  -0.14
    23   1     0.03  -0.00   0.02     0.01  -0.26  -0.20     0.02  -0.01   0.23
                     25                     26                     27
                      A                      A                      A
 Frequencies --   1047.6097              1049.2443              1085.5532
 Red. masses --      2.5814                 1.8969                 2.5292
 Frc consts  --      1.6692                 1.2304                 1.7560
 IR Inten    --      5.2370                15.1618                 1.0500
  Atom  AN      X      Y      Z        X      Y      Z        X      Y      Z
     1   8    -0.01  -0.00   0.00    -0.00   0.00   0.00    -0.00  -0.02   0.00
     2   6    -0.00  -0.00   0.00    -0.00  -0.00   0.00    -0.00   0.11  -0.00
     3   6    -0.05   0.01  -0.10    -0.07   0.03  -0.06     0.03  -0.13  -0.03
     4   6     0.18   0.03  -0.02     0.05  -0.04   0.02     0.03   0.04   0.13
     5   6     0.18  -0.03  -0.02    -0.05  -0.04  -0.02    -0.03   0.04  -0.13
     6   6    -0.09   0.05   0.07    -0.01  -0.06   0.07     0.04  -0.02   0.10
     7   8     0.01  -0.00  -0.01     0.00   0.11  -0.00     0.00   0.04  -0.00
     8   6    -0.09  -0.05   0.07     0.01  -0.06  -0.07    -0.04  -0.02  -0.10
     9   6    -0.05  -0.01  -0.10     0.07   0.03   0.06    -0.03  -0.13   0.03
    10   6    -0.02  -0.06   0.06    -0.09   0.01  -0.04     0.09   0.03   0.07
    11   6    -0.02   0.06   0.06     0.09   0.01   0.04    -0.09   0.03  -0.07
    12   1    -0.11   0.01  -0.20    -0.28  -0.02  -0.29     0.17  -0.04  -0.19
    13   1     0.29   0.24  -0.09     0.32  -0.08   0.07     0.12   0.04   0.15
    14   1     0.29  -0.24  -0.09    -0.32  -0.08  -0.07    -0.12   0.04  -0.15
    15   1    -0.37  -0.02   0.16    -0.00   0.09  -0.11    -0.21   0.13  -0.10
    16   1    -0.03  -0.02  -0.00     0.04  -0.15  -0.01     0.10  -0.27  -0.02
    17   1    -0.03   0.02  -0.00    -0.04  -0.15   0.01    -0.10  -0.27   0.02
    18   1    -0.37   0.02   0.16     0.00   0.09   0.11     0.21   0.13   0.10
    19   1    -0.11  -0.01  -0.20     0.28  -0.02   0.29    -0.17  -0.04   0.19
    20   1    -0.03  -0.19   0.16     0.06   0.11   0.20    -0.04   0.09  -0.29
    21   1     0.00   0.07  -0.05     0.11  -0.03  -0.27    -0.08   0.14   0.21
    22   1     0.00  -0.07  -0.05    -0.11  -0.03   0.27     0.08   0.14  -0.21
    23   1    -0.03   0.19   0.16    -0.06   0.11  -0.20     0.04   0.09   0.29
                     28                     29                     30
                      A                      A                      A
 Frequencies --   1118.7759              1127.8264              1132.1383
 Red. masses --      1.6833                 3.7954                 1.0613
 Frc consts  --      1.2413                 2.8444                 0.8015
 IR Inten    --      4.1770                38.3108                 1.1336
  Atom  AN      X      Y      Z        X      Y      Z        X      Y      Z
     1   8     0.03  -0.00  -0.02    -0.00  -0.01   0.00     0.02  -0.00  -0.01
     2   6     0.02   0.00   0.03     0.00   0.06   0.00    -0.00   0.00  -0.02
     3   6    -0.05   0.03  -0.04     0.00  -0.03   0.05    -0.01   0.01   0.02
     4   6     0.02  -0.07   0.08    -0.15   0.03   0.01    -0.01  -0.01  -0.00
     5   6     0.02   0.07   0.08     0.15   0.03  -0.01    -0.01   0.01  -0.00
     6   6    -0.02  -0.07  -0.07    -0.13  -0.18   0.08     0.01  -0.01   0.01
     7   8    -0.00  -0.00   0.04     0.00   0.24  -0.00    -0.00   0.00  -0.01
     8   6    -0.02   0.07  -0.07     0.13  -0.18  -0.08     0.01   0.01   0.01
     9   6    -0.05  -0.03  -0.04    -0.00  -0.03  -0.05    -0.01  -0.01   0.02
    10   6    -0.02  -0.02   0.01    -0.03  -0.00   0.02    -0.02   0.02  -0.01
    11   6    -0.02   0.02   0.01     0.03  -0.00  -0.02    -0.02  -0.02  -0.01
    12   1     0.25   0.19  -0.29     0.17  -0.00   0.26     0.32   0.10   0.26
    13   1     0.13  -0.12   0.11    -0.40   0.15  -0.06    -0.09   0.35  -0.16
    14   1     0.13   0.12   0.11     0.40   0.15   0.06    -0.09  -0.35  -0.16
    15   1     0.32  -0.15   0.04     0.08  -0.20   0.12    -0.02  -0.01   0.00
    16   1    -0.15   0.16   0.09    -0.13   0.09   0.12     0.01  -0.04   0.00
    17   1    -0.15  -0.16   0.09     0.13   0.09  -0.12     0.01   0.04   0.00
    18   1     0.32   0.15   0.04    -0.08  -0.20  -0.12    -0.02   0.01   0.00
    19   1     0.25  -0.19  -0.29    -0.17  -0.00  -0.26     0.32  -0.10   0.26
    20   1    -0.02  -0.18   0.15    -0.00  -0.00   0.07    -0.02  -0.12   0.13
    21   1     0.01  -0.00  -0.05     0.02  -0.04  -0.03     0.04   0.27  -0.23
    22   1     0.01   0.00  -0.05    -0.02  -0.04   0.03     0.04  -0.27  -0.23
    23   1    -0.02   0.18   0.15     0.00  -0.00  -0.07    -0.02   0.12   0.13
                     31                     32                     33
                      A                      A                      A
 Frequencies --   1150.1536              1189.5780              1197.7605
 Red. masses --      3.2863                 1.6165                 1.4817
 Frc consts  --      2.5614                 1.3477                 1.2524
 IR Inten    --     49.3670                 0.2125                 0.0929
  Atom  AN      X      Y      Z        X      Y      Z        X      Y      Z
     1   8    -0.00  -0.06   0.00     0.03  -0.00  -0.00     0.00   0.02  -0.00
     2   6    -0.00   0.32  -0.00    -0.01   0.00  -0.05    -0.00  -0.07  -0.00
     3   6    -0.05  -0.14   0.04    -0.02  -0.02   0.09    -0.10  -0.04   0.05
     4   6     0.04   0.01  -0.03    -0.01   0.09  -0.04     0.01   0.02  -0.00
     5   6    -0.04   0.01   0.03    -0.01  -0.09  -0.04    -0.01   0.02   0.00
     6   6     0.01   0.02  -0.08    -0.00   0.04   0.04    -0.00   0.00  -0.03
     7   8    -0.00  -0.06   0.00     0.01   0.00  -0.03     0.00  -0.01  -0.00
     8   6    -0.01   0.02   0.08    -0.00  -0.04   0.04     0.00   0.00   0.03
     9   6     0.05  -0.14  -0.04    -0.02   0.02   0.09     0.10  -0.04  -0.05
    10   6    -0.10  -0.00   0.06    -0.01   0.03  -0.05    -0.05   0.01   0.04
    11   6     0.10  -0.00  -0.06    -0.01  -0.03  -0.05     0.05   0.01  -0.04
    12   1    -0.26  -0.25   0.17     0.28   0.17  -0.31     0.53   0.25  -0.20
    13   1     0.02   0.22  -0.11     0.01  -0.22   0.09     0.16   0.06   0.01
    14   1    -0.02   0.22   0.11     0.01   0.22   0.09    -0.16   0.06  -0.01
    15   1     0.09  -0.08   0.05    -0.09   0.12  -0.06     0.00  -0.05   0.04
    16   1     0.02   0.18  -0.04     0.06  -0.10  -0.04     0.01   0.08  -0.02
    17   1    -0.02   0.18   0.04     0.06   0.10  -0.04    -0.01   0.08   0.02
    18   1    -0.09  -0.08  -0.05    -0.09  -0.12  -0.06    -0.00  -0.05  -0.04
    19   1     0.26  -0.25  -0.17     0.28  -0.17  -0.31    -0.53   0.25   0.20
    20   1     0.03   0.26   0.11    -0.03  -0.30   0.25     0.02   0.17   0.06
    21   1     0.10  -0.03  -0.19     0.02  -0.15   0.03     0.04  -0.12   0.01
    22   1    -0.10  -0.03   0.19     0.02   0.15   0.03    -0.04  -0.12  -0.01
    23   1    -0.03   0.26  -0.11    -0.03   0.30   0.25    -0.02   0.17  -0.06
                     34                     35                     36
                      A                      A                      A
 Frequencies --   1224.9470              1233.3567              1264.4988
 Red. masses --      1.0875                 1.3746                 1.2363
 Frc consts  --      0.9614                 1.2320                 1.1647
 IR Inten    --      6.8497                 1.1807                 2.1902
  Atom  AN      X      Y      Z        X      Y      Z        X      Y      Z
     1   8    -0.00  -0.00   0.00     0.02   0.00  -0.01     0.00  -0.00  -0.00
     2   6    -0.00  -0.00   0.00     0.01  -0.00   0.01     0.00   0.02   0.00
     3   6     0.02   0.00   0.00    -0.07   0.01   0.04    -0.03  -0.02   0.05
     4   6     0.01   0.00  -0.01    -0.03  -0.06  -0.03    -0.03   0.00  -0.03
     5   6    -0.01   0.00   0.01    -0.03   0.06  -0.03     0.03   0.00   0.03
     6   6    -0.00  -0.02  -0.03     0.04  -0.02   0.02    -0.02   0.00  -0.01
     7   8     0.00   0.04  -0.00    -0.02   0.00  -0.00    -0.00  -0.01  -0.00
     8   6     0.00  -0.02   0.03     0.04   0.02   0.02     0.02   0.00   0.01
     9   6    -0.02   0.00  -0.00    -0.07  -0.01   0.04     0.03  -0.02  -0.05
    10   6     0.02   0.00   0.01     0.04   0.01  -0.02     0.05   0.01   0.04
    11   6    -0.02   0.00  -0.01     0.04  -0.01  -0.02    -0.05   0.01  -0.04
    12   1    -0.08  -0.02  -0.11     0.10   0.12  -0.16     0.00   0.04  -0.24
    13   1     0.12  -0.16   0.07     0.23   0.35  -0.15     0.05  -0.03  -0.01
    14   1    -0.12  -0.16  -0.07     0.23  -0.35  -0.15    -0.05  -0.03   0.01
    15   1    -0.29  -0.28   0.29    -0.11  -0.06   0.06     0.13   0.05  -0.06
    16   1     0.26   0.28  -0.18     0.01  -0.07   0.03    -0.06  -0.03   0.03
    17   1    -0.26   0.28   0.18     0.01   0.07   0.03     0.06  -0.03  -0.03
    18   1     0.29  -0.28  -0.29    -0.11   0.06   0.06    -0.13   0.05   0.06
    19   1     0.08  -0.02   0.11     0.10  -0.12  -0.16    -0.00   0.04   0.24
    20   1    -0.01  -0.05  -0.02     0.01   0.11  -0.19    -0.06  -0.38   0.16
    21   1    -0.01   0.08   0.00    -0.06  -0.27   0.29     0.03   0.43  -0.20
    22   1     0.01   0.08  -0.00    -0.06   0.27   0.29    -0.03   0.43   0.20
    23   1     0.01  -0.05   0.02     0.01  -0.11  -0.19     0.06  -0.38  -0.16
                     37                     38                     39
                      A                      A                      A
 Frequencies --   1290.5562              1291.1407              1302.6671
 Red. masses --      1.4036                 1.3903                 1.3636
 Frc consts  --      1.3773                 1.3655                 1.3633
 IR Inten    --      0.3945                 0.8201                 1.7742
  Atom  AN      X      Y      Z        X      Y      Z        X      Y      Z
     1   8    -0.00   0.00   0.00    -0.01  -0.00   0.01     0.02   0.00  -0.01
     2   6    -0.00  -0.00  -0.00    -0.01   0.00  -0.02     0.01  -0.00   0.01
     3   6    -0.04   0.00  -0.06     0.07   0.03   0.03    -0.07  -0.04  -0.01
     4   6     0.01  -0.06   0.08    -0.03  -0.03  -0.02     0.02   0.06  -0.01
     5   6    -0.01  -0.06  -0.08    -0.03   0.03  -0.02     0.02  -0.06  -0.01
     6   6     0.01   0.02  -0.01     0.02  -0.02  -0.05    -0.02   0.00  -0.03
     7   8    -0.00   0.00   0.00    -0.00  -0.00   0.07     0.02  -0.00   0.06
     8   6    -0.01   0.02   0.01     0.02   0.02  -0.05    -0.02  -0.00  -0.03
     9   6     0.04   0.00   0.06     0.07  -0.03   0.03    -0.07   0.04  -0.01
    10   6     0.02   0.01  -0.05    -0.02   0.03  -0.02     0.02  -0.03   0.01
    11   6    -0.02   0.01   0.05    -0.02  -0.03  -0.02     0.02   0.03   0.01
    12   1     0.11   0.01   0.25    -0.24  -0.07  -0.11     0.29   0.09   0.10
    13   1     0.12   0.48  -0.11    -0.00   0.09  -0.06    -0.16  -0.15   0.05
    14   1    -0.12   0.48   0.11    -0.00  -0.09  -0.06    -0.16   0.15   0.05
    15   1    -0.16  -0.06   0.09    -0.23  -0.28   0.26    -0.15  -0.16   0.16
    16   1     0.04   0.04  -0.04     0.20   0.21  -0.14     0.27   0.26  -0.21
    17   1    -0.04   0.04   0.04     0.20  -0.21  -0.14     0.27  -0.26  -0.21
    18   1     0.16  -0.06  -0.09    -0.23   0.28   0.26    -0.15   0.16   0.16
    19   1    -0.11   0.01  -0.25    -0.24   0.07  -0.11     0.29  -0.09   0.10
    20   1    -0.02  -0.27   0.16    -0.03  -0.21   0.21     0.02   0.19  -0.20
    21   1     0.01   0.05  -0.06     0.03  -0.04  -0.03    -0.03   0.02   0.05
    22   1    -0.01   0.05   0.06     0.03   0.04  -0.03    -0.03  -0.02   0.05
    23   1     0.02  -0.27  -0.16    -0.03   0.21   0.21     0.02  -0.19  -0.20
                     40                     41                     42
                      A                      A                      A
 Frequencies --   1313.8297              1336.6406              1351.7005
 Red. masses --      1.4227                 1.4464                 1.4552
 Frc consts  --      1.4469                 1.5225                 1.5665
 IR Inten    --      0.0875                 0.0730                 1.9016
  Atom  AN      X      Y      Z        X      Y      Z        X      Y      Z
     1   8    -0.00   0.00   0.00     0.00   0.01  -0.00    -0.01   0.00   0.00
     2   6    -0.00  -0.02  -0.00    -0.00  -0.05   0.00     0.01  -0.00   0.00
     3   6     0.05   0.02   0.08     0.02   0.04  -0.02    -0.03   0.05  -0.05
     4   6    -0.05  -0.07   0.02    -0.06  -0.02   0.00     0.05  -0.01   0.01
     5   6     0.05  -0.07  -0.02     0.06  -0.02  -0.00     0.05   0.01   0.01
     6   6    -0.02   0.01  -0.00     0.00   0.01  -0.02    -0.03   0.00   0.00
     7   8     0.00  -0.01   0.00    -0.00   0.01   0.00     0.01  -0.00  -0.00
     8   6     0.02   0.01   0.00    -0.00   0.01   0.02    -0.03  -0.00   0.00
     9   6    -0.05   0.02  -0.08    -0.02   0.04   0.02    -0.03  -0.05  -0.05
    10   6    -0.00   0.02   0.02    -0.01  -0.08   0.07     0.02   0.09  -0.02
    11   6     0.00   0.02  -0.02     0.01  -0.08  -0.07     0.02  -0.09  -0.02
    12   1    -0.24  -0.00  -0.44    -0.00   0.01   0.16     0.00   0.00   0.35
    13   1    -0.01   0.39  -0.16     0.27   0.11  -0.00    -0.24   0.01  -0.03
    14   1     0.01   0.39   0.16    -0.27   0.11   0.00    -0.24  -0.01  -0.03
    15   1    -0.02   0.00   0.02    -0.05  -0.02   0.03     0.11   0.05  -0.05
    16   1    -0.02   0.03  -0.00    -0.12  -0.01   0.08     0.04   0.05  -0.05
    17   1     0.02   0.03   0.00     0.12  -0.01  -0.08     0.04  -0.05  -0.05
    18   1     0.02   0.00  -0.02     0.05  -0.02  -0.03     0.11  -0.05  -0.05
    19   1     0.24  -0.00   0.44     0.00   0.01  -0.16     0.00  -0.00   0.35
    20   1    -0.00   0.09  -0.05     0.04   0.34  -0.25    -0.04  -0.21   0.15
    21   1    -0.02  -0.14   0.14     0.01   0.35  -0.22    -0.03  -0.33   0.31
    22   1     0.02  -0.14  -0.14    -0.01   0.35   0.22    -0.03   0.33   0.31
    23   1     0.00   0.09   0.05    -0.04   0.34   0.25    -0.04   0.21   0.15
                     43                     44                     45
                      A                      A                      A
 Frequencies --   1363.2874              1370.1570              1376.5957
 Red. masses --      1.2829                 1.3216                 1.5385
 Frc consts  --      1.4048                 1.4618                 1.7177
 IR Inten    --      1.6161                 1.2128                 1.6162
  Atom  AN      X      Y      Z        X      Y      Z        X      Y      Z
     1   8     0.00   0.00   0.00    -0.00  -0.00  -0.00    -0.00   0.01  -0.00
     2   6    -0.00  -0.01  -0.00     0.00   0.00   0.01     0.00  -0.04   0.00
     3   6     0.01   0.01  -0.02     0.01  -0.02  -0.07    -0.03   0.04   0.03
     4   6    -0.03   0.01   0.03    -0.08   0.03  -0.00     0.12  -0.02   0.03
     5   6     0.03   0.01  -0.03    -0.08  -0.03  -0.00    -0.12  -0.02  -0.03
     6   6    -0.08  -0.01   0.04     0.01  -0.01   0.02     0.02  -0.01   0.03
     7   8     0.00  -0.06   0.00    -0.00  -0.00   0.00     0.00   0.00  -0.00
     8   6     0.08  -0.01  -0.04     0.01   0.01   0.02    -0.02  -0.01  -0.03
     9   6    -0.01   0.01   0.02     0.01   0.02  -0.07     0.03   0.04  -0.03
    10   6     0.00  -0.01   0.00    -0.01   0.02   0.00    -0.01  -0.04   0.04
    11   6    -0.00  -0.01  -0.00    -0.01  -0.02   0.00     0.01  -0.04  -0.04
    12   1     0.02  -0.00   0.06     0.12  -0.04   0.30    -0.02   0.06  -0.04
    13   1     0.08   0.04   0.03     0.55  -0.11   0.15    -0.56   0.10  -0.11
    14   1    -0.08   0.04  -0.03     0.55   0.11   0.15     0.56   0.10   0.11
    15   1     0.30   0.18  -0.19    -0.04  -0.04   0.05    -0.06   0.01  -0.00
    16   1     0.40   0.23  -0.31     0.09  -0.05  -0.05     0.16   0.01  -0.09
    17   1    -0.40   0.23   0.31     0.09   0.05  -0.05    -0.16   0.01   0.09
    18   1    -0.30   0.18   0.19    -0.04   0.04   0.05     0.06   0.01   0.00
    19   1    -0.02  -0.00  -0.06     0.12   0.04   0.30     0.02   0.06   0.04
    20   1     0.00   0.04  -0.04     0.00  -0.05   0.11     0.02   0.12  -0.03
    21   1    -0.00   0.01  -0.01    -0.02  -0.02   0.05     0.01   0.23  -0.15
    22   1     0.00   0.01   0.01    -0.02   0.02   0.05    -0.01   0.23   0.15
    23   1    -0.00   0.04   0.04     0.00   0.05   0.11    -0.02   0.12   0.03
                     46                     47                     48
                      A                      A                      A
 Frequencies --   1416.2597              1515.5244              1537.3074
 Red. masses --      1.3473                 1.0823                 1.0802
 Frc consts  --      1.5922                 1.4646                 1.5041
 IR Inten    --      8.6913                 1.2632                 0.9161
  Atom  AN      X      Y      Z        X      Y      Z        X      Y      Z
     1   8     0.00  -0.00   0.00    -0.00  -0.00   0.00    -0.00  -0.00   0.00
     2   6    -0.00   0.00  -0.00     0.00   0.01  -0.00     0.00   0.00  -0.00
     3   6     0.01   0.00   0.02    -0.00  -0.01   0.00    -0.00  -0.00   0.00
     4   6    -0.01  -0.04  -0.02    -0.00   0.00   0.00    -0.00   0.00  -0.00
     5   6    -0.01   0.04  -0.02     0.00   0.00  -0.00     0.00   0.00   0.00
     6   6    -0.09  -0.03   0.06    -0.02   0.02  -0.00     0.03  -0.04   0.00
     7   8     0.03   0.00  -0.01    -0.00   0.01   0.00    -0.00  -0.01   0.00
     8   6    -0.09   0.03   0.06     0.02   0.02   0.00    -0.03  -0.04  -0.00
     9   6     0.01  -0.00   0.02     0.00  -0.01  -0.00     0.00  -0.00  -0.00
    10   6    -0.00  -0.01  -0.00     0.01  -0.03  -0.04     0.00  -0.01  -0.02
    11   6    -0.00   0.01  -0.00    -0.01  -0.03   0.04    -0.00  -0.01   0.02
    12   1    -0.06  -0.01  -0.10     0.01  -0.01  -0.01    -0.00  -0.00  -0.01
    13   1     0.12   0.10  -0.06     0.02   0.00   0.00    -0.00  -0.01  -0.00
    14   1     0.12  -0.10  -0.06    -0.02   0.00  -0.00     0.00  -0.01   0.00
    15   1     0.33   0.16  -0.17     0.13  -0.10   0.14    -0.27   0.21  -0.30
    16   1     0.41   0.14  -0.30     0.04  -0.19  -0.09    -0.08   0.41   0.17
    17   1     0.41  -0.14  -0.30    -0.04  -0.19   0.09     0.08   0.41  -0.17
    18   1     0.33  -0.16  -0.17    -0.13  -0.10  -0.14     0.27   0.21   0.30
    19   1    -0.06   0.01  -0.10    -0.01  -0.01   0.01     0.00  -0.00   0.01
    20   1     0.02   0.03   0.01     0.24   0.19   0.33     0.11   0.07   0.17
    21   1    -0.02   0.05  -0.02    -0.31   0.22   0.25    -0.14   0.11   0.11
    22   1    -0.02  -0.05  -0.02     0.31   0.22  -0.25     0.14   0.11  -0.11
    23   1     0.02  -0.03   0.01    -0.24   0.19  -0.33    -0.11   0.07  -0.17
                     49                     50                     51
                      A                      A                      A
 Frequencies --   1538.4305              1549.2468              1872.1923
 Red. masses --      1.1009                 1.0935                12.2045
 Frc consts  --      1.5351                 1.5463                25.2040
 IR Inten    --      7.1307                 1.4291               290.5076
  Atom  AN      X      Y      Z        X      Y      Z        X      Y      Z
     1   8    -0.00   0.00   0.00    -0.00   0.00   0.00    -0.48   0.00   0.21
     2   6     0.00  -0.00  -0.00     0.00  -0.00  -0.00     0.73  -0.00  -0.33
     3   6    -0.00   0.01   0.00     0.00   0.00  -0.00    -0.04   0.00   0.02
     4   6     0.01  -0.00   0.00    -0.00  -0.00   0.00    -0.02   0.00  -0.01
     5   6     0.01   0.00   0.00    -0.00   0.00   0.00    -0.02  -0.00  -0.01
     6   6    -0.01   0.03  -0.01     0.02  -0.05   0.01     0.00  -0.00   0.00
     7   8    -0.00   0.00   0.00     0.00   0.00   0.00     0.00   0.00  -0.00
     8   6    -0.01  -0.03  -0.01     0.02   0.05   0.01     0.00   0.00   0.00
     9   6    -0.00  -0.01   0.00     0.00  -0.00  -0.00    -0.04  -0.00   0.02
    10   6     0.01  -0.03  -0.05     0.00  -0.01  -0.02    -0.01  -0.00   0.02
    11   6     0.01   0.03  -0.05     0.00   0.01  -0.02    -0.01   0.00   0.02
    12   1    -0.01   0.01  -0.02     0.00   0.00   0.00     0.16   0.07  -0.07
    13   1    -0.05   0.00  -0.01     0.02   0.00   0.01     0.05   0.00  -0.01
    14   1    -0.05  -0.00  -0.01     0.02  -0.00   0.01     0.05  -0.00  -0.01
    15   1     0.12  -0.11   0.16    -0.26   0.20  -0.30    -0.00   0.00  -0.00
    16   1     0.00  -0.22  -0.07    -0.05   0.40   0.16     0.01   0.00  -0.01
    17   1     0.00   0.22  -0.07    -0.05  -0.40   0.16     0.01  -0.00  -0.01
    18   1     0.12   0.10   0.16    -0.26  -0.20  -0.30    -0.00  -0.00  -0.00
    19   1    -0.01  -0.01  -0.02     0.00  -0.00   0.00     0.16  -0.07  -0.07
    20   1     0.24   0.20   0.31     0.12   0.08   0.18    -0.03   0.01  -0.02
    21   1    -0.31   0.21   0.24    -0.16   0.11   0.12     0.04  -0.01  -0.03
    22   1    -0.31  -0.21   0.24    -0.16  -0.11   0.12     0.04   0.01  -0.03
    23   1     0.24  -0.20   0.31     0.12  -0.08   0.18    -0.03  -0.01  -0.02
                     52                     53                     54
                      A                      A                      A
 Frequencies --   2990.9630              2997.4249              3072.4095
 Red. masses --      1.0723                 1.0736                 1.0670
 Frc consts  --      5.6520                 5.6830                 5.9342
 IR Inten    --     36.9126               115.2586                20.7992
  Atom  AN      X      Y      Z        X      Y      Z        X      Y      Z
     1   8    -0.00  -0.00   0.00    -0.00   0.00   0.00     0.00   0.00  -0.00
     2   6     0.00   0.00  -0.00     0.00  -0.00  -0.00    -0.00  -0.00   0.00
     3   6     0.00  -0.00   0.00     0.00   0.00   0.00     0.00  -0.00  -0.00
     4   6    -0.00   0.00   0.00    -0.00   0.00   0.01    -0.00   0.00   0.00
     5   6     0.00   0.00  -0.00    -0.00  -0.00   0.01     0.00   0.00  -0.00
     6   6     0.04  -0.02   0.04    -0.04   0.02  -0.04    -0.00  -0.00  -0.00
     7   8     0.00  -0.00  -0.00     0.00   0.00  -0.00    -0.00  -0.00   0.00
     8   6    -0.04  -0.02  -0.04    -0.04  -0.02  -0.04     0.00  -0.00   0.00
     9   6    -0.00  -0.00  -0.00     0.00  -0.00   0.00    -0.00  -0.00   0.00
    10   6    -0.00   0.00   0.00    -0.00  -0.00  -0.00     0.02   0.03   0.04
    11   6     0.00   0.00  -0.00    -0.00   0.00  -0.00    -0.02   0.03  -0.04
    12   1     0.00  -0.00  -0.00     0.00  -0.00  -0.00    -0.02   0.05   0.01
    13   1     0.01  -0.03  -0.06     0.01  -0.03  -0.07     0.01  -0.02  -0.05
    14   1    -0.01  -0.03   0.06     0.01   0.03  -0.07    -0.01  -0.02   0.05
    15   1     0.01   0.09   0.09    -0.01  -0.09  -0.08    -0.00   0.01   0.00
    16   1    -0.43   0.11  -0.53     0.43  -0.12   0.53     0.01  -0.00   0.01
    17   1     0.43   0.11   0.53     0.43   0.12   0.53    -0.01  -0.00  -0.01
    18   1    -0.01   0.09  -0.09    -0.01   0.09  -0.08     0.00   0.01  -0.00
    19   1    -0.00  -0.00   0.00     0.00   0.00  -0.00     0.02   0.05  -0.01
    20   1     0.00  -0.00  -0.00    -0.00   0.00   0.00     0.23  -0.09  -0.08
    21   1    -0.00  -0.00  -0.00     0.01   0.00   0.00    -0.49  -0.22  -0.36
    22   1     0.00  -0.00   0.00     0.01  -0.00   0.00     0.49  -0.22   0.36
    23   1    -0.00  -0.00   0.00    -0.00  -0.00   0.00    -0.23  -0.09   0.08
                     55                     56                     57
                      A                      A                      A
 Frequencies --   3077.4742              3083.4323              3090.8345
 Red. masses --      1.0866                 1.0643                 1.0861
 Frc consts  --      6.0632                 5.9616                 6.1134
 IR Inten    --     11.2095                41.3557                45.3875
  Atom  AN      X      Y      Z        X      Y      Z        X      Y      Z
     1   8    -0.00   0.00   0.00     0.00  -0.00  -0.00    -0.00  -0.00   0.00
     2   6     0.00  -0.00  -0.00    -0.00   0.00   0.00     0.00   0.00  -0.00
     3   6     0.00  -0.00  -0.00     0.00  -0.01  -0.00    -0.00   0.01   0.00
     4   6    -0.01   0.02   0.05     0.00  -0.00  -0.00     0.01  -0.02  -0.05
     5   6     0.01   0.02  -0.05     0.00   0.00  -0.00     0.01   0.02  -0.05
     6   6    -0.00   0.00  -0.00     0.00   0.00   0.00    -0.00   0.00  -0.00
     7   8     0.00   0.00   0.00    -0.00   0.00   0.00    -0.00  -0.00   0.00
     8   6     0.00   0.00   0.00     0.00  -0.00   0.00    -0.00  -0.00  -0.00
     9   6    -0.00  -0.00   0.00     0.00   0.01  -0.00    -0.00  -0.01   0.00
    10   6    -0.00  -0.00  -0.00    -0.02  -0.03  -0.04     0.00  -0.00   0.00
    11   6     0.00  -0.00   0.00    -0.02   0.03  -0.04     0.00   0.00   0.00
    12   1    -0.02   0.05   0.01    -0.03   0.07   0.01     0.03  -0.08  -0.01
    13   1     0.09  -0.25  -0.64    -0.00   0.00   0.00    -0.09   0.25   0.64
    14   1    -0.09  -0.25   0.64    -0.00  -0.00   0.00    -0.09  -0.25   0.64
    15   1     0.00  -0.04  -0.03     0.00  -0.01  -0.01     0.00  -0.02  -0.02
    16   1     0.03  -0.01   0.04    -0.01   0.00  -0.01     0.05  -0.01   0.05
    17   1    -0.03  -0.01  -0.04    -0.01  -0.00  -0.01     0.05   0.01   0.05
    18   1    -0.00  -0.04   0.03     0.00   0.01  -0.01     0.00   0.02  -0.02
    19   1     0.02   0.05  -0.01    -0.03  -0.07   0.01     0.03   0.08  -0.01
    20   1    -0.03   0.01   0.01    -0.28   0.11   0.10    -0.00   0.00   0.00
    21   1     0.04   0.02   0.03     0.47   0.22   0.35     0.00   0.00   0.00
    22   1    -0.04   0.02  -0.03     0.47  -0.22   0.35     0.00  -0.00   0.00
    23   1     0.03   0.01  -0.01    -0.28  -0.11   0.10    -0.00  -0.00   0.00
                     58                     59                     60
                      A                      A                      A
 Frequencies --   3112.9733              3115.6111              3124.9524
 Red. masses --      1.0922                 1.0937                 1.0996
 Frc consts  --      6.2361                 6.2551                 6.3264
 IR Inten    --     23.0207                20.6295                 6.4146
  Atom  AN      X      Y      Z        X      Y      Z        X      Y      Z
     1   8    -0.00   0.00  -0.00     0.00   0.00   0.00    -0.00  -0.00   0.00
     2   6     0.00  -0.00  -0.00    -0.00  -0.00   0.00    -0.00   0.00  -0.00
     3   6    -0.00   0.00   0.00    -0.00   0.00   0.00    -0.00  -0.00   0.00
     4   6    -0.00   0.00   0.00     0.00   0.00   0.00    -0.00   0.00   0.00
     5   6     0.00   0.00  -0.00     0.00  -0.00   0.00     0.00   0.00  -0.00
     6   6    -0.00  -0.04  -0.04     0.00   0.04   0.04    -0.00  -0.01  -0.01
     7   8     0.00  -0.00   0.00    -0.00  -0.00  -0.00    -0.00  -0.00  -0.00
[...]
 0.04812909,-0.08098371,0.07730248,0.00484916,0.00428206,-0.00747721,0.
 00165695,-0.00062168,-0.00017619,-0.00011547,-0.00303037,0.00100723,0.
 00520943,0.00442920,-0.00907184,-0.00168065,0.00029592,-0.00220898,0.0
 0012393,-0.00011232,-0.00044367,0.00048118,-0.00018054,0.00093723,0.00
 016109,0.00190137,-0.00021143,0.05191398,0.08810594,-0.00126569,0.0000
 9579,0.00047918,0.00246882,-0.00110478,-0.00062569,0.00007626,0.000336
 01,0.00043627,-0.00266826,-0.00186637,0.00267193,0.10449700,0.07787689
 ,-0.21384967,-0.00276653,-0.00014686,0.00092081,-0.00087767,-0.0007371
 8,0.00122425,-0.00029026,-0.00068758,-0.00015115,0.01231734,0.01030973
 ,-0.02251052,-0.00468600,-0.00193361,-0.00367485,0.00008648,-0.0005774
 0,0.00039960,0.00003131,0.00008289,-0.00008300,-0.00017500,0.00021144,
 0.00146703,-0.10756860,-0.08162613,0.23139826,0.00026293,-0.00027042,-
 0.00006775,0.00014819,0.00066887,0.00057652,-0.00001172,0.00067601,0.0
 0025322,-0.00404299,0.00065616,0.00064590,-0.00542942,0.02317052,0.015
 54002,-0.07147661,0.06304177,0.04444728,0.00554117,-0.02052569,-0.0090
 4542,-0.00385257,-0.00154971,0.00105702,0.00205335,-0.00065025,0.00095
 270,-0.00021208,-0.00001961,-0.00044789,-0.00003091,0.00004343,0.00012
 235,-0.00019402,0.00000274,-0.00041814,0.00005020,0.00102467,-0.000072
 21,-0.00163649,0.00041917,0.00019282,0.07341808,-0.00008476,0.00021518
 ,-0.00005954,0.00011240,-0.00049768,0.00006364,-0.00000728,0.00032492,
 -0.00016298,-0.00104232,-0.00052238,-0.00000223,0.00216749,-0.00041557
 ,-0.00269057,0.05593464,-0.20216784,-0.11395687,0.00560267,-0.03125217
 ,-0.01034452,-0.00427849,-0.00218090,0.00160868,-0.00035027,0.00069701
 ,-0.00053067,0.00051285,-0.00001655,-0.00016691,-0.00029633,-0.0001839
 0,-0.00011189,0.00001421,0.00008111,0.00007805,0.00019627,-0.00009445,
 0.00001554,0.00084428,-0.00059807,0.00018162,-0.05931389,0.23193435,0.
 00023394,-0.00015876,-0.00004314,-0.00000530,0.00045137,0.00009131,-0.
 00015707,0.00007884,-0.00003085,-0.00025245,0.00135774,-0.00012585,-0.
 00040064,0.00326141,0.00312690,0.04308477,-0.12368191,-0.14309693,-0.0
 0461123,0.01317369,0.00972246,0.00057030,0.00294746,0.00013455,-0.0000
 4429,-0.00004082,-0.00034145,-0.00074394,0.00055360,-0.00008240,0.0000
 2222,0.00009880,-0.00000263,-0.00002473,-0.00000161,-0.00000804,-0.000
 04415,0.00009380,-0.00000357,0.00002377,-0.00019357,0.00014115,-0.0460
 9586,0.12472755,0.14786165,-0.00088120,0.00086624,0.00054236,-0.000177
 97,-0.00239898,-0.00166984,0.00036533,0.00027630,0.00029252,-0.0005300
 7,-0.00049352,-0.00024271,-0.01144481,0.00274183,-0.02986156,-0.068480
 08,0.01327147,-0.06643105,0.00544112,-0.01148060,0.02243504,-0.0010622
 5,0.00209866,0.00135286,-0.00458932,0.00409792,0.00021316,-0.00034074,
 -0.00017719,0.00093342,-0.00008723,-0.00017775,0.00021292,0.00003310,0
 .00008626,-0.00004899,0.00008910,0.00028755,-0.00009818,0.00084366,-0.
 00064665,-0.00029300,0.00409226,-0.00062924,0.00889808,0.07592268,0.00
 011439,-0.00001470,-0.00006179,0.00004322,0.00003655,0.00015929,0.0000
 8038,0.00028324,-0.00006611,-0.00011861,0.00000811,-0.00061763,0.00402
 716,0.00094036,0.00734214,0.01277152,-0.05890873,0.02549666,-0.0007975
 2,-0.01854961,0.03398591,-0.00198921,0.00472240,0.00465466,0.00082424,
 0.00008284,-0.00091123,-0.00015430,0.00000681,-0.00016320,-0.00037432,
 -0.00014142,0.00007846,-0.00001125,0.00000097,0.00000154,0.00024807,-0
 .00004370,0.00001944,-0.00054477,0.00072046,-0.00048198,-0.00661288,0.
 00613189,-0.02412987,-0.00749675,0.06491119,-0.00039408,0.00009013,-0.
 00001522,0.00021360,-0.00017483,-0.00012370,-0.00002007,-0.00009732,0.
 00000713,-0.00024914,-0.00002506,-0.00010642,0.00057853,-0.00103814,-0
 .00089698,-0.06583242,0.02689415,-0.26864891,0.00680258,0.01628938,-0.
 00958446,0.00178009,-0.00266806,-0.00020166,-0.00001791,0.00049996,0.0
 0095008,0.00032780,0.00000521,0.00025623,0.00007134,0.00000484,-0.0000
 7111,-0.00000707,0.00002488,0.00002448,-0.00026258,0.00012233,-0.00000
 179,-0.00056943,-0.00010240,0.00148376,-0.00618415,0.00138110,-0.01739
 250,0.06500571,-0.04334303,0.29304149,-0.00088119,-0.00086623,0.000542
 36,-0.00017798,0.00239898,-0.00166984,-0.00458931,-0.00409792,0.000213
 16,-0.01144479,-0.00274183,-0.02986156,-0.00053007,0.00049352,-0.00024
 272,-0.00106225,-0.00209867,0.00135287,0.00544109,0.01148059,0.0224349
 9,-0.06848022,-0.01327150,-0.06643105,0.00036533,-0.00027631,0.0002925
 2,-0.00008723,0.00017775,0.00021292,-0.00034074,0.00017719,0.00093342,
 -0.00011559,0.00007623,-0.00010632,0.00084366,0.00064665,-0.00029300,0
 .00008910,-0.00028755,-0.00009818,0.00017398,0.00026119,-0.00012055,0.
 00024288,-0.00001246,-0.00074400,0.07592281,-0.00011439,-0.00001470,0.
 00006179,-0.00004322,0.00003655,-0.00015929,-0.00082423,0.00008285,0.0
 0091123,-0.00402715,0.00094037,-0.00734214,0.00011861,0.00000811,0.000
 61763,0.00198921,0.00472240,-0.00465467,0.00079751,-0.01854960,-0.0339
 8584,-0.01277158,-0.05890873,-0.02549659,-0.00008039,0.00028324,0.0000
 6611,0.00037432,-0.00014142,-0.00007846,0.00015430,0.00000681,0.000163
 20,-0.00019697,0.00003019,-0.00015006,0.00054477,0.00072046,0.00048198
 ,-0.00024807,-0.00004370,-0.00001944,0.00000993,-0.00050213,0.00070097
 ,0.00001245,0.00016402,0.00164921,0.00749679,0.06491117,-0.00039408,-0
 .00009013,-0.00001522,0.00021360,0.00017483,-0.00012370,-0.00001791,-0
 .00049996,0.00095008,0.00057854,0.00103815,-0.00089698,-0.00024914,0.0
 0002506,-0.00010642,0.00178009,0.00266805,-0.00020166,0.00680257,-0.01
 628931,-0.00958442,-0.06583244,-0.02689408,-0.26864843,-0.00002007,0.0
 0009732,0.00000713,0.00007134,-0.00000484,-0.00007111,0.00032780,-0.00
 000521,0.00025623,-0.00002844,0.00004341,-0.00003881,-0.00056942,0.000
 10240,0.00148376,-0.00026258,-0.00012233,-0.00000179,-0.00007796,-0.00
 055042,0.00027624,-0.00074400,-0.00164921,0.00057511,0.06500574,0.0433
 4289,0.29304099,0.00026293,0.00027041,-0.00006775,0.00014819,-0.000668
 86,0.00057652,0.00205336,0.00065025,0.00095270,-0.00542939,-0.02317051
 ,0.01554003,-0.00404300,-0.00065615,0.00064591,-0.00385256,0.00154973,
 0.00105702,0.00554116,0.02052568,-0.00904541,-0.07147692,-0.06304222,0
 .04444760,-0.00001172,-0.00067601,0.00025322,-0.00003091,-0.00004343,0
 .00012235,-0.00021208,0.00001961,-0.00044789,-0.00036978,0.00020192,-0
 .00019241,-0.00163650,-0.00041917,0.00019282,0.00005020,-0.00102467,-0
 .00007221,0.00075200,0.00064585,-0.00021579,0.00017398,-0.00000993,-0.
 00007796,0.00409227,0.00661288,-0.00618415,0.07341834,0.00008476,0.000
 21518,0.00005954,-0.00011240,-0.00049768,-0.00006364,0.00035027,0.0006
 9701,0.00053067,-0.00216746,-0.00041553,0.00269055,0.00104232,-0.00052
 239,0.00000223,0.00427847,-0.00218092,-0.00160868,-0.00560268,-0.03125
 216,0.01034454,-0.05593508,-0.20216786,0.11395706,0.00000728,0.0003249
 2,0.00016297,0.00029633,-0.00018390,0.00011189,-0.00051285,-0.00001655
 ,0.00016691,-0.00023006,-0.00001298,-0.00028694,-0.00084427,-0.0005980
 7,-0.00018162,-0.00019627,-0.00009445,-0.00001554,-0.00064585,-0.00116
 984,0.00055736,-0.00026119,-0.00050213,0.00055042,0.00062925,0.0061318
 9,-0.00138110,0.05931432,0.23193434,0.00023394,0.00015876,-0.00004314,
 -0.00000530,-0.00045137,0.00009131,-0.00004428,0.00004082,-0.00034145,
 -0.00040064,-0.00326144,0.00312692,-0.00025246,-0.00135775,-0.00012585
 ,0.00057031,-0.00294745,0.00013455,-0.00461121,-0.01317370,0.00972242,
 0.04308506,0.12368212,-0.14309703,-0.00015707,-0.00007885,-0.00003085,
 0.00002222,-0.00009880,-0.00000263,-0.00074394,-0.00055359,-0.00008240
 ,0.00019674,-0.00001697,0.00019004,0.00002377,0.00019357,0.00014115,-0
 .00004415,-0.00009380,-0.00000357,-0.00021579,-0.00055735,0.00037364,-
 0.00012055,-0.00070097,0.00027624,0.00889810,0.02412986,-0.01739252,-0
 .04609621,-0.12472773,0.14786180,0.00124014,-0.00390685,-0.00000719,0.
 01305742,0.02047760,0.00026960,-0.00198950,0.00513814,0.00009980,-0.00
 090459,0.00100744,-0.00286845,-0.00579327,-0.01439486,0.00099928,0.000
 75292,-0.00087914,-0.00037614,-0.00008769,0.00023099,0.00009016,0.0002
 0935,-0.00039288,0.00020775,-0.09411830,-0.10513514,-0.00042942,-0.004
 94284,-0.01532949,-0.00172629,-0.00135504,0.00081524,0.00304691,0.0010
 7994,0.00084015,0.00000678,-0.00010756,-0.00048118,0.00003131,0.000827
 80,0.00084629,0.00027087,-0.00036978,0.00023006,0.00019674,-0.00011559
 ,0.00019697,-0.00002844,0.00003310,0.00001125,-0.00000707,-0.00019402,
 -0.00001421,-0.00002473,0.09226106,0.00122014,0.00362710,0.00001102,-0
 .01422615,-0.01613569,-0.00018542,0.00137489,-0.00424890,-0.00000594,0
 .00044571,-0.00042217,0.00051238,0.00083670,-0.00108952,0.00096963,-0.
 00018497,-0.00006840,-0.00010750,-0.00006571,0.00034835,-0.00008311,0.
 00031825,-0.00006163,-0.00009599,-0.10028910,-0.27992647,-0.00163714,0
 .00053518,-0.00101864,-0.00063833,0.00040262,-0.00024866,-0.00052555,-
 0.00084015,-0.00068578,-0.00002325,-0.00010460,-0.00018054,-0.00008289
 ,0.00000933,0.00037453,-0.00059158,-0.00020192,-0.00001298,0.00001697,
 -0.00007623,0.00003019,-0.00004341,-0.00008626,0.00000097,-0.00002488,
 -0.00000274,0.00008111,0.00000161,0.11109244,0.29947313,-0.00004361,-0
 .00004803,-0.00069816,0.00027893,0.00026125,-0.00156260,0.00005221,0.0
 0011103,-0.00106889,-0.00258334,-0.00179616,-0.00367987,-0.00812321,-0
 .02376298,0.00094567,0.00102237,-0.00056611,-0.00042722,-0.00022571,0.
 00015748,0.00041331,0.00069598,-0.00094159,0.00002535,-0.00052901,-0.0
 0119786,-0.04835032,0.00658662,0.02316940,0.00195565,0.00298787,0.0016
 6544,-0.00322855,0.00000678,0.00002325,0.00037344,-0.00014925,-0.00093
 723,-0.00008300,0.00063798,0.00034894,0.00120539,-0.00019241,0.0002869
 4,0.00019004,-0.00010632,0.00015006,-0.00003881,-0.00004899,-0.0000015
 4,0.00002448,-0.00041814,-0.00007805,-0.00000804,0.00063600,0.00156866
 ,0.05312027,-0.00064833,0.00125810,-0.00033824,-0.00107357,-0.00381054
 ,0.00245619,0.00048141,-0.00045650,-0.00092117,-0.00003989,0.00008063,
 0.00000935,0.00011131,-0.00062475,-0.00192848,0.00002913,0.00074940,-0
 .00038777,-0.00010480,-0.00050280,-0.00127706,-0.00029546,0.00017578,0
 .00011903,-0.01348552,0.00616024,0.00235191,-0.28414539,0.09430559,-0.
 00938089,0.00372087,-0.00179292,-0.00028162,0.00012850,-0.00002130,-0.
 00011766,0.00001179,-0.00001811,0.00000892,-0.00000264,-0.00007729,-0.
 00008827,0.00041314,-0.00033956,-0.00040030,0.00025055,-0.00029909,-0.
 00010705,0.00008686,-0.00006720,-0.00000114,0.00001765,-0.00005512,-0.
 00003775,-0.00047403,-0.00009237,0.00039800,0.30637895,-0.00081246,0.0
 0090964,-0.00030042,0.00021282,-0.00281545,0.00169922,0.00020454,-0.00
 342571,0.00080477,0.00020947,-0.00022037,0.00000031,0.00132529,0.00025
 539,-0.00052991,0.00024658,0.00164760,-0.00010022,-0.00039550,0.000117
 95,0.00116224,0.00055856,-0.00089502,-0.00027513,-0.01047075,0.0050855
 4,-0.00063492,0.09078847,-0.08120066,0.00254200,0.02747186,-0.01185630
 ,0.00162760,0.00060310,0.00005913,-0.00111323,-0.00013476,0.00007262,-
 0.00011614,-0.00020867,-0.00009807,-0.00020588,0.00032354,-0.00012462,
 0.00035529,-0.00012636,-0.00025143,0.00004398,-0.00018044,0.00019232,0
 .00013718,0.00001901,0.00005271,0.00000768,0.00008883,-0.00007649,-0.0
 0022420,-0.09899898,0.08976237,0.00174876,-0.00201941,0.00134249,0.002
 20395,0.00493363,-0.00517518,-0.00058303,-0.00090979,0.00038379,0.0000
 5166,-0.00016384,0.00016692,-0.00052844,-0.00038875,0.00206835,0.00033
 225,-0.00052923,-0.00231854,-0.00085548,0.00019361,0.00003630,0.000528
 06,-0.00070184,-0.00022373,0.02615911,-0.01210604,-0.00108915,-0.01135
 578,0.00324066,-0.04917212,-0.00065612,-0.00007874,-0.00142446,-0.0000
 1625,-0.00009058,-0.00015274,-0.00004242,0.00005605,-0.00001121,-0.000
 02160,0.00025391,0.00050671,-0.00078064,0.00081331,-0.00094341,-0.0000
 8716,0.00033408,0.00035913,-0.00013351,0.00012373,0.00011957,-0.000048
 12,0.00008839,-0.00000310,-0.00004160,0.00024141,0.00001395,0.01034697
 ,-0.00450874,0.05399212,-0.00011254,-0.00030679,-0.00023980,0.00137595
 ,-0.00016695,0.00047005,-0.00014818,0.00078064,0.00005849,-0.00001172,
 -0.00019773,-0.00008787,-0.00281514,-0.00073411,0.00252760,-0.00038386
 ,-0.00043186,0.00039398,-0.00005692,-0.00025667,-0.00116923,-0.0003369
 0,0.00055141,0.00013269,0.00870999,0.00700695,0.01653263,-0.10810357,-
 0.04141417,-0.09979860,-0.00060630,0.00148982,0.00093988,-0.00008489,0
 .00008524,0.00010608,-0.00000042,-0.00000161,-0.00006488,0.00059185,0.
 00024712,0.00096474,0.00027234,-0.00025943,0.00011063,0.00009546,-0.00
 006591,-0.00017132,0.00007226,-0.00011385,-0.00011292,0.00006132,-0.00
 002455,0.00001361,0.00094686,-0.00000113,-0.00087118,-0.01309823,-0.01
 137029,-0.02634347,0.11175933,0.00077274,0.00027093,0.00029014,-0.0010
 4545,-0.00089498,-0.00073977,-0.00014951,-0.00345880,0.00087015,0.0000
 0948,-0.00008095,0.00049854,-0.00143511,0.00025634,0.00222878,-0.00034
 759,-0.00025201,-0.00007175,-0.00011081,0.00032935,0.00006835,0.000109
 82,-0.00026136,0.00005446,0.00537564,0.00360159,0.00850929,-0.04148728
 ,-0.07993807,-0.07784734,-0.01382043,-0.01235955,-0.02399869,0.0005517
 9,-0.00016933,-0.00090557,-0.00000714,0.00010585,-0.00007613,0.0001929
 6,0.00026106,0.00070768,-0.00010272,0.00014505,-0.00015729,-0.00000402
 ,0.00007992,0.00000600,-0.00004934,0.00010045,-0.00006782,0.00012485,0
 .00015688,0.00000337,0.00071325,0.00035069,-0.00020752,0.00488898,0.00
 481933,0.01042046,0.04559384,0.08900582,0.00122648,0.00000305,0.000384
 44,-0.00242916,0.00076054,-0.00043132,0.00000141,-0.00025865,0.0001212
 7,-0.00011911,0.00046042,0.00039073,0.00457048,0.00192980,-0.00336491,
 0.00074258,0.00006968,0.00039250,-0.00017114,-0.00017690,0.00004792,0.
 00009372,0.00008054,0.00009003,-0.01171874,-0.00939438,-0.02182604,-0.
 09902942,-0.07731733,-0.22389304,0.00207797,0.00194874,0.00318280,-0.0
 0006045,-0.00007624,-0.00009059,0.00004536,-0.00005505,0.00005816,-0.0
 0083315,-0.00067214,-0.00148104,-0.00005800,0.00001144,0.00015929,-0.0
 0007520,0.00000668,-0.00001173,0.00002599,-0.00001983,0.00000009,-0.00
 008348,-0.00005448,-0.00000335,-0.00026917,0.00055649,0.00112126,-0.00
 094572,0.00027765,0.00017764,0.10613175,0.08124162,0.24316958,-0.00011
 253,0.00030679,-0.00023980,0.00137595,0.00016694,0.00047005,0.00870999
 ,-0.00700692,0.01653262,-0.00281513,0.00073411,0.00252760,-0.00001172,
 0.00019773,-0.00008786,-0.00033690,-0.00055141,0.00013269,-0.00005692,
 0.00025667,-0.00116923,-0.00038386,0.00043185,0.00039398,-0.00014818,-
 0.00078064,0.00005849,-0.00060630,-0.00148981,0.00093988,-0.10810364,0
 .04141404,-0.09979834,0.00094686,0.00000112,-0.00087117,0.00059185,-0.
 00024712,0.00096474,-0.00000042,0.00000161,-0.00006488,0.00006132,0.00
 002456,0.00001361,0.00007226,0.00011385,-0.00011292,0.00009546,0.00006
 591,-0.00017132,0.00027234,0.00025942,0.00011063,-0.00008489,-0.000085
 24,0.00010608,0.00030847,0.00053285,0.00018424,0.00156484,-0.00012287,
 0.00029290,0.11175941,-0.00077274,0.00027093,-0.00029014,0.00104545,-0
 .00089497,0.00073978,-0.00537563,0.00360158,-0.00850928,0.00143510,0.0
 0025634,-0.00222878,-0.00000948,-0.00008095,-0.00049854,-0.00010982,-0
 .00026136,-0.00005446,0.00011081,0.00032935,-0.00006835,0.00034759,-0.
 00025201,0.00007175,0.00014951,-0.00345880,-0.00087015,0.01382045,-0.0
 1235954,0.02399867,0.04148714,-0.07993800,0.07784698,-0.00071325,0.000
 35070,0.00020751,-0.00019296,0.00026106,-0.00070768,0.00000714,0.00010
 585,0.00007613,-0.00012485,0.00015688,-0.00000337,0.00004934,0.0001004
 5,0.00006782,0.00000402,0.00007992,-0.00000600,0.00010272,0.00014504,0
 .00015729,-0.00055179,-0.00016933,0.00090557,-0.00034889,-0.00383507,0
 .00081086,0.00012287,0.00176687,0.00001609,-0.04559373,0.08900576,0.00
 122648,-0.00000305,0.00038444,-0.00242916,-0.00076053,-0.00043132,-0.0
 1171875,0.00939437,-0.02182607,0.00457048,-0.00192980,-0.00336491,-0.0
 0011911,-0.00046042,0.00039073,0.00009372,-0.00008054,0.00009003,-0.00
 017114,0.00017690,0.00004792,0.00074258,-0.00006968,0.00039250,0.00000
 142,0.00025866,0.00012127,0.00207797,-0.00194873,0.00318279,-0.0990291
 5,0.07731696,-0.22389230,-0.00026917,-0.00055649,0.00112126,-0.0008331
 5,0.00067214,-0.00148104,0.00004536,0.00005505,0.00005816,-0.00008348,
 0.00005448,-0.00000335,0.00002599,0.00001983,0.00000009,-0.00007520,-0
 .00000668,-0.00001173,-0.00005800,-0.00001144,0.00015929,-0.00006045,0
 .00007624,-0.00009059,0.00058410,-0.00066227,0.00005095,0.00029290,-0.
 00001609,0.00175536,0.10613148,-0.08124126,0.24316888,-0.00064833,-0.0
 0125809,-0.00033824,-0.00107357,0.00381054,0.00245618,-0.01348548,-0.0
 0616023,0.00235190,0.00011131,0.00062475,-0.00192847,-0.00003989,-0.00
 008063,0.00000935,-0.00029546,-0.00017578,0.00011903,-0.00010480,0.000
 50281,-0.00127706,0.00002913,-0.00074940,-0.00038776,0.00048141,0.0004
 5650,-0.00092117,0.00372087,0.00179292,-0.00028162,-0.28414547,-0.0943
 0563,-0.00938065,-0.00047403,0.00009237,0.00039800,-0.00000264,0.00007
 729,-0.00008827,0.00001179,0.00001811,0.00000892,0.00001765,0.00005512
 ,-0.00003775,0.00008686,0.00006720,-0.00000114,0.00025055,0.00029909,-
 0.00010705,0.00041314,0.00033956,-0.00040030,0.00012850,0.00002130,-0.
 00011766,0.00142922,0.00011329,-0.00006137,0.00030847,0.00034889,0.000
 58410,-0.01309824,-0.00488898,-0.00094572,0.30637900,0.00081246,0.0009
 0964,0.00030042,-0.00021282,-0.00281546,-0.00169922,0.01047076,0.00508
 554,0.00063493,-0.00132529,0.00025539,0.00052991,-0.00020947,-0.000220
 37,-0.00000031,-0.00055856,-0.00089502,0.00027513,0.00039550,0.0001179
 6,-0.00116224,-0.00024658,0.00164759,0.00010022,-0.00020454,-0.0034257
 1,-0.00080478,-0.02747186,-0.01185630,-0.00162758,-0.09078852,-0.08120
 067,-0.00254193,-0.00008883,-0.00007649,0.00022420,0.00020867,-0.00009
 807,0.00020588,0.00013476,0.00007262,0.00011614,-0.00001901,0.00005271
 ,-0.00000768,0.00018044,0.00019232,-0.00013718,0.00012636,-0.00025143,
 -0.00004398,-0.00032354,-0.00012462,-0.00035529,-0.00060310,0.00005913
 ,0.00111323,-0.00011329,0.00182459,-0.00001313,-0.00053285,-0.00383506
 ,0.00066227,0.01137028,0.00481933,-0.00027766,0.09899902,0.08976238,0.
 00174876,0.00201941,0.00134249,0.00220395,-0.00493364,-0.00517518,0.02
 615909,0.01210605,-0.00108914,-0.00052844,0.00038875,0.00206835,0.0000
 5166,0.00016384,0.00016692,0.00052806,0.00070185,-0.00022373,-0.000855
 49,-0.00019361,0.00003631,0.00033225,0.00052922,-0.00231854,-0.0005830
 3,0.00090979,0.00038379,-0.00065612,0.00007874,-0.00142446,-0.01135555
 ,-0.00324059,-0.04917210,-0.00004160,-0.00024141,0.00001395,-0.0000216
 0,-0.00025391,0.00050671,-0.00004242,-0.00005605,-0.00001121,-0.000048
 12,-0.00008839,-0.00000310,-0.00013351,-0.00012373,0.00011957,-0.00008
 716,-0.00033408,0.00035913,-0.00078064,-0.00081330,-0.00094341,-0.0000
 1625,0.00009058,-0.00015274,-0.00006137,0.00001313,0.00129573,0.000184
 24,-0.00081085,0.00005095,-0.02634345,-0.01042045,0.00017765,0.0103467
 4,0.00450866,0.05399206\\0.00001746,0.00000002,0.00000979,0.00008505,-
 0.00000006,-0.00006362,-0.00000615,-0.00000336,0.00004980,-0.00001279,
 0.00005797,0.00003854,-0.00001256,-0.00005832,0.00003870,-0.00007382,0
 .00004280,-0.00000652,0.00005452,0.00000042,-0.00002962,-0.00007291,-0
 .00004322,-0.00000646,-0.00000597,0.00000376,0.00004990,0.00000111,0.0
 0003021,0.00002859,0.00000089,-0.00003017,0.00002832,-0.00000277,0.000
 01192,-0.00001904,-0.00001067,-0.00000222,0.00000984,-0.00001056,0.000
 00238,0.00000970,0.00001692,-0.00000463,-0.00001565,0.00001082,0.00000
 860,-0.00000088,0.00001071,-0.00000866,-0.00000103,0.00001680,0.000004
 77,-0.00001575,-0.00000292,-0.00001213,-0.00001909,0.00000301,0.000003
 06,-0.00000627,-0.00000466,-0.00001363,-0.00003661,-0.00000451,0.00001
 353,-0.00003641,0.00000301,-0.00000303,-0.00000622\\\@


 IF YOU GIVE A BOY AND A PIG EVERYTHING THEY WANT,
 YOU'LL GET A BAD BOY AND A GOOD PIG.
 Job cpu time:       0 days  0 hours  2 minutes 12.5 seconds.
 Elapsed time:       0 days  0 hours 51 minutes 55.8 seconds.
 File lengths (MBytes):  RWF=    105 Int=      0 D2E=      0 Chk=      5 Scr=      1
 Normal termination of Gaussian 16 at Thu Feb 22 04:07:11 2024.
