 Entering Gaussian System, Link 0=g16
 Input=/Volumes/SSD-PMU3/b3lyp_6-31gd_freq/HHDQRTZHKICZGV-XWLWVQCSSA-N_calculating/gaussianinput0.gjf
 Output=/Volumes/SSD-PMU3/b3lyp_6-31gd_freq/HHDQRTZHKICZGV-XWLWVQCSSA-N_calculating/gaussianinput0.log
 Initial command:
 /Applications/g16/l1.exe "/Users/macmini_m1_2022/PycharmProjects/sphere_model/sphere_model_lib/Gau-80502.inp" -scrdir="/Users/macmini_m1_2022/PycharmProjects/sphere_model/sphere_model_lib/"
 Entering Link 1 = /Applications/g16/l1.exe PID=     80503.
  
 Copyright (c) 1988,1990,1992,1993,1995,1998,2003,2009,2016,
            Gaussian, Inc.  All Rights Reserved.
  
 This is part of the Gaussian(R) 16 program.  It is based on
 the Gaussian(R) 09 system (copyright 2009, Gaussian, Inc.),
 the Gaussian(R) 03 system (copyright 2003, Gaussian, Inc.),
 the Gaussian(R) 98 system (copyright 1998, Gaussian, Inc.),
 the Gaussian(R) 94 system (copyright 1995, Gaussian, Inc.),
 the Gaussian 92(TM) system (copyright 1992, Gaussian, Inc.),
 the Gaussian 90(TM) system (copyright 1990, Gaussian, Inc.),
 the Gaussian 88(TM) system (copyright 1988, Gaussian, Inc.),
 the Gaussian 86(TM) system (copyright 1986, Carnegie Mellon
 University), and the Gaussian 82(TM) system (copyright 1983,
 Carnegie Mellon University). Gaussian is a federally registered
 trademark of Gaussian, Inc.
  
 This software contains proprietary and confidential information,
 including trade secrets, belonging to Gaussian, Inc.
  
 This software is provided under written license and may be
 used, copied, transmitted, or stored only in accord with that
 written license.
  
 The following legend is applicable only to US Government
 contracts under FAR:
  
                    RESTRICTED RIGHTS LEGEND
  
 Use, reproduction and disclosure by the US Government is
 subject to restrictions as set forth in subparagraphs (a)
 and (c) of the Commercial Computer Software - Restricted
 Rights clause in FAR 52.227-19.
  
 Gaussian, Inc.
 340 Quinnipiac St., Bldg. 40, Wallingford CT 06492
  
  
 ---------------------------------------------------------------
 Warning -- This program may not be used in any manner that
 competes with the business of Gaussian, Inc. or will provide
 assistance to any competitor of Gaussian, Inc.  The licensee
 of this program is prohibited from giving any competitor of
 Gaussian, Inc. access to this program.  By using this program,
 the user acknowledges that Gaussian, Inc. is engaged in the
 business of creating and licensing software in the field of
 computational chemistry and represents and warrants to the
 licensee that it is not a competitor of Gaussian, Inc. and that
 it will not use this program in any manner prohibited above.
 ---------------------------------------------------------------
  

 Cite this work as:
 Gaussian 16, Revision A.03,
 M. J. Frisch, G. W. Trucks, H. B. Schlegel, G. E. Scuseria, 
 M. A. Robb, J. R. Cheeseman, G. Scalmani, V. Barone, 
 G. A. Petersson, H. Nakatsuji, X. Li, M. Caricato, A. V. Marenich, 
 J. Bloino, B. G. Janesko, R. Gomperts, B. Mennucci, H. P. Hratchian, 
 J. V. Ortiz, A. F. Izmaylov, J. L. Sonnenberg, D. Williams-Young, 
 F. Ding, F. Lipparini, F. Egidi, J. Goings, B. Peng, A. Petrone, 
 T. Henderson, D. Ranasinghe, V. G. Zakrzewski, J. Gao, N. Rega, 
 G. Zheng, W. Liang, M. Hada, M. Ehara, K. Toyota, R. Fukuda, 
 J. Hasegawa, M. Ishida, T. Nakajima, Y. Honda, O. Kitao, H. Nakai, 
 T. Vreven, K. Throssell, J. A. Montgomery, Jr., J. E. Peralta, 
 F. Ogliaro, M. J. Bearpark, J. J. Heyd, E. N. Brothers, K. N. Kudin, 
 V. N. Staroverov, T. A. Keith, R. Kobayashi, J. Normand, 
 K. Raghavachari, A. P. Rendell, J. C. Burant, S. S. Iyengar, 
 J. Tomasi, M. Cossi, J. M. Millam, M. Klene, C. Adamo, R. Cammi, 
 J. W. Ochterski, R. L. Martin, K. Morokuma, O. Farkas, 
 J. B. Foresman, and D. J. Fox, Gaussian, Inc., Wallingford CT, 2016.
 
 ******************************************
 Gaussian 16:  EM64M-G16RevA.03 25-Dec-2016
                24-Feb-2024 
 ******************************************
 %nprocshared=10
 Will use up to   10 processors via shared memory.
 %mem=12GB
 %chk= 0.chk
 ---------------------
 # freq b3lyp/6-31g(d)
 ---------------------
 1/10=4,30=1,38=1/1,3;
 2/12=2,17=6,18=5,40=1/2;
 3/5=1,6=6,7=1,11=2,25=1,30=1,71=2,74=-5,140=1/1,2,3;
 4//1;
 5/5=2,38=5,98=1/2;
 8/6=4,10=90,11=11/1;
 11/6=1,8=1,9=11,15=111,16=1/1,2,10;
 10/6=1/2;
 6/7=2,8=2,9=2,10=2,28=1/1;
 7/8=1,10=1,25=1/1,2,3,16;
 1/10=4,30=1/3;
 99//99;
 ---------
 good luck
 ---------
 Symbolic Z-matrix:
 Charge =  0 Multiplicity = 1
 O                     1.21519   0.        0. 
 C                     0.        0.        0. 
 C                    -0.84567  -1.2773   -0.00254 
 C                    -2.33277  -0.9032    0.14682 
 C                    -2.49546  -0.08785   1.45721 
 C                    -3.96096   0.05064   1.87528 
 O                    -4.00535   0.45689   3.23905 
 C                    -5.32442   0.58262   3.72402 
 C                    -1.66986   1.2525    1.33616 
 C                    -2.41694   2.56722   1.58972 
 O                    -3.42094   2.82265   0.61329 
 C                    -4.10102   4.03779   0.84959 
 C                    -0.86921   1.24983  -0.00254 
 C                    -1.79489   1.14282  -1.24186 
 C                    -2.75855  -0.06579  -1.07789 
 H                    -0.49886  -1.93081   0.80791 
 H                    -0.65789  -1.81698  -0.94107 
 H                    -2.93971  -1.81519   0.21003 
 H                    -2.03693  -0.68157   2.25946 
 H                    -4.49969   0.7741    1.24971 
 H                    -4.45936  -0.92909   1.76951 
 H                    -5.8973    1.34121   3.16606 
 H                    -5.25727   0.88753   4.7719 
 H                    -5.87204  -0.37224   3.6649 
 H                    -0.92217   1.24169   2.14093 
 H                    -2.87392   2.53216   2.5886 
 H                    -1.68247   3.3913    1.58177 
 H                    -3.41488   4.89927   0.8172 
 H                    -4.60692   4.03746   1.82834 
 H                    -4.84959   4.15003   0.06088 
 H                    -0.22336   2.1318   -0.06163 
 H                    -2.35385   2.07205  -1.3546 
 H                    -1.17159   1.02485  -2.13685 
 H                    -3.78881   0.28403  -0.95396 
 H                    -2.74652  -0.69655  -1.97502 
 

 GradGradGradGradGradGradGradGradGradGradGradGradGradGradGradGradGradGrad
 Berny optimization.
 Initialization pass.
 Trust Radius=3.00D-01 FncErr=1.00D-07 GrdErr=1.00D-07 EigMax=2.50D+02 EigMin=1.00D-04
 Number of steps in this run=      2 maximum allowed number of steps=      2.
 GradGradGradGradGradGradGradGradGradGradGradGradGradGradGradGradGradGrad

                          Input orientation:                          
 ---------------------------------------------------------------------
 Center     Atomic      Atomic             Coordinates (Angstroms)
 Number     Number       Type             X           Y           Z
 ---------------------------------------------------------------------
      1          8           0        1.215193    0.000000    0.000000
      2          6           0        0.000000    0.000000    0.000000
      3          6           0       -0.845665   -1.277297   -0.002543
      4          6           0       -2.332766   -0.903204    0.146823
      5          6           0       -2.495464   -0.087845    1.457214
      6          6           0       -3.960955    0.050642    1.875279
      7          8           0       -4.005348    0.456887    3.239049
      8          6           0       -5.324422    0.582622    3.724023
      9          6           0       -1.669861    1.252496    1.336161
     10          6           0       -2.416940    2.567218    1.589717
     11          8           0       -3.420941    2.822653    0.613293
     12          6           0       -4.101023    4.037787    0.849588
     13          6           0       -0.869213    1.249832   -0.002543
     14          6           0       -1.794894    1.142815   -1.241857
     15          6           0       -2.758545   -0.065788   -1.077892
     16          1           0       -0.498860   -1.930814    0.807908
     17          1           0       -0.657885   -1.816980   -0.941070
     18          1           0       -2.939706   -1.815190    0.210028
     19          1           0       -2.036930   -0.681574    2.259463
     20          1           0       -4.499689    0.774104    1.249712
     21          1           0       -4.459362   -0.929094    1.769510
     22          1           0       -5.897297    1.341206    3.166055
     23          1           0       -5.257274    0.887528    4.771901
     24          1           0       -5.872038   -0.372242    3.664895
     25          1           0       -0.922174    1.241689    2.140933
     26          1           0       -2.873918    2.532164    2.588601
     27          1           0       -1.682474    3.391299    1.581767
     28          1           0       -3.414885    4.899272    0.817202
     29          1           0       -4.606917    4.037458    1.828343
     30          1           0       -4.849592    4.150029    0.060881
     31          1           0       -0.223361    2.131800   -0.061625
     32          1           0       -2.353849    2.072050   -1.354596
     33          1           0       -1.171592    1.024848   -2.136853
     34          1           0       -3.788806    0.284028   -0.953963
     35          1           0       -2.746522   -0.696548   -1.975016
 ---------------------------------------------------------------------
                    Distance matrix (angstroms):
                    1          2          3          4          5
     1  O    0.000000
     2  C    1.215193   0.000000
     3  C    2.424589   1.531876   0.000000
     4  C    3.664062   2.505820   1.540690   0.000000
     5  C    3.987501   2.891112   2.503502   1.551904   0.000000
     6  C    5.505610   4.382739   3.872295   2.558981   1.530236
     7  O    6.160701   5.171363   4.847567   3.769515   2.398212
     8  C    7.548136   6.523593   6.116033   4.894287   3.686591
     9  C    3.417252   2.478408   2.978469   2.549708   1.578857
    10  C    4.723367   3.867739   4.447976   3.759369   2.659527
    11  O    5.462347   4.477313   4.880665   3.909441   3.168550
    12  C    6.729612   5.817552   6.290755   5.294715   4.468542
    13  C    2.430398   1.522372   2.527239   2.607654   2.562218
    14  C    3.450921   2.463713   2.879909   2.530599   3.048000
    15  C    4.117860   2.962389   2.506639   1.543528   2.548816
    16  H    2.705316   2.151655   1.097355   2.203685   2.793664
    17  H    2.774067   2.149382   1.098796   2.196298   3.481145
    18  H    4.538966   3.461343   2.172446   1.097310   2.176360
    19  H    4.018211   3.117499   2.625008   2.144735   1.098349
    20  H    5.900923   4.733732   4.373589   2.953859   2.191559
    21  H    6.016224   4.886746   4.039830   2.675106   2.159195
    22  H    7.900016   6.826482   6.512723   5.182569   4.066300
    23  H    8.090215   7.155255   6.851575   5.757674   4.423358
    24  H    7.987419   6.931872   6.287579   5.018486   4.044254
    25  H    3.270126   2.641172   3.308419   3.250663   2.170340
    26  H    5.462009   4.622998   5.033868   4.249339   2.878839
    27  H    4.732797   4.102879   5.000608   4.574352   3.575040
    28  H    6.790310   6.027614   6.739650   5.940464   5.111388
    29  H    7.317163   6.392776   6.763563   5.692927   4.649096
    30  H    7.349018   6.383180   6.744725   5.645969   5.044922
    31  H    2.572510   2.144355   3.465934   3.701930   3.520816
    32  H    4.343545   3.415981   3.914178   3.332693   3.548447
    33  H    3.363510   2.643687   3.156165   3.206382   3.988488
    34  H    5.102031   3.917368   3.464825   2.177453   2.761304
    35  H    4.481189   3.453875   2.800210   2.171659   3.494818
                    6          7          8          9         10
     6  C    0.000000
     7  O    1.423683   0.000000
     8  C    2.357944   1.411016   0.000000
     9  C    2.642766   3.115843   4.416609   0.000000
    10  C    2.966257   3.113974   4.116714   1.533268   0.000000
    11  O    3.093262   3.582314   4.279909   2.460531   1.423611
    12  C    4.119343   4.305987   4.658030   3.728961   2.355101
    13  C    3.810924   4.579522   5.846482   1.559863   2.581909
    14  C    3.949835   5.043325   6.118116   2.583378   3.230120
    15  C    3.190700   4.523681   5.482932   2.958168   3.763715
    16  H    4.129352   4.889481   6.173098   3.432748   4.952025
    17  H    4.725474   5.818022   7.021236   3.953677   5.359137
    18  H    2.701359   3.933560   4.876939   3.505906   4.624103
    19  H    2.094185   2.475955   3.814542   2.174363   3.338805
    20  H    1.097709   2.074238   2.615161   2.871282   2.769243
    21  H    1.104300   2.070415   2.617964   3.567694   4.053148
    22  H    2.661030   2.089694   1.102254   4.607342   4.012584
    23  H    3.281957   2.025440   1.093401   4.980667   4.584228
    24  H    2.652130   2.086464   1.102336   5.071594   4.988436
    25  H    3.274653   3.365670   4.724440   1.098549   2.072484
    26  H    2.801505   2.451528   3.330896   2.157756   1.099012
    27  H    4.054333   4.093055   5.073629   2.152896   1.103908
    28  H    4.992688   5.093994   5.543411   4.075954   2.651631
    29  H    4.039081   3.895185   4.005535   4.077322   2.648499
    30  H    4.570196   4.944977   5.135218   4.486951   3.280309
    31  H    4.696001   5.291806   6.538494   2.195300   2.779983
    32  H    4.135332   5.141768   6.069190   2.894768   2.986327
    33  H    4.982653   6.103530   7.196626   3.515952   4.221033
    34  H    2.844067   4.202157   4.932629   3.266883   3.683107
    35  H    4.105839   5.486486   6.384426   3.990221   4.844390
                   11         12         13         14         15
    11  O    0.000000
    12  C    1.412408   0.000000
    13  C    3.060120   4.352403   0.000000
    14  C    2.984538   4.251263   1.550560   0.000000
    15  C    3.412033   4.728293   2.541025   1.554422   0.000000
    16  H    5.583178   6.971479   3.303105   3.915155   3.484356
    17  H    5.619316   7.024240   3.214161   3.184910   2.738278
    18  H    4.680149   6.001253   3.704927   3.488317   2.179900
    19  H    4.111565   5.340468   3.195397   3.955530   3.469562
    20  H    2.401100   3.312199   3.869731   3.695914   3.025680
    21  H    4.060882   5.064047   4.558186   4.523331   3.427211
    22  H    3.852742   3.982985   5.943904   6.024845   5.462827
    23  H    4.940734   5.161936   6.494741   6.943957   6.432149
    24  H    5.052475   5.523659   6.411668   6.557036   5.681706
    25  H    3.328208   4.426151   2.144146   3.494951   3.929706
    26  H    2.070135   2.607078   3.518131   4.215091   4.495090
    27  H    2.069678   2.608335   2.785195   3.611256   4.492568
    28  H    2.086615   1.101812   4.524471   4.579854   5.354809
    29  H    2.087735   1.101767   5.009335   5.070755   5.357174
    30  H    2.026852   1.093166   4.925300   4.480139   4.841735
    31  H    3.340256   4.415808   1.094753   2.200172   3.505617
    32  H    2.361075   3.431496   2.169846   1.090238   2.193330
    33  H    3.981831   5.155405   2.167332   1.097014   2.197568
    34  H    3.006033   4.176240   3.219006   2.189996   1.095065
    35  H    4.420290   5.676882   3.347138   2.196901   1.096738
                   16         17         18         19         20
    16  H    0.000000
    17  H    1.759878   0.000000
    18  H    2.515663   2.555726   0.000000
    19  H    2.456272   3.665286   2.510035   0.000000
    20  H    4.849578   5.125690   3.196707   3.033773   0.000000
    21  H    4.196868   4.752559   2.350852   2.483847   1.781207
    22  H    6.738701   7.368450   5.239110   4.451515   2.438705
    23  H    6.804322   7.817083   5.786751   4.375505   3.604527
    24  H    6.281924   7.105602   4.755710   4.096215   3.005089
    25  H    3.467121   4.350178   4.140452   2.226134   3.716386
    26  H    5.360032   6.023656   4.955948   3.337213   2.743452
    27  H    5.506786   5.877130   5.528999   4.144057   3.859621
    28  H    7.426531   7.469981   6.758584   5.926611   4.287292
    29  H    7.316945   7.585443   6.296985   5.390729   3.315990
    30  H    7.514225   7.360673   6.265281   6.007430   3.596195
    31  H    4.163751   4.068796   4.799068   4.073273   4.674390
    32  H    4.913281   4.262846   4.231065   4.554592   3.615482
    33  H    4.226124   3.125664   4.086550   4.794610   4.754779
    34  H    4.339753   3.770553   2.546088   3.785177   2.366794
    35  H    3.784186   2.585888   2.462336   4.293548   3.954148
                   21         22         23         24         25
    21  H    0.000000
    22  H    3.028573   0.000000
    23  H    3.598768   1.787231   0.000000
    24  H    2.428626   1.784764   1.786174   0.000000
    25  H    4.166768   5.080613   5.083357   5.424794   0.000000
    26  H    3.894207   3.300402   3.626570   4.310766   2.382234
    27  H    5.139275   4.947482   5.406017   6.004674   2.347668
    28  H    5.997305   4.933489   5.926899   6.475787   4.619933
    29  H    4.969092   3.274802   4.359995   4.941549   4.635878
    30  H    5.373005   4.316165   5.744896   5.872414   5.311278
    31  H    5.537674   6.575447   7.088827   7.215589   2.476267
    32  H    4.816647   5.790202   6.882364   6.599054   3.867546
    33  H    5.466900   7.110078   8.027611   7.596468   4.290534
    34  H    3.055915   4.747411   5.941896   5.109246   4.325861
    35  H    4.124242   6.364781   7.371164   6.456208   4.901637
                   26         27         28         29         30
    26  H    0.000000
    27  H    1.780833   0.000000
    28  H    3.005611   2.420700   0.000000
    29  H    2.418096   3.005110   1.784957   0.000000
    30  H    3.593069   3.594357   1.786553   1.787592   0.000000
    31  H    3.769541   2.532999   4.314750   5.139949   5.048789
    32  H    4.003871   3.288372   3.719635   4.366949   3.542641
    33  H    5.244028   4.437254   5.363764   6.049798   5.303251
    34  H    4.294286   4.530088   4.957552   4.743287   4.135352
    35  H    5.591727   5.522083   6.289387   6.351175   5.661898
                   31         32         33         34         35
    31  H    0.000000
    32  H    2.492854   0.000000
    33  H    2.535953   1.762467   0.000000
    34  H    4.113748   2.327366   2.966117   0.000000
    35  H    4.245817   2.864306   2.338760   1.757963   0.000000
 Stoichiometry    C12H20O3
 Framework group  C1[X(C12H20O3)]
 Deg. of freedom    99
 Full point group                 C1      NOp   1
 Largest Abelian subgroup         C1      NOp   1
 Largest concise Abelian subgroup C1      NOp   1
                         Standard orientation:                         
 ---------------------------------------------------------------------
 Center     Atomic      Atomic             Coordinates (Angstroms)
 Number     Number       Type             X           Y           Z
 ---------------------------------------------------------------------
      1          8           0       -3.580536    0.020974   -1.398879
      2          6           0       -2.639681   -0.119744   -0.642781
      3          6           0       -2.422934   -1.371148    0.213754
      4          6           0       -1.064115   -1.266728    0.932386
      5          6           0        0.038525   -1.088218   -0.144983
      6          6           0        1.443183   -1.304909    0.422114
      7          8           0        2.342800   -1.504471   -0.663123
      8          6           0        3.665374   -1.743288   -0.233320
      9          6           0       -0.206966    0.268746   -0.913860
     10          6           0        0.955947    1.266169   -0.974610
     11          8           0        1.300550    1.782894    0.306371
     12          6           0        2.368353    2.705168    0.242309
     13          6           0       -1.540792    0.910348   -0.421489
     14          6           0       -1.520754    1.216791    1.098356
     15          6           0       -1.100489   -0.054755    1.887518
     16          1           0       -2.483193   -2.255444   -0.433222
     17          1           0       -3.252691   -1.450714    0.929662
     18          1           0       -0.872298   -2.187367    1.497825
     19          1           0       -0.092169   -1.902157   -0.870788
     20          1           0        1.774426   -0.455754    1.033817
     21          1           0        1.437810   -2.204632    1.062388
     22          1           0        4.071060   -0.894179    0.340609
     23          1           0        4.275737   -1.891444   -1.128324
     24          1           0        3.731444   -2.645435    0.396688
     25          1           0       -0.360917    0.014143   -1.971351
     26          1           0        1.829800    0.770213   -1.419848
     27          1           0        0.664773    2.099364   -1.637646
     28          1           0        2.114368    3.576639   -0.382208
     29          1           0        3.281228    2.243224   -0.166539
     30          1           0        2.566219    3.044738    1.262384
     31          1           0       -1.770802    1.806662   -1.006468
     32          1           0       -0.830370    2.038409    1.290531
     33          1           0       -2.520360    1.550912    1.402641
     34          1           0       -0.117223    0.091098    2.346955
     35          1           0       -1.803251   -0.254047    2.705591
 ---------------------------------------------------------------------
 Rotational constants (GHZ):           0.8619368           0.4551642           0.3757690
 Standard basis: 6-31G(d) (6D, 7F)
 There are   265 symmetry adapted cartesian basis functions of A   symmetry.
 There are   265 symmetry adapted basis functions of A   symmetry.
   265 basis functions,   500 primitive gaussians,   265 cartesian basis functions
    58 alpha electrons       58 beta electrons
       nuclear repulsion energy      1121.9477458033 Hartrees.
 NAtoms=   35 NActive=   35 NUniq=   35 SFac= 1.00D+00 NAtFMM=   60 NAOKFM=F Big=F
 Integral buffers will be    131072 words long.
 Raffenetti 2 integral format.
 Two-electron integral symmetry is turned on.
 One-electron integrals computed using PRISM.
 NBasis=   265 RedAO= T EigKep=  1.20D-03  NBF=   265
 NBsUse=   265 1.00D-06 EigRej= -1.00D+00 NBFU=   265
 ExpMin= 1.61D-01 ExpMax= 5.48D+03 ExpMxC= 8.25D+02 IAcc=3 IRadAn=         5 AccDes= 0.00D+00
 Harris functional with IExCor=  402 and IRadAn=       5 diagonalized for initial guess.
 HarFok:  IExCor=  402 AccDes= 0.00D+00 IRadAn=         5 IDoV= 1 UseB2=F ITyADJ=14
 ICtDFT=  3500011 ScaDFX=  1.000000  1.000000  1.000000  1.000000
 FoFCou: FMM=F IPFlag=           0 FMFlag=      100000 FMFlg1=           0
         NFxFlg=           0 DoJE=T BraDBF=F KetDBF=T FulRan=T
         wScrn=  0.000000 ICntrl=       500 IOpCl=  0 I1Cent=   200000004 NGrid=           0
         NMat0=    1 NMatS0=      1 NMatT0=    0 NMatD0=    1 NMtDS0=    0 NMtDT0=    0
 Petite list used in FoFCou.
 Requested convergence on RMS density matrix=1.00D-08 within 128 cycles.
 Requested convergence on MAX density matrix=1.00D-06.
 Requested convergence on             energy=1.00D-06.
 No special actions if energy rises.
 Integral accuracy reduced to 1.0D-05 until final iterations.
 Initial convergence to 1.0D-05 achieved.  Increase integral accuracy.
 SCF Done:  E(RB3LYP) =  -694.954454654     A.U. after   14 cycles
            NFock= 14  Conv=0.56D-08     -V/T= 2.0093
 DoSCS=F DFT=T ScalE2(SS,OS)=  1.000000  1.000000
 Range of M.O.s used for correlation:     1   265
 NBasis=   265 NAE=    58 NBE=    58 NFC=     0 NFV=     0
 NROrb=    265 NOA=    58 NOB=    58 NVA=   207 NVB=   207
 Symmetrizing basis deriv contribution to polar:
 IMax=3 JMax=2 DiffMx= 0.00D+00
 G2DrvN: will do    36 centers at a time, making    1 passes.
 Calling FoFCou, ICntrl=  3107 FMM=F I1Cent=   0 AccDes= 0.00D+00.
 End of G2Drv F.D. properties file   721 does not exist.
 End of G2Drv F.D. properties file   722 does not exist.
 End of G2Drv F.D. properties file   788 does not exist.
          IDoAtm=11111111111111111111111111111111111
          Differentiating once with respect to electric field.
                with respect to dipole field.
          Differentiating once with respect to nuclear coordinates.
 Keep R1 ints in memory in canonical form, NReq=632096628.
          There are   108 degrees of freedom in the 1st order CPHF.  IDoFFX=6 NUNeed=     3.
    105 vectors produced by pass  0 Test12= 1.20D-14 1.00D-09 XBig12= 8.73D+01 1.71D+00.
 AX will form   105 AO Fock derivatives at one time.
    105 vectors produced by pass  1 Test12= 1.20D-14 1.00D-09 XBig12= 1.03D+01 7.60D-01.
    105 vectors produced by pass  2 Test12= 1.20D-14 1.00D-09 XBig12= 1.05D-01 3.93D-02.
    105 vectors produced by pass  3 Test12= 1.20D-14 1.00D-09 XBig12= 3.77D-04 2.60D-03.
    105 vectors produced by pass  4 Test12= 1.20D-14 1.00D-09 XBig12= 4.97D-07 6.51D-05.
     53 vectors produced by pass  5 Test12= 1.20D-14 1.00D-09 XBig12= 3.17D-10 1.55D-06.
      4 vectors produced by pass  6 Test12= 1.20D-14 1.00D-09 XBig12= 2.21D-13 4.27D-08.
      2 vectors produced by pass  7 Test12= 1.20D-14 1.00D-09 XBig12= 1.56D-16 1.32D-09.
 InvSVY:  IOpt=1 It=  1 EMax= 7.11D-15
 Solved reduced A of dimension   584 with   108 vectors.
 Isotropic polarizability for W=    0.000000      128.52 Bohr**3.
 End of Minotr F.D. properties file   721 does not exist.
 End of Minotr F.D. properties file   722 does not exist.
 End of Minotr F.D. properties file   788 does not exist.

 **********************************************************************

            Population analysis using the SCF density.

 **********************************************************************

 Orbital symmetries:
       Occupied  (A) (A) (A) (A) (A) (A) (A) (A) (A) (A) (A) (A)
                 (A) (A) (A) (A) (A) (A) (A) (A) (A) (A) (A) (A)
                 (A) (A) (A) (A) (A) (A) (A) (A) (A) (A) (A) (A)
                 (A) (A) (A) (A) (A) (A) (A) (A) (A) (A) (A) (A)
                 (A) (A) (A) (A) (A) (A) (A) (A) (A) (A)
       Virtual   (A) (A) (A) (A) (A) (A) (A) (A) (A) (A) (A) (A)
                 (A) (A) (A) (A) (A) (A) (A) (A) (A) (A) (A) (A)
                 (A) (A) (A) (A) (A) (A) (A) (A) (A) (A) (A) (A)
                 (A) (A) (A) (A) (A) (A) (A) (A) (A) (A) (A) (A)
                 (A) (A) (A) (A) (A) (A) (A) (A) (A) (A) (A) (A)
                 (A) (A) (A) (A) (A) (A) (A) (A) (A) (A) (A) (A)
                 (A) (A) (A) (A) (A) (A) (A) (A) (A) (A) (A) (A)
                 (A) (A) (A) (A) (A) (A) (A) (A) (A) (A) (A) (A)
                 (A) (A) (A) (A) (A) (A) (A) (A) (A) (A) (A) (A)
                 (A) (A) (A) (A) (A) (A) (A) (A) (A) (A) (A) (A)
                 (A) (A) (A) (A) (A) (A) (A) (A) (A) (A) (A) (A)
                 (A) (A) (A) (A) (A) (A) (A) (A) (A) (A) (A) (A)
                 (A) (A) (A) (A) (A) (A) (A) (A) (A) (A) (A) (A)
                 (A) (A) (A) (A) (A) (A) (A) (A) (A) (A) (A) (A)
                 (A) (A) (A) (A) (A) (A) (A) (A) (A) (A) (A) (A)
                 (A) (A) (A) (A) (A) (A) (A) (A) (A) (A) (A) (A)
                 (A) (A) (A) (A) (A) (A) (A) (A) (A) (A) (A) (A)
                 (A) (A) (A)
 The electronic state is 1-A.
 Alpha  occ. eigenvalues --  -19.15415 -19.14891 -19.12653 -10.26100 -10.23236
 Alpha  occ. eigenvalues --  -10.23000 -10.22878 -10.22569 -10.19839 -10.19289
 Alpha  occ. eigenvalues --  -10.19153 -10.18721 -10.18511 -10.18059 -10.17921
 Alpha  occ. eigenvalues --   -1.03592  -1.03027  -1.02572  -0.85898  -0.77573
 Alpha  occ. eigenvalues --   -0.76772  -0.72943  -0.71438  -0.69043  -0.65773
 Alpha  occ. eigenvalues --   -0.62667  -0.60097  -0.58622  -0.55435  -0.51237
 Alpha  occ. eigenvalues --   -0.49826  -0.49084  -0.48464  -0.46964  -0.46652
 Alpha  occ. eigenvalues --   -0.46203  -0.45590  -0.43704  -0.43176  -0.41971
 Alpha  occ. eigenvalues --   -0.40399  -0.40163  -0.39453  -0.38626  -0.37675
 Alpha  occ. eigenvalues --   -0.37111  -0.36817  -0.36288  -0.34996  -0.32965
 Alpha  occ. eigenvalues --   -0.32729  -0.32158  -0.30060  -0.29682  -0.29299
 Alpha  occ. eigenvalues --   -0.26699  -0.24730  -0.22556
 Alpha virt. eigenvalues --   -0.00523   0.06583   0.07845   0.10421   0.10707
 Alpha virt. eigenvalues --    0.12219   0.12634   0.13187   0.13706   0.13922
 Alpha virt. eigenvalues --    0.14909   0.15528   0.15980   0.16432   0.16868
 Alpha virt. eigenvalues --    0.17633   0.17890   0.18187   0.18538   0.19081
 Alpha virt. eigenvalues --    0.19185   0.20081   0.21019   0.21634   0.22508
 Alpha virt. eigenvalues --    0.22690   0.23625   0.24984   0.25548   0.25978
 Alpha virt. eigenvalues --    0.26518   0.28518   0.31549   0.31833   0.34151
 Alpha virt. eigenvalues --    0.36246   0.38929   0.49339   0.50334   0.51572
 Alpha virt. eigenvalues --    0.51993   0.53468   0.53845   0.55257   0.56246
 Alpha virt. eigenvalues --    0.56822   0.57384   0.58103   0.59734   0.61051
 Alpha virt. eigenvalues --    0.61333   0.62882   0.63988   0.64524   0.66502
 Alpha virt. eigenvalues --    0.68242   0.68770   0.69861   0.70879   0.71534
 Alpha virt. eigenvalues --    0.74570   0.75475   0.76202   0.77493   0.78481
 Alpha virt. eigenvalues --    0.80212   0.81973   0.82263   0.83258   0.83451
 Alpha virt. eigenvalues --    0.84394   0.85219   0.85631   0.86524   0.87053
 Alpha virt. eigenvalues --    0.87725   0.88229   0.89947   0.90208   0.91181
 Alpha virt. eigenvalues --    0.91316   0.92291   0.92878   0.93479   0.94191
 Alpha virt. eigenvalues --    0.95289   0.96336   0.96913   0.98140   0.99200
 Alpha virt. eigenvalues --    1.00982   1.02394   1.03449   1.04011   1.05263
 Alpha virt. eigenvalues --    1.10584   1.11701   1.12143   1.14962   1.16424
 Alpha virt. eigenvalues --    1.18943   1.22788   1.27046   1.29292   1.31109
 Alpha virt. eigenvalues --    1.32893   1.34891   1.40567   1.44454   1.46468
 Alpha virt. eigenvalues --    1.48629   1.49953   1.50822   1.52810   1.53751
 Alpha virt. eigenvalues --    1.54630   1.56464   1.57794   1.60149   1.64803
 Alpha virt. eigenvalues --    1.65745   1.68062   1.69869   1.71128   1.72712
 Alpha virt. eigenvalues --    1.76803   1.77636   1.79070   1.82498   1.83193
 Alpha virt. eigenvalues --    1.84082   1.86960   1.87743   1.88361   1.90214
 Alpha virt. eigenvalues --    1.93439   1.94327   1.95923   1.97931   1.99491
 Alpha virt. eigenvalues --    2.00087   2.01409   2.03446   2.05141   2.05613
 Alpha virt. eigenvalues --    2.06850   2.08583   2.09381   2.10221   2.10680
 Alpha virt. eigenvalues --    2.11761   2.13468   2.14535   2.15957   2.16765
 Alpha virt. eigenvalues --    2.21363   2.22183   2.24613   2.26359   2.27989
 Alpha virt. eigenvalues --    2.28650   2.29308   2.32201   2.33069   2.37348
 Alpha virt. eigenvalues --    2.40302   2.41234   2.44102   2.45123   2.48091
 Alpha virt. eigenvalues --    2.49819   2.50923   2.51889   2.53222   2.58771
 Alpha virt. eigenvalues --    2.59824   2.62127   2.65005   2.67434   2.69070
 Alpha virt. eigenvalues --    2.71060   2.74977   2.76754   2.77640   2.79071
 Alpha virt. eigenvalues --    2.82411   2.89539   2.91506   2.96315   3.00720
 Alpha virt. eigenvalues --    3.01752   3.09137   3.95712   4.02707   4.08369
 Alpha virt. eigenvalues --    4.12807   4.23390   4.25071   4.26213   4.31595
 Alpha virt. eigenvalues --    4.39500   4.45051   4.54247   4.58664   4.68120
 Alpha virt. eigenvalues --    4.74012   4.97394
          Condensed to atoms (all electrons):
               1          2          3          4          5          6
     1  O    8.026354   0.566049  -0.077948   0.003358   0.000054  -0.000000
     2  C    0.566049   4.515720   0.303059  -0.025541  -0.015505   0.000307
     3  C   -0.077948   0.303059   5.408481   0.292599  -0.035912   0.003885
     4  C    0.003358  -0.025541   0.292599   5.006317   0.360284  -0.032135
     5  C    0.000054  -0.015505  -0.035912   0.360284   5.034434   0.384479
     6  C   -0.000000   0.000307   0.003885  -0.032135   0.384479   4.908578
     7  O    0.000000  -0.000005  -0.000046   0.002189  -0.038745   0.217812
     8  C   -0.000000   0.000000   0.000002  -0.000171   0.005146  -0.040935
     9  C   -0.000431  -0.028847  -0.011110  -0.044944   0.337073  -0.034876
    10  C   -0.000060   0.002851  -0.000147   0.001005  -0.033369  -0.003477
    11  O   -0.000000   0.000055  -0.000002  -0.000518   0.000220  -0.007064
    12  C   -0.000000   0.000001  -0.000000   0.000008   0.000012   0.000133
    13  C   -0.062440   0.359531  -0.146963   0.030726  -0.049014   0.001373
    14  C    0.000199  -0.032437  -0.005673  -0.052495  -0.018694   0.000423
    15  C    0.000115  -0.019064  -0.041099   0.375883  -0.037005  -0.005383
    16  H   -0.000012  -0.022495   0.350147  -0.028959  -0.003910  -0.000012
    17  H   -0.000462  -0.021530   0.347046  -0.029156   0.004382  -0.000140
    18  H   -0.000068   0.003522  -0.031544   0.365202  -0.043439  -0.006199
    19  H   -0.000058  -0.000216  -0.005363  -0.043171   0.362861  -0.048310
    20  H   -0.000000   0.000012  -0.000114  -0.001683  -0.031191   0.347870
    21  H   -0.000000  -0.000020   0.000190  -0.002327  -0.038747   0.346484
    22  H   -0.000000   0.000000  -0.000000   0.000011  -0.000014  -0.006926
    23  H   -0.000000  -0.000000  -0.000000   0.000001  -0.000236   0.005969
    24  H   -0.000000  -0.000000   0.000000   0.000014  -0.000015  -0.008383
    25  H    0.001450  -0.002325   0.001582   0.002684  -0.033544   0.003240
    26  H    0.000000  -0.000091   0.000019   0.000154  -0.008949  -0.001993
    27  H   -0.000001  -0.000071  -0.000015  -0.000136   0.005063   0.000083
    28  H    0.000000  -0.000000  -0.000000  -0.000001   0.000010  -0.000020
    29  H   -0.000000   0.000000   0.000000  -0.000000  -0.000013   0.000071
    30  H    0.000000  -0.000000   0.000000   0.000001   0.000002   0.000032
    31  H    0.003746  -0.032924   0.008916  -0.000734   0.005370  -0.000088
    32  H   -0.000069   0.003512  -0.000427   0.002575   0.000736  -0.000016
    33  H    0.000868  -0.004059   0.002687   0.000185  -0.000016   0.000000
    34  H    0.000002   0.000286   0.004849  -0.033765  -0.008337   0.002503
    35  H   -0.000002   0.000544  -0.005495  -0.031256   0.005123   0.000052
               7          8          9         10         11         12
     1  O    0.000000  -0.000000  -0.000431  -0.000060  -0.000000  -0.000000
     2  C   -0.000005   0.000000  -0.028847   0.002851   0.000055   0.000001
     3  C   -0.000046   0.000002  -0.011110  -0.000147  -0.000002  -0.000000
     4  C    0.002189  -0.000171  -0.044944   0.001005  -0.000518   0.000008
     5  C   -0.038745   0.005146   0.337073  -0.033369   0.000220   0.000012
     6  C    0.217812  -0.040935  -0.034876  -0.003477  -0.007064   0.000133
     7  O    8.210684   0.256686   0.001563  -0.007652   0.000079  -0.000013
     8  C    0.256686   4.877763  -0.000036   0.000195  -0.000013  -0.000074
     9  C    0.001563  -0.000036   5.059003   0.373208  -0.041632   0.005488
    10  C   -0.007652   0.000195   0.373208   4.905712   0.221528  -0.040710
    11  O    0.000079  -0.000013  -0.041632   0.221528   8.200970   0.254807
    12  C   -0.000013  -0.000074   0.005488  -0.040710   0.254807   4.880065
    13  C    0.000042   0.000000   0.348695  -0.030359   0.000716   0.000073
    14  C   -0.000003   0.000000  -0.029538  -0.007754  -0.009324   0.000169
    15  C    0.000018   0.000005  -0.019826   0.000965  -0.000168  -0.000017
    16  H   -0.000003   0.000000  -0.000104   0.000030  -0.000000   0.000000
    17  H    0.000000  -0.000000   0.000226   0.000006   0.000000   0.000000
    18  H    0.000007  -0.000009   0.006046  -0.000101  -0.000007   0.000000
    19  H    0.004166   0.000069  -0.037199   0.003665  -0.000063   0.000006
    20  H   -0.038638  -0.005864  -0.009856  -0.001093   0.015722   0.000175
    21  H   -0.039992  -0.006533   0.004675   0.000033   0.000250  -0.000004
    22  H   -0.038695   0.359170  -0.000014   0.000060  -0.000082   0.000115
    23  H   -0.033470   0.384720   0.000004   0.000034  -0.000000  -0.000001
    24  H   -0.038166   0.361057   0.000008  -0.000024   0.000001   0.000001
    25  H    0.000026   0.000000   0.360106  -0.039542   0.002980  -0.000230
    26  H    0.016812   0.000043  -0.034090   0.353059  -0.038913  -0.006590
    27  H    0.000218  -0.000004  -0.031586   0.343591  -0.041504  -0.006607
    28  H    0.000001   0.000001   0.000111  -0.008230  -0.037843   0.362011
    29  H   -0.000092   0.000104  -0.000238  -0.006709  -0.038392   0.360221
    30  H   -0.000001  -0.000001  -0.000232   0.005942  -0.033164   0.384288
    31  H    0.000001  -0.000000  -0.034997  -0.004183  -0.000463  -0.000031
    32  H   -0.000000   0.000000  -0.008320   0.001250   0.016231   0.000072
    33  H    0.000000   0.000000   0.005172  -0.000053   0.000310  -0.000008
    34  H   -0.000032   0.000008   0.001727  -0.000494   0.002315  -0.000088
    35  H    0.000000  -0.000000   0.000117  -0.000021   0.000035  -0.000000
              13         14         15         16         17         18
     1  O   -0.062440   0.000199   0.000115  -0.000012  -0.000462  -0.000068
     2  C    0.359531  -0.032437  -0.019064  -0.022495  -0.021530   0.003522
     3  C   -0.146963  -0.005673  -0.041099   0.350147   0.347046  -0.031544
     4  C    0.030726  -0.052495   0.375883  -0.028959  -0.029156   0.365202
     5  C   -0.049014  -0.018694  -0.037005  -0.003910   0.004382  -0.043439
     6  C    0.001373   0.000423  -0.005383  -0.000012  -0.000140  -0.006199
     7  O    0.000042  -0.000003   0.000018  -0.000003   0.000000   0.000007
     8  C    0.000000   0.000000   0.000005   0.000000  -0.000000  -0.000009
     9  C    0.348695  -0.029538  -0.019826  -0.000104   0.000226   0.006046
    10  C   -0.030359  -0.007754   0.000965   0.000030   0.000006  -0.000101
    11  O    0.000716  -0.009324  -0.000168  -0.000000   0.000000  -0.000007
    12  C    0.000073   0.000169  -0.000017   0.000000   0.000000   0.000000
    13  C    5.174394   0.344334  -0.042478   0.004493   0.003184  -0.000564
    14  C    0.344334   5.108696   0.347811   0.000087  -0.000136   0.005964
    15  C   -0.042478   0.347811   5.069875   0.004770  -0.004221  -0.041194
    16  H    0.004493   0.000087   0.004770   0.549718  -0.022294  -0.003115
    17  H    0.003184  -0.000136  -0.004221  -0.022294   0.555110  -0.002604
    18  H   -0.000564   0.005964  -0.041194  -0.003115  -0.002604   0.628231
    19  H    0.002587   0.000001   0.005755   0.005044   0.000166  -0.002178
    20  H    0.000113   0.000169   0.000971  -0.000002   0.000005  -0.000230
    21  H   -0.000066   0.000009  -0.000589   0.000000  -0.000005   0.007782
    22  H   -0.000000   0.000000  -0.000003  -0.000000   0.000000  -0.000000
    23  H   -0.000000  -0.000000   0.000000  -0.000000   0.000000   0.000000
    24  H    0.000000  -0.000000  -0.000000   0.000000   0.000000   0.000002
    25  H   -0.048392   0.005964  -0.000100  -0.000156  -0.000006  -0.000139
    26  H    0.005055  -0.000077  -0.000049  -0.000002   0.000000   0.000003
    27  H   -0.009657   0.000290   0.000037  -0.000000  -0.000000   0.000003
    28  H   -0.000125   0.000074  -0.000000   0.000000  -0.000000  -0.000000
    29  H    0.000034  -0.000027  -0.000001  -0.000000   0.000000  -0.000000
    30  H    0.000004   0.000039   0.000006  -0.000000  -0.000000   0.000000
    31  H    0.344823  -0.034289   0.005087  -0.000159  -0.000211   0.000011
    32  H   -0.021433   0.361326  -0.025613   0.000004   0.000064  -0.000145
    33  H   -0.042228   0.364192  -0.034425  -0.000023  -0.000179  -0.000119
    34  H    0.000111  -0.030558   0.369747  -0.000167  -0.000033  -0.001336
    35  H    0.002580  -0.033289   0.365400  -0.000037   0.004205  -0.003659
              19         20         21         22         23         24
     1  O   -0.000058  -0.000000  -0.000000  -0.000000  -0.000000  -0.000000
     2  C   -0.000216   0.000012  -0.000020   0.000000  -0.000000  -0.000000
     3  C   -0.005363  -0.000114   0.000190  -0.000000  -0.000000   0.000000
     4  C   -0.043171  -0.001683  -0.002327   0.000011   0.000001   0.000014
     5  C    0.362861  -0.031191  -0.038747  -0.000014  -0.000236  -0.000015
     6  C   -0.048310   0.347870   0.346484  -0.006926   0.005969  -0.008383
     7  O    0.004166  -0.038638  -0.039992  -0.038695  -0.033470  -0.038166
     8  C    0.000069  -0.005864  -0.006533   0.359170   0.384720   0.361057
     9  C   -0.037199  -0.009856   0.004675  -0.000014   0.000004   0.000008
    10  C    0.003665  -0.001093   0.000033   0.000060   0.000034  -0.000024
    11  O   -0.000063   0.015722   0.000250  -0.000082  -0.000000   0.000001
    12  C    0.000006   0.000175  -0.000004   0.000115  -0.000001   0.000001
    13  C    0.002587   0.000113  -0.000066  -0.000000  -0.000000   0.000000
    14  C    0.000001   0.000169   0.000009   0.000000  -0.000000  -0.000000
    15  C    0.005755   0.000971  -0.000589  -0.000003   0.000000  -0.000000
    16  H    0.005044  -0.000002   0.000000  -0.000000  -0.000000   0.000000
    17  H    0.000166   0.000005  -0.000005   0.000000   0.000000   0.000000
    18  H   -0.002178  -0.000230   0.007782  -0.000000   0.000000   0.000002
    19  H    0.623154   0.006684  -0.005474   0.000076  -0.000011  -0.000067
    20  H    0.006684   0.608512  -0.052658   0.012819  -0.000154  -0.002410
    21  H   -0.005474  -0.052658   0.662893  -0.002690  -0.000110   0.013493
    22  H    0.000076   0.012819  -0.002690   0.633218  -0.034438  -0.051973
    23  H   -0.000011  -0.000154  -0.000110  -0.034438   0.554569  -0.033728
    24  H   -0.000067  -0.002410   0.013493  -0.051973  -0.033728   0.629636
    25  H   -0.012596   0.000017  -0.000163   0.000001  -0.000001  -0.000001
    26  H    0.000271  -0.002306   0.000295  -0.000301  -0.000158   0.000140
    27  H   -0.000189   0.000255   0.000012  -0.000010  -0.000000   0.000000
    28  H    0.000000   0.000135   0.000000  -0.000004  -0.000000   0.000000
    29  H    0.000000  -0.000282  -0.000009   0.000567   0.000002  -0.000004
    30  H   -0.000000  -0.000165  -0.000001   0.000005  -0.000000  -0.000000
    31  H   -0.000165  -0.000010   0.000003  -0.000000   0.000000   0.000000
    32  H    0.000007  -0.000080  -0.000006   0.000000   0.000000  -0.000000
    33  H    0.000011   0.000005   0.000000  -0.000000  -0.000000   0.000000
    34  H    0.000035   0.003116   0.000135   0.000002  -0.000000   0.000000
    35  H   -0.000176  -0.000009  -0.000064   0.000000   0.000000  -0.000000
              25         26         27         28         29         30
     1  O    0.001450   0.000000  -0.000001   0.000000  -0.000000   0.000000
     2  C   -0.002325  -0.000091  -0.000071  -0.000000   0.000000  -0.000000
     3  C    0.001582   0.000019  -0.000015  -0.000000   0.000000   0.000000
     4  C    0.002684   0.000154  -0.000136  -0.000001  -0.000000   0.000001
     5  C   -0.033544  -0.008949   0.005063   0.000010  -0.000013   0.000002
     6  C    0.003240  -0.001993   0.000083  -0.000020   0.000071   0.000032
     7  O    0.000026   0.016812   0.000218   0.000001  -0.000092  -0.000001
     8  C    0.000000   0.000043  -0.000004   0.000001   0.000104  -0.000001
     9  C    0.360106  -0.034090  -0.031586   0.000111  -0.000238  -0.000232
    10  C   -0.039542   0.353059   0.343591  -0.008230  -0.006709   0.005942
    11  O    0.002980  -0.038913  -0.041504  -0.037843  -0.038392  -0.033164
    12  C   -0.000230  -0.006590  -0.006607   0.362011   0.360221   0.384288
    13  C   -0.048392   0.005055  -0.009657  -0.000125   0.000034   0.000004
    14  C    0.005964  -0.000077   0.000290   0.000074  -0.000027   0.000039
    15  C   -0.000100  -0.000049   0.000037  -0.000000  -0.000001   0.000006
    16  H   -0.000156  -0.000002  -0.000000   0.000000  -0.000000  -0.000000
    17  H   -0.000006   0.000000  -0.000000  -0.000000   0.000000  -0.000000
    18  H   -0.000139   0.000003   0.000003  -0.000000  -0.000000   0.000000
    19  H   -0.012596   0.000271  -0.000189   0.000000   0.000000  -0.000000
    20  H    0.000017  -0.002306   0.000255   0.000135  -0.000282  -0.000165
    21  H   -0.000163   0.000295   0.000012   0.000000  -0.000009  -0.000001
    22  H    0.000001  -0.000301  -0.000010  -0.000004   0.000567   0.000005
    23  H   -0.000001  -0.000158  -0.000000  -0.000000   0.000002  -0.000000
    24  H   -0.000001   0.000140   0.000000   0.000000  -0.000004  -0.000000
    25  H    0.616866  -0.001649  -0.001387   0.000009   0.000005   0.000004
    26  H   -0.001649   0.607343  -0.050697  -0.002341   0.012941  -0.000127
    27  H   -0.001387  -0.050697   0.657588   0.013552  -0.002742  -0.000123
    28  H    0.000009  -0.002341   0.013552   0.622957  -0.050960  -0.033627
    29  H    0.000005   0.012941  -0.002742  -0.050960   0.625989  -0.033812
    30  H    0.000004  -0.000127  -0.000123  -0.033627  -0.033812   0.553491
    31  H   -0.002236  -0.000028   0.005161   0.000013  -0.000002   0.000001
    32  H   -0.000070   0.000161  -0.000378  -0.000141   0.000099  -0.000155
    33  H   -0.000164   0.000008  -0.000019   0.000000   0.000000  -0.000001
    34  H    0.000001   0.000028   0.000013   0.000004   0.000005  -0.000006
    35  H    0.000010  -0.000000   0.000000   0.000000   0.000000  -0.000000
              31         32         33         34         35
     1  O    0.003746  -0.000069   0.000868   0.000002  -0.000002
     2  C   -0.032924   0.003512  -0.004059   0.000286   0.000544
     3  C    0.008916  -0.000427   0.002687   0.004849  -0.005495
     4  C   -0.000734   0.002575   0.000185  -0.033765  -0.031256
     5  C    0.005370   0.000736  -0.000016  -0.008337   0.005123
     6  C   -0.000088  -0.000016   0.000000   0.002503   0.000052
     7  O    0.000001  -0.000000   0.000000  -0.000032   0.000000
     8  C   -0.000000   0.000000   0.000000   0.000008  -0.000000
     9  C   -0.034997  -0.008320   0.005172   0.001727   0.000117
    10  C   -0.004183   0.001250  -0.000053  -0.000494  -0.000021
    11  O   -0.000463   0.016231   0.000310   0.002315   0.000035
    12  C   -0.000031   0.000072  -0.000008  -0.000088  -0.000000
    13  C    0.344823  -0.021433  -0.042228   0.000111   0.002580
    14  C   -0.034289   0.361326   0.364192  -0.030558  -0.033289
    15  C    0.005087  -0.025613  -0.034425   0.369747   0.365400
    16  H   -0.000159   0.000004  -0.000023  -0.000167  -0.000037
    17  H   -0.000211   0.000064  -0.000179  -0.000033   0.004205
    18  H    0.000011  -0.000145  -0.000119  -0.001336  -0.003659
    19  H   -0.000165   0.000007   0.000011   0.000035  -0.000176
    20  H   -0.000010  -0.000080   0.000005   0.003116  -0.000009
    21  H    0.000003  -0.000006   0.000000   0.000135  -0.000064
    22  H   -0.000000   0.000000  -0.000000   0.000002   0.000000
    23  H    0.000000   0.000000  -0.000000  -0.000000   0.000000
    24  H    0.000000  -0.000000   0.000000   0.000000  -0.000000
    25  H   -0.002236  -0.000070  -0.000164   0.000001   0.000010
    26  H   -0.000028   0.000161   0.000008   0.000028  -0.000000
    27  H    0.005161  -0.000378  -0.000019   0.000013   0.000000
    28  H    0.000013  -0.000141   0.000000   0.000004   0.000000
    29  H   -0.000002   0.000099   0.000000   0.000005   0.000000
    30  H    0.000001  -0.000155  -0.000001  -0.000006  -0.000000
    31  H    0.609098  -0.003191  -0.001273  -0.000133  -0.000129
    32  H   -0.003191   0.541243  -0.032378  -0.009907   0.003268
    33  H   -0.001273  -0.032378   0.607419   0.004535  -0.010385
    34  H   -0.000133  -0.009907   0.004535   0.582484  -0.035690
    35  H   -0.000129   0.003268  -0.010385  -0.035690   0.605325
 Mulliken charges:
               1
     1  O   -0.460643
     2  C    0.449683
     3  C   -0.361606
     4  C   -0.116203
     5  C   -0.108595
     6  C   -0.027334
     7  O   -0.474750
     8  C   -0.191330
     9  C   -0.135339
    10  C   -0.029153
    11  O   -0.467068
    12  C   -0.193271
    13  C   -0.169149
    14  C   -0.285455
    15  C   -0.275209
    16  H    0.167156
    17  H    0.166584
    18  H    0.119877
    19  H    0.140676
    20  H    0.150167
    21  H    0.113203
    22  H    0.129107
    23  H    0.157009
    24  H    0.130417
    25  H    0.147756
    26  H    0.152027
    27  H    0.119261
    28  H    0.134413
    29  H    0.133246
    30  H    0.157599
    31  H    0.133015
    32  H    0.171782
    33  H    0.139935
    34  H    0.148639
    35  H    0.133553
 Sum of Mulliken charges =  -0.00000
 Mulliken charges with hydrogens summed into heavy atoms:
               1
     1  O   -0.460643
     2  C    0.449683
     3  C   -0.027866
     4  C    0.003674
     5  C    0.032081
     6  C    0.236036
     7  O   -0.474750
     8  C    0.225203
     9  C    0.012417
    10  C    0.242135
    11  O   -0.467068
    12  C    0.231986
    13  C   -0.036133
    14  C    0.026262
    15  C    0.006983
 APT charges:
               1
     1  O   -0.675335
     2  C    0.759818
     3  C   -0.045796
     4  C    0.114408
     5  C    0.054520
     6  C    0.498222
     7  O   -0.763760
     8  C    0.562937
     9  C    0.093374
    10  C    0.483704
    11  O   -0.755319
    12  C    0.567691
    13  C   -0.075494
    14  C    0.081953
    15  C    0.085524
    16  H   -0.011217
    17  H   -0.017637
    18  H   -0.066189
    19  H   -0.053481
    20  H   -0.030569
    21  H   -0.093703
    22  H   -0.074135
    23  H   -0.032612
    24  H   -0.076459
    25  H   -0.056187
    26  H   -0.043670
    27  H   -0.085343
    28  H   -0.074241
    29  H   -0.074130
    30  H   -0.025469
    31  H   -0.047570
    32  H    0.007487
    33  H   -0.048124
    34  H   -0.029408
    35  H   -0.053788
 Sum of APT charges =   0.00000
 APT charges with hydrogens summed into heavy atoms:
               1
     1  O   -0.675335
     2  C    0.759818
     3  C   -0.074649
     4  C    0.048219
     5  C    0.001039
     6  C    0.373951
     7  O   -0.763760
     8  C    0.379730
     9  C    0.037187
    10  C    0.354690
    11  O   -0.755319
    12  C    0.393850
    13  C   -0.123063
    14  C    0.041316
    15  C    0.002328
 Electronic spatial extent (au):  <R**2>=           3313.2469
 Charge=             -0.0000 electrons
 Dipole moment (field-independent basis, Debye):
    X=              3.6824    Y=              0.1237    Z=              1.9705  Tot=              4.1783
 Quadrupole moment (field-independent basis, Debye-Ang):
   XX=            -97.0067   YY=            -86.4634   ZZ=            -93.4126
   XY=              3.1777   XZ=             -6.7925   YZ=             -2.1963
 Traceless Quadrupole moment (field-independent basis, Debye-Ang):
   XX=             -4.7125   YY=              5.8308   ZZ=             -1.1184
   XY=              3.1777   XZ=             -6.7925   YZ=             -2.1963
 Octapole moment (field-independent basis, Debye-Ang**2):
  XXX=             93.5690  YYY=             10.0616  ZZZ=             -2.7110  XYY=             10.1476
  XXY=             -3.1782  XXZ=             32.8960  XZZ=             11.7746  YZZ=              2.2256
  YYZ=             -0.6097  XYZ=             -2.0006
 Hexadecapole moment (field-independent basis, Debye-Ang**3):
 XXXX=          -2596.1611 YYYY=          -1179.1190 ZZZZ=           -589.0410 XXXY=            -18.7339
 XXXZ=           -123.5135 YYYX=             24.5248 YYYZ=              4.3621 ZZZX=             -4.5798
 ZZZY=              9.6836 XXYY=           -568.7044 XXZZ=           -552.0547 YYZZ=           -296.2611
 XXYZ=              8.6715 YYXZ=             15.0833 ZZXY=              6.0763
 N-N= 1.121947745803D+03 E-N=-3.861649450907D+03  KE= 6.885307020661D+02
  Exact polarizability: 145.600   1.824 125.078   1.916  -2.641 114.869
 Approx polarizability: 186.970   0.793 172.141   8.217  -2.550 177.577
 Calling FoFJK, ICntrl=    100127 FMM=F ISym2X=0 I1Cent= 0 IOpClX= 0 NMat=1 NMatS=1 NMatT=0.
 Full mass-weighted force constant matrix:
 Low frequencies ---   -2.8479    0.0005    0.0008    0.0008    3.0513    6.5218
 Low frequencies ---   16.0386   56.0676   84.1281
 Diagonal vibrational polarizability:
       23.1522289     105.3554700      44.5766437
 Harmonic frequencies (cm**-1), IR intensities (KM/Mole), Raman scattering
 activities (A**4/AMU), depolarization ratios for plane and unpolarized
 incident light, reduced masses (AMU), force constants (mDyne/A),
 and normal coordinates:
                      1                      2                      3
                      A                      A                      A
 Frequencies --     15.4792                56.0655                84.1272
 Red. masses --      4.0513                 3.3100                 3.0917
 Frc consts  --      0.0006                 0.0061                 0.0129
 IR Inten    --      0.9590                 0.0985                 3.3070
  Atom  AN      X      Y      Z        X      Y      Z        X      Y      Z
     1   8    -0.07   0.17   0.09    -0.03  -0.04  -0.00     0.09   0.04  -0.09
     2   6    -0.03   0.07   0.02    -0.03  -0.02   0.00     0.03   0.04  -0.01
     3   6    -0.02  -0.03  -0.12    -0.03   0.00   0.04    -0.05   0.05   0.03
     4   6    -0.03  -0.10  -0.08    -0.02   0.02   0.02    -0.05  -0.01   0.03
     5   6     0.01  -0.02  -0.03    -0.03  -0.01   0.00    -0.04  -0.06   0.03
     6   6    -0.01   0.03   0.05    -0.03  -0.01  -0.00    -0.04  -0.10   0.01
     7   8     0.05   0.04   0.10    -0.00   0.11  -0.00    -0.07  -0.11  -0.02
     8   6     0.04   0.10   0.17     0.02   0.26  -0.00     0.00   0.21  -0.06
     9   6    -0.02  -0.01  -0.01    -0.02  -0.01  -0.01     0.02  -0.05   0.03
    10   6    -0.01  -0.03  -0.08    -0.02  -0.01  -0.01     0.05  -0.08   0.02
    11   8     0.03   0.01  -0.11     0.04  -0.10   0.01     0.06  -0.08   0.02
    12   6     0.04   0.00  -0.18     0.17  -0.25   0.04    -0.11   0.12  -0.03
    13   6     0.02   0.01   0.07    -0.03  -0.01  -0.03     0.05   0.01   0.03
    14   6     0.06  -0.09   0.09    -0.02   0.03  -0.04     0.05  -0.00   0.03
    15   6    -0.05  -0.17   0.01    -0.01   0.05  -0.01     0.01  -0.01   0.03
    16   1     0.01   0.04  -0.23    -0.04  -0.01   0.06    -0.12   0.03   0.06
    17   1    -0.03  -0.14  -0.15    -0.02   0.03   0.05    -0.06   0.13   0.04
    18   1    -0.06  -0.14  -0.15    -0.01   0.04   0.04    -0.09  -0.02   0.03
    19   1     0.08  -0.01  -0.05    -0.05  -0.01   0.01    -0.08  -0.06   0.03
    20   1    -0.07   0.05   0.05    -0.07  -0.05   0.07    -0.01  -0.10  -0.01
    21   1    -0.02   0.04   0.06    -0.01  -0.07  -0.08    -0.04  -0.09   0.02
    22   1    -0.03   0.14   0.17    -0.08   0.30   0.01    -0.12   0.39  -0.25
    23   1     0.09   0.10   0.20     0.04   0.35  -0.00    -0.03   0.16  -0.08
    24   1     0.04   0.12   0.20     0.13   0.26  -0.02     0.22   0.34   0.10
    25   1    -0.09  -0.01   0.00    -0.02  -0.02  -0.01     0.01  -0.04   0.03
    26   1    -0.03  -0.05  -0.09    -0.05  -0.00  -0.07     0.04  -0.09   0.01
    27   1    -0.03  -0.05  -0.09    -0.04   0.03   0.05     0.05  -0.08   0.02
    28   1     0.02  -0.02  -0.19     0.30  -0.19   0.07    -0.33   0.11   0.05
    29   1     0.02  -0.02  -0.19     0.11  -0.37   0.04    -0.06   0.32  -0.14
    30   1     0.07   0.03  -0.19     0.21  -0.30   0.05    -0.08   0.10  -0.03
    31   1     0.04   0.06   0.13    -0.03  -0.03  -0.05     0.09   0.02   0.03
    32   1     0.15  -0.17   0.12    -0.01   0.03  -0.07     0.06  -0.02   0.03
    33   1     0.10  -0.01   0.12    -0.01   0.04  -0.04     0.05   0.02   0.02
    34   1    -0.08  -0.26   0.11    -0.01   0.06  -0.02     0.03  -0.04   0.01
    35   1    -0.13  -0.21  -0.06    -0.01   0.07  -0.00     0.02   0.02   0.04
                      4                      5                      6
                      A                      A                      A
 Frequencies --     90.8652               100.3748               135.8414
 Red. masses --      5.2445                 2.0994                 2.9004
 Frc consts  --      0.0255                 0.0125                 0.0315
 IR Inten    --      1.7255                 2.1469                 1.2020
  Atom  AN      X      Y      Z        X      Y      Z        X      Y      Z
     1   8    -0.23   0.11   0.27     0.04  -0.03  -0.05     0.05   0.00  -0.04
     2   6    -0.04   0.01   0.01    -0.00  -0.00   0.01    -0.00   0.04   0.03
     3   6     0.03  -0.01  -0.03    -0.02   0.01   0.03    -0.04   0.07   0.09
     4   6     0.03   0.03  -0.03    -0.01   0.00   0.01     0.03  -0.00  -0.04
     5   6     0.03  -0.04  -0.04    -0.02  -0.01  -0.01    -0.03  -0.02  -0.11
     6   6     0.02  -0.07  -0.02    -0.03  -0.04  -0.01    -0.04  -0.04  -0.09
     7   8     0.06  -0.02   0.01     0.03   0.17   0.01     0.06  -0.02  -0.01
     8   6     0.06   0.04   0.06    -0.03  -0.06   0.04     0.01   0.01   0.16
     9   6     0.06  -0.06  -0.08    -0.02   0.00   0.00    -0.04   0.01  -0.06
    10   6     0.06  -0.05  -0.00    -0.02   0.01  -0.01    -0.03  -0.02  -0.05
    11   8     0.01  -0.14   0.04     0.10  -0.11   0.00    -0.13   0.02  -0.04
    12   6    -0.15   0.06   0.13    -0.04   0.04  -0.05    -0.08  -0.04   0.06
    13   6     0.04  -0.04  -0.15    -0.01   0.00   0.02    -0.00   0.03   0.03
    14   6     0.02   0.05  -0.17     0.02   0.01   0.01     0.05  -0.02   0.04
    15   6     0.03   0.10  -0.10     0.01   0.00   0.01     0.20  -0.01  -0.02
    16   1     0.09   0.01  -0.05    -0.06  -0.00   0.06    -0.20   0.04   0.16
    17   1     0.03  -0.08  -0.04    -0.01   0.06   0.05     0.03   0.21   0.19
    18   1     0.02   0.07   0.03    -0.01   0.00   0.01     0.04  -0.02  -0.07
    19   1     0.00  -0.06  -0.01    -0.04   0.00  -0.02    -0.07  -0.01  -0.12
    20   1    -0.00  -0.10   0.04    -0.08  -0.13   0.15    -0.08  -0.06  -0.05
    21   1    -0.00  -0.10  -0.06    -0.03  -0.15  -0.16    -0.07  -0.06  -0.11
    22   1    -0.01   0.04   0.10    -0.02  -0.28   0.37    -0.10   0.01   0.23
    23   1     0.10   0.09   0.08     0.04   0.21   0.05     0.14   0.05   0.24
    24   1     0.07   0.02   0.04    -0.15  -0.28  -0.26    -0.05   0.00   0.15
    25   1     0.12  -0.08  -0.08    -0.03   0.01   0.00    -0.10   0.04  -0.06
    26   1     0.08  -0.01  -0.01    -0.06   0.06  -0.14    -0.00  -0.04   0.02
    27   1     0.06  -0.01   0.04    -0.10   0.07   0.09     0.02  -0.03  -0.10
    28   1    -0.33   0.10   0.27    -0.29   0.12   0.17     0.07  -0.09  -0.06
    29   1    -0.08   0.28   0.03    -0.06   0.25  -0.32    -0.03  -0.12   0.26
    30   1    -0.17  -0.06   0.18     0.13  -0.12  -0.03    -0.24   0.04   0.06
    31   1     0.05  -0.07  -0.21    -0.01   0.00   0.02    -0.01   0.05   0.06
    32   1     0.01   0.07  -0.20     0.04  -0.01  -0.00    -0.02   0.04   0.05
    33   1     0.01   0.05  -0.20     0.04   0.03   0.03     0.03  -0.12   0.10
    34   1     0.04   0.13  -0.12     0.02  -0.01   0.00     0.28   0.00  -0.20
    35   1     0.04   0.14  -0.08     0.02   0.01   0.01     0.34  -0.00   0.10
                      7                      8                      9
                      A                      A                      A
 Frequencies --    147.7815               180.9044               229.6410
 Red. masses --      1.8560                 3.3895                 1.4602
 Frc consts  --      0.0239                 0.0654                 0.0454
 IR Inten    --      8.5516                 0.4788                 0.9106
  Atom  AN      X      Y      Z        X      Y      Z        X      Y      Z
     1   8     0.02   0.06   0.01    -0.07  -0.06   0.04     0.01   0.04  -0.01
     2   6     0.02   0.02  -0.01    -0.03  -0.05  -0.01     0.01   0.02  -0.01
     3   6    -0.01   0.01  -0.00    -0.03  -0.03   0.02     0.01   0.01  -0.02
     4   6    -0.03  -0.01   0.03    -0.01  -0.02  -0.03     0.00   0.01   0.01
     5   6    -0.00  -0.05   0.05    -0.04  -0.02  -0.06     0.02  -0.01   0.03
     6   6    -0.00  -0.06   0.04    -0.07  -0.16  -0.07     0.03  -0.03   0.02
     7   8    -0.01   0.11  -0.00    -0.01  -0.06  -0.03     0.01  -0.09   0.02
     8   6    -0.00   0.01  -0.08    -0.02   0.04   0.08     0.04   0.01  -0.02
     9   6     0.04  -0.07   0.02     0.03   0.05   0.04     0.00  -0.01   0.01
    10   6     0.05  -0.08   0.01     0.05   0.07   0.13    -0.03   0.01  -0.01
    11   8    -0.08   0.06  -0.02     0.11   0.15   0.08    -0.08   0.06  -0.02
    12   6    -0.03   0.00  -0.00     0.14   0.12  -0.10     0.00  -0.03  -0.01
    13   6     0.05  -0.02  -0.01    -0.03  -0.03  -0.03     0.01   0.00   0.01
    14   6     0.02  -0.00  -0.01    -0.06  -0.02  -0.03    -0.05  -0.01   0.01
    15   6    -0.03   0.00   0.01     0.03  -0.00  -0.05     0.01   0.01   0.00
    16   1    -0.01   0.01  -0.01    -0.06  -0.05   0.05     0.03   0.02  -0.02
    17   1    -0.03   0.02  -0.02    -0.02   0.01   0.04     0.00  -0.00  -0.03
    18   1    -0.06  -0.01   0.05     0.01  -0.01  -0.02    -0.02   0.01   0.02
    19   1    -0.01  -0.06   0.06    -0.12   0.04  -0.12     0.02  -0.01   0.03
    20   1    -0.03  -0.11   0.13    -0.06  -0.23   0.04     0.06  -0.02  -0.01
    21   1     0.04  -0.13  -0.06    -0.13  -0.22  -0.16     0.00  -0.01   0.06
    22   1    -0.02  -0.16   0.18    -0.21   0.00   0.26    -0.12  -0.09   0.24
    23   1    -0.00   0.31  -0.13     0.10   0.26   0.13     0.09   0.39  -0.05
    24   1     0.02  -0.19  -0.37     0.02  -0.05  -0.05     0.19  -0.16  -0.29
    25   1     0.05  -0.09   0.02     0.13   0.13   0.01    -0.01  -0.03   0.02
    26   1     0.09  -0.12   0.14     0.04   0.04   0.14     0.00   0.01   0.04
    27   1     0.10  -0.15  -0.11     0.06   0.04   0.09    -0.03  -0.03  -0.06
    28   1     0.16  -0.15  -0.29     0.15   0.00  -0.27    -0.05   0.18   0.31
    29   1     0.05  -0.14   0.33     0.12   0.01  -0.04    -0.15  -0.02  -0.37
    30   1    -0.26   0.26  -0.05     0.17   0.31  -0.17     0.29  -0.36   0.04
    31   1     0.09  -0.02  -0.03    -0.05  -0.04  -0.04     0.03   0.01   0.00
    32   1     0.02  -0.01  -0.01    -0.11   0.02  -0.03    -0.12   0.04   0.04
    33   1     0.01   0.02  -0.05    -0.08  -0.09  -0.03    -0.09  -0.09  -0.02
    34   1    -0.04  -0.01   0.04     0.06   0.04  -0.13     0.03   0.04  -0.05
    35   1    -0.06   0.03  -0.00     0.10  -0.00   0.02     0.06   0.01   0.04
                     10                     11                     12
                      A                      A                      A
 Frequencies --    241.5266               248.2943               266.4922
 Red. masses --      1.7749                 2.0756                 2.4306
 Frc consts  --      0.0610                 0.0754                 0.1017
 IR Inten    --      6.2734                 5.0538                 3.0504
  Atom  AN      X      Y      Z        X      Y      Z        X      Y      Z
     1   8    -0.02   0.06  -0.01     0.01  -0.03   0.02    -0.03  -0.02   0.00
     2   6    -0.01   0.02  -0.03     0.01  -0.03   0.01    -0.01  -0.02  -0.02
     3   6    -0.03   0.03  -0.00    -0.04  -0.01   0.04    -0.04  -0.00   0.01
     4   6    -0.01  -0.02  -0.00    -0.02  -0.04  -0.00    -0.01  -0.04  -0.04
     5   6     0.01  -0.04   0.02    -0.03  -0.03  -0.01    -0.01   0.01  -0.00
     6   6     0.01  -0.00   0.04    -0.05  -0.02   0.00    -0.03   0.18   0.09
     7   8     0.02   0.10   0.02    -0.04   0.07  -0.00    -0.12  -0.01   0.07
     8   6     0.02  -0.02  -0.03    -0.06   0.00   0.01    -0.09   0.02  -0.04
     9   6     0.02  -0.04   0.03     0.04  -0.03  -0.03     0.02  -0.01  -0.03
    10   6     0.01  -0.04   0.05     0.03   0.02   0.00     0.05  -0.01  -0.00
    11   8    -0.01   0.01   0.03    -0.06   0.13  -0.01     0.07  -0.02   0.01
    12   6     0.01  -0.01  -0.06     0.03   0.02   0.05     0.03   0.03   0.04
    13   6     0.01  -0.02  -0.01     0.04  -0.04  -0.04     0.01  -0.03  -0.04
    14   6    -0.12  -0.06  -0.00     0.16  -0.00  -0.05     0.04  -0.07  -0.03
    15   6     0.09   0.00  -0.03    -0.01  -0.04  -0.01     0.13  -0.05  -0.05
    16   1    -0.08   0.01   0.03    -0.11  -0.03   0.08    -0.11  -0.02   0.05
    17   1    -0.03   0.08   0.01    -0.02   0.06   0.08    -0.01   0.07   0.05
    18   1    -0.05  -0.03   0.00    -0.01  -0.04  -0.01    -0.00  -0.06  -0.08
    19   1     0.03  -0.04   0.01    -0.03  -0.03  -0.01     0.12  -0.02   0.01
    20   1    -0.04  -0.02   0.09    -0.09  -0.03   0.05    -0.04   0.34  -0.14
    21   1     0.05  -0.04  -0.02    -0.01  -0.05  -0.04     0.03   0.34   0.30
    22   1     0.24   0.06  -0.31     0.05   0.06  -0.15    -0.16  -0.09   0.17
    23   1    -0.10  -0.38  -0.05    -0.10  -0.22   0.02    -0.10   0.32  -0.09
    24   1    -0.09   0.14   0.21    -0.15   0.10   0.16     0.03  -0.14  -0.27
    25   1     0.04  -0.03   0.03     0.09  -0.03  -0.04     0.05  -0.01  -0.03
    26   1     0.03  -0.05   0.09     0.07   0.02   0.11     0.03  -0.02  -0.01
    27   1     0.02  -0.06   0.01     0.04  -0.05  -0.08     0.06   0.00   0.01
    28   1    -0.05   0.03   0.02     0.03   0.24   0.35     0.02   0.01   0.02
    29   1    -0.06  -0.02  -0.21    -0.10   0.02  -0.25     0.08   0.07   0.09
    30   1     0.17  -0.08  -0.07     0.27  -0.30   0.11    -0.04   0.05   0.05
    31   1     0.05  -0.01  -0.01     0.03  -0.05  -0.04    -0.01  -0.02  -0.01
    32   1    -0.30   0.08   0.07     0.30  -0.11  -0.13    -0.01  -0.03  -0.03
    33   1    -0.20  -0.28  -0.05     0.23   0.17  -0.01     0.02  -0.14   0.01
    34   1     0.18   0.08  -0.24    -0.05  -0.12   0.10     0.20  -0.05  -0.21
    35   1     0.27   0.01   0.13    -0.11   0.01  -0.08     0.25  -0.00   0.07
                     13                     14                     15
                      A                      A                      A
 Frequencies --    293.0388               301.0657               310.5733
 Red. masses --      2.8236                 2.4056                 2.7348
 Frc consts  --      0.1429                 0.1285                 0.1554
 IR Inten    --      0.7038                 0.1245                 1.0426
  Atom  AN      X      Y      Z        X      Y      Z        X      Y      Z
     1   8    -0.05   0.03  -0.07     0.01   0.01   0.01     0.04   0.02  -0.00
     2   6    -0.08   0.02  -0.02     0.02  -0.01  -0.01     0.04   0.00   0.00
     3   6    -0.10   0.06   0.04     0.03  -0.03  -0.04     0.12  -0.07  -0.13
     4   6    -0.03  -0.02  -0.03     0.00  -0.00  -0.00     0.03   0.02   0.01
     5   6     0.03  -0.04   0.01     0.02   0.01   0.03    -0.01  -0.01   0.01
     6   6     0.07   0.01   0.05    -0.05  -0.15   0.11    -0.04   0.01   0.00
     7   8     0.09  -0.04   0.06    -0.06  -0.01   0.10    -0.07   0.01  -0.01
     8   6     0.14  -0.03  -0.06    -0.02   0.00  -0.04    -0.10   0.02   0.03
     9   6    -0.03  -0.04   0.01     0.03   0.02  -0.01    -0.03  -0.02   0.03
    10   6    -0.13   0.08   0.09    -0.09   0.15  -0.11    -0.08  -0.01   0.11
    11   8    -0.02  -0.00   0.10     0.02   0.01  -0.09    -0.08  -0.02   0.11
    12   6    -0.01  -0.02  -0.06     0.02   0.02   0.06    -0.06  -0.06  -0.10
    13   6    -0.04  -0.03  -0.03     0.01  -0.02  -0.00     0.00   0.01   0.01
    14   6     0.12   0.01  -0.05     0.01  -0.02  -0.00     0.11   0.07  -0.01
    15   6     0.02  -0.02  -0.04     0.07   0.01  -0.01     0.11   0.06  -0.03
    16   1    -0.27   0.01   0.12     0.11  -0.01  -0.07     0.40   0.02  -0.28
    17   1    -0.03   0.20   0.14    -0.00  -0.09  -0.08     0.02  -0.35  -0.28
    18   1    -0.09  -0.03  -0.03     0.00  -0.00  -0.00     0.03   0.04   0.05
    19   1     0.08  -0.04   0.00     0.02   0.03   0.01    -0.01  -0.02   0.02
    20   1     0.05   0.05   0.00    -0.02  -0.27   0.28    -0.02   0.00  -0.00
    21   1     0.07   0.04   0.10    -0.14  -0.26  -0.05    -0.02   0.00   0.00
    22   1     0.18  -0.05  -0.07     0.07   0.03  -0.15    -0.13   0.02   0.04
    23   1     0.05   0.03  -0.13    -0.14  -0.07  -0.11    -0.05   0.01   0.06
    24   1     0.23  -0.06  -0.11     0.05   0.04   0.00    -0.13   0.03   0.04
    25   1     0.05  -0.02  -0.00     0.00  -0.04   0.01     0.00  -0.00   0.02
    26   1    -0.12   0.23  -0.05    -0.09   0.33  -0.32    -0.05   0.04   0.10
    27   1    -0.27   0.14   0.22    -0.32   0.20   0.04    -0.08   0.01   0.13
    28   1    -0.02  -0.13  -0.20     0.11   0.02   0.01    -0.11  -0.13  -0.18
    29   1    -0.03  -0.10  -0.01     0.10   0.03   0.23    -0.13  -0.15  -0.18
    30   1     0.02   0.15  -0.12    -0.17   0.04   0.09     0.10   0.05  -0.17
    31   1     0.01  -0.03  -0.05     0.00  -0.02   0.00     0.01  -0.01  -0.02
    32   1     0.27  -0.09  -0.16    -0.03   0.02  -0.00     0.16   0.04  -0.08
    33   1     0.21   0.19   0.04    -0.01  -0.07   0.00     0.15   0.11   0.06
    34   1     0.00  -0.08   0.01     0.12   0.01  -0.11     0.16   0.03  -0.12
    35   1    -0.03   0.03  -0.07     0.15   0.03   0.06     0.18   0.12   0.04
                     16                     17                     18
                      A                      A                      A
 Frequencies --    347.8549               391.3687               439.4929
 Red. masses --      2.7843                 3.0068                 4.8412
 Frc consts  --      0.1985                 0.2714                 0.5509
 IR Inten    --      1.7405                 2.7573                 6.3722
  Atom  AN      X      Y      Z        X      Y      Z        X      Y      Z
     1   8     0.09   0.13   0.03     0.05  -0.05   0.08     0.21   0.17   0.03
     2   6     0.09  -0.02  -0.01     0.10   0.01   0.02     0.04  -0.11   0.18
     3   6    -0.01  -0.01   0.07     0.05   0.06   0.07    -0.09  -0.23   0.08
     4   6     0.01  -0.02   0.06     0.08   0.01  -0.09    -0.04  -0.05  -0.06
     5   6     0.01  -0.04   0.03     0.03   0.09  -0.09    -0.08  -0.05  -0.13
     6   6     0.03   0.05  -0.07    -0.07  -0.02   0.06    -0.08   0.04  -0.02
     7   8    -0.03  -0.01  -0.11    -0.05  -0.01   0.11     0.04  -0.00   0.09
     8   6    -0.09   0.01   0.07    -0.02   0.00  -0.04     0.09  -0.02  -0.05
     9   6     0.07  -0.07  -0.01     0.05   0.09  -0.08    -0.06   0.02  -0.01
    10   6    -0.09   0.11  -0.00     0.04   0.03   0.02    -0.01  -0.02   0.01
    11   8    -0.01  -0.02   0.02    -0.08  -0.05   0.07     0.02   0.01  -0.00
    12   6    -0.00  -0.02  -0.02    -0.08  -0.08  -0.10     0.02   0.02   0.02
    13   6     0.10  -0.10  -0.05     0.07   0.05  -0.04    -0.03  -0.05   0.07
    14   6    -0.05  -0.07  -0.06    -0.03  -0.03  -0.01    -0.05   0.13  -0.05
    15   6    -0.06  -0.01   0.03    -0.06  -0.06  -0.03    -0.05   0.08  -0.14
    16   1    -0.10  -0.06   0.16    -0.17   0.01   0.16    -0.05  -0.19   0.01
    17   1     0.00   0.14   0.10     0.13   0.26   0.19    -0.04  -0.31   0.11
    18   1     0.03  -0.02   0.06     0.16  -0.00  -0.14     0.11   0.07   0.08
    19   1    -0.02  -0.07   0.06     0.06   0.10  -0.12    -0.05  -0.03  -0.16
    20   1     0.04   0.13  -0.18    -0.07  -0.10   0.17    -0.21   0.13  -0.07
    21   1     0.14   0.12   0.03    -0.22  -0.07  -0.01    -0.10   0.11   0.08
    22   1    -0.20   0.02   0.14     0.05   0.00  -0.09     0.19  -0.04  -0.09
    23   1     0.07   0.02   0.18    -0.14   0.03  -0.13    -0.05   0.01  -0.15
    24   1    -0.18   0.02   0.10     0.08  -0.01  -0.08     0.19  -0.05  -0.10
    25   1     0.11  -0.08  -0.02     0.04   0.12  -0.09    -0.13   0.13  -0.03
    26   1    -0.05   0.36  -0.21     0.08   0.04   0.08    -0.03  -0.09   0.03
    27   1    -0.35   0.15   0.17     0.14   0.08   0.04     0.05  -0.03  -0.02
    28   1     0.00  -0.07  -0.09    -0.14  -0.15  -0.17     0.03   0.04   0.03
    29   1    -0.00  -0.05   0.02    -0.14  -0.15  -0.18     0.03   0.04   0.03
    30   1    -0.02   0.06  -0.05     0.06   0.03  -0.17     0.00   0.00   0.03
    31   1     0.09  -0.11  -0.07     0.01   0.06  -0.00    -0.24  -0.20  -0.08
    32   1    -0.15  -0.00   0.01    -0.09  -0.01   0.11    -0.05   0.12  -0.04
    33   1    -0.12  -0.14  -0.19    -0.08  -0.09  -0.09    -0.06   0.12  -0.06
    34   1    -0.09   0.04   0.10    -0.15  -0.02   0.16    -0.02   0.07  -0.21
    35   1    -0.11  -0.01  -0.01    -0.20  -0.17  -0.17     0.02   0.08  -0.08
                     19                     20                     21
                      A                      A                      A
 Frequencies --    497.6035               523.4517               549.4060
 Red. masses --      4.1372                 2.9125                 3.5965
 Frc consts  --      0.6036                 0.4702                 0.6396
 IR Inten    --      4.6256                 3.7992                 0.2421
  Atom  AN      X      Y      Z        X      Y      Z        X      Y      Z
     1   8    -0.04   0.19  -0.10     0.00   0.07  -0.04    -0.03   0.07  -0.07
     2   6    -0.08  -0.14  -0.10    -0.06  -0.02   0.02    -0.05   0.05  -0.04
     3   6    -0.02  -0.11   0.06     0.02  -0.04   0.04     0.19   0.08   0.04
     4   6     0.03   0.09   0.10     0.12  -0.03  -0.11     0.21   0.05   0.00
     5   6    -0.00   0.20   0.03     0.16   0.04   0.06    -0.01  -0.12  -0.12
     6   6    -0.01  -0.01  -0.00     0.12  -0.05   0.08    -0.09  -0.00  -0.02
     7   8     0.01  -0.01   0.01    -0.07   0.00  -0.05    -0.03   0.01   0.08
     8   6     0.02  -0.00  -0.00    -0.12   0.02   0.02    -0.01   0.00  -0.02
     9   6    -0.01   0.11  -0.09    -0.02   0.02   0.11    -0.10  -0.13  -0.03
    10   6     0.07   0.01  -0.01    -0.01  -0.04   0.00    -0.10  -0.08   0.05
    11   8    -0.02  -0.02   0.02    -0.00  -0.00  -0.03     0.05   0.04   0.00
    12   6    -0.03  -0.03  -0.03    -0.01  -0.00   0.01     0.07   0.07   0.04
    13   6    -0.07  -0.14  -0.04    -0.09  -0.00   0.04    -0.07  -0.04  -0.01
    14   6     0.06  -0.13  -0.01    -0.03   0.06  -0.02    -0.03  -0.04  -0.00
    15   6     0.05   0.00   0.17    -0.01  -0.01  -0.14     0.02   0.01   0.06
    16   1     0.16  -0.24   0.21    -0.26  -0.12   0.17     0.22   0.03   0.10
    17   1    -0.03  -0.13   0.04     0.21   0.15   0.28     0.25   0.03   0.11
    18   1     0.16   0.04  -0.02     0.11   0.01  -0.05     0.17   0.04   0.00
    19   1    -0.08   0.18   0.06     0.31   0.07  -0.01    -0.09  -0.19  -0.04
    20   1     0.10  -0.15   0.14     0.28  -0.17   0.17    -0.26   0.09  -0.05
    21   1    -0.18  -0.10  -0.14     0.10  -0.15  -0.05    -0.09   0.05   0.05
    22   1     0.02   0.01  -0.01    -0.20   0.04   0.06     0.06  -0.01  -0.05
    23   1     0.00   0.01  -0.02    -0.00   0.00   0.11    -0.11   0.01  -0.09
    24   1     0.05  -0.00  -0.01    -0.19   0.05   0.07     0.05  -0.02  -0.05
    25   1     0.07   0.06  -0.09    -0.05  -0.04   0.13    -0.08  -0.03  -0.05
    26   1     0.06  -0.15   0.14    -0.05  -0.15   0.05    -0.12  -0.09   0.01
    27   1     0.31   0.04  -0.08     0.07  -0.07  -0.07    -0.15  -0.12   0.03
    28   1    -0.06  -0.05  -0.05     0.01   0.01   0.02     0.09   0.10   0.08
    29   1    -0.05  -0.03  -0.05     0.01   0.01   0.02     0.10   0.09   0.08
    30   1     0.02   0.01  -0.05    -0.03  -0.03   0.02     0.01   0.02   0.07
    31   1    -0.24  -0.11   0.07    -0.09  -0.06  -0.05     0.04  -0.00   0.00
    32   1     0.10  -0.12  -0.19     0.08  -0.02  -0.09    -0.03  -0.03  -0.08
    33   1     0.10  -0.04   0.03     0.04   0.15   0.10    -0.02  -0.03   0.03
    34   1     0.06   0.01   0.16    -0.05   0.03  -0.06    -0.16   0.14   0.38
    35   1     0.04   0.05   0.17    -0.04  -0.11  -0.20    -0.22  -0.18  -0.19
                     22                     23                     24
                      A                      A                      A
 Frequencies --    599.8336               615.3686               712.3157
 Red. masses --      2.9345                 4.1725                 4.3439
 Frc consts  --      0.6221                 0.9309                 1.2986
 IR Inten    --      0.0412                 0.0880                 2.0565
  Atom  AN      X      Y      Z        X      Y      Z        X      Y      Z
     1   8     0.01   0.03   0.10    -0.11  -0.00  -0.01     0.09  -0.04   0.09
     2   6     0.21  -0.09  -0.19     0.00  -0.14  -0.15     0.07  -0.05   0.07
     3   6     0.08   0.00  -0.07    -0.04  -0.07  -0.08    -0.07   0.12  -0.11
     4   6    -0.02  -0.07   0.05    -0.00   0.13  -0.11    -0.08   0.20  -0.16
     5   6    -0.07   0.02   0.05     0.05  -0.09  -0.11     0.04   0.19  -0.02
     6   6    -0.04   0.01  -0.03    -0.02   0.00  -0.01     0.03   0.03   0.01
     7   8     0.02  -0.00   0.00    -0.01   0.01   0.02     0.00  -0.01  -0.02
     8   6     0.04  -0.01  -0.00    -0.02   0.00  -0.01     0.00  -0.00   0.00
     9   6    -0.11   0.07   0.10     0.14  -0.06   0.03    -0.08  -0.12  -0.05
    10   6    -0.08  -0.05   0.02     0.06   0.03  -0.02    -0.15  -0.13   0.06
    11   8     0.01  -0.00  -0.03    -0.02  -0.01  -0.00     0.02   0.02   0.01
    12   6     0.01   0.01   0.01    -0.03  -0.03  -0.01     0.06   0.06   0.02
    13   6    -0.05   0.06  -0.02     0.08  -0.09   0.17     0.05  -0.19   0.04
    14   6     0.01   0.00  -0.03    -0.01   0.15   0.21     0.02  -0.06   0.01
    15   6     0.01  -0.02  -0.02    -0.01   0.11   0.06    -0.01   0.03   0.04
    16   1    -0.23  -0.25   0.31    -0.21  -0.32   0.28    -0.08   0.13  -0.12
    17   1     0.01   0.62  -0.07     0.02   0.33   0.04    -0.06   0.13  -0.10
    18   1    -0.04  -0.06   0.07    -0.01   0.18  -0.03    -0.09   0.13  -0.28
    19   1    -0.10   0.07  -0.01     0.02  -0.11  -0.09     0.13   0.09   0.08
    20   1    -0.04   0.01  -0.02    -0.15   0.12  -0.10     0.23  -0.18   0.19
    21   1    -0.05   0.02  -0.02     0.05   0.08   0.10    -0.22  -0.11  -0.18
    22   1     0.05  -0.01  -0.01     0.00  -0.00  -0.01    -0.03   0.01   0.00
    23   1     0.01  -0.00  -0.02    -0.04   0.00  -0.02     0.03   0.01   0.02
    24   1     0.05  -0.01  -0.01    -0.01  -0.00  -0.01     0.00   0.01   0.01
    25   1    -0.09   0.04   0.11     0.01   0.06   0.01    -0.07  -0.08  -0.06
    26   1    -0.15  -0.17   0.02     0.13   0.21  -0.09    -0.19  -0.20   0.06
    27   1    -0.03  -0.07  -0.03    -0.10   0.03   0.05    -0.15  -0.18   0.01
    28   1     0.02   0.03   0.04    -0.03  -0.03  -0.03     0.09   0.09   0.06
    29   1     0.03   0.04   0.04    -0.05  -0.05  -0.03     0.09   0.09   0.06
    30   1    -0.05  -0.03   0.04     0.01  -0.01  -0.02     0.00   0.01   0.05
    31   1    -0.09   0.05  -0.01     0.14  -0.10   0.13     0.03  -0.22   0.02
    32   1     0.14  -0.09  -0.12     0.01   0.16   0.13    -0.05   0.02  -0.05
    33   1     0.08   0.12   0.07    -0.01   0.18   0.15    -0.03  -0.09  -0.12
    34   1     0.04  -0.01  -0.09    -0.00   0.03   0.07     0.04  -0.06  -0.04
    35   1     0.06   0.06   0.04     0.02  -0.07   0.03     0.03  -0.02   0.06
                     25                     26                     27
                      A                      A                      A
 Frequencies --    739.4758               781.9978               820.8127
 Red. masses --      3.7165                 2.5299                 1.5822
 Frc consts  --      1.1974                 0.9115                 0.6280
 IR Inten    --      1.6443                 5.3328                 7.2508
  Atom  AN      X      Y      Z        X      Y      Z        X      Y      Z
     1   8    -0.04  -0.01  -0.04     0.06   0.00   0.04     0.01  -0.01   0.01
     2   6    -0.06   0.02   0.00     0.03  -0.02   0.06     0.01  -0.04  -0.00
[...]
 .00001878,-0.00002275,-0.00005856,0.00005105,-0.00003324,0.00000206,-0
 .00013380,0.00015316,0.00010159,0.00003031,-0.00015381,0.00003211,0.00
 002266,0.00019002,-0.00034159,0.00048457,0.00108801,-0.00056639,0.0009
 2866,0.00612329,0.00039912,0.00782125,-0.13610745,0.01639749,-0.199923
 92,-0.00007440,0.00019217,0.00001066,-0.00001420,-0.00003026,0.0000282
 6,-0.00003850,-0.00001474,0.00000910,0.00000448,0.00000421,-0.00000383
 ,-0.00000107,-0.00000031,0.00000471,0.00000507,0.00002144,0.00000679,0
 .00001512,0.00001909,-0.00000350,-0.00005462,-0.00004699,0.00000491,0.
 00001832,0.00003291,-0.00000219,-0.00001715,-0.00003859,-0.00002386,0.
 00000798,-0.00002807,0.00002576,0.00001357,0.00003466,0.00000327,0.000
 03619,-0.00007538,-0.00003364,0.00010573,-0.00028586,0.00053487,-0.000
 01814,-0.00007787,-0.00007706,0.00266122,-0.00058170,0.00258477,-0.019
 81304,0.00109913,-0.01922669,0.14589062,-0.01616612,0.20693272,0.00208
 067,-0.00219105,0.00013460,0.01154753,0.01822361,-0.00132662,-0.002215
 19,0.00269855,0.00019693,-0.00018710,0.00076896,-0.00005658,-0.0002136
 6,0.00097584,0.00274896,0.00014142,-0.00080680,-0.00015481,-0.00010597
 ,0.00018977,0.00015907,0.00012935,-0.00003259,-0.00001909,-0.01003592,
 -0.01325327,0.00128472,-0.00023918,-0.00148365,-0.00080362,0.00027433,
 0.00035340,0.00005733,-0.00018241,0.00002963,0.00005603,-0.14009786,-0
 .12777576,0.00821628,-0.01119120,-0.01523216,0.00125487,-0.00054683,0.
 00048830,-0.00375345,0.00034759,0.00060220,0.00001096,0.00023341,0.000
 50170,-0.00000817,0.00003283,-0.00003715,0.00000783,-0.00029651,-0.000
 41510,0.00013776,-0.00003786,-0.00001376,-0.00001187,-0.00024053,0.000
 04136,0.00006728,-0.00004074,0.00000772,-0.00001392,-0.00002109,0.0000
 0929,0.00003247,-0.00001195,0.00001172,-0.00000445,0.00071152,0.000319
 68,0.00002132,0.00039603,0.00014656,-0.00001927,0.00014019,0.00100658,
 0.00028100,0.00001153,0.00007379,0.00000721,0.00003025,0.00000698,-0.0
 0003737,0.00001632,-0.00000431,0.00000929,0.14953859,0.00066438,0.0057
 8963,-0.00031359,-0.02076473,-0.02589756,0.00156997,0.00368013,-0.0027
 6649,0.00001740,0.00105373,0.00042473,-0.00007369,0.00070557,0.0008204
 3,-0.00053174,0.00021875,0.00007496,-0.00011504,-0.00008718,0.00010362
 ,0.00014703,0.00006454,-0.00000760,-0.00000030,0.00143671,0.00107818,0
 .00018280,0.00053802,0.00065228,-0.00024391,-0.00004853,0.00003915,-0.
 00001184,-0.00000567,-0.00004452,0.00001037,-0.12327417,-0.22068511,0.
 01182168,0.00098788,0.00104270,-0.00029112,0.00060591,0.00107015,0.000
 37184,-0.00043035,-0.00096539,-0.00000291,-0.00031313,-0.00079792,-0.0
 0003608,-0.00007975,0.00008704,0.00000035,0.00002101,-0.00001137,-0.00
 003945,-0.00004282,0.00000458,0.00002235,0.00004156,0.00002528,-0.0000
 1833,-0.00001347,0.00000323,-0.00000443,-0.00001394,0.00000235,0.00001
 534,-0.00000372,-0.00000334,-0.00000599,-0.00002816,0.00009694,0.00048
 100,0.00004878,0.00019892,0.00007666,-0.00015154,0.00044287,0.00013277
 ,0.00000861,0.00002489,0.00000245,0.00000713,0.00000362,-0.00000712,0.
 00000112,-0.00000317,-0.00000096,0.13534884,0.23850311,-0.00018658,-0.
 00006409,-0.00104505,0.00025388,-0.00043282,-0.00062667,0.00026581,-0.
 00009608,0.00204708,-0.00003717,0.00000277,-0.00081296,0.00255256,-0.0
 0196198,-0.00417290,-0.00013939,0.00151440,0.00005266,0.00015648,-0.00
 014745,-0.00002864,-0.00015034,0.00003675,0.00002474,0.01673311,0.0227
 9675,-0.00270965,-0.00002080,0.00141364,0.00131005,-0.00016074,-0.0001
 5265,-0.00009442,0.00011646,-0.00009863,0.00000564,0.00782335,0.011509
 61,-0.04982409,-0.01553698,-0.02171051,0.00205283,-0.00231582,0.000830
 78,-0.00429482,-0.00013253,-0.00031523,-0.00003857,0.00009545,0.000358
 19,-0.00004345,0.00005300,0.00001455,0.00017409,0.00025132,0.00064745,
 -0.00009203,0.00007731,-0.00008164,-0.00000495,0.00052571,-0.00000035,
 -0.00014547,0.00004037,-0.00001491,0.00000962,0.00002186,-0.00001553,-
 0.00003387,0.00001791,-0.00000799,-0.00000092,-0.00078940,0.00018598,0
 .00083648,-0.00037411,0.00006841,0.00000947,-0.00024366,-0.00076996,-0
 .00000288,0.00000562,0.00000834,0.00002770,-0.00000547,0.00001812,0.00
 002259,0.00000631,-0.00001914,-0.00000654,-0.00910916,-0.01216324,0.05
 563895,-0.00100000,0.00126707,0.00074149,-0.00095253,-0.00379218,-0.00
 385088,-0.00013010,0.00053076,0.00076023,-0.00212603,-0.00266359,-0.00
 056073,0.00003567,-0.00008339,-0.00016235,0.00012162,-0.00007654,0.000
 02243,-0.00004014,0.00007090,0.00002171,0.00000444,-0.00002315,0.00002
 125,0.00079017,-0.00077298,0.00092908,0.00100569,-0.00000182,-0.000550
 26,-0.00213681,0.00105109,0.00195206,-0.00018585,0.00033117,0.00023130
 ,-0.01220994,0.01773365,-0.00466840,-0.12116447,0.12446994,-0.01356089
 ,0.01009372,-0.01999733,0.00351443,0.00009544,-0.00015069,-0.00001024,
 0.00006937,0.00014572,-0.00009693,0.00028354,-0.00062667,0.00097244,-0
 .00000806,0.00003987,0.00008899,-0.00005219,-0.00001338,0.00000597,0.0
 0004487,0.00004834,-0.00002959,-0.00000858,0.00000697,-0.00000240,-0.0
 0000568,0.00000178,0.00000095,0.00000232,0.00000745,-0.00000318,-0.000
 10897,-0.00001565,0.00020005,-0.00010103,-0.00010275,-0.00011079,-0.00
 014660,-0.00006914,-0.00013093,0.00000244,-0.00011773,-0.00006405,-0.0
 0002094,-0.00002774,-0.00002905,-0.00002352,0.00003766,0.00004030,0.00
 032776,-0.00013285,0.00059107,0.13642715,-0.00055458,0.00030112,0.0005
 5462,-0.00004501,-0.00010190,-0.00141555,-0.00037168,0.00071437,-0.000
 02914,-0.00252951,-0.00233501,-0.00100187,0.00001756,-0.00022930,-0.00
 017261,0.00013252,-0.00009304,-0.00000011,-0.00010518,0.00009042,0.000
 08892,0.00007107,-0.00002810,-0.00000004,0.00018091,0.00001252,0.00054
 222,-0.00005126,0.00003929,0.00025205,0.00184404,-0.00167336,-0.002343
 34,0.00017274,-0.00001917,-0.00051547,-0.00266437,0.00442940,-0.001114
 30,0.12238484,-0.24851651,0.02465295,0.01012226,-0.01913588,0.00236797
 ,0.00005849,-0.00002914,0.00002469,-0.00000299,0.00014907,-0.00002516,
 0.00028950,-0.00053220,0.00102173,0.00000254,0.00006981,0.00007253,-0.
 00005795,-0.00001644,0.00003642,0.00003933,0.00004328,-0.00002923,-0.0
 0001873,0.00001144,-0.00000639,-0.00001095,0.00000417,0.00001035,-0.00
 000750,0.00000284,-0.00000363,-0.00004691,0.00004005,0.00008004,-0.000
 04271,-0.00009106,-0.00009189,-0.00004094,0.00000312,-0.00006340,0.000
 01336,-0.00005672,-0.00005268,0.00007884,-0.00011875,-0.00005540,0.000
 00331,0.00003211,0.00000994,0.00025341,0.00062777,0.00031639,-0.129788
 17,0.26814543,-0.00253876,0.00177056,0.00147923,-0.00104544,-0.0042943
 4,-0.00557424,0.00038638,-0.00028670,0.00092738,0.00078321,0.00108224,
 -0.00014469,0.00006915,0.00028664,0.00004042,-0.00020678,0.00027731,-0
 .00009761,0.00003417,-0.00020130,0.00000739,0.00002339,0.00006433,-0.0
 0007836,0.00072622,0.00020719,0.00198290,-0.00166173,0.00071470,-0.002
 21584,0.00082347,-0.00061290,-0.00009687,0.00109026,-0.00161207,0.0002
 4619,-0.01745848,0.02574981,-0.00606955,-0.01059721,0.02109428,-0.0496
 7633,-0.00168048,0.00307024,-0.00091140,-0.00001334,-0.00011650,0.0000
 0784,0.00017271,0.00029334,0.00003663,0.00008125,0.00023600,-0.0004207
 8,-0.00002331,-0.00008295,0.00000946,0.00018858,0.00005034,0.00002388,
 0.00000716,-0.00012660,0.00002609,0.00003207,-0.00001229,0.00001415,0.
 00000936,0.00000132,-0.00000050,-0.00001274,-0.00003529,0.00000811,0.0
 0004297,-0.00028226,0.00030167,0.00029896,-0.00012197,0.00032095,0.000
 24204,-0.00000534,0.00009902,0.00002170,0.00029384,0.00002380,-0.00028
 954,0.00041345,0.00024574,-0.00009417,0.00002954,-0.00007993,0.0006255
 2,-0.00050331,0.00107758,0.01526964,-0.02319245,0.05382981,0.00036072,
 -0.00042552,0.00017555,0.00149213,0.00030602,-0.00080010,-0.00020321,0
 .00011433,0.00024461,-0.00146647,-0.00056367,-0.00069363,-0.00020684,-
 0.00029057,-0.00006240,-0.00006166,0.00012977,-0.00024855,-0.00001028,
 0.00002928,0.00022022,0.00006869,0.00000783,-0.00002775,-0.00314175,-0
 .00003004,-0.00327530,-0.00071657,0.00044233,-0.00054974,-0.00021798,0
 .00048148,0.00099529,0.00021749,-0.00032399,0.00018074,0.01243342,-0.0
 0198998,-0.01866623,-0.13357112,0.02000725,0.12031171,-0.01227124,0.00
 195412,0.01403235,0.00010069,-0.00002438,-0.00002537,0.00001002,-0.000
 06055,-0.00012077,0.00020261,-0.00018532,0.00040317,0.00004220,0.00006
 941,0.00009122,0.00010178,-0.00006004,-0.00002225,0.00007903,0.0000188
 5,-0.00001394,-0.00000393,-0.00000501,-0.00000545,-0.00000872,0.000002
 83,0.00001636,-0.00000506,-0.00000521,-0.00000452,0.00066433,-0.000099
 11,-0.00129131,0.00017073,-0.00011015,0.00012693,0.00006772,0.00002187
 ,0.00002337,0.00000695,0.00008163,0.00001080,-0.00007442,0.00010692,0.
 00005580,0.00000769,-0.00003278,-0.00001714,0.00068081,-0.00009550,0.0
 0097504,-0.00942019,0.00138834,0.01478201,0.14492376,-0.00046810,0.000
 13876,-0.00007071,0.00046562,-0.00009553,0.00123112,-0.00008033,0.0000
 8903,-0.00000569,-0.00211833,-0.00117118,-0.00045398,0.00008762,-0.000
 15203,-0.00035187,-0.00000564,0.00001026,-0.00014670,0.00001986,0.0000
 8036,0.00011348,0.00002728,-0.00002660,0.00001156,-0.00065339,0.000438
 35,0.00008229,0.00048572,-0.00014587,0.00083419,0.00086401,-0.00081622
 ,-0.00126781,-0.00027930,0.00056090,-0.00020976,0.00144396,-0.00020634
 ,-0.00099479,0.02028217,-0.05503985,-0.02439500,-0.01606350,0.00110693
 ,0.02039800,0.00012816,0.00003392,-0.00006163,0.00012901,-0.00029224,0
 .00004381,0.00031560,-0.00043537,0.00054978,0.00008155,0.00006421,0.00
 005138,-0.00000846,-0.00008817,0.00001832,0.00004883,0.00005590,-0.000
 03933,-0.00001461,0.00000097,-0.00000961,-0.00000624,0.00000085,0.0000
 0698,0.00000151,0.00001332,-0.00000587,0.00004607,0.00019425,-0.000134
 60,-0.00008305,-0.00001999,-0.00015918,-0.00006691,-0.00000781,-0.0000
 2720,-0.00001012,-0.00008757,-0.00001491,0.00011156,-0.00017645,-0.000
 11950,0.00001762,-0.00000200,0.00003454,0.00019520,-0.00002390,-0.0000
 9668,0.01488599,-0.00155327,-0.02425326,-0.01776312,0.05818930,-0.0014
 4294,0.00011932,0.00038441,0.00280682,-0.00119383,-0.00089390,0.000266
 33,0.00001634,-0.00038981,0.00031192,0.00030329,0.00025811,-0.00038611
 ,-0.00061020,0.00052211,-0.00007145,0.00009054,0.00007144,0.00012353,0
 .00003458,-0.00005235,-0.00012792,0.00000711,0.00005846,-0.00534749,-0
 .00014177,-0.00301537,-0.00041706,0.00050051,0.00019709,0.00036554,-0.
 00041499,0.00027599,-0.00010885,0.00030322,0.00005014,0.01330526,-0.00
 183715,-0.02260609,0.11991929,-0.02381349,-0.21776545,-0.00004130,-0.0
 0109468,-0.00045810,-0.00012315,0.00009504,0.00010849,0.00000093,0.000
 29097,0.00014361,-0.00007819,0.00014767,-0.00012405,0.00000028,0.00005
 938,0.00004239,-0.00000605,-0.00002168,-0.00001523,0.00007879,0.000038
 99,-0.00002605,0.00001431,-0.00000699,0.00000230,0.00000419,-0.0000067
 9,-0.00001354,0.00002652,0.00001658,-0.00000077,0.00103779,-0.00009252
 ,-0.00166667,0.00012224,-0.00010259,0.00002346,0.00000780,-0.00006586,
 -0.00001045,-0.00001312,-0.00004976,-0.00002033,0.00000696,-0.00003606
 ,-0.00003055,0.00005015,-0.00003775,0.00001279,-0.00009187,-0.00041713
 ,0.00062919,-0.00158777,-0.00057049,0.00362128,-0.12741424,0.02804871,
 0.23859119,-0.00026712,-0.00003530,-0.00002187,0.00096098,0.00008288,0
 .00029977,0.00078558,0.00136616,-0.00201440,-0.00744084,0.00264003,0.0
 0044507,-0.00009656,0.00025425,0.00037982,-0.00060130,0.00075713,-0.00
 032402,0.00029385,-0.00019528,0.00065437,0.00020047,0.00001509,-0.0001
 4690,-0.00031149,-0.00021167,0.00014601,-0.00066893,0.00021383,-0.0005
 3237,0.00042892,0.00049019,0.00036122,0.00024645,-0.00019299,0.0000480
 7,-0.00075334,-0.00118841,0.00086924,-0.01632154,0.00429859,0.00365007
 ,-0.27940252,0.08055352,0.02923159,-0.00064168,0.00002434,0.00011079,0
 .00020389,-0.00014310,0.00003474,0.00039025,0.00040379,-0.00032985,0.0
 0012152,-0.00002508,0.00001408,0.00055591,-0.00042386,0.00060198,0.000
 00112,-0.00004818,-0.00008545,-0.00001015,-0.00001708,-0.00002878,-0.0
 0000199,0.00000419,0.00002609,-0.00001932,-0.00001124,-0.00000549,0.00
 010196,-0.00000283,-0.00009042,0.00009809,-0.00009046,0.00002660,0.000
 13820,0.00005192,0.00007305,-0.00000098,0.00014086,0.00002539,-0.00002
 297,0.00003451,0.00003010,0.00001516,-0.00005498,-0.00000295,-0.000324
 84,-0.00000147,-0.00052483,0.00142270,0.00040028,0.00016431,-0.0016125
 6,-0.00210649,-0.00068240,0.30233779,0.00021190,0.00056804,-0.00003484
 ,-0.00002334,-0.00149582,0.00015447,0.00024761,-0.00153200,0.00393914,
 0.01755430,-0.00603270,-0.00323234,-0.00054229,0.00064100,-0.00093648,
 0.00028907,0.00032386,0.00020359,-0.00021074,-0.00009507,-0.00022676,-
 0.00007899,0.00003720,0.00004837,0.00000501,0.00011070,0.00004360,-0.0
 0032524,0.00028701,-0.00031770,0.00019019,-0.00001140,0.00029469,0.000
 22208,-0.00024623,0.00003008,-0.00124158,-0.00125326,0.00088461,-0.025
 46750,0.00615905,0.00424930,0.08200097,-0.07604067,-0.01211383,0.00133
 376,0.00002708,0.00018404,-0.00052211,0.00019896,0.00009440,-0.0003014
 2,0.00010910,-0.00060856,-0.00000130,-0.00010214,-0.00016201,0.0000519
 0,0.00043605,-0.00039154,-0.00003306,-0.00023604,0.00014128,0.00001901
 ,0.00000085,0.00001266,-0.00000276,-0.00000626,-0.00000869,0.00000126,
 -0.00001680,0.00001659,0.00005651,-0.00003377,-0.00006139,0.00009165,-
 0.00002114,0.00008040,0.00005579,0.00004169,0.00010492,-0.00000273,0.0
 0009605,0.00002451,-0.00003844,0.00006237,0.00005743,0.00000710,-0.000
 03266,-0.00001975,-0.00035234,-0.00000919,-0.00059731,-0.00051797,0.00
 159066,0.00010008,-0.00301456,-0.00237595,0.00034442,-0.08748035,0.085
 33160,-0.00023500,-0.00045296,0.00004219,0.00062965,0.00092593,-0.0000
 4295,-0.00057299,0.00296863,-0.00485195,-0.02764685,0.00926728,0.00334
 406,-0.00041296,-0.00033407,0.00157989,-0.00008712,0.00033892,-0.00140
 037,-0.00007185,-0.00006918,0.00058142,0.00032245,-0.00000818,-0.00010
 891,-0.00008509,-0.00028263,-0.00007785,-0.00023862,-0.00010907,-0.000
 24312,0.00000701,0.00023029,-0.00012908,0.00021218,-0.00020892,0.00010
 028,-0.00014469,-0.00018305,-0.00032002,0.00343668,0.00004894,-0.00148
 689,0.03079481,-0.01336308,-0.05457789,-0.00186845,0.00043497,0.000229
 29,-0.00002433,0.00025393,0.00014221,0.00070658,-0.00044202,0.00087740
 ,0.00017880,0.00013545,0.00042293,0.00068917,-0.00042129,-0.00104797,0
 .00006826,-0.00005059,0.00003314,-0.00003668,0.00000588,-0.00002773,-0
 .00003177,0.00001056,0.00003572,-0.00004021,-0.00002547,-0.00000326,0.
 00003792,0.00003421,0.00002937,0.00001610,-0.00005528,0.00001423,0.000
 04871,0.00003637,0.00001825,-0.00000808,0.00008110,0.00001203,-0.00003
 834,0.00003537,0.00001230,-0.00003401,0.00001546,-0.00000906,0.0000196
 8,-0.00009775,-0.00004292,0.00022421,0.00002696,0.00120789,0.00076038,
 0.00110519,0.00024304,-0.03332346,0.00965921,0.05809891,-0.00011602,0.
 00038095,0.00007860,0.00007625,-0.00107397,-0.00008685,0.00075961,-0.0
 0082707,-0.00070178,-0.00039395,-0.00524167,-0.00760514,-0.00024008,0.
 00101533,-0.00128212,-0.00037780,0.00049946,-0.00027818,0.00011256,-0.
 00008760,0.00034260,0.00012732,0.00002000,-0.00007131,-0.00013392,0.00
 015260,0.00040364,-0.00029442,0.00007978,-0.00014310,0.00021976,0.0002
 7362,0.00011347,0.00010982,-0.00008194,0.00003487,-0.00160499,-0.00295
 021,0.00068739,-0.00189979,-0.01263825,-0.01623864,-0.05065886,0.00607
 768,0.00555721,0.00014927,0.00004019,0.00019867,-0.00017846,0.00036442
 ,0.00021846,0.00033492,0.00002955,0.00057059,0.00027355,-0.00027355,-0
 .00043273,0.00031834,-0.00030218,-0.00001269,0.00005502,-0.00007326,-0
 .00001071,-0.00000603,-0.00000792,-0.00001893,-0.00000482,-0.00000039,
 0.00001469,-0.00000988,-0.00001195,-0.00000215,0.00006719,0.00005162,-
 0.00001335,0.00004889,-0.00003201,0.00001068,0.00005302,0.00004077,0.0
 0004563,-0.00000460,0.00006770,0.00001642,-0.00000856,0.00001418,0.000
 00671,0.00000254,-0.00002575,0.00000093,-0.00065131,0.00005430,-0.0008
 3564,-0.00088523,-0.00111489,-0.00025255,0.00136123,0.00009024,-0.0005
 0874,0.00019527,0.01781860,0.02674792,0.05320416,-0.00027755,0.0003447
 3,0.00009677,0.00046555,-0.00087839,-0.00007006,-0.00077332,0.00089539
 ,0.00001428,-0.00044545,0.01138491,0.01705265,0.00175674,-0.00221666,0
 .00308648,0.00046670,-0.00022522,0.00003668,-0.00013153,0.00012890,-0.
 00008400,-0.00003895,-0.00000875,0.00003714,-0.00000906,-0.00018569,0.
 00036647,0.00020283,0.00003554,0.00024417,0.00015812,-0.00021762,-0.00
 027655,-0.00022557,0.00022885,0.00000209,-0.00115133,-0.00296114,0.001
 45946,-0.00018948,-0.01353676,-0.01859986,0.00546030,-0.13429112,-0.12
 351762,-0.00028450,0.00010354,0.00000616,-0.00010199,0.00011853,-0.000
 24614,-0.00034986,0.00104478,-0.00067537,-0.00014428,0.00060359,0.0011
 3431,-0.00019917,0.00007516,-0.00001860,-0.00001195,0.00004973,-0.0000
 1429,-0.00001956,0.00000660,0.00000431,-0.00000660,-0.00000018,0.00000
 232,0.00000283,0.00001095,-0.00000137,0.00002903,0.00004739,-0.0000815
 0,0.00002571,-0.00005292,-0.00005619,-0.00004414,0.00006909,-0.0000073
 0,0.00000647,-0.00005919,-0.00000941,0.00004021,-0.00004809,-0.0000483
 3,0.00001350,-0.00000127,0.00001499,-0.00065518,0.00009911,-0.00097594
 ,-0.00165467,-0.00177701,0.00000431,-0.00008275,0.00173903,0.00009708,
 0.00049724,-0.00648017,-0.00951115,-0.00232835,0.14595434,-0.00010889,
 0.00014504,0.00001597,0.00001254,-0.00059318,-0.00009784,0.00139906,-0
 .00085126,0.00090623,0.00151111,-0.01570211,-0.02338208,-0.00225705,0.
 00496119,-0.00291555,-0.00082007,0.00008564,0.00049986,0.00047996,-0.0
 0013740,-0.00036969,-0.00029023,-0.00002909,0.00008571,0.00054004,0.00
 068290,0.00037119,-0.00017175,0.00006874,-0.00000694,0.00005045,-0.000
 18782,0.00008690,-0.00006853,0.00012396,0.00000405,0.00011819,0.000587
 58,0.00037691,0.00096302,0.00416409,0.00476688,0.00418381,-0.12270367,
 -0.22034967,0.00017365,0.00018469,0.00031872,-0.00088955,0.00051751,0.
 00041432,0.00061524,0.00018212,0.00084375,0.00015862,-0.00093447,-0.00
 165958,0.00006510,0.00001006,-0.00001056,0.00008316,0.00006405,-0.0000
 5113,0.00006674,-0.00001941,0.00000888,0.00003567,-0.00001074,-0.00004
 329,0.00004853,0.00003062,0.00000197,-0.00004997,-0.00003637,0.0000712
 6,-0.00000133,0.00004099,0.00001494,0.00001782,-0.00010875,0.00000822,
 -0.00000382,-0.00003360,-0.00000896,0.00000420,-0.00000726,-0.00000404
 ,0.00002225,-0.00001148,0.00000926,0.00008112,0.00002591,0.00010210,-0
 .00016918,0.00062539,-0.00017132,-0.00016686,0.00028873,0.00185323,0.0
 0092081,-0.00195661,-0.00265458,-0.00655388,0.13053401,0.24096489\\0.0
 0006750,-0.00000376,-0.00000182,-0.00004308,0.00001041,0.00001426,0.00
 001391,-0.00002182,-0.00001337,-0.00002515,0.00001795,-0.00001435,0.00
 003177,-0.00001113,0.00005336,-0.00002159,-0.00002327,-0.00000906,-0.0
 0001397,-0.00003593,0.00004870,-0.00001730,0.00001953,-0.00000197,-0.0
 0002363,-0.00000633,0.00000212,0.00002212,0.00007291,0.00006259,-0.000
 03738,0.00008490,0.00002224,-0.00002528,0.00003763,0.00001152,0.000029
 11,-0.00002506,-0.00003767,-0.00000180,-0.00000736,-0.00000995,-0.0000
 0448,-0.00007274,-0.00005101,-0.00001040,0.00001582,0.00000125,-0.0000
 0392,-0.00000093,0.00000628,0.00000992,0.00000554,0.00000633,-0.000021
 17,-0.00001875,-0.00001421,-0.00001323,-0.00001108,-0.00001230,0.00000
 863,0.00000082,0.00001011,0.00000611,-0.00000825,-0.00000013,0.0000184
 8,-0.00000318,-0.00002742,0.00000477,0.00001305,-0.00001352,0.00001071
 ,-0.00000936,-0.00002027,0.00000936,-0.00001167,-0.00000620,-0.0000064
 1,0.00000039,-0.00000892,-0.00001070,-0.00002078,0.00000530,0.00001875
 ,0.00000576,-0.00002495,0.00002605,-0.00000542,0.00001573,-0.00001363,
 0.00001487,-0.00001038,-0.00000299,-0.00000407,0.00001633,-0.00000624,
 0.00001298,-0.00000891,0.00000530,-0.00000038,-0.00000804,0.00001985,-
 0.00001131,0.00001833\\\@


 I DO NOT DEFINE TIME, SPACE, PLACE, AND MOTION, AS BEING WELL KNOWN TO ALL.
                                            -- NEWTON (1642-1726), PRINCIPIA
 Job cpu time:       0 days  0 hours  5 minutes  1.6 seconds.
 Elapsed time:       0 days  0 hours  5 minutes  9.2 seconds.
 File lengths (MBytes):  RWF=    295 Int=      0 D2E=      0 Chk=     16 Scr=      1
 Normal termination of Gaussian 16 at Sat Feb 24 00:07:28 2024.
