 Entering Gaussian System, Link 0=g16
 Input=/Volumes/SSD-PMU3/b3lyp_6-31gd_freq/HHDQRTZHKICZGV-XWLWVQCSSA-N_calculating/gaussianinput1.gjf
 Output=/Volumes/SSD-PMU3/b3lyp_6-31gd_freq/HHDQRTZHKICZGV-XWLWVQCSSA-N_calculating/gaussianinput1.log
 Initial command:
 /Applications/g16/l1.exe "/Users/macmini_m1_2022/PycharmProjects/sphere_model/sphere_model_lib/Gau-80677.inp" -scrdir="/Users/macmini_m1_2022/PycharmProjects/sphere_model/sphere_model_lib/"
 Entering Link 1 = /Applications/g16/l1.exe PID=     80678.
  
 Copyright (c) 1988,1990,1992,1993,1995,1998,2003,2009,2016,
            Gaussian, Inc.  All Rights Reserved.
  
 This is part of the Gaussian(R) 16 program.  It is based on
 the Gaussian(R) 09 system (copyright 2009, Gaussian, Inc.),
 the Gaussian(R) 03 system (copyright 2003, Gaussian, Inc.),
 the Gaussian(R) 98 system (copyright 1998, Gaussian, Inc.),
 the Gaussian(R) 94 system (copyright 1995, Gaussian, Inc.),
 the Gaussian 92(TM) system (copyright 1992, Gaussian, Inc.),
 the Gaussian 90(TM) system (copyright 1990, Gaussian, Inc.),
 the Gaussian 88(TM) system (copyright 1988, Gaussian, Inc.),
 the Gaussian 86(TM) system (copyright 1986, Carnegie Mellon
 University), and the Gaussian 82(TM) system (copyright 1983,
 Carnegie Mellon University). Gaussian is a federally registered
 trademark of Gaussian, Inc.
  
 This software contains proprietary and confidential information,
 including trade secrets, belonging to Gaussian, Inc.
  
 This software is provided under written license and may be
 used, copied, transmitted, or stored only in accord with that
 written license.
  
 The following legend is applicable only to US Government
 contracts under FAR:
  
                    RESTRICTED RIGHTS LEGEND
  
 Use, reproduction and disclosure by the US Government is
 subject to restrictions as set forth in subparagraphs (a)
 and (c) of the Commercial Computer Software - Restricted
 Rights clause in FAR 52.227-19.
  
 Gaussian, Inc.
 340 Quinnipiac St., Bldg. 40, Wallingford CT 06492
  
  
 ---------------------------------------------------------------
 Warning -- This program may not be used in any manner that
 competes with the business of Gaussian, Inc. or will provide
 assistance to any competitor of Gaussian, Inc.  The licensee
 of this program is prohibited from giving any competitor of
 Gaussian, Inc. access to this program.  By using this program,
 the user acknowledges that Gaussian, Inc. is engaged in the
 business of creating and licensing software in the field of
 computational chemistry and represents and warrants to the
 licensee that it is not a competitor of Gaussian, Inc. and that
 it will not use this program in any manner prohibited above.
 ---------------------------------------------------------------
  

 Cite this work as:
 Gaussian 16, Revision A.03,
 M. J. Frisch, G. W. Trucks, H. B. Schlegel, G. E. Scuseria, 
 M. A. Robb, J. R. Cheeseman, G. Scalmani, V. Barone, 
 G. A. Petersson, H. Nakatsuji, X. Li, M. Caricato, A. V. Marenich, 
 J. Bloino, B. G. Janesko, R. Gomperts, B. Mennucci, H. P. Hratchian, 
 J. V. Ortiz, A. F. Izmaylov, J. L. Sonnenberg, D. Williams-Young, 
 F. Ding, F. Lipparini, F. Egidi, J. Goings, B. Peng, A. Petrone, 
 T. Henderson, D. Ranasinghe, V. G. Zakrzewski, J. Gao, N. Rega, 
 G. Zheng, W. Liang, M. Hada, M. Ehara, K. Toyota, R. Fukuda, 
 J. Hasegawa, M. Ishida, T. Nakajima, Y. Honda, O. Kitao, H. Nakai, 
 T. Vreven, K. Throssell, J. A. Montgomery, Jr., J. E. Peralta, 
 F. Ogliaro, M. J. Bearpark, J. J. Heyd, E. N. Brothers, K. N. Kudin, 
 V. N. Staroverov, T. A. Keith, R. Kobayashi, J. Normand, 
 K. Raghavachari, A. P. Rendell, J. C. Burant, S. S. Iyengar, 
 J. Tomasi, M. Cossi, J. M. Millam, M. Klene, C. Adamo, R. Cammi, 
 J. W. Ochterski, R. L. Martin, K. Morokuma, O. Farkas, 
 J. B. Foresman, and D. J. Fox, Gaussian, Inc., Wallingford CT, 2016.
 
 ******************************************
 Gaussian 16:  EM64M-G16RevA.03 25-Dec-2016
                24-Feb-2024 
 ******************************************
 %nprocshared=10
 Will use up to   10 processors via shared memory.
 %mem=12GB
 %chk= 1.chk
 ---------------------
 # freq b3lyp/6-31g(d)
 ---------------------
 1/10=4,30=1,38=1/1,3;
 2/12=2,17=6,18=5,40=1/2;
 3/5=1,6=6,7=1,11=2,25=1,30=1,71=2,74=-5,140=1/1,2,3;
 4//1;
 5/5=2,38=5,98=1/2;
 8/6=4,10=90,11=11/1;
 11/6=1,8=1,9=11,15=111,16=1/1,2,10;
 10/6=1/2;
 6/7=2,8=2,9=2,10=2,28=1/1;
 7/8=1,10=1,25=1/1,2,3,16;
 1/10=4,30=1/3;
 99//99;
 ---------
 good luck
 ---------
 Symbolic Z-matrix:
 Charge =  0 Multiplicity = 1
 O                     1.21531   0.        0. 
 C                     0.        0.        0. 
 C                    -0.85057  -1.27346  -0.00104 
 C                    -2.33643  -0.89801  -0.15976 
 C                    -2.7816   -0.06833   1.07524 
 C                    -4.27222   0.28613   1.02692 
 O                    -4.99755  -0.93455   0.99716 
 C                    -6.39323  -0.73731   0.96056 
 C                    -1.79218   1.14564   1.24868 
 C                    -2.3869    2.4898    1.67729 
 O                    -3.24369   3.03582   0.68856 
 C                    -3.77979   4.28764   1.06548 
 C                    -0.86651   1.25257  -0.00104 
 C                    -1.67529   1.25387  -1.3241 
 C                    -2.47998  -0.07168  -1.45458 
 H                    -0.6637   -1.81963   0.93436 
 H                    -0.50438  -1.9248   -0.81361 
 H                    -2.95309  -1.79934  -0.21647 
 H                    -2.67289  -0.71676   1.95499 
 H                    -4.55874   0.86496   1.92034 
 H                    -4.52293   0.90439   0.15457 
 H                    -6.86027  -1.72575   0.93728 
 H                    -6.70452  -0.17382   0.06578 
 H                    -6.75297  -0.19392   1.84999 
 H                    -1.13427   0.89603   2.09399 
 H                    -1.55743   3.19016   1.87718 
 H                    -2.93861   2.36981   2.62616 
 H                    -4.42206   4.62429   0.24785 
 H                    -2.98717   5.03459   1.23029 
 H                    -4.38031   4.21139   1.98611 
 H                    -0.2211    2.13391   0.06984 
 H                    -0.98392   1.37564  -2.16573 
 H                    -2.33905   2.12055  -1.32142 
 H                    -2.10904  -0.66859  -2.29703 
 H                    -3.53456   0.1314   -1.66646 
 

 GradGradGradGradGradGradGradGradGradGradGradGradGradGradGradGradGradGrad
 Berny optimization.
 Initialization pass.
 Trust Radius=3.00D-01 FncErr=1.00D-07 GrdErr=1.00D-07 EigMax=2.50D+02 EigMin=1.00D-04
 Number of steps in this run=      2 maximum allowed number of steps=      2.
 GradGradGradGradGradGradGradGradGradGradGradGradGradGradGradGradGradGrad

                          Input orientation:                          
 ---------------------------------------------------------------------
 Center     Atomic      Atomic             Coordinates (Angstroms)
 Number     Number       Type             X           Y           Z
 ---------------------------------------------------------------------
      1          8           0        1.215309    0.000000    0.000000
      2          6           0        0.000000    0.000000    0.000000
      3          6           0       -0.850571   -1.273462   -0.001037
      4          6           0       -2.336425   -0.898008   -0.159762
      5          6           0       -2.781598   -0.068329    1.075238
      6          6           0       -4.272224    0.286131    1.026915
      7          8           0       -4.997551   -0.934552    0.997160
      8          6           0       -6.393227   -0.737314    0.960564
      9          6           0       -1.792181    1.145639    1.248677
     10          6           0       -2.386897    2.489803    1.677294
     11          8           0       -3.243693    3.035824    0.688561
     12          6           0       -3.779791    4.287642    1.065476
     13          6           0       -0.866511    1.252574   -0.001037
     14          6           0       -1.675289    1.253874   -1.324097
     15          6           0       -2.479984   -0.071677   -1.454575
     16          1           0       -0.663702   -1.819631    0.934362
     17          1           0       -0.504383   -1.924802   -0.813605
     18          1           0       -2.953091   -1.799341   -0.216472
     19          1           0       -2.672891   -0.716764    1.954986
     20          1           0       -4.558738    0.864961    1.920341
     21          1           0       -4.522933    0.904389    0.154566
     22          1           0       -6.860266   -1.725745    0.937284
     23          1           0       -6.704517   -0.173823    0.065784
     24          1           0       -6.752974   -0.193919    1.849990
     25          1           0       -1.134273    0.896030    2.093994
     26          1           0       -1.557425    3.190156    1.877183
     27          1           0       -2.938612    2.369813    2.626155
     28          1           0       -4.422061    4.624291    0.247847
     29          1           0       -2.987168    5.034590    1.230292
     30          1           0       -4.380314    4.211391    1.986112
     31          1           0       -0.221097    2.133911    0.069839
     32          1           0       -0.983916    1.375637   -2.165729
     33          1           0       -2.339050    2.120549   -1.321415
     34          1           0       -2.109040   -0.668588   -2.297025
     35          1           0       -3.534564    0.131401   -1.666464
 ---------------------------------------------------------------------
                    Distance matrix (angstroms):
                    1          2          3          4          5
     1  O    0.000000
     2  C    1.215309   0.000000
     3  C    2.426843   1.531397   0.000000
     4  C    3.666982   2.508152   1.540754   0.000000
     5  C    4.139574   2.982967   2.517852   1.552988   0.000000
     6  C    5.590120   4.403217   3.898298   2.560802   1.532952
     7  O    6.361395   5.181045   4.278867   2.901964   2.380522
     8  C    7.704293   6.506894   5.650944   4.211721   3.674854
     9  C    3.452054   2.466495   2.881053   2.540944   1.575673
    10  C    4.689171   3.835324   4.397642   3.854165   2.657499
    11  O    5.438110   4.495763   4.977200   4.125266   3.162091
    12  C    6.668593   5.814287   6.375238   5.520460   4.468889
    13  C    2.429592   1.523084   2.526086   2.609759   2.563340
    14  C    3.417746   2.476293   2.969524   2.534437   2.954479
    15  C    3.971916   2.875978   2.492398   1.542716   2.547732
    16  H    2.777548   2.150486   1.099178   2.201022   2.751797
    17  H    2.706318   2.149702   1.097432   2.199590   3.492840
    18  H    4.545332   3.464857   2.177970   1.093569   2.166640
    19  H    4.410648   3.388225   2.730712   2.149004   1.098290
    20  H    6.146177   5.021749   4.692020   3.517608   2.177948
    21  H    5.811130   4.615055   4.272410   2.851009   2.196831
    22  H    8.310933   7.135821   6.099298   4.727980   4.404724
    23  H    7.922006   6.707093   5.956707   4.433457   4.052088
    24  H    8.182518   7.004479   6.279337   4.903137   4.048190
    25  H    3.272341   2.544456   3.029247   3.121403   2.163685
    26  H    4.624821   4.015779   4.894000   4.633473   3.572036
    27  H    5.455984   4.598711   4.953333   4.336198   2.893879
    28  H    7.295576   6.403134   6.899346   5.917078   5.039482
    29  H    6.672445   5.981964   6.772942   6.127923   5.109411
    30  H    7.279523   6.392778   6.818465   5.906625   4.658496
    31  H    2.573269   2.146471   3.465754   3.704033   3.523756
    32  H    3.379253   2.747881   3.423653   3.320037   3.977507
    33  H    4.344690   3.422575   3.934244   3.234367   3.275818
    34  H    4.095684   3.189261   2.687225   2.161534   3.490674
    35  H    5.035441   3.909925   3.457037   2.182973   2.850225
                    6          7          8          9         10
     6  C    0.000000
     7  O    1.420229   0.000000
     8  C    2.355949   1.410019   0.000000
     9  C    2.634112   3.829472   4.979774   0.000000
    10  C    2.972141   4.359393   5.194099   1.531070   0.000000
    11  O    2.955194   4.351452   4.922410   2.448145   1.417685
    12  C    4.031881   5.362734   5.664913   3.722410   2.355143
    13  C    3.686405   4.779687   5.952220   1.558873   2.580524
    14  C    3.634261   4.605960   5.607445   2.577701   3.322989
    15  C    3.081873   3.618522   4.646444   3.043436   4.047030
    16  H    4.179023   4.423749   5.830914   3.188273   4.700273
    17  H    4.740503   4.944494   6.263888   3.916508   5.407141
    18  H    2.763208   2.529937   3.787856   3.488163   4.722677
    19  H    2.103564   2.523669   3.851000   2.177858   3.231250
    20  H    1.102427   2.069557   2.617978   2.860725   2.723247
    21  H    1.098222   2.077723   2.615879   2.951658   3.065108
    22  H    3.279274   2.024668   1.093464   5.833292   6.191081
    23  H    2.655443   2.088038   1.102295   5.222189   5.322942
    24  H    2.657446   2.087431   1.102622   5.173535   5.127847
    25  H    3.370070   4.413501   5.622195   1.099867   2.069497
    26  H    4.065274   5.442621   6.296840   2.151785   1.103845
    27  H    2.945814   4.220389   4.935868   2.170334   1.104140
    28  H    4.410105   5.638563   5.756759   4.474254   3.277385
    29  H    4.923474   6.302908   6.707374   4.068448   2.652560
    30  H    4.042203   5.276337   5.439968   4.079348   2.651970
    31  H    4.554329   5.752382   6.865312   2.198783   2.720526
    32  H    4.710941   5.608039   6.595371   3.516299   4.240112
    33  H    3.552028   4.666590   5.459960   2.802657   3.021737
    34  H    4.079146   4.389292   5.382459   3.995475   5.084078
    35  H    2.796851   3.220478   3.978429   3.544379   4.249696
                   11         12         13         14         15
    11  O    0.000000
    12  C    1.412981   0.000000
    13  C    3.050659   4.340079   0.000000
    14  C    3.112239   4.398038   1.550681   0.000000
    15  C    3.851343   5.200367   2.543562   1.556163   0.000000
    16  H    5.503836   6.857549   3.217848   3.945932   3.472930
    17  H    5.862434   7.270055   3.299564   3.425727   2.783508
    18  H    4.927713   6.275204   3.703298   3.490234   2.177511
    19  H    4.001445   5.201974   3.311695   3.953607   3.475407
    20  H    2.821218   3.612796   4.180248   4.357971   4.072906
    21  H    2.542562   3.581678   3.676257   3.227640   2.777711
    22  H    5.984480   6.757705   6.758397   6.393431   5.257737
    23  H    4.760986   5.427529   6.010107   5.409549   4.490947
    24  H    4.908687   5.435041   6.337909   6.160667   5.403104
    25  H    3.317169   4.422629   2.141956   3.479094   3.916598
    26  H    2.068850   2.608113   2.785551   3.743164   4.753029
    27  H    2.071453   2.611775   3.527600   4.294857   4.777402
    28  H    2.026329   1.092868   4.906359   4.623362   5.359293
    29  H    2.086706   1.101520   4.507439   4.747604   5.791348
    30  H    2.087463   1.101822   5.005015   5.198226   5.813282
    31  H    3.214397   4.277166   1.094686   2.198226   3.505856
    32  H    4.001223   5.170820   2.171364   1.095978   2.199699
    33  H    2.386653   3.531186   2.159896   1.091655   2.200784
    34  H    4.891199   6.217880   3.241343   2.197860   1.097098
    35  H    3.750523   4.979756   3.339039   2.198651   1.094658
                   16         17         18         19         20
    16  H    0.000000
    17  H    1.758361   0.000000
    18  H    2.562447   2.523585   0.000000
    19  H    2.508950   3.718451   2.442481   0.000000
    20  H    4.832235   5.629834   3.773934   2.461600   0.000000
    21  H    4.787696   5.009034   3.148369   3.048328   1.766578
    22  H    6.197276   6.595641   4.074627   4.425819   3.602109
    23  H    6.320962   6.502378   4.098192   4.485296   3.020401
    24  H    6.368716   7.009678   4.613757   4.114787   2.437385
    25  H    2.990150   4.099754   3.988907   2.233332   3.429006
    26  H    5.175482   5.874694   5.588055   4.063784   3.796877
    27  H    5.058539   6.016738   5.046046   3.169863   2.321112
    28  H    7.491375   7.704901   6.605794   5.873737   4.116853
    29  H    7.243370   7.666477   6.985478   5.805344   4.509080
    30  H    7.161886   7.779082   6.558753   5.215647   3.351829
    31  H    4.071092   4.163397   4.797524   4.206117   4.883618
    32  H    4.463501   3.598762   4.213993   4.920475   5.453083
    33  H    4.839457   4.470877   4.118675   4.347022   4.124621
    34  H    3.722333   2.520621   2.513906   4.289504   5.112628
    35  H    4.337358   3.759965   2.483617   3.817953   3.801607
                   21         22         23         24         25
    21  H    0.000000
    22  H    3.604633   0.000000
    23  H    2.435104   1.786682   0.000000
    24  H    3.008958   1.786347   1.784977   0.000000
    25  H    3.904416   6.403021   6.023773   5.728641   0.000000
    26  H    4.121453   7.291750   6.410154   6.200519   2.342878
    27  H    3.281203   5.916524   5.216093   4.660956   2.389743
    28  H    3.722438   6.836894   5.316451   5.587053   5.302616
    29  H    4.535893   7.796722   6.504024   6.473224   4.615938
    30  H    3.783010   6.519186   5.321624   5.005477   4.641125
    31  H    4.474896   7.728387   6.881888   7.159130   2.542330
    32  H    4.257991   7.333400   6.332910   7.202190   4.289274
    33  H    2.902914   6.351149   5.123062   5.907393   3.823082
    34  H    3.783046   5.844013   5.190960   6.244131   4.762273
    35  H    2.211455   4.613978   3.625251   4.778017   4.526268
                   26         27         28         29         30
    26  H    0.000000
    27  H    1.772456   0.000000
    28  H    3.594109   3.597171   0.000000
    29  H    2.421687   3.008626   1.786746   0.000000
    30  H    3.003912   2.424782   1.787119   1.785994   0.000000
    31  H    2.483529   3.738354   4.886899   4.172738   5.028629
    32  H    4.468392   5.269855   5.310362   5.379025   6.067520
    33  H    3.462084   4.000614   3.615279   3.927200   4.413402
    34  H    5.711234   5.844465   6.311973   6.763085   6.878818
    35  H    5.081584   4.877727   4.963698   5.721197   5.541022
                   31         32         33         34         35
    31  H    0.000000
    32  H    2.480854   0.000000
    33  H    2.534066   1.761859   0.000000
    34  H    4.125576   2.337092   2.963782   0.000000
    35  H    4.243095   2.881526   2.346278   1.752058   0.000000
 Stoichiometry    C12H20O3
 Framework group  C1[X(C12H20O3)]
 Deg. of freedom    99
 Full point group                 C1      NOp   1
 Largest Abelian subgroup         C1      NOp   1
 Largest concise Abelian subgroup C1      NOp   1
                         Standard orientation:                         
 ---------------------------------------------------------------------
 Center     Atomic      Atomic             Coordinates (Angstroms)
 Number     Number       Type             X           Y           Z
 ---------------------------------------------------------------------
      1          8           0       -3.818652   -0.006545   -0.563657
      2          6           0       -2.656619   -0.243716   -0.298317
      3          6           0       -2.040667   -1.644738   -0.352328
      4          6           0       -0.601305   -1.593952    0.195011
      5          6           0        0.259775   -0.694808   -0.733349
      6          6           0        1.727897   -0.649088   -0.294634
      7          8           0        2.225124   -1.978708   -0.338519
      8          6           0        3.581043   -2.065193    0.038520
      9          6           0       -0.455283    0.700953   -0.885954
     10          6           0        0.427934    1.951315   -0.912390
     11          8           0        1.085866    2.168296    0.324491
     12          6           0        1.885890    3.332952    0.317301
     13          6           0       -1.634510    0.801654    0.128624
     14          6           0       -1.189904    0.450661    1.572141
     15          6           0       -0.658057   -1.010941    1.622194
     16          1           0       -2.071322   -2.000438   -1.391910
     17          1           0       -2.674485   -2.328188    0.226919
     18          1           0       -0.165256   -2.596653    0.213572
     19          1           0        0.274195   -1.173107   -1.721915
     20          1           0        2.313537   -0.012423   -0.978029
     21          1           0        1.846425   -0.226676    0.712149
     22          1           0        3.868856   -3.118242   -0.024056
     23          1           0        3.743444   -1.711008    1.069652
     24          1           0        4.230228   -1.477770   -0.631754
     25          1           0       -0.912829    0.711515   -1.886079
     26          1           0       -0.207100    2.821695   -1.152481
     27          1           0        1.172785    1.866724   -1.723047
     28          1           0        2.348837    3.413913    1.303955
     29          1           0        1.284582    4.236171    0.127641
     30          1           0        2.677162    3.277102   -0.447410
     31          1           0       -2.097619    1.792657    0.086444
     32          1           0       -2.041358    0.579983    2.249981
     33          1           0       -0.420451    1.161937    1.878312
     34          1           0       -1.314551   -1.641171    2.234933
     35          1           0        0.329044   -1.050956    2.093689
 ---------------------------------------------------------------------
 Rotational constants (GHZ):           0.7198848           0.5083937           0.3554453
 Standard basis: 6-31G(d) (6D, 7F)
 There are   265 symmetry adapted cartesian basis functions of A   symmetry.
 There are   265 symmetry adapted basis functions of A   symmetry.
   265 basis functions,   500 primitive gaussians,   265 cartesian basis functions
    58 alpha electrons       58 beta electrons
       nuclear repulsion energy      1115.3405053340 Hartrees.
 NAtoms=   35 NActive=   35 NUniq=   35 SFac= 1.00D+00 NAtFMM=   60 NAOKFM=F Big=F
 Integral buffers will be    131072 words long.
 Raffenetti 2 integral format.
 Two-electron integral symmetry is turned on.
 One-electron integrals computed using PRISM.
 NBasis=   265 RedAO= T EigKep=  1.22D-03  NBF=   265
 NBsUse=   265 1.00D-06 EigRej= -1.00D+00 NBFU=   265
 ExpMin= 1.61D-01 ExpMax= 5.48D+03 ExpMxC= 8.25D+02 IAcc=3 IRadAn=         5 AccDes= 0.00D+00
 Harris functional with IExCor=  402 and IRadAn=       5 diagonalized for initial guess.
 HarFok:  IExCor=  402 AccDes= 0.00D+00 IRadAn=         5 IDoV= 1 UseB2=F ITyADJ=14
 ICtDFT=  3500011 ScaDFX=  1.000000  1.000000  1.000000  1.000000
 FoFCou: FMM=F IPFlag=           0 FMFlag=      100000 FMFlg1=           0
         NFxFlg=           0 DoJE=T BraDBF=F KetDBF=T FulRan=T
         wScrn=  0.000000 ICntrl=       500 IOpCl=  0 I1Cent=   200000004 NGrid=           0
         NMat0=    1 NMatS0=      1 NMatT0=    0 NMatD0=    1 NMtDS0=    0 NMtDT0=    0
 Petite list used in FoFCou.
 Requested convergence on RMS density matrix=1.00D-08 within 128 cycles.
 Requested convergence on MAX density matrix=1.00D-06.
 Requested convergence on             energy=1.00D-06.
 No special actions if energy rises.
 Integral accuracy reduced to 1.0D-05 until final iterations.
 Initial convergence to 1.0D-05 achieved.  Increase integral accuracy.
 SCF Done:  E(RB3LYP) =  -694.954300695     A.U. after   14 cycles
            NFock= 14  Conv=0.52D-08     -V/T= 2.0093
 DoSCS=F DFT=T ScalE2(SS,OS)=  1.000000  1.000000
 Range of M.O.s used for correlation:     1   265
 NBasis=   265 NAE=    58 NBE=    58 NFC=     0 NFV=     0
 NROrb=    265 NOA=    58 NOB=    58 NVA=   207 NVB=   207
 Symmetrizing basis deriv contribution to polar:
 IMax=3 JMax=2 DiffMx= 0.00D+00
 G2DrvN: will do    36 centers at a time, making    1 passes.
 Calling FoFCou, ICntrl=  3107 FMM=F I1Cent=   0 AccDes= 0.00D+00.
 End of G2Drv F.D. properties file   721 does not exist.
 End of G2Drv F.D. properties file   722 does not exist.
 End of G2Drv F.D. properties file   788 does not exist.
          IDoAtm=11111111111111111111111111111111111
          Differentiating once with respect to electric field.
                with respect to dipole field.
          Differentiating once with respect to nuclear coordinates.
 Keep R1 ints in memory in canonical form, NReq=632096621.
          There are   108 degrees of freedom in the 1st order CPHF.  IDoFFX=6 NUNeed=     3.
    105 vectors produced by pass  0 Test12= 1.20D-14 1.00D-09 XBig12= 9.07D+01 2.02D+00.
 AX will form   105 AO Fock derivatives at one time.
    105 vectors produced by pass  1 Test12= 1.20D-14 1.00D-09 XBig12= 1.44D+01 9.41D-01.
    105 vectors produced by pass  2 Test12= 1.20D-14 1.00D-09 XBig12= 1.49D-01 5.04D-02.
    105 vectors produced by pass  3 Test12= 1.20D-14 1.00D-09 XBig12= 5.34D-04 3.39D-03.
    105 vectors produced by pass  4 Test12= 1.20D-14 1.00D-09 XBig12= 7.08D-07 6.02D-05.
     54 vectors produced by pass  5 Test12= 1.20D-14 1.00D-09 XBig12= 4.49D-10 1.48D-06.
      4 vectors produced by pass  6 Test12= 1.20D-14 1.00D-09 XBig12= 2.94D-13 5.45D-08.
      1 vectors produced by pass  7 Test12= 1.20D-14 1.00D-09 XBig12= 1.88D-16 1.55D-09.
 InvSVY:  IOpt=1 It=  1 EMax= 8.88D-15
 Solved reduced A of dimension   584 with   108 vectors.
 Isotropic polarizability for W=    0.000000      128.55 Bohr**3.
 End of Minotr F.D. properties file   721 does not exist.
 End of Minotr F.D. properties file   722 does not exist.
 End of Minotr F.D. properties file   788 does not exist.

 **********************************************************************

            Population analysis using the SCF density.

 **********************************************************************

 Orbital symmetries:
       Occupied  (A) (A) (A) (A) (A) (A) (A) (A) (A) (A) (A) (A)
                 (A) (A) (A) (A) (A) (A) (A) (A) (A) (A) (A) (A)
                 (A) (A) (A) (A) (A) (A) (A) (A) (A) (A) (A) (A)
                 (A) (A) (A) (A) (A) (A) (A) (A) (A) (A) (A) (A)
                 (A) (A) (A) (A) (A) (A) (A) (A) (A) (A)
       Virtual   (A) (A) (A) (A) (A) (A) (A) (A) (A) (A) (A) (A)
                 (A) (A) (A) (A) (A) (A) (A) (A) (A) (A) (A) (A)
                 (A) (A) (A) (A) (A) (A) (A) (A) (A) (A) (A) (A)
                 (A) (A) (A) (A) (A) (A) (A) (A) (A) (A) (A) (A)
                 (A) (A) (A) (A) (A) (A) (A) (A) (A) (A) (A) (A)
                 (A) (A) (A) (A) (A) (A) (A) (A) (A) (A) (A) (A)
                 (A) (A) (A) (A) (A) (A) (A) (A) (A) (A) (A) (A)
                 (A) (A) (A) (A) (A) (A) (A) (A) (A) (A) (A) (A)
                 (A) (A) (A) (A) (A) (A) (A) (A) (A) (A) (A) (A)
                 (A) (A) (A) (A) (A) (A) (A) (A) (A) (A) (A) (A)
                 (A) (A) (A) (A) (A) (A) (A) (A) (A) (A) (A) (A)
                 (A) (A) (A) (A) (A) (A) (A) (A) (A) (A) (A) (A)
                 (A) (A) (A) (A) (A) (A) (A) (A) (A) (A) (A) (A)
                 (A) (A) (A) (A) (A) (A) (A) (A) (A) (A) (A) (A)
                 (A) (A) (A) (A) (A) (A) (A) (A) (A) (A) (A) (A)
                 (A) (A) (A) (A) (A) (A) (A) (A) (A) (A) (A) (A)
                 (A) (A) (A) (A) (A) (A) (A) (A) (A) (A) (A) (A)
                 (A) (A) (A)
 The electronic state is 1-A.
 Alpha  occ. eigenvalues --  -19.15978 -19.14576 -19.12597 -10.26028 -10.24045
 Alpha  occ. eigenvalues --  -10.23642 -10.22660 -10.22456 -10.20265 -10.19133
 Alpha  occ. eigenvalues --  -10.18797 -10.18523 -10.18260 -10.17942 -10.17819
 Alpha  occ. eigenvalues --   -1.04239  -1.02905  -1.02510  -0.85845  -0.77856
 Alpha  occ. eigenvalues --   -0.76492  -0.73069  -0.71535  -0.68938  -0.65761
 Alpha  occ. eigenvalues --   -0.63118  -0.59916  -0.58769  -0.55277  -0.51267
 Alpha  occ. eigenvalues --   -0.50097  -0.49307  -0.48034  -0.47233  -0.47060
 Alpha  occ. eigenvalues --   -0.46225  -0.45582  -0.43989  -0.43231  -0.41550
 Alpha  occ. eigenvalues --   -0.40708  -0.39972  -0.39904  -0.38129  -0.37615
 Alpha  occ. eigenvalues --   -0.37320  -0.36852  -0.35967  -0.35120  -0.33149
 Alpha  occ. eigenvalues --   -0.32976  -0.31989  -0.30227  -0.29518  -0.28965
 Alpha  occ. eigenvalues --   -0.26582  -0.25222  -0.22493
 Alpha virt. eigenvalues --   -0.00477   0.06361   0.08532   0.09097   0.11087
 Alpha virt. eigenvalues --    0.12424   0.12866   0.13033   0.13449   0.13923
 Alpha virt. eigenvalues --    0.14242   0.15864   0.16060   0.16439   0.16990
 Alpha virt. eigenvalues --    0.17513   0.17603   0.17846   0.18263   0.19236
 Alpha virt. eigenvalues --    0.19384   0.20502   0.21510   0.22394   0.22659
 Alpha virt. eigenvalues --    0.23211   0.23605   0.24247   0.25220   0.25573
 Alpha virt. eigenvalues --    0.26713   0.27571   0.31639   0.32563   0.33746
 Alpha virt. eigenvalues --    0.36590   0.38732   0.48742   0.51177   0.51375
 Alpha virt. eigenvalues --    0.51968   0.53089   0.54432   0.54816   0.56404
 Alpha virt. eigenvalues --    0.56566   0.57127   0.57448   0.60624   0.60828
 Alpha virt. eigenvalues --    0.62818   0.63005   0.64044   0.65279   0.65696
 Alpha virt. eigenvalues --    0.67537   0.69097   0.69764   0.71182   0.72329
 Alpha virt. eigenvalues --    0.72548   0.75302   0.76392   0.78007   0.79651
 Alpha virt. eigenvalues --    0.80019   0.80940   0.82227   0.82857   0.84492
 Alpha virt. eigenvalues --    0.84604   0.85734   0.86116   0.86191   0.86821
 Alpha virt. eigenvalues --    0.87937   0.88680   0.88835   0.89443   0.90556
 Alpha virt. eigenvalues --    0.91430   0.91590   0.92949   0.93650   0.94163
 Alpha virt. eigenvalues --    0.94908   0.95960   0.96574   0.97173   0.98399
 Alpha virt. eigenvalues --    0.99970   1.00377   1.01582   1.04061   1.06928
 Alpha virt. eigenvalues --    1.10147   1.11540   1.12184   1.14426   1.17215
 Alpha virt. eigenvalues --    1.18948   1.24260   1.26927   1.27527   1.29734
 Alpha virt. eigenvalues --    1.34159   1.35247   1.38995   1.42869   1.45484
 Alpha virt. eigenvalues --    1.48789   1.49178   1.49640   1.52996   1.54994
 Alpha virt. eigenvalues --    1.55370   1.56653   1.58554   1.62716   1.65704
 Alpha virt. eigenvalues --    1.66816   1.67215   1.69419   1.71412   1.73194
 Alpha virt. eigenvalues --    1.74491   1.77293   1.78937   1.81033   1.81737
 Alpha virt. eigenvalues --    1.84044   1.85414   1.88358   1.89158   1.90805
 Alpha virt. eigenvalues --    1.92854   1.93682   1.95526   1.97308   1.99915
 Alpha virt. eigenvalues --    2.01166   2.02607   2.03089   2.03773   2.05915
 Alpha virt. eigenvalues --    2.06680   2.08194   2.09473   2.09837   2.10573
 Alpha virt. eigenvalues --    2.11382   2.13266   2.15109   2.15825   2.17429
 Alpha virt. eigenvalues --    2.19631   2.21503   2.23309   2.24317   2.26825
 Alpha virt. eigenvalues --    2.28029   2.29801   2.30236   2.34127   2.36086
 Alpha virt. eigenvalues --    2.40436   2.41988   2.45241   2.46213   2.47379
 Alpha virt. eigenvalues --    2.49382   2.50148   2.51164   2.53886   2.56639
 Alpha virt. eigenvalues --    2.60426   2.63137   2.64854   2.67078   2.69971
 Alpha virt. eigenvalues --    2.71427   2.74991   2.76938   2.77269   2.78253
 Alpha virt. eigenvalues --    2.82763   2.87177   2.91651   2.96128   3.00694
 Alpha virt. eigenvalues --    3.01866   3.10526   3.94821   4.00923   4.07969
 Alpha virt. eigenvalues --    4.13001   4.22698   4.25453   4.27761   4.31906
 Alpha virt. eigenvalues --    4.34621   4.44486   4.55508   4.57778   4.67941
 Alpha virt. eigenvalues --    4.74190   4.97326
          Condensed to atoms (all electrons):
               1          2          3          4          5          6
     1  O    8.027387   0.566003  -0.077425   0.003215   0.000211   0.000001
     2  C    0.566003   4.524957   0.302180  -0.026709  -0.016438   0.000376
     3  C   -0.077425   0.302180   5.412870   0.294994  -0.038392   0.004094
     4  C    0.003215  -0.026709   0.294994   4.991765   0.373885  -0.040180
     5  C    0.000211  -0.016438  -0.038392   0.373885   5.041379   0.379518
     6  C    0.000001   0.000376   0.004094  -0.040180   0.379518   4.898275
     7  O    0.000000  -0.000009   0.000227  -0.000362  -0.044140   0.217519
     8  C   -0.000000   0.000000   0.000000   0.000294   0.005169  -0.042164
     9  C   -0.000405  -0.029953  -0.007167  -0.047290   0.320200  -0.033828
    10  C   -0.000076   0.002428  -0.000118   0.002822  -0.028816  -0.010900
    11  O   -0.000000   0.000094   0.000001  -0.000014  -0.002415   0.003314
    12  C   -0.000000   0.000001  -0.000000   0.000003   0.000059  -0.000000
    13  C   -0.063701   0.355661  -0.146764   0.030139  -0.044123  -0.000907
    14  C    0.000319  -0.030025  -0.009845  -0.050947  -0.015105   0.000257
    15  C    0.000013  -0.018697  -0.043256   0.374623  -0.040724  -0.003899
    16  H   -0.000478  -0.022352   0.348283  -0.030768  -0.004350   0.000029
    17  H    0.000002  -0.023146   0.349234  -0.028077   0.004301  -0.000142
    18  H   -0.000063   0.003276  -0.030608   0.367952  -0.038116  -0.008165
    19  H   -0.000006  -0.000010  -0.005198  -0.044288   0.358957  -0.043915
    20  H   -0.000000  -0.000036  -0.000057   0.006514  -0.032306   0.351414
    21  H    0.000000   0.000034  -0.000016  -0.013893  -0.032062   0.354194
    22  H   -0.000000  -0.000000  -0.000000   0.000015  -0.000240   0.006051
    23  H   -0.000000   0.000000  -0.000001  -0.000195   0.000228  -0.007453
    24  H    0.000000  -0.000000   0.000001   0.000055  -0.000159  -0.008663
    25  H    0.001132  -0.002050   0.002732   0.000442  -0.033327   0.004259
    26  H   -0.000002  -0.000172  -0.000010  -0.000107   0.004125   0.000622
    27  H    0.000000  -0.000066   0.000023   0.000075  -0.006309  -0.001927
    28  H    0.000000  -0.000000   0.000000  -0.000000   0.000006   0.000008
    29  H    0.000000  -0.000001   0.000000   0.000000  -0.000008   0.000044
    30  H   -0.000000   0.000000  -0.000000   0.000000  -0.000034  -0.000177
    31  H    0.003884  -0.033597   0.008915  -0.000805   0.004893  -0.000080
    32  H    0.001010  -0.003369   0.001473   0.002385  -0.000089  -0.000010
    33  H   -0.000070   0.003694  -0.000421   0.000791   0.001382  -0.000155
    34  H   -0.000042   0.000718  -0.006122  -0.035835   0.005594   0.000073
    35  H    0.000002   0.000321   0.005000  -0.028838  -0.009040   0.003088
               7          8          9         10         11         12
     1  O    0.000000  -0.000000  -0.000405  -0.000076  -0.000000  -0.000000
     2  C   -0.000009   0.000000  -0.029953   0.002428   0.000094   0.000001
     3  C    0.000227   0.000000  -0.007167  -0.000118   0.000001  -0.000000
     4  C   -0.000362   0.000294  -0.047290   0.002822  -0.000014   0.000003
     5  C   -0.044140   0.005169   0.320200  -0.028816  -0.002415   0.000059
     6  C    0.217519  -0.042164  -0.033828  -0.010900   0.003314  -0.000000
     7  O    8.211260   0.261008   0.002213  -0.000007   0.000087  -0.000001
     8  C    0.261008   4.873221  -0.000161  -0.000002   0.000004  -0.000002
     9  C    0.002213  -0.000161   5.109057   0.369612  -0.042994   0.005649
    10  C   -0.000007  -0.000002   0.369612   4.885665   0.224826  -0.039720
    11  O    0.000087   0.000004  -0.042994   0.224826   8.193388   0.254015
    12  C   -0.000001  -0.000002   0.005649  -0.039720   0.254015   4.880464
    13  C   -0.000027   0.000001   0.330898  -0.027221   0.002824   0.000034
    14  C    0.000037   0.000003  -0.028633  -0.006624  -0.008488   0.000197
    15  C   -0.001408  -0.000034  -0.021805   0.000554  -0.000097  -0.000007
    16  H   -0.000000  -0.000000  -0.000139   0.000048  -0.000000   0.000000
    17  H    0.000001  -0.000000   0.000246   0.000003   0.000000   0.000000
    18  H    0.012457  -0.000399   0.005983  -0.000091  -0.000001  -0.000000
    19  H    0.003077  -0.000068  -0.033954   0.002243  -0.000086   0.000006
    20  H   -0.040562  -0.006363  -0.005844   0.003578  -0.000177   0.000088
    21  H   -0.041032  -0.005943   0.001967  -0.001411   0.006938   0.000039
    22  H   -0.033746   0.385211   0.000002   0.000000  -0.000000   0.000000
    23  H   -0.038580   0.359463   0.000019  -0.000001  -0.000009   0.000001
    24  H   -0.038660   0.358982   0.000002  -0.000001  -0.000001   0.000000
    25  H   -0.000046   0.000004   0.360386  -0.042144   0.003189  -0.000239
    26  H    0.000001  -0.000000  -0.028859   0.352986  -0.040280  -0.006787
    27  H   -0.000075   0.000003  -0.041235   0.354854  -0.043425  -0.006720
    28  H   -0.000000  -0.000000  -0.000232   0.005982  -0.032954   0.385166
    29  H    0.000000   0.000000   0.000109  -0.007931  -0.037468   0.361640
    30  H   -0.000001   0.000000  -0.000250  -0.008519  -0.037961   0.360385
    31  H    0.000000  -0.000000  -0.038733  -0.004039  -0.000395  -0.000044
    32  H   -0.000000  -0.000000   0.005191  -0.000007   0.000183  -0.000006
    33  H   -0.000002  -0.000001  -0.009112   0.000350   0.017291  -0.000149
    34  H   -0.000028   0.000000   0.000149  -0.000000  -0.000002   0.000000
    35  H    0.001067   0.000060   0.000775  -0.000033  -0.000079  -0.000003
              13         14         15         16         17         18
     1  O   -0.063701   0.000319   0.000013  -0.000478   0.000002  -0.000063
     2  C    0.355661  -0.030025  -0.018697  -0.022352  -0.023146   0.003276
     3  C   -0.146764  -0.009845  -0.043256   0.348283   0.349234  -0.030608
     4  C    0.030139  -0.050947   0.374623  -0.030768  -0.028077   0.367952
     5  C   -0.044123  -0.015105  -0.040724  -0.004350   0.004301  -0.038116
     6  C   -0.000907   0.000257  -0.003899   0.000029  -0.000142  -0.008165
     7  O   -0.000027   0.000037  -0.001408  -0.000000   0.000001   0.012457
     8  C    0.000001   0.000003  -0.000034  -0.000000  -0.000000  -0.000399
     9  C    0.330898  -0.028633  -0.021805  -0.000139   0.000246   0.005983
    10  C   -0.027221  -0.006624   0.000554   0.000048   0.000003  -0.000091
    11  O    0.002824  -0.008488  -0.000097  -0.000000   0.000000  -0.000001
    12  C    0.000034   0.000197  -0.000007   0.000000   0.000000  -0.000000
    13  C    5.179452   0.350138  -0.042052   0.003294   0.004508  -0.000489
    14  C    0.350138   5.104756   0.342713   0.000121  -0.000366   0.005648
    15  C   -0.042052   0.342713   5.082723   0.005164  -0.003826  -0.038726
    16  H    0.003294   0.000121   0.005164   0.555840  -0.022148  -0.002318
    17  H    0.004508  -0.000366  -0.003826  -0.022148   0.550524  -0.002776
    18  H   -0.000489   0.005648  -0.038726  -0.002318  -0.002776   0.587694
    19  H    0.003781  -0.000086   0.006018   0.004999  -0.000018  -0.003116
    20  H    0.000036   0.000017  -0.000195  -0.000002   0.000002   0.000255
    21  H    0.000103  -0.000639   0.005290   0.000002  -0.000000   0.000145
    22  H    0.000000  -0.000000   0.000002  -0.000000   0.000000  -0.000024
    23  H   -0.000001  -0.000002   0.000036  -0.000000   0.000000   0.000039
    24  H    0.000000   0.000000  -0.000006   0.000000   0.000000   0.000035
    25  H   -0.052677   0.005845  -0.000027  -0.000276  -0.000030  -0.000149
    26  H   -0.010066   0.000274  -0.000036  -0.000000  -0.000000   0.000003
    27  H    0.005779  -0.000217   0.000003  -0.000004  -0.000000   0.000001
    28  H    0.000001   0.000047   0.000000  -0.000000   0.000000   0.000000
    29  H   -0.000137   0.000027  -0.000001  -0.000000  -0.000000   0.000000
    30  H    0.000048  -0.000026   0.000000  -0.000000   0.000000   0.000000
    31  H    0.346438  -0.032288   0.005132  -0.000194  -0.000169   0.000009
    32  H   -0.037339   0.365451  -0.032500  -0.000003  -0.000097  -0.000112
    33  H   -0.026532   0.361920  -0.026308   0.000009   0.000045  -0.000141
    34  H    0.001104  -0.032907   0.368554   0.000061   0.004839  -0.002117
    35  H    0.002221  -0.031801   0.369617  -0.000176  -0.000060  -0.002551
              19         20         21         22         23         24
     1  O   -0.000006  -0.000000   0.000000  -0.000000  -0.000000   0.000000
     2  C   -0.000010  -0.000036   0.000034  -0.000000   0.000000  -0.000000
     3  C   -0.005198  -0.000057  -0.000016  -0.000000  -0.000001   0.000001
     4  C   -0.044288   0.006514  -0.013893   0.000015  -0.000195   0.000055
     5  C    0.358957  -0.032306  -0.032062  -0.000240   0.000228  -0.000159
     6  C   -0.043915   0.351414   0.354194   0.006051  -0.007453  -0.008663
     7  O    0.003077  -0.040562  -0.041032  -0.033746  -0.038580  -0.038660
     8  C   -0.000068  -0.006363  -0.005943   0.385211   0.359463   0.358982
     9  C   -0.033954  -0.005844   0.001967   0.000002   0.000019   0.000002
    10  C    0.002243   0.003578  -0.001411   0.000000  -0.000001  -0.000001
    11  O   -0.000086  -0.000177   0.006938  -0.000000  -0.000009  -0.000001
    12  C    0.000006   0.000088   0.000039   0.000000   0.000001   0.000000
    13  C    0.003781   0.000036   0.000103   0.000000  -0.000001   0.000000
    14  C   -0.000086   0.000017  -0.000639  -0.000000  -0.000002   0.000000
    15  C    0.006018  -0.000195   0.005290   0.000002   0.000036  -0.000006
    16  H    0.004999  -0.000002   0.000002  -0.000000  -0.000000   0.000000
    17  H   -0.000018   0.000002  -0.000000   0.000000   0.000000   0.000000
    18  H   -0.003116   0.000255   0.000145  -0.000024   0.000039   0.000035
    19  H    0.629309  -0.006848   0.006897   0.000000   0.000066  -0.000082
    20  H   -0.006848   0.660022  -0.057623  -0.000157  -0.002645   0.013819
    21  H    0.006897  -0.057623   0.622204  -0.000129   0.013439  -0.002721
    22  H    0.000000  -0.000157  -0.000129   0.554796  -0.034149  -0.034438
    23  H    0.000066  -0.002645   0.013439  -0.034149   0.633317  -0.052309
    24  H   -0.000082   0.013819  -0.002721  -0.034438  -0.052309   0.637287
    25  H   -0.012901   0.000058  -0.000145  -0.000000  -0.000000  -0.000000
    26  H   -0.000211   0.000065   0.000023  -0.000000  -0.000000   0.000000
    27  H    0.000912   0.002660   0.000194  -0.000000  -0.000001   0.000003
    28  H   -0.000000  -0.000016  -0.000084  -0.000000   0.000001  -0.000000
    29  H   -0.000000   0.000004   0.000030   0.000000  -0.000000   0.000000
    30  H    0.000000   0.000244   0.000028  -0.000000   0.000000   0.000002
    31  H   -0.000143   0.000001  -0.000013   0.000000  -0.000000  -0.000000
    32  H    0.000010   0.000000   0.000031  -0.000000   0.000000   0.000000
    33  H    0.000005  -0.000030   0.000777   0.000000   0.000000  -0.000000
    34  H   -0.000173  -0.000002  -0.000100   0.000000   0.000001  -0.000000
    35  H   -0.000043   0.000116   0.001591  -0.000005  -0.000021   0.000012
              25         26         27         28         29         30
     1  O    0.001132  -0.000002   0.000000   0.000000   0.000000  -0.000000
     2  C   -0.002050  -0.000172  -0.000066  -0.000000  -0.000001   0.000000
     3  C    0.002732  -0.000010   0.000023   0.000000   0.000000  -0.000000
     4  C    0.000442  -0.000107   0.000075  -0.000000   0.000000   0.000000
     5  C   -0.033327   0.004125  -0.006309   0.000006  -0.000008  -0.000034
     6  C    0.004259   0.000622  -0.001927   0.000008   0.000044  -0.000177
     7  O   -0.000046   0.000001  -0.000075  -0.000000   0.000000  -0.000001
     8  C    0.000004  -0.000000   0.000003  -0.000000   0.000000   0.000000
     9  C    0.360386  -0.028859  -0.041235  -0.000232   0.000109  -0.000250
    10  C   -0.042144   0.352986   0.354854   0.005982  -0.007931  -0.008519
    11  O    0.003189  -0.040280  -0.043425  -0.032954  -0.037468  -0.037961
    12  C   -0.000239  -0.006787  -0.006720   0.385166   0.361640   0.360385
    13  C   -0.052677  -0.010066   0.005779   0.000001  -0.000137   0.000048
    14  C    0.005845   0.000274  -0.000217   0.000047   0.000027  -0.000026
    15  C   -0.000027  -0.000036   0.000003   0.000000  -0.000001   0.000000
    16  H   -0.000276  -0.000000  -0.000004  -0.000000  -0.000000  -0.000000
    17  H   -0.000030  -0.000000  -0.000000   0.000000  -0.000000   0.000000
    18  H   -0.000149   0.000003   0.000001   0.000000   0.000000   0.000000
    19  H   -0.012901  -0.000211   0.000912  -0.000000  -0.000000   0.000000
    20  H    0.000058   0.000065   0.002660  -0.000016   0.000004   0.000244
    21  H   -0.000145   0.000023   0.000194  -0.000084   0.000030   0.000028
    22  H   -0.000000  -0.000000  -0.000000  -0.000000   0.000000  -0.000000
    23  H   -0.000000  -0.000000  -0.000001   0.000001  -0.000000   0.000000
    24  H   -0.000000   0.000000   0.000003  -0.000000   0.000000   0.000002
    25  H    0.626800  -0.001293  -0.001438   0.000004   0.000010   0.000005
    26  H   -0.001293   0.643492  -0.056909  -0.000131   0.013428  -0.002557
    27  H   -0.001438  -0.056909   0.658673  -0.000142  -0.002677   0.014125
    28  H    0.000004  -0.000131  -0.000142   0.547836  -0.033308  -0.033475
    29  H    0.000010   0.013428  -0.002677  -0.033308   0.620524  -0.050461
    30  H    0.000005  -0.002557   0.014125  -0.033475  -0.050461   0.625636
    31  H   -0.000480   0.005080   0.000038   0.000003   0.000012  -0.000001
    32  H   -0.000171  -0.000007   0.000007  -0.000001   0.000001   0.000000
    33  H   -0.000040  -0.000040   0.000159  -0.000157  -0.000031   0.000085
    34  H    0.000013  -0.000000  -0.000000   0.000000  -0.000000  -0.000000
    35  H    0.000003  -0.000002  -0.000000   0.000000  -0.000000  -0.000000
              31         32         33         34         35
     1  O    0.003884   0.001010  -0.000070  -0.000042   0.000002
     2  C   -0.033597  -0.003369   0.003694   0.000718   0.000321
     3  C    0.008915   0.001473  -0.000421  -0.006122   0.005000
     4  C   -0.000805   0.002385   0.000791  -0.035835  -0.028838
     5  C    0.004893  -0.000089   0.001382   0.005594  -0.009040
     6  C   -0.000080  -0.000010  -0.000155   0.000073   0.003088
     7  O    0.000000  -0.000000  -0.000002  -0.000028   0.001067
     8  C   -0.000000  -0.000000  -0.000001   0.000000   0.000060
     9  C   -0.038733   0.005191  -0.009112   0.000149   0.000775
    10  C   -0.004039  -0.000007   0.000350  -0.000000  -0.000033
    11  O   -0.000395   0.000183   0.017291  -0.000002  -0.000079
    12  C   -0.000044  -0.000006  -0.000149   0.000000  -0.000003
    13  C    0.346438  -0.037339  -0.026532   0.001104   0.002221
    14  C   -0.032288   0.365451   0.361920  -0.032907  -0.031801
    15  C    0.005132  -0.032500  -0.026308   0.368554   0.369617
    16  H   -0.000194  -0.000003   0.000009   0.000061  -0.000176
    17  H   -0.000169  -0.000097   0.000045   0.004839  -0.000060
    18  H    0.000009  -0.000112  -0.000141  -0.002117  -0.002551
    19  H   -0.000143   0.000010   0.000005  -0.000173  -0.000043
    20  H    0.000001   0.000000  -0.000030  -0.000002   0.000116
    21  H   -0.000013   0.000031   0.000777  -0.000100   0.001591
    22  H    0.000000  -0.000000   0.000000   0.000000  -0.000005
    23  H   -0.000000   0.000000   0.000000   0.000001  -0.000021
    24  H   -0.000000   0.000000  -0.000000  -0.000000   0.000012
    25  H   -0.000480  -0.000171  -0.000040   0.000013   0.000003
    26  H    0.005080  -0.000007  -0.000040  -0.000000  -0.000002
    27  H    0.000038   0.000007   0.000159  -0.000000  -0.000000
    28  H    0.000003  -0.000001  -0.000157   0.000000   0.000000
    29  H    0.000012   0.000001  -0.000031  -0.000000  -0.000000
    30  H   -0.000001   0.000000   0.000085  -0.000000  -0.000000
    31  H    0.609071  -0.002549  -0.002252  -0.000142  -0.000121
    32  H   -0.002549   0.595357  -0.031886  -0.010798   0.003546
    33  H   -0.002252  -0.031886   0.543324   0.003935  -0.009844
    34  H   -0.000142  -0.010798   0.003935   0.603881  -0.036083
    35  H   -0.000121   0.003546  -0.009844  -0.036083   0.585477
 Mulliken charges:
               1
     1  O   -0.460914
     2  C    0.446885
     3  C   -0.364625
     4  C   -0.101661
     5  C   -0.113717
     6  C   -0.020573
     7  O   -0.470269
     8  C   -0.188283
     9  C   -0.141866
    10  C   -0.028289
    11  O   -0.459307
    12  C   -0.194067
    13  C   -0.164427
    14  C   -0.289769
    15  C   -0.286838
    16  H    0.165361
    17  H    0.167149
    18  H    0.146467
    19  H    0.134867
    20  H    0.113970
    21  H    0.141885
    22  H    0.156813
    23  H    0.128757
    24  H    0.126841
    25  H    0.142552
    26  H    0.127367
    27  H    0.123637
    28  H    0.161447
    29  H    0.136196
    30  H    0.132901
    31  H    0.132570
    32  H    0.144299
    33  H    0.173405
    34  H    0.135431
    35  H    0.145803
 Sum of Mulliken charges =  -0.00000
 Mulliken charges with hydrogens summed into heavy atoms:
               1
     1  O   -0.460914
     2  C    0.446885
     3  C   -0.032115
     4  C    0.044806
     5  C    0.021150
     6  C    0.235283
     7  O   -0.470269
     8  C    0.224128
     9  C    0.000686
    10  C    0.222716
    11  O   -0.459307
    12  C    0.236477
    13  C   -0.031858
    14  C    0.027936
    15  C   -0.005604
 APT charges:
               1
     1  O   -0.678299
     2  C    0.759550
     3  C   -0.040532
     4  C    0.085973
     5  C    0.073411
     6  C    0.514917
     7  O   -0.776456
     8  C    0.568034
     9  C    0.089922
    10  C    0.518960
    11  O   -0.764097
    12  C    0.566447
    13  C   -0.078577
    14  C    0.085683
    15  C    0.084697
    16  H   -0.009676
    17  H   -0.019887
    18  H   -0.028502
    19  H   -0.061638
    20  H   -0.091702
    21  H   -0.044341
    22  H   -0.033818
    23  H   -0.072998
    24  H   -0.078847
    25  H   -0.063927
    26  H   -0.081254
    27  H   -0.085937
    28  H   -0.021677
    29  H   -0.072602
    30  H   -0.072852
    31  H   -0.046155
    32  H   -0.044351
    33  H    0.007855
    34  H   -0.050938
    35  H   -0.036385
 Sum of APT charges =   0.00000
 APT charges with hydrogens summed into heavy atoms:
               1
     1  O   -0.678299
     2  C    0.759550
     3  C   -0.070095
     4  C    0.057471
     5  C    0.011773
     6  C    0.378874
     7  O   -0.776456
     8  C    0.382370
     9  C    0.025995
    10  C    0.351770
    11  O   -0.764097
    12  C    0.399316
    13  C   -0.124731
    14  C    0.049186
    15  C   -0.002626
 Electronic spatial extent (au):  <R**2>=           3387.3392
 Charge=              0.0000 electrons
 Dipole moment (field-independent basis, Debye):
    X=              4.0381    Y=              1.2735    Z=              0.1893  Tot=              4.2383
 Quadrupole moment (field-independent basis, Debye-Ang):
   XX=           -101.9740   YY=            -85.8067   ZZ=            -89.5522
   XY=              4.0609   XZ=             -2.2823   YZ=             -2.0011
 Traceless Quadrupole moment (field-independent basis, Debye-Ang):
   XX=             -9.5297   YY=              6.6376   ZZ=              2.8921
   XY=              4.0609   XZ=             -2.2823   YZ=             -2.0011
 Octapole moment (field-independent basis, Debye-Ang**2):
  XXX=            109.8265  YYY=             24.2227  ZZZ=             -3.0850  XYY=              8.9002
  XXY=             -7.1115  XXZ=             18.0904  XZZ=              0.1928  YZZ=              1.9606
  YYZ=              1.4057  XYZ=             -1.4651
 Hexadecapole moment (field-independent basis, Debye-Ang**3):
 XXXX=          -2514.6307 YYYY=          -1524.5324 ZZZZ=           -497.6979 XXXY=            -30.1370
 XXXZ=            -51.8217 YYYX=             28.5736 YYYZ=              6.3582 ZZZX=             12.0930
 ZZZY=             10.2908 XXYY=           -583.9941 XXZZ=           -457.6308 YYZZ=           -350.9213
 XXYZ=             -0.3511 YYXZ=             14.6005 ZZXY=              6.8106
 N-N= 1.115340505334D+03 E-N=-3.848390917208D+03  KE= 6.885336989968D+02
  Exact polarizability: 143.756   0.434 130.852   1.904  -0.748 111.036
 Approx polarizability: 191.376  -1.589 175.736   5.028  -0.295 168.983
 Calling FoFJK, ICntrl=    100127 FMM=F ISym2X=0 I1Cent= 0 IOpClX= 0 NMat=1 NMatS=1 NMatT=0.
 Full mass-weighted force constant matrix:
 Low frequencies ---   -1.8176   -0.0012   -0.0011   -0.0008    5.0362    7.8446
 Low frequencies ---   25.4243   65.4512   80.5415
 Diagonal vibrational polarizability:
       21.4598034      22.2949572      59.7006856
 Harmonic frequencies (cm**-1), IR intensities (KM/Mole), Raman scattering
 activities (A**4/AMU), depolarization ratios for plane and unpolarized
 incident light, reduced masses (AMU), force constants (mDyne/A),
 and normal coordinates:
                      1                      2                      3
                      A                      A                      A
 Frequencies --     25.4226                65.4498                80.5413
 Red. masses --      3.8085                 3.0413                 3.0108
 Frc consts  --      0.0015                 0.0077                 0.0115
 IR Inten    --      0.9847                 0.1912                 0.7758
  Atom  AN      X      Y      Z        X      Y      Z        X      Y      Z
     1   8    -0.02   0.08   0.17    -0.04  -0.06   0.01    -0.02  -0.08   0.07
     2   6    -0.00   0.04   0.05    -0.03  -0.03  -0.01     0.00  -0.04   0.02
     3   6    -0.02   0.04  -0.15    -0.00  -0.01  -0.03     0.04  -0.02   0.04
     4   6    -0.02  -0.05  -0.14    -0.01   0.01  -0.01     0.06   0.03  -0.03
     5   6     0.01   0.00  -0.05    -0.01   0.03   0.01    -0.01   0.04  -0.08
     6   6    -0.01   0.02   0.05    -0.02   0.07   0.04     0.01   0.03  -0.15
     7   8     0.00   0.02   0.09     0.03   0.09  -0.02    -0.03   0.01  -0.11
     8   6    -0.02   0.04   0.18     0.02   0.14   0.02    -0.13  -0.07   0.23
     9   6    -0.00  -0.00  -0.00    -0.04   0.02   0.02    -0.02   0.04  -0.04
    10   6    -0.01   0.00  -0.05    -0.05   0.02   0.03    -0.02   0.04   0.01
    11   8     0.00   0.04  -0.07     0.01  -0.03   0.01     0.00  -0.02   0.01
    12   6    -0.02   0.06  -0.11     0.26  -0.21  -0.08     0.02  -0.03   0.06
    13   6     0.05  -0.02   0.06    -0.06  -0.01   0.00    -0.01   0.00  -0.03
    14   6     0.11  -0.12   0.02    -0.06  -0.01   0.00     0.01   0.03  -0.03
    15   6    -0.02  -0.18  -0.09    -0.05  -0.01  -0.00     0.11   0.06  -0.03
    16   1    -0.03   0.19  -0.20     0.03   0.01  -0.04     0.00  -0.06   0.05
    17   1    -0.04  -0.03  -0.24     0.01  -0.04  -0.06     0.08  -0.02   0.09
    18   1    -0.06  -0.07  -0.22     0.01   0.02  -0.01     0.09   0.05  -0.02
    19   1     0.08   0.06  -0.07     0.02   0.04   0.01    -0.07   0.03  -0.08
    20   1     0.02   0.02   0.09    -0.03   0.12   0.08     0.01  -0.02  -0.20
    21   1    -0.08   0.02   0.06    -0.05   0.02   0.06     0.05   0.07  -0.18
    22   1    -0.01   0.04   0.21     0.08   0.16  -0.03    -0.16  -0.08   0.26
    23   1    -0.10   0.04   0.19    -0.03   0.09   0.05    -0.38  -0.13   0.29
    24   1     0.02   0.04   0.23     0.02   0.21   0.08     0.08  -0.07   0.43
    25   1    -0.05  -0.01   0.02    -0.04   0.02   0.01    -0.02   0.08  -0.04
    26   1    -0.03  -0.01  -0.06    -0.04   0.04   0.07    -0.02   0.06   0.07
    27   1    -0.03  -0.01  -0.06    -0.08   0.03  -0.00    -0.03   0.09  -0.00
    28   1    -0.01   0.09  -0.12     0.28  -0.24  -0.09     0.04  -0.10   0.06
    29   1    -0.04   0.04  -0.12     0.46  -0.09  -0.14     0.02  -0.01   0.13
    30   1    -0.03   0.05  -0.12     0.24  -0.44  -0.08    -0.00   0.00   0.04
    31   1     0.08   0.00   0.15    -0.08  -0.02   0.01    -0.05  -0.01  -0.03
    32   1     0.17  -0.08   0.08    -0.06  -0.02   0.01    -0.00  -0.03  -0.03
    33   1     0.20  -0.21  -0.00    -0.06  -0.01   0.01    -0.04   0.08  -0.02
    34   1    -0.10  -0.17  -0.17    -0.06  -0.02  -0.03     0.19   0.03   0.02
    35   1    -0.04  -0.31  -0.05    -0.06  -0.01   0.02     0.14   0.14  -0.10
                      4                      5                      6
                      A                      A                      A
 Frequencies --     94.9521               101.1030               119.4351
 Red. masses --      5.1659                 2.1041                 3.3092
 Frc consts  --      0.0274                 0.0127                 0.0278
 IR Inten    --      3.9513                 3.2427                 4.4146
  Atom  AN      X      Y      Z        X      Y      Z        X      Y      Z
     1   8    -0.12  -0.09   0.35    -0.00   0.01   0.02     0.00  -0.10   0.02
     2   6    -0.03  -0.01  -0.01    -0.00   0.01   0.00     0.02  -0.05  -0.02
     3   6     0.03   0.02  -0.11    -0.02  -0.00   0.02     0.08  -0.02  -0.06
     4   6    -0.01   0.04  -0.01     0.00  -0.00  -0.04     0.06   0.02  -0.02
     5   6     0.05  -0.01   0.01    -0.02  -0.01  -0.07     0.04   0.07   0.02
     6   6     0.04  -0.02   0.07    -0.02   0.00  -0.10     0.04   0.02   0.03
     7   8     0.04  -0.02   0.02    -0.05  -0.02   0.19    -0.09  -0.04   0.06
     8   6     0.07  -0.02  -0.06     0.01   0.08  -0.02    -0.07  -0.21  -0.06
     9   6     0.06  -0.02  -0.09    -0.01   0.00  -0.03     0.01   0.05   0.04
    10   6     0.08  -0.03  -0.04     0.01  -0.00   0.00    -0.03   0.08   0.04
    11   8    -0.00  -0.05   0.01    -0.04  -0.02   0.03    -0.10   0.18   0.06
    12   6    -0.03  -0.03   0.13     0.02  -0.06   0.06     0.08   0.06  -0.09
    13   6    -0.00   0.04  -0.18     0.01  -0.00  -0.01    -0.02  -0.01   0.01
    14   6    -0.07   0.12  -0.13     0.02  -0.01  -0.02    -0.03  -0.02   0.01
    15   6    -0.11   0.11  -0.03     0.08   0.01  -0.04     0.01  -0.01  -0.01
    16   1     0.15   0.13  -0.16    -0.06  -0.03   0.03     0.13   0.03  -0.08
    17   1     0.01  -0.07  -0.25    -0.00   0.02   0.06     0.09  -0.07  -0.12
    18   1    -0.01   0.04   0.07    -0.00  -0.00  -0.05     0.09   0.04  -0.03
    19   1     0.10  -0.05   0.03    -0.07  -0.01  -0.07     0.06   0.09   0.01
    20   1     0.06   0.01   0.12    -0.01  -0.16  -0.26     0.09  -0.04   0.02
    21   1     0.01  -0.06   0.09     0.02   0.22  -0.20     0.06   0.03   0.03
    22   1     0.07  -0.01  -0.11    -0.03   0.04   0.33    -0.23  -0.26  -0.01
    23   1     0.13  -0.05  -0.06     0.21   0.47  -0.19     0.09  -0.15  -0.11
    24   1     0.02   0.01  -0.08    -0.09  -0.20  -0.37    -0.04  -0.36  -0.17
    25   1     0.14  -0.04  -0.13    -0.02   0.04  -0.03     0.03   0.05   0.03
    26   1     0.12  -0.01  -0.08     0.03   0.00  -0.02    -0.04   0.05  -0.05
    27   1     0.14  -0.04   0.01     0.04  -0.01   0.03     0.02   0.05   0.08
    28   1    -0.12  -0.07   0.17    -0.04  -0.06   0.09    -0.04   0.21  -0.05
    29   1    -0.04  -0.04   0.12     0.08  -0.03   0.01     0.25   0.11  -0.38
    30   1     0.03   0.02   0.19     0.07  -0.11   0.12     0.18  -0.24   0.03
    31   1    -0.00   0.03  -0.25     0.01   0.00  -0.00    -0.06  -0.03   0.01
    32   1    -0.11   0.17  -0.18     0.01  -0.06  -0.03    -0.05  -0.06  -0.00
    33   1    -0.07   0.12  -0.14    -0.01   0.01   0.00    -0.06  -0.00   0.03
    34   1    -0.18   0.14  -0.07     0.15  -0.01   0.01     0.01  -0.04  -0.04
    35   1    -0.15   0.10   0.05     0.12   0.05  -0.12    -0.00   0.01   0.01
                      7                      8                      9
                      A                      A                      A
 Frequencies --    128.0497               185.5681               223.7618
 Red. masses --      2.1508                 3.7330                 1.9190
 Frc consts  --      0.0208                 0.0757                 0.0566
 IR Inten    --      1.6125                 1.3093                 1.2216
  Atom  AN      X      Y      Z        X      Y      Z        X      Y      Z
     1   8    -0.02  -0.07  -0.01    -0.05  -0.02   0.04    -0.01   0.07   0.02
     2   6    -0.01  -0.04  -0.01    -0.04  -0.02  -0.03    -0.01   0.05  -0.00
     3   6     0.03  -0.02  -0.04    -0.06  -0.03  -0.00     0.01   0.05  -0.03
     4   6     0.01   0.02  -0.01    -0.06  -0.04   0.01     0.00   0.01   0.02
     5   6     0.00   0.05   0.01    -0.05  -0.08  -0.02     0.04  -0.01   0.03
     6   6     0.00   0.03   0.03    -0.02  -0.09  -0.13     0.07  -0.02  -0.03
     7   8    -0.05   0.01   0.08     0.05  -0.07  -0.06     0.10  -0.02  -0.07
     8   6    -0.03  -0.03  -0.03     0.04   0.10   0.04     0.07  -0.05   0.03
     9   6    -0.02   0.04   0.03     0.06  -0.00   0.06     0.00  -0.02   0.02
    10   6    -0.03   0.05   0.04     0.12  -0.02   0.13    -0.06  -0.00  -0.01
    11   8     0.19  -0.07  -0.05     0.14   0.11   0.11    -0.09   0.01   0.00
    12   6     0.02   0.05  -0.03     0.07   0.17  -0.10    -0.02  -0.04  -0.04
    13   6    -0.04  -0.01   0.01    -0.02  -0.02  -0.03     0.00   0.01   0.02
    14   6    -0.03  -0.00   0.00    -0.13  -0.04  -0.01    -0.10  -0.02   0.04
    15   6    -0.02   0.00  -0.01    -0.05  -0.01  -0.00    -0.01   0.01   0.02
    16   1     0.06   0.01  -0.05    -0.05  -0.05   0.00     0.05   0.09  -0.05
    17   1     0.04  -0.05  -0.07    -0.08  -0.01   0.00    -0.01   0.02  -0.08
    18   1     0.04   0.03  -0.01    -0.07  -0.05   0.03    -0.03  -0.00   0.03
    19   1     0.01   0.06   0.00    -0.16  -0.06  -0.03     0.02  -0.02   0.03
    20   1     0.02  -0.01   0.01    -0.09  -0.12  -0.21     0.03   0.01  -0.04
    21   1     0.01   0.06   0.01     0.03  -0.01  -0.17     0.11  -0.04  -0.02
    22   1    -0.10  -0.06   0.08     0.15   0.12   0.18    -0.06  -0.11   0.41
    23   1     0.08   0.08  -0.08    -0.08   0.23   0.02     0.05   0.27  -0.08
    24   1    -0.05  -0.15  -0.15     0.02   0.10   0.03     0.18  -0.36  -0.13
    25   1    -0.01   0.05   0.02     0.13   0.11   0.03    -0.01  -0.07   0.03
    26   1    -0.08   0.07   0.23     0.12  -0.03   0.08    -0.08  -0.03  -0.03
    27   1    -0.16   0.14  -0.09     0.12  -0.05   0.14    -0.04   0.02   0.01
    28   1     0.35  -0.14  -0.17     0.05   0.40  -0.11     0.25  -0.22  -0.15
    29   1    -0.18   0.01   0.42     0.00   0.09  -0.29    -0.01   0.02   0.25
    30   1    -0.24   0.37  -0.31     0.08   0.08  -0.08    -0.23   0.01  -0.26
    31   1    -0.07  -0.02   0.01    -0.02  -0.02  -0.06     0.04   0.03   0.01
    32   1    -0.02  -0.00   0.01    -0.20  -0.10  -0.08    -0.18  -0.11  -0.04
    33   1    -0.03   0.00  -0.01    -0.20  -0.00   0.08    -0.18   0.01   0.16
    34   1    -0.03  -0.01  -0.03     0.00  -0.03   0.03     0.04  -0.04   0.03
    35   1    -0.03   0.00   0.01    -0.03   0.05  -0.04     0.00   0.07  -0.01
                     10                     11                     12
                      A                      A                      A
 Frequencies --    227.9308               235.5656               276.5283
 Red. masses --      1.3984                 1.8588                 2.0398
 Frc consts  --      0.0428                 0.0608                 0.0919
 IR Inten    --      2.7224                 1.8353                 1.5977
  Atom  AN      X      Y      Z        X      Y      Z        X      Y      Z
     1   8     0.01  -0.03  -0.02     0.01  -0.02  -0.01     0.00  -0.01   0.02
     2   6     0.01  -0.02   0.01     0.00  -0.03   0.00     0.01  -0.02  -0.01
     3   6     0.02  -0.01  -0.02    -0.02  -0.03   0.02    -0.04  -0.04   0.09
     4   6    -0.00   0.00   0.03    -0.02  -0.02   0.01    -0.00  -0.03  -0.03
     5   6    -0.01   0.01   0.02    -0.02  -0.04  -0.01    -0.01   0.01  -0.00
     6   6    -0.01   0.02  -0.01    -0.02  -0.04  -0.02    -0.06   0.04   0.14
     7   8     0.00   0.03  -0.08     0.00  -0.04  -0.01    -0.04   0.07  -0.06
     8   6    -0.03   0.01   0.01     0.00   0.02   0.00    -0.06   0.02  -0.02
     9   6    -0.01   0.00   0.01     0.01  -0.01  -0.02     0.03   0.01  -0.03
    10   6     0.00  -0.01  -0.00    -0.01   0.03   0.04     0.11  -0.03  -0.05
    11   8     0.04  -0.03  -0.02    -0.08   0.10   0.07    -0.00   0.05   0.00
    12   6    -0.01   0.00   0.02     0.04   0.01   0.01     0.03   0.03   0.02
    13   6    -0.00   0.00   0.02     0.01  -0.01  -0.04     0.03  -0.01  -0.05
    14   6     0.07   0.04   0.01     0.14   0.06  -0.06    -0.03  -0.06  -0.03
    15   6    -0.08  -0.01   0.03    -0.06  -0.00   0.00     0.06  -0.03  -0.03
    16   1     0.06   0.03  -0.04    -0.03  -0.05   0.02    -0.17  -0.18   0.14
    17   1     0.01  -0.04  -0.07    -0.02  -0.02   0.03    -0.01   0.06   0.25
    18   1     0.01   0.01   0.04    -0.02  -0.02   0.03     0.01  -0.02  -0.07
    19   1    -0.02  -0.00   0.03    -0.04  -0.05  -0.00     0.09   0.02  -0.01
    20   1    -0.03   0.07   0.02    -0.03  -0.04  -0.03    -0.02   0.19   0.32
    21   1     0.00  -0.04   0.02    -0.03  -0.04  -0.02    -0.17  -0.15   0.23
    22   1    -0.15  -0.05   0.45     0.05   0.03   0.02    -0.17  -0.03   0.22
    23   1    -0.04   0.40  -0.12    -0.02   0.04   0.00    -0.06   0.22  -0.09
    24   1     0.08  -0.34  -0.18    -0.01   0.04   0.00     0.01  -0.19  -0.13
    25   1    -0.02   0.00   0.01     0.05   0.01  -0.04     0.05   0.02  -0.04
    26   1     0.01   0.01   0.03    -0.04  -0.01  -0.02     0.18  -0.02  -0.19
    27   1    -0.02  -0.01  -0.03     0.04   0.05   0.09     0.18  -0.15   0.04
    28   1    -0.22   0.13   0.11     0.39  -0.22  -0.13     0.15  -0.09  -0.02
    29   1    -0.01  -0.05  -0.21     0.08   0.12   0.38     0.04   0.07   0.19
    30   1     0.15  -0.05   0.19    -0.23   0.06  -0.27    -0.06   0.08  -0.07
    31   1    -0.02  -0.01   0.01    -0.00  -0.02  -0.05     0.02  -0.01  -0.02
    32   1     0.14   0.16   0.08     0.27   0.25   0.06    -0.09  -0.14  -0.10
    33   1     0.17  -0.03  -0.11     0.29  -0.02  -0.25    -0.10  -0.02   0.06
    34   1    -0.21   0.04  -0.05    -0.20   0.09  -0.06     0.14  -0.06   0.02
    35   1    -0.13  -0.12   0.14    -0.10  -0.13   0.10     0.09   0.04  -0.09
                     13                     14                     15
                      A                      A                      A
 Frequencies --    283.9343               311.0164               338.5056
 Red. masses --      2.4949                 3.2213                 2.5826
 Frc consts  --      0.1185                 0.1836                 0.1744
 IR Inten    --      0.5033                 0.9308                 2.1778
  Atom  AN      X      Y      Z        X      Y      Z        X      Y      Z
     1   8     0.08  -0.03   0.01    -0.01   0.01  -0.01    -0.03   0.02   0.00
     2   6     0.08  -0.00   0.00    -0.01   0.02  -0.01    -0.03   0.00   0.00
     3   6     0.10   0.01  -0.08     0.03   0.04  -0.07    -0.05  -0.02   0.08
     4   6     0.03   0.01   0.06     0.02   0.02  -0.03    -0.00  -0.01   0.00
     5   6    -0.03   0.00   0.02     0.01   0.00  -0.01     0.01   0.01  -0.00
     6   6    -0.04   0.03  -0.09    -0.02   0.06   0.05     0.07   0.16  -0.10
     7   8    -0.10   0.02  -0.01    -0.03   0.06  -0.01     0.05   0.16   0.05
     8   6    -0.10   0.07  -0.02    -0.04   0.00  -0.01     0.04  -0.12  -0.00
     9   6     0.01  -0.00   0.02    -0.02  -0.04   0.02     0.00  -0.01  -0.02
    10   6     0.12  -0.09  -0.07     0.04  -0.14   0.15     0.06  -0.05   0.01
    11   8    -0.04   0.01  -0.01    -0.02  -0.11   0.18     0.01  -0.01   0.03
    12   6    -0.01  -0.01   0.01    -0.11  -0.06  -0.16    -0.01  -0.00  -0.01
    13   6     0.04   0.02   0.05    -0.02   0.01  -0.01    -0.01  -0.01  -0.03
    14   6    -0.05  -0.01   0.08     0.07   0.06  -0.03    -0.01  -0.04  -0.02
    15   6    -0.06  -0.01   0.07     0.10   0.07  -0.04    -0.11  -0.07   0.01
    16   1     0.25   0.15  -0.13     0.10   0.13  -0.10    -0.19  -0.15   0.13
    17   1     0.03  -0.07  -0.26     0.01  -0.03  -0.17    -0.00   0.06   0.24
    18   1     0.06   0.02   0.07    -0.01   0.01  -0.00    -0.01  -0.02  -0.02
    19   1    -0.10  -0.03   0.04     0.07   0.01  -0.01    -0.00  -0.02   0.01
    20   1    -0.05  -0.06  -0.19     0.01   0.10   0.11    -0.03   0.06  -0.28
    21   1     0.03   0.13  -0.14    -0.06   0.00   0.08     0.13   0.34  -0.19
    22   1    -0.03   0.10  -0.10    -0.10  -0.02   0.01    -0.18  -0.17  -0.16
    23   1    -0.13   0.00   0.01    -0.02   0.01  -0.02     0.16  -0.31   0.05
    24   1    -0.14   0.17   0.03    -0.01  -0.05  -0.03     0.15  -0.17   0.05
    25   1    -0.04  -0.00   0.04     0.03   0.02  -0.00     0.02   0.01  -0.03
    26   1     0.24  -0.06  -0.30     0.13  -0.09   0.10     0.13  -0.03  -0.07
    27   1     0.22  -0.29   0.04     0.11  -0.17   0.22     0.11  -0.12   0.06
    28   1     0.15  -0.15  -0.06     0.08   0.20  -0.27     0.04   0.02  -0.04
    29   1    -0.01   0.03   0.21    -0.23  -0.16  -0.25    -0.03  -0.01   0.00
    30   1    -0.13   0.05  -0.12    -0.26  -0.15  -0.32    -0.04   0.00  -0.05
    31   1     0.02   0.01   0.05     0.01   0.02  -0.04     0.01  -0.00  -0.01
    32   1    -0.12  -0.03   0.00     0.12   0.06   0.03     0.01   0.05  -0.01
    33   1    -0.08  -0.02   0.17     0.08   0.09  -0.11     0.05  -0.09  -0.06
    34   1    -0.11  -0.03   0.01     0.16   0.09   0.04    -0.23  -0.05  -0.10
    35   1    -0.09  -0.03   0.13     0.14   0.10  -0.13    -0.17  -0.14   0.13
                     16                     17                     18
                      A                      A                      A
 Frequencies --    347.9248               394.4028               455.0888
 Red. masses --      3.3497                 2.4952                 4.4760
 Frc consts  --      0.2389                 0.2287                 0.5462
 IR Inten    --      2.0203                 2.7262                 6.8382
  Atom  AN      X      Y      Z        X      Y      Z        X      Y      Z
     1   8     0.15   0.14   0.09    -0.03   0.08  -0.00    -0.16  -0.10  -0.03
     2   6     0.14  -0.02  -0.03    -0.04  -0.03  -0.04    -0.08   0.14  -0.10
     3   6     0.04  -0.08   0.04    -0.03  -0.03  -0.10     0.03   0.20   0.07
     4   6     0.03  -0.04   0.04    -0.07  -0.08   0.09     0.04   0.01   0.11
     5   6     0.01  -0.03  -0.01    -0.04  -0.10   0.08     0.08   0.02   0.14
     6   6    -0.03   0.03  -0.00    -0.03   0.07  -0.01     0.09   0.01  -0.01
     7   8    -0.07   0.03  -0.01    -0.00   0.10  -0.00    -0.08  -0.04  -0.03
     8   6    -0.08   0.04  -0.02    -0.02  -0.03  -0.01    -0.10   0.07  -0.01
     9   6     0.07  -0.03  -0.07     0.01  -0.09   0.00     0.08  -0.02  -0.06
    10   6    -0.11   0.08   0.08    -0.03  -0.01  -0.00    -0.01   0.04   0.01
    11   8    -0.01  -0.04   0.04     0.03   0.06  -0.03    -0.01  -0.02   0.01
    12   6    -0.03  -0.03  -0.06     0.06   0.05   0.06    -0.02  -0.02  -0.02
    13   6     0.12  -0.05  -0.11    -0.00  -0.08  -0.04     0.03   0.03  -0.11
    14   6    -0.06  -0.03  -0.06     0.04  -0.00  -0.03     0.06  -0.16  -0.08
    15   6    -0.07  -0.03   0.03     0.10   0.02   0.06     0.06  -0.15   0.12
    16   1     0.01  -0.18   0.07     0.24   0.16  -0.18     0.10   0.13   0.09
    17   1     0.02   0.01   0.12    -0.14  -0.17  -0.38    -0.03   0.24   0.04
    18   1     0.08  -0.02   0.06    -0.10  -0.09   0.11    -0.08  -0.05  -0.06
    19   1     0.02  -0.09   0.02    -0.02  -0.15   0.10     0.07  -0.07   0.19
    20   1    -0.03   0.03  -0.00    -0.15   0.08  -0.10     0.05  -0.09  -0.14
    21   1    -0.05   0.03  -0.00     0.02   0.14  -0.04     0.29   0.05  -0.05
    22   1    -0.06   0.05  -0.02    -0.14  -0.07  -0.04     0.04   0.11   0.02
    23   1    -0.08   0.04  -0.02     0.02  -0.09   0.00    -0.16   0.13  -0.02
    24   1    -0.10   0.05  -0.02     0.05  -0.10   0.01    -0.15   0.14  -0.01
    25   1     0.10  -0.02  -0.08     0.05  -0.10  -0.02     0.19  -0.10  -0.11
    26   1    -0.32   0.01   0.35    -0.13  -0.08   0.03    -0.09   0.00   0.09
    27   1    -0.19   0.42  -0.03    -0.08   0.05  -0.05    -0.01   0.18  -0.01
    28   1    -0.05   0.10  -0.06     0.01  -0.05   0.10    -0.00   0.02  -0.03
    29   1    -0.05  -0.07  -0.17     0.11   0.09   0.10    -0.02  -0.03  -0.04
    30   1    -0.03  -0.10  -0.05     0.11   0.08   0.11    -0.03  -0.04  -0.03
    31   1     0.08  -0.07  -0.15     0.01  -0.07  -0.05     0.23   0.14   0.07
    32   1    -0.18  -0.02  -0.21     0.05   0.00  -0.02     0.07  -0.07  -0.08
    33   1    -0.12  -0.02   0.08     0.01   0.06  -0.09     0.08  -0.17  -0.13
    34   1    -0.14  -0.01  -0.02     0.28   0.07   0.28     0.04  -0.13   0.11
    35   1    -0.12  -0.02   0.14     0.22   0.13  -0.17     0.05  -0.11   0.14
                     19                     20                     21
                      A                      A                      A
 Frequencies --    490.3682               524.8980               561.3811
 Red. masses --      3.7559                 3.8166                 2.7672
 Frc consts  --      0.5321                 0.6196                 0.5138
 IR Inten    --      4.5210                 0.9652                 0.1197
  Atom  AN      X      Y      Z        X      Y      Z        X      Y      Z
     1   8    -0.07   0.23   0.01     0.03   0.04   0.04     0.06  -0.07   0.04
     2   6    -0.12  -0.11  -0.02     0.04  -0.05  -0.11     0.09   0.00  -0.09
     3   6     0.03  -0.14  -0.01    -0.03  -0.09  -0.03    -0.11  -0.04  -0.07
     4   6     0.11   0.05  -0.01    -0.08   0.00   0.10    -0.12  -0.06  -0.06
     5   6     0.11   0.12   0.07    -0.14   0.12   0.09     0.04   0.03   0.17
     6   6     0.14   0.00   0.00    -0.05  -0.04   0.00     0.10   0.03   0.01
     7   8    -0.06  -0.08  -0.02     0.06  -0.04   0.01    -0.03  -0.00  -0.02
     8   6    -0.06   0.06  -0.01     0.10  -0.04   0.02    -0.04   0.03  -0.01
     9   6    -0.04   0.00   0.06    -0.06   0.24  -0.06     0.05   0.01   0.14
    10   6     0.02  -0.05  -0.01     0.08   0.13  -0.04    -0.01  -0.00  -0.01
    11   8     0.01   0.01  -0.01    -0.02  -0.06   0.02    -0.02  -0.01  -0.03
    12   6     0.01   0.01   0.01    -0.07  -0.06  -0.05    -0.02  -0.03  -0.01
    13   6    -0.11  -0.14  -0.01    -0.02   0.01  -0.05     0.03   0.05   0.03
    14   6    -0.01  -0.01  -0.04     0.05  -0.07  -0.04     0.02   0.06   0.01
    15   6     0.01   0.01   0.01     0.05  -0.07   0.11    -0.02   0.03  -0.10
    16   1     0.05  -0.23   0.02     0.18  -0.12  -0.03    -0.31  -0.32   0.03
    17   1     0.20  -0.23   0.08    -0.15  -0.07  -0.13    -0.16   0.24   0.21
    18   1     0.17   0.08  -0.01     0.05   0.06  -0.04    -0.12  -0.06  -0.01
    19   1     0.14   0.14   0.06    -0.23   0.11   0.10     0.11   0.14   0.11
    20   1     0.19  -0.11  -0.06    -0.10  -0.04  -0.04    -0.04  -0.08  -0.22
    21   1     0.30  -0.02  -0.01     0.03  -0.03  -0.01     0.40   0.12  -0.07
    22   1     0.10   0.11   0.04     0.07  -0.05   0.02     0.01   0.04   0.01
    23   1    -0.14   0.14  -0.02     0.10  -0.05   0.02    -0.09   0.05  -0.01
    24   1    -0.14   0.15  -0.01     0.11  -0.06   0.02    -0.06   0.06   0.00
    25   1     0.01  -0.06   0.03    -0.02   0.23  -0.08     0.06  -0.10   0.13
    26   1     0.14  -0.00  -0.16     0.29   0.27  -0.09    -0.04  -0.03  -0.02
    27   1     0.04  -0.26   0.03     0.16   0.00   0.04    -0.03  -0.02  -0.03
    28   1    -0.00  -0.02   0.02    -0.01   0.05  -0.09    -0.03  -0.04   0.00
    29   1     0.01   0.02   0.03    -0.12  -0.11  -0.10    -0.02  -0.02  -0.00
    30   1     0.02   0.03   0.02    -0.11  -0.08  -0.10    -0.02  -0.02   0.00
    31   1    -0.20  -0.18  -0.04    -0.21  -0.07   0.13    -0.01   0.03  -0.03
    32   1     0.10   0.07   0.08     0.05  -0.02  -0.05     0.05   0.05   0.05
    33   1     0.05   0.01  -0.24     0.05  -0.07  -0.07     0.05   0.02   0.01
    34   1    -0.04  -0.01  -0.07     0.16  -0.03   0.27     0.13   0.08   0.11
    35   1    -0.03   0.02   0.09     0.13   0.00  -0.07     0.09   0.06  -0.33
                     22                     23                     24
                      A                      A                      A
 Frequencies --    596.5737               610.5972               715.1429
 Red. masses --      4.2736                 3.1237                 4.9714
 Frc consts  --      0.8961                 0.6862                 1.4980
 IR Inten    --      0.6696                 0.4667                 0.4497
  Atom  AN      X      Y      Z        X      Y      Z        X      Y      Z
     1   8    -0.06  -0.04  -0.07     0.10  -0.00  -0.05     0.15  -0.06   0.03
     2   6    -0.11  -0.11   0.13     0.00  -0.02   0.28     0.13  -0.05   0.00
     3   6    -0.17  -0.08  -0.02    -0.03   0.01   0.10    -0.10   0.16  -0.02
     4   6    -0.12   0.10  -0.02    -0.02  -0.11  -0.01    -0.15   0.20  -0.01
     5   6     0.09   0.04  -0.06    -0.00   0.03   0.11    -0.01   0.13  -0.03
     6   6     0.08   0.02   0.00     0.06   0.01   0.02     0.09   0.03   0.02
     7   8    -0.02   0.01  -0.01    -0.01  -0.02  -0.01    -0.00  -0.05  -0.01
     8   6    -0.04   0.02  -0.01    -0.01   0.01  -0.00     0.02   0.00   0.01
     9   6     0.18   0.01  -0.12    -0.05   0.03  -0.02    -0.19  -0.08  -0.18
    10   6     0.09   0.12  -0.05     0.00   0.02   0.00    -0.10  -0.15   0.04
    11   8    -0.02  -0.03   0.02     0.01  -0.00   0.01     0.04   0.02   0.05
    12   6    -0.04  -0.04  -0.03     0.00   0.00  -0.00     0.07   0.09   0.03
    13   6     0.16  -0.11   0.04    -0.04   0.08  -0.06     0.00  -0.17  -0.05
    14   6     0.03   0.04   0.17    -0.04  -0.01  -0.16     0.01  -0.06   0.01
    15   6    -0.03   0.04   0.07    -0.02  -0.04  -0.10    -0.02  -0.01   0.10
    16   1    -0.09   0.20  -0.12     0.00   0.60  -0.11    -0.15   0.10  -0.00
    17   1    -0.06  -0.35  -0.21    -0.01  -0.34  -0.30    -0.14   0.25   0.04
    18   1    -0.11   0.11   0.02     0.00  -0.10  -0.07    -0.21   0.18  -0.11
    19   1     0.17  -0.05  -0.01     0.06   0.06   0.10     0.09  -0.04   0.05
    20   1     0.11  -0.00   0.00    -0.02  -0.06  -0.12     0.18  -0.03   0.03
    21   1     0.10   0.02   0.00     0.25   0.05  -0.02     0.17  -0.02   0.03
    22   1    -0.00   0.03   0.00     0.03   0.02   0.02     0.09   0.02   0.03
    23   1    -0.05   0.04  -0.01    -0.04   0.03  -0.00    -0.02   0.04  -0.00
    24   1    -0.06   0.04  -0.01    -0.02   0.03   0.00    -0.02   0.04   0.00
    25   1     0.10   0.01  -0.08     0.03  -0.03  -0.06    -0.19  -0.01  -0.18
    26   1     0.01   0.09   0.07     0.06   0.05  -0.02     0.02  -0.10  -0.04
    27   1     0.15   0.34  -0.02     0.02  -0.03   0.02    -0.10  -0.31   0.07
    28   1     0.01   0.04  -0.06     0.01   0.02  -0.00     0.05   0.06   0.04
    29   1    -0.06  -0.06  -0.07    -0.01  -0.00  -0.01     0.08   0.10   0.05
    30   1    -0.08  -0.08  -0.07    -0.00   0.00  -0.01     0.09   0.11   0.05
    31   1     0.17  -0.11  -0.03    -0.11   0.04  -0.08    -0.08  -0.22  -0.02
    32   1    -0.11   0.00  -0.00    -0.07  -0.08  -0.19    -0.04   0.06  -0.08
    33   1    -0.05   0.06   0.32    -0.06  -0.04  -0.03    -0.01  -0.02  -0.06
    34   1     0.02   0.02   0.09     0.02   0.02   0.01     0.09  -0.06   0.16
    35   1     0.03  -0.06  -0.07     0.00   0.06  -0.14     0.07  -0.01  -0.09
                     25                     26                     27
                      A                      A                      A
 Frequencies --    752.2975               778.3739               803.2051
 Red. masses --      4.0969                 2.3400                 2.3212
 Frc consts  --      1.3661                 0.8353                 0.8823
 IR Inten    --      1.6128                 2.7262                 2.1835
  Atom  AN      X      Y      Z        X      Y      Z        X      Y      Z
     1   8     0.01  -0.01  -0.01    -0.06   0.01  -0.02    -0.03  -0.02  -0.01
     2   6    -0.01  -0.06   0.03    -0.05   0.02  -0.01    -0.01   0.03  -0.03
[...]
 005752,-0.00000094,-0.00002081,0.00001403,-0.00008119,-0.00001564,-0.0
 0003782,0.00009240,0.00015774,0.00002520,0.00010001,-0.00002924,-0.000
 36805,-0.00026448,0.00000425,0.00012616,0.00022250,-0.00009236,-0.0000
 8504,-0.00005803,0.00003410,0.00048506,-0.00350952,0.00131567,0.000791
 97,0.00888282,-0.01228055,-0.00693296,0.10681039,0.02656587,-0.2217689
 5,-0.00017636,0.00008271,-0.00002822,-0.00008647,0.00014819,-0.0001636
 7,0.00008443,0.00004401,0.00001287,0.00000274,-0.00000171,0.00000930,-
 0.00001528,-0.00000702,-0.00000908,0.00000937,-0.00004742,-0.00001005,
 -0.00001834,-0.00002809,0.00001147,0.00000172,-0.00001659,0.00016126,0
 .00008555,0.00000141,0.00004144,-0.00002968,0.00001761,0.00001052,-0.0
 0001470,0.00000641,-0.00002417,-0.00003713,0.00001499,0.00007417,0.000
 07519,-0.00015084,-0.00002962,0.00045492,0.00006754,0.00010899,0.00150
 385,-0.00120311,0.00108073,0.01375515,0.00390899,-0.01864225,-0.003104
 74,0.00067017,0.00468321,-0.12466668,-0.01910843,0.24018817,0.00208066
 ,-0.00222730,-0.00014968,0.01165435,0.01810891,0.00124093,-0.00221335,
 0.00270116,-0.00005484,-0.00020066,0.00077715,0.00002019,-0.00072946,0
 .00055121,0.00348128,0.00047621,-0.00065665,0.00003473,-0.00056604,0.0
 0002425,-0.00001556,0.00016978,-0.00009522,-0.00005199,-0.01215845,-0.
 01492671,-0.00103990,-0.00015694,-0.00156748,-0.00091697,0.00033750,0.
 00032761,-0.00008305,-0.00021915,0.00013046,0.00002734,-0.14000536,-0.
 12748932,-0.00963099,-0.00897426,-0.01345020,-0.00096755,-0.00032364,0
 .00105961,-0.00279324,0.00023875,0.00048734,0.00001328,0.00033859,0.00
 062145,-0.00000998,0.00005196,-0.00003521,-0.00001863,-0.00057136,-0.0
 0057037,-0.00000972,-0.00003760,0.00001145,0.00010511,-0.00005976,-0.0
 0002394,-0.00006683,-0.00005115,-0.00000958,-0.00000187,-0.00003324,0.
 00001500,-0.00001351,-0.00002679,0.00002068,0.00002749,0.00046442,0.00
 014909,0.00020047,0.00022543,0.00099731,0.00052228,0.00053892,0.000145
 67,-0.00007459,0.00000770,-0.00000127,0.00001304,0.00001666,0.00006159
 ,0.00002618,0.00004935,-0.00001079,-0.00005089,0.14934738,0.00067372,0
 .00583085,0.00039106,-0.02086904,-0.02584192,-0.00160989,0.00375975,-0
 .00274282,-0.00021724,0.00102536,0.00041806,0.00017030,0.00083721,0.00
 079717,-0.00020142,0.00014993,0.00000289,0.00001983,-0.00008576,0.0000
 5981,0.00004982,0.00010703,-0.00001204,0.00000884,0.00027913,-0.000358
 57,0.00006170,0.00075703,0.00051346,-0.00039588,-0.00004371,0.00016167
 ,0.00000272,-0.00004237,-0.00001939,-0.00000162,-0.12334904,-0.2204954
 5,-0.01348616,0.00185439,0.00266241,-0.00018212,0.00052536,0.00093868,
 0.00071732,-0.00029940,-0.00075313,0.00003841,-0.00045564,-0.00102190,
 0.00001682,-0.00004734,0.00009607,-0.00002987,-0.00000414,-0.00003213,
 -0.00002351,-0.00008468,0.00005279,0.00004097,-0.00003124,-0.00000628,
 -0.00001905,-0.00000482,-0.00000633,-0.00000110,-0.00000810,0.00000739
 ,-0.00000637,-0.00001697,0.00001021,0.00000966,-0.00004094,-0.00007559
 ,0.00033203,-0.00005918,0.00057103,0.00022234,0.00015129,0.00018289,0.
 00010482,-0.00000124,0.00000093,0.00000127,0.00001177,0.00002160,0.000
 00329,0.00000896,0.00000034,-0.00000685,0.13539013,0.23822071,0.000374
 45,0.00000766,-0.00104160,-0.00035006,0.00061952,-0.00054550,-0.000023
 08,0.00021170,0.00202272,0.00013630,0.00017584,-0.00076909,0.00234197,
 -0.00105213,-0.00389326,-0.00059589,0.00099518,-0.00027046,0.00068210,
 0.00001874,0.00015934,-0.00010752,0.00014480,0.00000496,0.01570146,0.0
 2027289,0.00152293,0.00054069,0.00128004,0.00153660,-0.00010551,-0.000
 12654,-0.00018728,0.00008540,-0.00008569,0.00002947,-0.00949577,-0.013
 94342,-0.05000101,-0.01593760,-0.02384298,-0.00224739,-0.00272757,0.00
 187280,-0.00435718,-0.00009522,-0.00033912,-0.00004679,0.00012399,0.00
 030493,-0.00003867,0.00001974,-0.00000145,0.00016406,0.00063010,0.0007
 7915,0.00008364,-0.00000589,-0.00001790,0.00000812,0.00015786,-0.00009
 455,0.00007623,0.00006579,0.00000614,0.00000128,0.00004819,-0.00003028
 ,0.00002260,0.00001404,-0.00001463,0.00000023,-0.00084992,0.00003905,0
 .00045147,-0.00032480,-0.00061113,-0.00020301,-0.00037796,0.00006954,0
 .00002913,-0.00000049,-0.00002013,-0.00000959,0.00000337,0.00000071,0.
 00003101,-0.00000008,0.00001377,0.00000520,0.00983434,0.01508935,0.055
 99112,0.00028819,-0.00035731,0.00018716,0.00144544,-0.00001066,-0.0003
 7405,-0.00023628,0.00004644,0.00004079,-0.00142319,-0.00094057,-0.0012
 6203,-0.00014741,-0.00006386,-0.00026503,-0.00003415,0.00023885,-0.000
 29145,-0.00012385,-0.00008722,0.00014884,0.00017324,0.00000204,-0.0000
 2056,-0.00233338,0.00040084,-0.00334060,-0.00049793,0.00051976,-0.0004
 9344,-0.00013125,0.00042913,0.00082137,0.00016333,-0.00033535,0.000142
 91,0.01225337,0.00207275,-0.01542711,-0.15636653,-0.01433131,0.1287440
 3,-0.00923320,-0.00125623,0.01067201,0.00008727,0.00000547,0.00001481,
 0.00000080,-0.00001472,-0.00002622,0.00021036,-0.00023672,0.00053766,0
 .00005585,0.00002759,0.00009359,-0.00003721,-0.00001645,0.00009402,0.0
 0016020,-0.00008720,0.00001772,-0.00001019,-0.00001384,0.00000104,-0.0
 0000268,0.00001092,-0.00000438,-0.00002527,0.00001658,0.00001930,0.000
 67100,-0.00001166,-0.00110806,0.00005577,0.00002599,0.00003409,0.00012
 799,-0.00013970,0.00010161,-0.00000853,-0.00002248,-0.00002267,0.00001
 034,0.00008375,0.00003444,-0.00005351,0.00009361,0.00005523,0.00088929
 ,-0.00007961,0.00088024,0.16592697,0.00017551,0.00022645,-0.00029556,-
 0.00078227,-0.00037618,0.00106427,-0.00029073,0.00021501,0.00005536,-0
 .00295255,-0.00292716,-0.00134865,0.00018061,-0.00015342,-0.00038750,0
 .00004335,-0.00018805,0.00001477,-0.00001457,0.00017352,0.00004205,0.0
 0007213,0.00001914,-0.00001383,-0.00035842,0.00052245,-0.00003081,0.00
 037255,-0.00023649,0.00067341,0.00038109,-0.00067153,-0.00085897,-0.00
 015691,0.00041141,-0.00014186,0.00044170,-0.00045902,0.00013194,-0.013
 47692,-0.05189411,0.02006780,-0.01756191,-0.00550924,0.02069195,0.0001
 5508,-0.00001909,0.00000753,0.00006276,-0.00014367,0.00001259,0.000313
 04,-0.00070478,0.00108826,0.00003519,0.00007891,0.00006359,-0.00005251
 ,0.00002101,0.00005194,-0.00003230,-0.00004276,-0.00008243,0.00000420,
 -0.00000180,-0.00000166,-0.00000193,-0.00000727,-0.00000634,-0.0000202
 5,0.00000886,0.00001971,-0.00002455,0.00017645,-0.00010563,-0.00005809
 ,0.00001681,-0.00005609,-0.00004260,0.00002213,-0.00014117,0.00001422,
 0.00000445,0.00002729,-0.00000831,-0.00008320,-0.00004063,0.00006473,-
 0.00012254,-0.00009366,0.00029404,0.00024488,-0.00024661,0.01882641,0.
 05719813,-0.00153210,-0.00002420,0.00043499,0.00320404,-0.00108618,-0.
 00027802,0.00017375,0.00002634,-0.00018475,-0.00037047,-0.00011210,0.0
 0020779,-0.00047349,-0.00063727,0.00040941,-0.00018952,0.00003042,-0.0
 0004504,0.00023314,0.00008885,0.00004908,-0.00009916,0.00003929,-0.000
 01752,-0.00519665,0.00055794,-0.00379461,-0.00032049,0.00058728,0.0001
 3047,0.00031199,-0.00053178,0.00015795,-0.00006584,0.00033457,0.000076
 30,0.01670726,0.00331797,-0.02243009,0.12712611,0.02059178,-0.20040674
 ,-0.00351455,-0.00161666,0.00415607,-0.00002412,0.00001478,0.00002479,
 -0.00001304,0.00011421,0.00002089,0.00001266,-0.00002556,0.00006191,0.
 00000955,0.00004955,0.00008750,-0.00001443,0.00000915,0.00002691,0.000
 04911,-0.00001847,-0.00000671,0.00002431,0.00001097,0.00000079,0.00001
 934,-0.00001612,0.00000940,0.00000939,-0.00001055,0.00000094,0.0012038
 4,-0.00002165,-0.00170164,-0.00000472,-0.00005381,-0.00003038,0.000141
 05,-0.00015404,-0.00001440,0.00004721,-0.00004860,0.00001142,-0.000018
 43,-0.00004837,-0.00003529,0.00000903,-0.00004373,-0.00004053,0.000079
 13,-0.00055628,0.00092382,-0.13624416,-0.01984941,0.21977510,-0.000720
 68,0.00105773,0.00052936,-0.00055941,-0.00328866,-0.00336505,-0.000134
 60,0.00042495,0.00059056,-0.00089376,-0.00147560,-0.00078102,0.0002688
 1,0.00002701,-0.00012006,0.00003563,-0.00024750,0.00022409,0.00006456,
 0.00017928,-0.00004394,-0.00003924,0.00000105,0.00003888,0.00099849,-0
 .00082533,0.00096291,0.00047323,0.00009854,-0.00077021,-0.00153937,0.0
 0119520,0.00208182,-0.00003683,0.00005619,0.00021906,-0.01191403,0.014
 74902,-0.00288426,-0.15222396,0.13386071,0.00348199,0.01098555,-0.0167
 6028,-0.00044626,0.00006788,-0.00008899,0.00004397,0.00003479,0.000145
 19,-0.00004514,0.00005860,-0.00033285,0.00056033,-0.00003416,0.0000452
 0,0.00005797,-0.00004888,0.00004228,-0.00005615,-0.00016053,-0.0000526
 2,-0.00001106,0.00001079,0.00000834,-0.00000576,-0.00000111,-0.0000085
 5,-0.00000950,-0.00000189,-0.00000007,-0.00000323,-0.00011196,-0.00007
 000,0.00021766,-0.00008018,0.00001347,-0.00010258,0.00001873,-0.000129
 00,0.00001920,0.00001181,0.00002842,0.00000959,-0.00000962,-0.00006050
 ,-0.00006754,-0.00007378,0.00005672,0.00004920,0.00010105,-0.00017203,
 0.00044715,-0.01271346,0.01569417,-0.00001479,0.16718166,-0.00021506,0
 .00008859,0.00028988,0.00000740,0.00039284,-0.00066826,-0.00029973,0.0
 0066624,-0.00024560,-0.00149084,-0.00190364,-0.00120527,0.00012373,-0.
 00039551,0.00004996,0.00011214,-0.00039503,0.00043716,0.00003538,0.000
 28649,-0.00010060,-0.00001925,0.00001144,0.00003815,0.00021208,0.00018
 373,0.00031386,-0.00023300,0.00023275,0.00031347,0.00138449,-0.0017500
 9,-0.00188981,0.00008731,-0.00013573,-0.00047014,-0.00036093,0.0015700
 4,0.00033556,0.13229601,-0.21878944,0.00063000,0.01414875,-0.01995619,
 -0.00149223,0.00003867,-0.00000701,0.00007630,-0.00003780,0.00011441,-
 0.00001135,0.00006970,-0.00036906,0.00079249,-0.00005699,0.00010801,0.
 00007869,-0.00006301,0.00006832,-0.00008991,-0.00031418,0.00005949,-0.
 00004642,0.00001307,0.00000712,-0.00000723,-0.00001444,-0.00000915,-0.
 00001166,-0.00000859,0.00000328,0.00000038,-0.00007163,0.00002478,-0.0
 0001427,-0.00002288,-0.00001867,-0.00004951,0.00001356,-0.00006228,-0.
 00006735,0.00002679,0.00002812,0.00000374,0.00002222,-0.00005982,-0.00
 005000,0.00003855,-0.00006272,-0.00002946,0.00014810,0.00037632,0.0003
 8173,-0.00297233,0.00456476,-0.00081786,-0.14112554,0.23630425,-0.0027
 8898,0.00188041,0.00165317,-0.00075001,-0.00444114,-0.00618667,0.00019
 967,-0.00009381,0.00108404,0.00017977,0.00040385,-0.00025093,0.0002007
 1,0.00032300,-0.00005367,0.00000018,0.00050224,-0.00022529,-0.00006273
 ,-0.00030626,0.00000452,0.00010871,-0.00000901,0.00001401,0.00060835,-
 0.00006986,0.00223263,-0.00123524,0.00117208,-0.00210510,0.00082844,-0
 .00052201,-0.00029523,0.00074800,-0.00166417,0.00023908,-0.02183798,0.
 02644941,-0.00525231,0.00617623,-0.00151266,-0.04703834,0.00082039,-0.
 00265263,-0.00091590,0.00000910,-0.00017830,0.00001040,0.00016775,0.00
 024775,0.00002879,0.00018728,0.00004389,-0.00013236,0.00001741,-0.0000
 4981,0.00001117,0.00007706,-0.00005072,-0.00003659,0.00028712,0.000039
 95,0.00011323,-0.00001528,-0.00001475,-0.00000001,-0.00000554,0.000021
 56,0.00000082,0.00000126,0.00000823,-0.00001311,-0.00000338,-0.0002804
 3,0.00045695,0.00022138,-0.00001275,0.00017574,0.00017744,-0.00025347,
 0.00031100,-0.00007218,0.00004907,-0.00007717,0.00003064,0.00028152,0.
 00008963,-0.00024641,0.00039381,0.00027123,0.00055579,-0.00054135,0.00
 094025,0.01646421,-0.02107115,0.00082664,-0.00045432,0.00299703,0.0529
 0461,-0.00010882,0.00023410,0.00005520,0.00005396,-0.00049613,-0.00007
 631,0.00050520,-0.00038199,-0.00144532,0.00028310,-0.00134085,-0.00301
 437,-0.00007689,0.00021140,-0.00089671,-0.00005348,0.00071742,-0.00026
 176,-0.00016791,-0.00029711,0.00015600,0.00027696,0.00002376,-0.000079
 42,-0.00014327,0.00011285,0.00030194,-0.00005087,-0.00001949,0.0000675
 3,0.00014770,0.00006477,-0.00008427,0.00001364,-0.00003341,-0.00001557
 ,-0.00067769,-0.00159621,0.00005881,0.00506187,-0.01118824,-0.01330190
 ,-0.08261534,0.05040044,0.06894437,0.00007237,-0.00009922,0.00006721,0
 .00018091,0.00015193,0.00003124,-0.00005653,-0.00000357,0.00033471,0.0
 0024964,-0.00015429,-0.00014801,0.00006968,-0.00015961,0.00028533,0.00
 037615,-0.00048660,0.00020212,-0.00003757,-0.00003631,0.00002144,0.000
 00444,0.00001923,0.00001550,-0.00003325,0.00001265,0.00002839,0.000056
 60,0.00008497,-0.00000076,0.00002085,0.00004831,0.00001257,0.00001888,
 -0.00000878,-0.00003727,-0.00000603,-0.00000940,0.00000139,0.00001029,
 0.00002401,0.00001195,0.00000835,-0.00001238,-0.00001248,-0.00035748,0
 .00006896,-0.00043965,0.00169526,0.00009589,-0.00048963,-0.00069168,-0
 .00174169,-0.00067275,0.08751386,-0.00037208,0.00033288,0.00015024,0.0
 0058884,-0.00085173,-0.00035325,-0.00053836,0.00089967,0.00017360,-0.0
 0629644,0.01048781,0.01538162,0.00090331,-0.00201697,0.00332390,0.0003
 5466,-0.00041401,0.00015126,0.00006569,0.00016959,-0.00010366,-0.00002
 863,-0.00000970,0.00002678,-0.00023382,-0.00020486,0.00028647,0.000157
 58,-0.00005002,0.00028007,0.00016314,-0.00009994,-0.00031838,-0.000108
 49,0.00019995,0.00000977,-0.00061579,-0.00216616,0.00062570,0.00875481
 ,-0.01639585,-0.01849730,0.05009618,-0.12294652,-0.10783609,-0.0003384
 6,0.00017007,-0.00002846,-0.00002559,0.00013835,-0.00011511,-0.0002371
 5,0.00072051,-0.00083265,-0.00032600,0.00062562,0.00104144,-0.00006952
 ,0.00005178,-0.00006744,-0.00018548,0.00008949,-0.00019836,0.00000047,
 0.00000524,-0.00000309,-0.00000888,-0.00000376,-0.00001028,-0.00000077
 ,-0.00000109,-0.00000277,0.00006055,0.00003225,-0.00009153,-0.00002796
 ,0.00007702,0.00000648,0.00004270,-0.00001362,-0.00008533,-0.00000158,
 0.00000009,0.00001354,-0.00000266,-0.00002906,-0.00000791,0.00003651,-
 0.00004222,-0.00005049,-0.00039299,0.00007942,-0.00073603,0.00000317,0
 .00155286,0.00003157,-0.00278843,-0.00300494,-0.00088991,-0.05161396,0
 .13624138,-0.00021987,0.00028785,0.00009566,-0.00011449,-0.00114112,-0
 .00030226,0.00143879,-0.00131729,0.00114627,0.01007357,-0.01538859,-0.
 02425053,-0.00113866,0.00513133,-0.00375073,-0.00103919,0.00035248,0.0
 0018400,0.00038169,0.00006550,0.00012681,-0.00024875,0.00005588,-0.000
 05727,0.00047523,0.00062548,0.00048531,-0.00020494,0.00007886,-0.00001
 118,0.00006397,-0.00015562,0.00004905,-0.00004122,0.00011229,0.0000270
 2,-0.00038952,-0.00025822,0.00016252,0.00070115,0.00096885,-0.00011515
 ,0.06744784,-0.10784441,-0.19794106,0.00023338,0.00017613,0.00057963,-
 0.00102111,0.00083281,0.00018963,0.00032041,0.00021736,0.00086804,0.00
 053107,-0.00111103,-0.00176884,0.00014566,-0.00006946,0.00006199,0.000
 11001,-0.00006644,0.00021714,0.00005495,0.00002717,-0.00000551,0.00004
 668,-0.00004032,0.00002555,0.00003794,-0.00001760,0.00000173,-0.000040
 25,-0.00003108,0.00003405,0.00000669,-0.00010052,0.00000393,-0.0000031
 2,0.00003895,0.00002715,0.00001589,-0.00001480,0.00000677,-0.00000689,
 -0.00002070,-0.00000939,0.00000340,-0.00000601,-0.00000697,-0.00012426
 ,0.00003873,-0.00015174,-0.00025839,0.00042280,0.00176251,-0.00038187,
 0.00057295,0.00005529,-0.07540427,0.11404597,0.21652871,-0.00026393,0.
 00003253,-0.00005228,0.00090640,0.00000771,0.00045283,0.00093339,0.000
 67756,-0.00093260,-0.00116515,0.00064903,-0.00070063,-0.00047213,0.000
 43560,0.00000836,-0.00079651,0.00115632,0.00065032,0.00024205,-0.00013
 411,-0.00001933,0.00004499,0.00008368,-0.00012599,-0.00016523,-0.00006
 819,0.00022579,-0.00024916,0.00017384,-0.00012979,0.00029091,-0.000077
 24,-0.00000547,-0.00004030,0.00005326,0.00000292,-0.00074120,-0.001750
 03,0.00111132,-0.01256015,0.00186383,-0.00194653,-0.29397113,0.0496134
 3,-0.04680235,-0.00026721,-0.00008558,0.00005755,0.00021204,-0.0001913
 3,0.00006416,0.00047563,0.00039094,-0.00031584,0.00010643,-0.00013049,
 -0.00014958,0.00020411,-0.00029661,0.00045167,0.00023513,-0.00037572,0
 .00140852,-0.00000551,-0.00000699,-0.00000626,0.00002291,-0.00003868,0
 .00004937,0.00000973,0.00000017,0.00004300,0.00007825,0.00002901,-0.00
 006210,0.00004277,0.00002750,0.00003241,0.00006333,-0.00007127,-0.0000
 4994,0.00001546,-0.00003699,0.00001027,0.00001474,0.00001877,0.0000080
 3,0.00001180,-0.00001976,-0.00002000,-0.00030333,0.00009523,-0.0006501
 7,-0.00083663,-0.00139184,-0.00077532,0.00167754,0.00026994,0.00007790
 ,-0.01154289,0.00298542,-0.00145153,0.31779286,0.00011495,0.00066132,-
 0.00000601,-0.00008458,-0.00189695,0.00010774,-0.00031191,-0.00148094,
 0.00430529,0.01830479,-0.00433228,0.00208640,-0.00009818,0.00007035,-0
 .00077957,0.00021219,0.00098157,-0.00036392,-0.00007082,-0.00043952,-0
 .00033605,-0.00016928,0.00000178,0.00003869,-0.00014661,-0.00003703,0.
 00020289,-0.00011166,0.00013406,-0.00010788,0.00011072,-0.00000149,0.0
 0010810,0.00000923,-0.00003694,-0.00001641,-0.00242574,-0.00289600,0.0
 0063544,-0.02756326,0.00305245,-0.00582102,0.04982891,-0.05686635,0.00
 850079,0.00142891,-0.00007131,0.00053754,-0.00045915,0.00024657,-0.000
 01905,0.00012002,0.00028862,-0.00060486,0.00011899,-0.00006701,-0.0000
 5169,-0.00012036,-0.00003271,-0.00002378,0.00032058,0.00002735,-0.0005
 4091,-0.00001612,-0.00001313,0.00001684,-0.00003678,0.00004999,0.00003
 968,0.00003133,-0.00002234,-0.00004586,0.00005650,-0.00002078,-0.00010
 782,0.00002175,0.00005250,0.00005019,0.00004928,-0.00003631,0.00000759
 ,0.00000940,-0.00002324,-0.00000232,0.00000706,0.00002292,0.00001494,-
 0.00000097,0.00000745,0.00001088,-0.00056517,0.00011596,-0.00112095,-0
 .00182608,-0.00191691,-0.00013204,-0.00025753,0.00182832,-0.00019958,0
 .01740856,-0.00362355,0.00353181,-0.05388896,0.06627358,-0.00039401,-0
 .00031030,0.00009489,0.00091413,0.00064617,-0.00013277,0.00066071,0.00
 245424,-0.00508058,-0.02847521,0.00564575,-0.00418730,-0.00072883,-0.0
 0024794,0.00136197,0.00020861,0.00027827,-0.00189735,-0.00036023,-0.00
 030261,0.00063209,0.00054996,-0.00002081,-0.00012519,-0.00024846,-0.00
 025540,0.00004655,-0.00023436,0.00007198,-0.00016792,0.00013089,0.0001
 5592,0.00010778,0.00006145,-0.00012767,0.00002972,-0.00055906,-0.00083
 661,-0.00028518,-0.00221422,0.00049490,-0.00090608,-0.04457128,0.00782
 735,-0.05860134,-0.00186737,0.00050769,-0.00015263,-0.00003109,0.00028
 134,0.00014595,0.00046096,-0.00034420,0.00121950,0.00014330,0.00010913
 ,0.00027375,0.00007197,-0.00017514,0.00041373,0.00111376,-0.00099925,-
 0.00100720,-0.00004864,-0.00004168,0.00002093,0.00001324,0.00002286,-0
 .00001009,-0.00007060,0.00004179,0.00005917,0.00008273,0.00007564,0.00
 003510,0.00006201,0.00002893,0.00001415,0.00005185,-0.00004679,-0.0000
 3306,-0.00000646,-0.00001200,-0.00000257,0.00001306,0.00004957,0.00001
 522,-0.00000932,0.00001262,-0.00000036,-0.00010754,-0.00004057,-0.0002
 4160,0.00003306,0.00033671,-0.00016897,0.00002900,-0.00004444,0.001159
 50,0.02578473,-0.00532035,0.00573187,0.04954128,-0.00991507,0.06163833
 \\-0.00001309,0.00002809,0.00001280,-0.00003094,0.00000701,-0.00000453
 ,0.00004141,-0.00002762,-0.00000219,-0.00000356,0.00001295,0.00001313,
 -0.00000334,-0.00005363,0.00000488,-0.00004889,-0.00003241,0.00004190,
 -0.00000892,-0.00003742,0.00000705,-0.00002878,0.00001451,-0.00000682,
 0.00002043,-0.00001595,-0.00002225,-0.00001141,0.00000998,0.00002616,0
 .00002745,0.00005085,-0.00000918,0.00000227,0.00001402,0.00001329,-0.0
 0001624,0.00000615,0.00002519,0.00000521,0.00002342,-0.00003826,0.0000
 3252,0.00000552,-0.00000954,0.00000448,0.00000142,-0.00000833,-0.00000
 845,0.00000575,-0.00000505,-0.00000180,0.00000865,-0.00000512,0.000025
 64,-0.00001184,-0.00002040,0.00000555,0.00000529,-0.00000511,-0.000026
 02,-0.00000276,-0.00000124,0.00001421,0.00000365,0.00000289,0.00000366
 ,-0.00000102,0.00000448,0.00000820,0.00000570,-0.00000107,-0.00000452,
 0.00002101,0.00000501,0.00000094,-0.00000674,0.00000425,-0.00000891,-0
 .00001726,-0.00001424,0.00000661,-0.00000910,-0.00000482,0.00000290,-0
 .00000319,-0.00000952,0.00001018,0.00000936,-0.00001101,-0.00000988,0.
 00000231,-0.00000723,0.00002060,-0.00002649,0.00001283,0.00001546,0.00
 000019,-0.00000848,-0.00002581,0.00000630,-0.00001623,0.00000286,0.000
 00331,0.00003674\\\@


 MOST BUREAUCRACIES FUNCTION LIKE A SEPTIC TANK.
 THE LARGE CHUNKS RISE TO THE TOP.
 Job cpu time:       0 days  0 hours  4 minutes 55.8 seconds.
 Elapsed time:       0 days  0 hours  5 minutes  2.8 seconds.
 File lengths (MBytes):  RWF=    295 Int=      0 D2E=      0 Chk=     16 Scr=      1
 Normal termination of Gaussian 16 at Sat Feb 24 00:12:35 2024.
