 Entering Gaussian System, Link 0=g16
 Input=/Volumes/SSD-PMU3/b3lyp_6-31gd_freq/WKYYYUWKFPFVEY-SSDOTTSWSA-N_calculating/gaussianinput2.gjf
 Output=/Volumes/SSD-PMU3/b3lyp_6-31gd_freq/WKYYYUWKFPFVEY-SSDOTTSWSA-N_calculating/gaussianinput2.log
 Initial command:
 /Applications/g16/l1.exe "/Users/macmini_m1_2022/PycharmProjects/sphere_model/sphere_model_lib/Gau-51716.inp" -scrdir="/Users/macmini_m1_2022/PycharmProjects/sphere_model/sphere_model_lib/"
 Entering Link 1 = /Applications/g16/l1.exe PID=     51717.
  
 Copyright (c) 1988,1990,1992,1993,1995,1998,2003,2009,2016,
            Gaussian, Inc.  All Rights Reserved.
  
 This is part of the Gaussian(R) 16 program.  It is based on
 the Gaussian(R) 09 system (copyright 2009, Gaussian, Inc.),
 the Gaussian(R) 03 system (copyright 2003, Gaussian, Inc.),
 the Gaussian(R) 98 system (copyright 1998, Gaussian, Inc.),
 the Gaussian(R) 94 system (copyright 1995, Gaussian, Inc.),
 the Gaussian 92(TM) system (copyright 1992, Gaussian, Inc.),
 the Gaussian 90(TM) system (copyright 1990, Gaussian, Inc.),
 the Gaussian 88(TM) system (copyright 1988, Gaussian, Inc.),
 the Gaussian 86(TM) system (copyright 1986, Carnegie Mellon
 University), and the Gaussian 82(TM) system (copyright 1983,
 Carnegie Mellon University). Gaussian is a federally registered
 trademark of Gaussian, Inc.
  
 This software contains proprietary and confidential information,
 including trade secrets, belonging to Gaussian, Inc.
  
 This software is provided under written license and may be
 used, copied, transmitted, or stored only in accord with that
 written license.
  
 The following legend is applicable only to US Government
 contracts under FAR:
  
                    RESTRICTED RIGHTS LEGEND
  
 Use, reproduction and disclosure by the US Government is
 subject to restrictions as set forth in subparagraphs (a)
 and (c) of the Commercial Computer Software - Restricted
 Rights clause in FAR 52.227-19.
  
 Gaussian, Inc.
 340 Quinnipiac St., Bldg. 40, Wallingford CT 06492
  
  
 ---------------------------------------------------------------
 Warning -- This program may not be used in any manner that
 competes with the business of Gaussian, Inc. or will provide
 assistance to any competitor of Gaussian, Inc.  The licensee
 of this program is prohibited from giving any competitor of
 Gaussian, Inc. access to this program.  By using this program,
 the user acknowledges that Gaussian, Inc. is engaged in the
 business of creating and licensing software in the field of
 computational chemistry and represents and warrants to the
 licensee that it is not a competitor of Gaussian, Inc. and that
 it will not use this program in any manner prohibited above.
 ---------------------------------------------------------------
  

 Cite this work as:
 Gaussian 16, Revision A.03,
 M. J. Frisch, G. W. Trucks, H. B. Schlegel, G. E. Scuseria, 
 M. A. Robb, J. R. Cheeseman, G. Scalmani, V. Barone, 
 G. A. Petersson, H. Nakatsuji, X. Li, M. Caricato, A. V. Marenich, 
 J. Bloino, B. G. Janesko, R. Gomperts, B. Mennucci, H. P. Hratchian, 
 J. V. Ortiz, A. F. Izmaylov, J. L. Sonnenberg, D. Williams-Young, 
 F. Ding, F. Lipparini, F. Egidi, J. Goings, B. Peng, A. Petrone, 
 T. Henderson, D. Ranasinghe, V. G. Zakrzewski, J. Gao, N. Rega, 
 G. Zheng, W. Liang, M. Hada, M. Ehara, K. Toyota, R. Fukuda, 
 J. Hasegawa, M. Ishida, T. Nakajima, Y. Honda, O. Kitao, H. Nakai, 
 T. Vreven, K. Throssell, J. A. Montgomery, Jr., J. E. Peralta, 
 F. Ogliaro, M. J. Bearpark, J. J. Heyd, E. N. Brothers, K. N. Kudin, 
 V. N. Staroverov, T. A. Keith, R. Kobayashi, J. Normand, 
 K. Raghavachari, A. P. Rendell, J. C. Burant, S. S. Iyengar, 
 J. Tomasi, M. Cossi, J. M. Millam, M. Klene, C. Adamo, R. Cammi, 
 J. W. Ochterski, R. L. Martin, K. Morokuma, O. Farkas, 
 J. B. Foresman, and D. J. Fox, Gaussian, Inc., Wallingford CT, 2016.
 
 ******************************************
 Gaussian 16:  EM64M-G16RevA.03 25-Dec-2016
                21-Feb-2024 
 ******************************************
 %nprocshared=8
 Will use up to    8 processors via shared memory.
 %mem=4GB
 %chk= 2.chk
 ---------------------
 # freq b3lyp/6-31g(d)
 ---------------------
 1/10=4,30=1,38=1/1,3;
 2/12=2,17=6,18=5,40=1/2;
 3/5=1,6=6,7=1,11=2,25=1,30=1,71=2,74=-5,140=1/1,2,3;
 4//1;
 5/5=2,38=5,98=1/2;
 8/6=4,10=90,11=11/1;
 11/6=1,8=1,9=11,15=111,16=1/1,2,10;
 10/6=1/2;
 6/7=2,8=2,9=2,10=2,28=1/1;
 7/8=1,10=1,25=1/1,2,3,16;
 1/10=4,30=1/3;
 99//99;
 ---------
 good luck
 ---------
 Symbolic Z-matrix:
 Charge =  0 Multiplicity = 1
 O                     1.21782   0.        0. 
 C                     0.        0.        0. 
 C                    -0.83152  -1.28762   0.01934 
 C                     0.02579  -2.56477  -0.04526 
 C                     0.71589  -2.83695  -1.38822 
 C                    -1.95892  -1.22043  -1.04091 
 C                    -2.80474   0.05376  -0.91294 
 C                    -1.92985   1.30881  -1.02804 
 C                    -0.79911   1.29989   0.01934 
 H                    -1.33415  -1.27515   1.00265 
 H                    -0.61722  -3.41749   0.21228 
 H                     0.7899   -2.49944   0.73743 
 H                     1.33115  -3.74131  -1.32043 
 H                    -0.00517  -2.99535  -2.19837 
 H                     1.37154  -2.00684  -1.66587 
 H                    -1.51898  -1.25615  -2.04629 
 H                    -2.5902   -2.1133   -0.94584 
 H                    -3.58394   0.0652   -1.68522 
 H                    -3.32456   0.05604   0.05661 
 H                    -1.48914   1.35222  -2.03382 
 H                    -2.53367   2.21697  -0.91235 
 H                    -1.24176   1.39955   1.02264 
 H                    -0.1021    2.13218  -0.11659 
 

 GradGradGradGradGradGradGradGradGradGradGradGradGradGradGradGradGradGrad
 Berny optimization.
 Initialization pass.
 Trust Radius=3.00D-01 FncErr=1.00D-07 GrdErr=1.00D-07 EigMax=2.50D+02 EigMin=1.00D-04
 Number of steps in this run=      2 maximum allowed number of steps=      2.
 GradGradGradGradGradGradGradGradGradGradGradGradGradGradGradGradGradGrad

                          Input orientation:                          
 ---------------------------------------------------------------------
 Center     Atomic      Atomic             Coordinates (Angstroms)
 Number     Number       Type             X           Y           Z
 ---------------------------------------------------------------------
      1          8           0        1.217817    0.000000    0.000000
      2          6           0        0.000000    0.000000    0.000000
      3          6           0       -0.831517   -1.287619    0.019335
      4          6           0        0.025792   -2.564765   -0.045259
      5          6           0        0.715886   -2.836951   -1.388222
      6          6           0       -1.958916   -1.220426   -1.040911
      7          6           0       -2.804740    0.053763   -0.912944
      8          6           0       -1.929845    1.308813   -1.028035
      9          6           0       -0.799106    1.299888    0.019335
     10          1           0       -1.334154   -1.275150    1.002651
     11          1           0       -0.617222   -3.417488    0.212276
     12          1           0        0.789898   -2.499441    0.737432
     13          1           0        1.331153   -3.741312   -1.320431
     14          1           0       -0.005171   -2.995345   -2.198371
     15          1           0        1.371535   -2.006836   -1.665874
     16          1           0       -1.518981   -1.256147   -2.046293
     17          1           0       -2.590201   -2.113305   -0.945837
     18          1           0       -3.583937    0.065196   -1.685223
     19          1           0       -3.324555    0.056035    0.056610
     20          1           0       -1.489137    1.352215   -2.033817
     21          1           0       -2.533673    2.216969   -0.912352
     22          1           0       -1.241757    1.399549    1.022643
     23          1           0       -0.102098    2.132180   -0.116585
 ---------------------------------------------------------------------
                    Distance matrix (angstroms):
                    1          2          3          4          5
     1  O    0.000000
     2  C    1.217817   0.000000
     3  C    2.420353   1.532892   0.000000
     4  C    2.828602   2.565294   1.539563   0.000000
     5  C    3.198028   3.238510   2.603095   1.534231   0.000000
     6  C    3.558731   2.531855   1.549085   2.595696   3.144574
     7  C    4.125206   2.950072   2.561652   3.952401   4.580057
     8  C    3.560565   2.548362   3.007452   4.449154   4.931226
     9  C    2.399596   1.525992   2.587710   3.952236   4.624917
    10  H    3.023884   2.100306   1.104405   2.147248   3.515417
    11  H    3.884798   3.479260   2.149300   1.098603   2.162358
    12  H    2.640857   2.723041   2.147827   1.095778   2.153554
    13  H    3.969106   4.184844   3.534505   2.171242   1.095910
    14  H    3.911602   3.715502   2.918458   2.195962   1.096063
    15  H    2.612691   2.946801   2.865422   2.179152   1.093644
    16  H    3.640781   2.841219   2.177250   2.846567   2.815427
    17  H    4.456643   3.474163   2.169397   2.803262   3.413148
    18  H    5.089309   3.960913   3.508766   4.757764   5.196070
    19  H    4.543070   3.325509   2.832320   4.254855   5.175140
    20  H    3.645888   2.860494   3.408316   4.646731   4.777869
    21  H    4.452080   3.488099   4.005935   5.492512   6.027287
    22  H    3.008993   2.132252   2.897550   4.296845   5.252863
    23  H    2.510370   2.137804   3.499364   4.699227   5.194076
                    6          7          8          9         10
     6  C    0.000000
     7  C    1.534715   0.000000
     8  C    2.529439   1.534222   0.000000
     9  C    2.970061   2.538610   1.541309   0.000000
    10  H    2.137631   2.756472   3.339970   2.807847   0.000000
    11  H    2.863163   4.254520   5.059572   4.724822   2.393386
    12  H    3.514877   4.707867   5.001667   4.180371   2.465933
    13  H    4.154221   5.627988   6.018585   5.634419   4.310745
    14  H    2.882216   4.334394   4.857966   4.898732   3.869342
    15  H    3.478638   4.717440   4.722232   4.299539   3.870031
    16  H    1.098004   2.157202   2.790104   3.364276   3.054600
    17  H    1.097631   2.177910   3.486218   3.973596   2.465109
    18  H    2.169944   1.097130   2.171290   3.490740   3.752695
    19  H    2.167689   1.100113   2.165900   2.815396   2.574635
    20  H    2.797327   2.161746   1.098956   2.166637   4.018358
    21  H    3.487486   2.180123   1.096694   2.172050   4.159444
    22  H    3.411281   2.828525   2.164943   1.101135   2.676369
    23  H    3.942349   3.501182   2.202120   1.094077   3.792169
                   11         12         13         14         15
    11  H    0.000000
    12  H    1.760280   0.000000
    13  H    2.500044   2.463737   0.000000
    14  H    2.522703   3.081719   1.764372   0.000000
    15  H    3.077749   2.521278   1.769002   1.776520   0.000000
    16  H    3.253567   3.824373   3.850478   2.310748   3.010537
    17  H    2.633394   3.795730   4.262364   3.004865   4.028044
    18  H    4.952877   5.619346   6.227414   4.736855   5.371256
    19  H    4.406727   4.891084   6.163741   5.041247   5.410698
    20  H    5.343710   5.263941   5.865746   4.596794   4.427420
    21  H    6.056788   6.001036   7.113685   5.934255   5.801635
    22  H    4.924488   4.405802   6.207923   5.587412   5.065657
    23  H    5.583217   4.793424   6.164524   5.534866   4.658685
                   16         17         18         19         20
    16  H    0.000000
    17  H    1.758760   0.000000
    18  H    2.477975   2.506007   0.000000
    19  H    3.066614   2.500042   1.761064   0.000000
    20  H    2.608563   3.795507   2.483168   3.068994   0.000000
    21  H    3.791828   4.330772   2.516051   2.496801   1.759698
    22  H    4.067916   4.246570   3.820843   2.660131   3.066820
    23  H    4.148746   4.990236   4.342378   3.837265   2.491586
                   21         22         23
    21  H    0.000000
    22  H    2.466055   0.000000
    23  H    2.559881   1.770144   0.000000
 Stoichiometry    C8H14O
 Framework group  C1[X(C8H14O)]
 Deg. of freedom    63
 Full point group                 C1      NOp   1
 Largest Abelian subgroup         C1      NOp   1
 Largest concise Abelian subgroup C1      NOp   1
                         Standard orientation:                         
 ---------------------------------------------------------------------
 Center     Atomic      Atomic             Coordinates (Angstroms)
 Number     Number       Type             X           Y           Z
 ---------------------------------------------------------------------
      1          8           0       -0.618191    2.003023    0.161515
      2          6           0        0.088330    1.067821   -0.169098
      3          6           0       -0.478007   -0.267781   -0.664262
      4          6           0       -2.015717   -0.328813   -0.619801
      5          6           0       -2.639773   -0.396540    0.780139
      6          6           0        0.229209   -1.451280    0.042024
      7          6           0        1.757941   -1.361857   -0.059622
      8          6           0        2.272442   -0.042751    0.531211
      9          6           0        1.610729    1.170845   -0.150666
     10          1           0       -0.174782   -0.318233   -1.725025
     11          1           0       -2.336835   -1.202412   -1.203442
     12          1           0       -2.404645    0.555317   -1.137276
     13          1           0       -3.733228   -0.395509    0.706849
     14          1           0       -2.351667   -1.307641    1.317022
     15          1           0       -2.344429    0.467684    1.381759
     16          1           0       -0.056612   -1.469059    1.102025
     17          1           0       -0.131663   -2.392123   -0.393153
     18          1           0        2.218158   -2.212157    0.458917
     19          1           0        2.062807   -1.435673   -1.114068
     20          1           0        2.050619   -0.016840    1.607235
     21          1           0        3.362626    0.028413    0.435429
     22          1           0        1.950201    1.220780   -1.196975
     23          1           0        1.884062    2.115401    0.329030
 ---------------------------------------------------------------------
 Rotational constants (GHZ):           2.4152389           1.3303813           0.9880099
 Standard basis: 6-31G(d) (6D, 7F)
 There are   163 symmetry adapted cartesian basis functions of A   symmetry.
 There are   163 symmetry adapted basis functions of A   symmetry.
   163 basis functions,   308 primitive gaussians,   163 cartesian basis functions
    35 alpha electrons       35 beta electrons
       nuclear repulsion energy       474.5918104985 Hartrees.
 NAtoms=   23 NActive=   23 NUniq=   23 SFac= 1.00D+00 NAtFMM=   60 NAOKFM=F Big=F
 Integral buffers will be    131072 words long.
 Raffenetti 2 integral format.
 Two-electron integral symmetry is turned on.
 One-electron integrals computed using PRISM.
 NBasis=   163 RedAO= T EigKep=  3.00D-03  NBF=   163
 NBsUse=   163 1.00D-06 EigRej= -1.00D+00 NBFU=   163
 ExpMin= 1.61D-01 ExpMax= 5.48D+03 ExpMxC= 8.25D+02 IAcc=3 IRadAn=         5 AccDes= 0.00D+00
 Harris functional with IExCor=  402 and IRadAn=       5 diagonalized for initial guess.
 HarFok:  IExCor=  402 AccDes= 0.00D+00 IRadAn=         5 IDoV= 1 UseB2=F ITyADJ=14
 ICtDFT=  3500011 ScaDFX=  1.000000  1.000000  1.000000  1.000000
 FoFCou: FMM=F IPFlag=           0 FMFlag=      100000 FMFlg1=           0
         NFxFlg=           0 DoJE=T BraDBF=F KetDBF=T FulRan=T
         wScrn=  0.000000 ICntrl=       500 IOpCl=  0 I1Cent=   200000004 NGrid=           0
         NMat0=    1 NMatS0=      1 NMatT0=    0 NMatD0=    1 NMtDS0=    0 NMtDT0=    0
 Petite list used in FoFCou.
 Requested convergence on RMS density matrix=1.00D-08 within 128 cycles.
 Requested convergence on MAX density matrix=1.00D-06.
 Requested convergence on             energy=1.00D-06.
 No special actions if energy rises.
 Integral accuracy reduced to 1.0D-05 until final iterations.
 Initial convergence to 1.0D-05 achieved.  Increase integral accuracy.
 SCF Done:  E(RB3LYP) =  -388.518415334     A.U. after   13 cycles
            NFock= 13  Conv=0.48D-08     -V/T= 2.0098
 DoSCS=F DFT=T ScalE2(SS,OS)=  1.000000  1.000000
 Range of M.O.s used for correlation:     1   163
 NBasis=   163 NAE=    35 NBE=    35 NFC=     0 NFV=     0
 NROrb=    163 NOA=    35 NOB=    35 NVA=   128 NVB=   128
 Symmetrizing basis deriv contribution to polar:
 IMax=3 JMax=2 DiffMx= 0.00D+00
 G2DrvN: will do    24 centers at a time, making    1 passes.
 Calling FoFCou, ICntrl=  3107 FMM=F I1Cent=   0 AccDes= 0.00D+00.
 End of G2Drv F.D. properties file   721 does not exist.
 End of G2Drv F.D. properties file   722 does not exist.
 End of G2Drv F.D. properties file   788 does not exist.
          IDoAtm=11111111111111111111111
          Differentiating once with respect to electric field.
                with respect to dipole field.
          Differentiating once with respect to nuclear coordinates.
 Keep R1 ints in memory in canonical form, NReq=97235269.
          There are    72 degrees of freedom in the 1st order CPHF.  IDoFFX=6 NUNeed=     3.
     69 vectors produced by pass  0 Test12= 6.22D-15 1.39D-09 XBig12= 5.67D+01 1.73D+00.
 AX will form    69 AO Fock derivatives at one time.
     69 vectors produced by pass  1 Test12= 6.22D-15 1.39D-09 XBig12= 5.61D+00 6.15D-01.
     69 vectors produced by pass  2 Test12= 6.22D-15 1.39D-09 XBig12= 2.68D-02 1.91D-02.
     69 vectors produced by pass  3 Test12= 6.22D-15 1.39D-09 XBig12= 5.72D-05 1.00D-03.
     69 vectors produced by pass  4 Test12= 6.22D-15 1.39D-09 XBig12= 5.62D-08 2.02D-05.
     31 vectors produced by pass  5 Test12= 6.22D-15 1.39D-09 XBig12= 3.34D-11 5.40D-07.
      3 vectors produced by pass  6 Test12= 6.22D-15 1.39D-09 XBig12= 1.84D-14 1.82D-08.
 InvSVY:  IOpt=1 It=  1 EMax= 3.55D-15
 Solved reduced A of dimension   379 with    72 vectors.
 Isotropic polarizability for W=    0.000000       82.46 Bohr**3.
 End of Minotr F.D. properties file   721 does not exist.
 End of Minotr F.D. properties file   722 does not exist.
 End of Minotr F.D. properties file   788 does not exist.

 **********************************************************************

            Population analysis using the SCF density.

 **********************************************************************

 Orbital symmetries:
       Occupied  (A) (A) (A) (A) (A) (A) (A) (A) (A) (A) (A) (A)
                 (A) (A) (A) (A) (A) (A) (A) (A) (A) (A) (A) (A)
                 (A) (A) (A) (A) (A) (A) (A) (A) (A) (A) (A)
       Virtual   (A) (A) (A) (A) (A) (A) (A) (A) (A) (A) (A) (A)
                 (A) (A) (A) (A) (A) (A) (A) (A) (A) (A) (A) (A)
                 (A) (A) (A) (A) (A) (A) (A) (A) (A) (A) (A) (A)
                 (A) (A) (A) (A) (A) (A) (A) (A) (A) (A) (A) (A)
                 (A) (A) (A) (A) (A) (A) (A) (A) (A) (A) (A) (A)
                 (A) (A) (A) (A) (A) (A) (A) (A) (A) (A) (A) (A)
                 (A) (A) (A) (A) (A) (A) (A) (A) (A) (A) (A) (A)
                 (A) (A) (A) (A) (A) (A) (A) (A) (A) (A) (A) (A)
                 (A) (A) (A) (A) (A) (A) (A) (A) (A) (A) (A) (A)
                 (A) (A) (A) (A) (A) (A) (A) (A) (A) (A) (A) (A)
                 (A) (A) (A) (A) (A) (A) (A) (A)
 The electronic state is 1-A.
 Alpha  occ. eigenvalues --  -19.13359 -10.26723 -10.19481 -10.19343 -10.19065
 Alpha  occ. eigenvalues --  -10.18998 -10.18988 -10.17867 -10.16578  -1.03212
 Alpha  occ. eigenvalues --   -0.83390  -0.78124  -0.73436  -0.70957  -0.63818
 Alpha  occ. eigenvalues --   -0.59351  -0.58526  -0.51837  -0.46848  -0.46719
 Alpha  occ. eigenvalues --   -0.44776  -0.44541  -0.43468  -0.40365  -0.39716
 Alpha  occ. eigenvalues --   -0.39350  -0.37478  -0.36661  -0.35225  -0.33926
 Alpha  occ. eigenvalues --   -0.33219  -0.32706  -0.32057  -0.31095  -0.23379
 Alpha virt. eigenvalues --   -0.01273   0.08838   0.10107   0.10646   0.13212
 Alpha virt. eigenvalues --    0.14665   0.15071   0.15896   0.16266   0.16930
 Alpha virt. eigenvalues --    0.17531   0.18138   0.18621   0.18873   0.19685
 Alpha virt. eigenvalues --    0.21175   0.22702   0.23733   0.25506   0.27355
 Alpha virt. eigenvalues --    0.27639   0.28045   0.32910   0.36954   0.49478
 Alpha virt. eigenvalues --    0.50838   0.52444   0.53051   0.55142   0.55661
 Alpha virt. eigenvalues --    0.57155   0.59386   0.60800   0.63099   0.64007
 Alpha virt. eigenvalues --    0.66206   0.67015   0.67443   0.70371   0.72097
 Alpha virt. eigenvalues --    0.73149   0.77941   0.78846   0.82081   0.82877
 Alpha virt. eigenvalues --    0.85091   0.85536   0.86657   0.87614   0.88082
 Alpha virt. eigenvalues --    0.89603   0.90449   0.91456   0.92908   0.93366
 Alpha virt. eigenvalues --    0.93964   0.94859   0.95840   0.97991   1.01048
 Alpha virt. eigenvalues --    1.03221   1.05941   1.06773   1.11068   1.14322
 Alpha virt. eigenvalues --    1.16873   1.19693   1.26463   1.36075   1.39618
 Alpha virt. eigenvalues --    1.42768   1.47447   1.48908   1.53060   1.62007
 Alpha virt. eigenvalues --    1.64989   1.66258   1.70807   1.72447   1.73657
 Alpha virt. eigenvalues --    1.78249   1.80690   1.82009   1.83939   1.86193
 Alpha virt. eigenvalues --    1.87152   1.89511   1.93830   1.94447   1.96729
 Alpha virt. eigenvalues --    1.98499   2.00631   2.02586   2.06901   2.08703
 Alpha virt. eigenvalues --    2.13341   2.14195   2.15372   2.21396   2.28532
 Alpha virt. eigenvalues --    2.30203   2.33104   2.34441   2.35725   2.37691
 Alpha virt. eigenvalues --    2.40160   2.40915   2.42310   2.50979   2.57446
 Alpha virt. eigenvalues --    2.58307   2.61908   2.64726   2.65939   2.71326
 Alpha virt. eigenvalues --    2.78182   2.83624   2.99232   3.03853   4.01181
 Alpha virt. eigenvalues --    4.10489   4.19756   4.26171   4.32000   4.47683
 Alpha virt. eigenvalues --    4.52775   4.57402   4.64632
          Condensed to atoms (all electrons):
               1          2          3          4          5          6
     1  O    8.016953   0.574762  -0.090581   0.005472  -0.005759   0.001069
     2  C    0.574762   4.522658   0.296801  -0.029869  -0.005123  -0.023692
     3  C   -0.090581   0.296801   5.265109   0.349165  -0.038275   0.348615
     4  C    0.005472  -0.029869   0.349165   4.979886   0.377426  -0.041477
     5  C   -0.005759  -0.005123  -0.038275   0.377426   5.078168  -0.006312
     6  C    0.001069  -0.023692   0.348615  -0.041477  -0.006312   5.049013
     7  C    0.000139  -0.013198  -0.035814   0.003898   0.000215   0.369520
     8  C    0.001312  -0.027035  -0.002245   0.000015  -0.000014  -0.045372
     9  C   -0.074535   0.342967  -0.133171   0.006032  -0.000130  -0.005928
    10  H    0.001030  -0.038400   0.353465  -0.035659   0.004751  -0.045509
    11  H    0.000345   0.005143  -0.033836   0.364893  -0.041020  -0.004217
    12  H    0.007426  -0.005799  -0.035539   0.372806  -0.035571   0.004900
    13  H    0.000083   0.000053   0.004376  -0.029090   0.372457   0.000125
    14  H    0.000121  -0.000120  -0.006133  -0.035348   0.374467   0.003138
    15  H    0.008925   0.004667  -0.007454  -0.033485   0.377496  -0.000604
    16  H    0.000346  -0.004716  -0.040807  -0.005689   0.003539   0.373327
    17  H   -0.000070   0.003360  -0.032440  -0.001919  -0.000704   0.366894
    18  H    0.000002   0.000319   0.004159  -0.000134   0.000004  -0.030949
    19  H   -0.000009  -0.001776  -0.004451  -0.000026   0.000002  -0.041297
    20  H    0.000361  -0.002854   0.000073  -0.000051   0.000001  -0.005163
    21  H   -0.000064   0.003293  -0.000213   0.000009  -0.000000   0.004908
    22  H    0.001007  -0.029848   0.002932  -0.000116  -0.000000  -0.001161
    23  H    0.005372  -0.023567   0.006540  -0.000150   0.000005  -0.000157
               7          8          9         10         11         12
     1  O    0.000139   0.001312  -0.074535   0.001030   0.000345   0.007426
     2  C   -0.013198  -0.027035   0.342967  -0.038400   0.005143  -0.005799
     3  C   -0.035814  -0.002245  -0.133171   0.353465  -0.033836  -0.035539
     4  C    0.003898   0.000015   0.006032  -0.035659   0.364893   0.372806
     5  C    0.000215  -0.000014  -0.000130   0.004751  -0.041020  -0.035571
     6  C    0.369520  -0.045372  -0.005928  -0.045509  -0.004217   0.004900
     7  C    5.010038   0.378307  -0.045328  -0.002206  -0.000031  -0.000145
     8  C    0.378307   5.020277   0.337113  -0.001914  -0.000003  -0.000008
     9  C   -0.045328   0.337113   5.288949   0.002636  -0.000133   0.000336
    10  H   -0.002206  -0.001914   0.002636   0.621278  -0.004527  -0.001990
    11  H   -0.000031  -0.000003  -0.000133  -0.004527   0.623592  -0.036697
    12  H   -0.000145  -0.000008   0.000336  -0.001990  -0.036697   0.582920
    13  H   -0.000002  -0.000000   0.000002  -0.000128  -0.002559  -0.003578
    14  H   -0.000052   0.000003   0.000012  -0.000018  -0.004391   0.005064
    15  H   -0.000026  -0.000026   0.000130   0.000095   0.005121  -0.003871
    16  H   -0.039245  -0.005694   0.000214   0.006290  -0.000105   0.000006
    17  H   -0.030399   0.004941  -0.000280  -0.006816   0.003840  -0.000088
    18  H    0.367241  -0.031828   0.004630  -0.000008  -0.000001   0.000002
    19  H    0.373199  -0.042663  -0.003182   0.005618  -0.000008  -0.000004
    20  H   -0.039746   0.376386  -0.042610   0.000126  -0.000000  -0.000001
    21  H   -0.030739   0.368467  -0.028615  -0.000031  -0.000000   0.000000
    22  H   -0.003123  -0.036557   0.350403   0.001548  -0.000002  -0.000031
    23  H    0.004174  -0.025535   0.342877  -0.000123   0.000002  -0.000008
              13         14         15         16         17         18
     1  O    0.000083   0.000121   0.008925   0.000346  -0.000070   0.000002
     2  C    0.000053  -0.000120   0.004667  -0.004716   0.003360   0.000319
     3  C    0.004376  -0.006133  -0.007454  -0.040807  -0.032440   0.004159
     4  C   -0.029090  -0.035348  -0.033485  -0.005689  -0.001919  -0.000134
     5  C    0.372457   0.374467   0.377496   0.003539  -0.000704   0.000004
     6  C    0.000125   0.003138  -0.000604   0.373327   0.366894  -0.030949
     7  C   -0.000002  -0.000052  -0.000026  -0.039245  -0.030399   0.367241
     8  C   -0.000000   0.000003  -0.000026  -0.005694   0.004941  -0.031828
     9  C    0.000002   0.000012   0.000130   0.000214  -0.000280   0.004630
    10  H   -0.000128  -0.000018   0.000095   0.006290  -0.006816  -0.000008
    11  H   -0.002559  -0.004391   0.005121  -0.000105   0.003840  -0.000001
    12  H   -0.003578   0.005064  -0.003871   0.000006  -0.000088   0.000002
    13  H    0.575944  -0.031833  -0.027508  -0.000077  -0.000035  -0.000000
    14  H   -0.031833   0.587073  -0.031518   0.002146   0.000344   0.000007
    15  H   -0.027508  -0.031518   0.538051   0.000601   0.000066  -0.000001
    16  H   -0.000077   0.002146   0.000601   0.594996  -0.037355  -0.003690
    17  H   -0.000035   0.000344   0.000066  -0.037355   0.597923  -0.002517
    18  H   -0.000000   0.000007  -0.000001  -0.003690  -0.002517   0.596011
    19  H    0.000000  -0.000001   0.000000   0.005769  -0.003915  -0.036169
    20  H    0.000000  -0.000006   0.000005   0.004972  -0.000005  -0.004062
    21  H    0.000000   0.000000   0.000000  -0.000022  -0.000184  -0.002291
    22  H    0.000000  -0.000000  -0.000001   0.000106  -0.000012  -0.000035
    23  H   -0.000000  -0.000000   0.000004  -0.000035   0.000017  -0.000145
              19         20         21         22         23
     1  O   -0.000009   0.000361  -0.000064   0.001007   0.005372
     2  C   -0.001776  -0.002854   0.003293  -0.029848  -0.023567
     3  C   -0.004451   0.000073  -0.000213   0.002932   0.006540
     4  C   -0.000026  -0.000051   0.000009  -0.000116  -0.000150
     5  C    0.000002   0.000001  -0.000000  -0.000000   0.000005
     6  C   -0.041297  -0.005163   0.004908  -0.001161  -0.000157
     7  C    0.373199  -0.039746  -0.030739  -0.003123   0.004174
     8  C   -0.042663   0.376386   0.368467  -0.036557  -0.025535
     9  C   -0.003182  -0.042610  -0.028615   0.350403   0.342877
    10  H    0.005618   0.000126  -0.000031   0.001548  -0.000123
    11  H   -0.000008  -0.000000  -0.000000  -0.000002   0.000002
    12  H   -0.000004  -0.000001   0.000000  -0.000031  -0.000008
    13  H    0.000000   0.000000   0.000000   0.000000  -0.000000
    14  H   -0.000001  -0.000006   0.000000  -0.000000  -0.000000
    15  H    0.000000   0.000005   0.000000  -0.000001   0.000004
    16  H    0.005769   0.004972  -0.000022   0.000106  -0.000035
    17  H   -0.003915  -0.000005  -0.000184  -0.000012   0.000017
    18  H   -0.036169  -0.004062  -0.002291  -0.000035  -0.000145
    19  H    0.610732   0.005839  -0.004046   0.004664  -0.000027
    20  H    0.005839   0.597208  -0.036797   0.005738  -0.003370
    21  H   -0.004046  -0.036797   0.592856  -0.006431  -0.002338
    22  H    0.004664   0.005738  -0.006431   0.584234  -0.026717
    23  H   -0.000027  -0.003370  -0.002338  -0.026717   0.560677
 Mulliken charges:
               1
     1  O   -0.453706
     2  C    0.451975
     3  C   -0.170277
     4  C   -0.246588
     5  C   -0.455623
     6  C   -0.269672
     7  C   -0.266677
     8  C   -0.267927
     9  C   -0.342389
    10  H    0.140491
    11  H    0.124594
    12  H    0.149868
    13  H    0.141771
    14  H    0.137044
    15  H    0.169331
    16  H    0.145124
    17  H    0.139354
    18  H    0.139454
    19  H    0.131752
    20  H    0.143955
    21  H    0.142239
    22  H    0.153404
    23  H    0.162504
 Sum of Mulliken charges =  -0.00000
 Mulliken charges with hydrogens summed into heavy atoms:
               1
     1  O   -0.453706
     2  C    0.451975
     3  C   -0.029787
     4  C    0.027874
     5  C   -0.007477
     6  C    0.014806
     7  C    0.004529
     8  C    0.018267
     9  C   -0.026481
 APT charges:
               1
     1  O   -0.638851
     2  C    0.696554
     3  C   -0.036822
     4  C    0.134161
     5  C    0.051646
     6  C    0.111376
     7  C    0.116765
     8  C    0.141345
     9  C   -0.056037
    10  H   -0.047008
    11  H   -0.061990
    12  H   -0.035463
    13  H   -0.032248
    14  H   -0.026084
    15  H    0.010734
    16  H   -0.032053
    17  H   -0.050796
    18  H   -0.056175
    19  H   -0.051779
    20  H   -0.042046
    21  H   -0.053212
    22  H   -0.013948
    23  H   -0.028070
 Sum of APT charges =   0.00000
 APT charges with hydrogens summed into heavy atoms:
               1
     1  O   -0.638851
     2  C    0.696554
     3  C   -0.083830
     4  C    0.036708
     5  C    0.004049
     6  C    0.028527
     7  C    0.008810
     8  C    0.046087
     9  C   -0.098055
 Electronic spatial extent (au):  <R**2>=           1305.7779
 Charge=             -0.0000 electrons
 Dipole moment (field-independent basis, Debye):
    X=              1.6849    Y=             -2.1812    Z=             -0.6982  Tot=              2.8432
 Quadrupole moment (field-independent basis, Debye-Ang):
   XX=            -55.2031   YY=            -61.4557   ZZ=            -55.0042
   XY=              2.7185   XZ=              0.4310   YZ=             -1.0016
 Traceless Quadrupole moment (field-independent basis, Debye-Ang):
   XX=              2.0179   YY=             -4.2347   ZZ=              2.2168
   XY=              2.7185   XZ=              0.4310   YZ=             -1.0016
 Octapole moment (field-independent basis, Debye-Ang**2):
  XXX=              0.6947  YYY=             -6.4464  ZZZ=             -0.5630  XYY=              5.7770
  XXY=              2.9367  XXZ=             -0.8985  XZZ=              0.7191  YZZ=              3.3007
  YYZ=             -1.5923  XYZ=             -0.0541
 Hexadecapole moment (field-independent basis, Debye-Ang**3):
 XXXX=          -1039.6397 YYYY=           -529.7662 ZZZZ=           -185.9092 XXXY=             -4.1321
 XXXZ=              1.9734 YYYX=              7.6098 YYYZ=             -1.9755 ZZZX=             -0.2630
 ZZZY=              0.8828 XXYY=           -261.3405 XXZZ=           -209.2127 YYZZ=           -113.0088
 XXYZ=             -0.2147 YYXZ=              3.5210 ZZXY=             -2.1419
 N-N= 4.745918104985D+02 E-N=-1.850580189050D+03  KE= 3.847508988701D+02
  Exact polarizability:  93.692  -1.577  82.869  -0.340   1.641  70.812
 Approx polarizability: 117.690  -7.843 120.924  -3.222   5.186 108.051
 Calling FoFJK, ICntrl=    100127 FMM=F ISym2X=0 I1Cent= 0 IOpClX= 0 NMat=1 NMatS=1 NMatT=0.
 Full mass-weighted force constant matrix:
 Low frequencies ---   -5.9107   -5.4430   -0.0013   -0.0012   -0.0009    3.8963
 Low frequencies ---   73.5719  107.7749  139.8059
 Diagonal vibrational polarizability:
        5.5192899       4.4580067       9.6511843
 Harmonic frequencies (cm**-1), IR intensities (KM/Mole), Raman scattering
 activities (A**4/AMU), depolarization ratios for plane and unpolarized
 incident light, reduced masses (AMU), force constants (mDyne/A),
 and normal coordinates:
                      1                      2                      3
                      A                      A                      A
 Frequencies --     73.5699               107.7741               139.8056
 Red. masses --      3.6613                 2.0630                 2.5807
 Frc consts  --      0.0117                 0.0141                 0.0297
 IR Inten    --      1.4432                 0.6549                 0.9197
  Atom  AN      X      Y      Z        X      Y      Z        X      Y      Z
     1   8     0.04  -0.07   0.26    -0.05  -0.06   0.07    -0.02   0.07  -0.12
     2   6     0.02  -0.01   0.02    -0.02  -0.04   0.04    -0.01   0.02   0.06
     3   6     0.01   0.00   0.02     0.01  -0.04   0.01     0.01  -0.00   0.10
     4   6     0.01   0.01  -0.09     0.01  -0.09  -0.01     0.01  -0.01  -0.01
     5   6    -0.11  -0.04  -0.14    -0.04   0.23  -0.02    -0.10  -0.06  -0.06
     6   6    -0.02   0.06   0.15     0.05  -0.04  -0.03     0.00   0.03   0.14
     7   6    -0.02  -0.00   0.08     0.05   0.01  -0.06    -0.01  -0.02  -0.10
     8   6     0.06   0.06  -0.13     0.02   0.00  -0.02     0.12  -0.06  -0.12
     9   6     0.02   0.00  -0.20    -0.03   0.01   0.04     0.00   0.02   0.14
    10   1     0.08  -0.07   0.05     0.02  -0.01   0.01     0.06  -0.03   0.11
    11   1     0.05   0.03  -0.14     0.08  -0.24   0.18     0.06  -0.00  -0.05
    12   1     0.05   0.03  -0.09    -0.01  -0.23  -0.24     0.04  -0.00  -0.02
    13   1    -0.10  -0.04  -0.23    -0.04   0.01  -0.08    -0.10  -0.11  -0.14
    14   1    -0.15  -0.05  -0.15     0.10   0.44   0.27    -0.09  -0.05  -0.04
    15   1    -0.16  -0.06  -0.09    -0.22   0.47  -0.28    -0.20  -0.05  -0.02
    16   1     0.00   0.21   0.16     0.06  -0.07  -0.02     0.15   0.15   0.19
    17   1    -0.07   0.02   0.28     0.07  -0.03  -0.05    -0.10   0.01   0.28
    18   1    -0.03   0.05   0.19     0.08   0.00  -0.10     0.06  -0.05  -0.21
    19   1    -0.07  -0.17   0.08     0.02   0.05  -0.07    -0.20   0.00  -0.15
    20   1     0.18   0.20  -0.11     0.05  -0.04  -0.02     0.35  -0.16  -0.07
    21   1     0.06   0.02  -0.25     0.02   0.04  -0.05     0.10  -0.07  -0.34
    22   1    -0.10  -0.13  -0.24    -0.04   0.07   0.04    -0.03   0.26   0.14
    23   1     0.09   0.04  -0.32    -0.06  -0.00   0.08    -0.03  -0.05   0.30
                      4                      5                      6
                      A                      A                      A
 Frequencies --    208.8826               244.0076               303.0868
 Red. masses --      1.5542                 2.1392                 1.9609
 Frc consts  --      0.0400                 0.0750                 0.1061
 IR Inten    --      1.9670                 0.1791                 2.2724
  Atom  AN      X      Y      Z        X      Y      Z        X      Y      Z
     1   8    -0.08  -0.09   0.01    -0.04  -0.01   0.04    -0.05  -0.13  -0.03
     2   6    -0.03  -0.04  -0.01    -0.02   0.02  -0.03     0.02  -0.07  -0.04
     3   6     0.02  -0.05  -0.03     0.01   0.04  -0.10     0.01  -0.05  -0.02
     4   6     0.02   0.05  -0.03     0.03  -0.02  -0.07    -0.01   0.20   0.03
     5   6     0.08   0.08  -0.00     0.21  -0.02   0.01    -0.03   0.01   0.01
     6   6     0.00  -0.01   0.04    -0.08   0.09   0.05     0.02  -0.03   0.02
     7   6     0.00   0.00   0.00    -0.09  -0.04   0.03     0.03   0.02   0.01
     8   6     0.02   0.01  -0.03    -0.01  -0.04  -0.03     0.03   0.03   0.01
     9   6    -0.04   0.02   0.04    -0.02   0.01   0.05     0.01   0.02   0.01
    10   1     0.05  -0.08  -0.02     0.07  -0.01  -0.07    -0.03  -0.11  -0.03
    11   1    -0.08   0.09  -0.04     0.05  -0.08  -0.01    -0.20   0.39  -0.15
    12   1     0.09   0.10   0.00    -0.08  -0.07  -0.07     0.15   0.39   0.24
    13   1     0.07   0.60   0.08     0.20  -0.36   0.17    -0.02  -0.41  -0.03
    14   1    -0.30  -0.15  -0.19     0.55   0.14   0.09     0.30   0.13   0.05
    15   1     0.51  -0.16   0.13     0.05   0.15  -0.16    -0.37   0.13   0.01
    16   1     0.02   0.07   0.05    -0.06   0.27   0.06     0.03  -0.01   0.02
    17   1     0.00  -0.04   0.11    -0.17   0.05   0.20     0.05  -0.06   0.05
    18   1     0.03   0.01  -0.00    -0.14  -0.04   0.09     0.05   0.03   0.00
    19   1    -0.03  -0.02  -0.01    -0.10  -0.13   0.04     0.02   0.03   0.01
    20   1     0.10  -0.01  -0.01     0.08  -0.04  -0.01     0.04   0.03   0.01
    21   1     0.01   0.02  -0.11    -0.02  -0.07  -0.12     0.03   0.03  -0.01
    22   1    -0.02   0.12   0.05     0.01   0.11   0.06     0.05   0.06   0.03
    23   1    -0.09   0.00   0.12    -0.03  -0.04   0.14    -0.07   0.02   0.05
                      7                      8                      9
                      A                      A                      A
 Frequencies --    311.7965               351.0893               420.2760
 Red. masses --      1.8065                 3.2264                 2.7304
 Frc consts  --      0.1035                 0.2343                 0.2842
 IR Inten    --      0.1574                 1.8729                 1.4773
  Atom  AN      X      Y      Z        X      Y      Z        X      Y      Z
     1   8    -0.05   0.04  -0.03    -0.08   0.08  -0.02     0.03  -0.07   0.01
     2   6    -0.03   0.02   0.07    -0.04   0.06   0.12     0.11   0.03  -0.08
     3   6     0.01   0.03   0.01     0.09  -0.02   0.19     0.08  -0.02   0.02
     4   6     0.01   0.02   0.01     0.13   0.07  -0.04     0.09  -0.04   0.07
     5   6    -0.00   0.00   0.01     0.12   0.02  -0.07    -0.04  -0.02   0.03
     6   6    -0.00  -0.06  -0.11     0.01  -0.15   0.07    -0.09  -0.09  -0.01
     7   6     0.02  -0.08   0.14    -0.02  -0.06  -0.06    -0.13  -0.02   0.01
     8   6     0.08   0.01  -0.09    -0.16  -0.01  -0.04    -0.11   0.04  -0.09
     9   6    -0.04   0.01   0.02    -0.07   0.01  -0.09     0.09   0.20   0.00
    10   1     0.00   0.14   0.00     0.23   0.04   0.22     0.04  -0.10   0.01
    11   1     0.00   0.03  -0.01     0.11   0.14  -0.13     0.15  -0.10   0.12
    12   1     0.01   0.03   0.03     0.25   0.15   0.02     0.03  -0.11  -0.00
    13   1    -0.00  -0.02  -0.00     0.12  -0.08  -0.05    -0.03   0.02  -0.13
    14   1     0.01   0.01   0.01     0.22   0.05  -0.07    -0.16  -0.03   0.07
    15   1    -0.03   0.01   0.01     0.06   0.05  -0.07    -0.10  -0.03   0.07
    16   1    -0.17  -0.25  -0.16     0.07  -0.30   0.08    -0.18  -0.17  -0.03
    17   1     0.09   0.01  -0.33    -0.04  -0.07  -0.07    -0.09  -0.04  -0.13
    18   1    -0.11   0.02   0.42     0.13  -0.02  -0.13    -0.06   0.08   0.10
    19   1     0.20  -0.36   0.21    -0.11   0.01  -0.09    -0.14  -0.12   0.02
    20   1     0.34   0.09  -0.04    -0.31  -0.02  -0.07    -0.17   0.08  -0.10
    21   1     0.06   0.00  -0.34    -0.15   0.02   0.12    -0.09  -0.10   0.01
    22   1    -0.14   0.08  -0.01    -0.22  -0.16  -0.15     0.28   0.53   0.08
    23   1     0.00  -0.01   0.04     0.13   0.03  -0.24    -0.05   0.07   0.35
                     10                     11                     12
                      A                      A                      A
 Frequencies --    443.7574               498.8065               609.1243
 Red. masses --      2.9823                 2.4113                 3.1206
 Frc consts  --      0.3460                 0.3535                 0.6822
 IR Inten    --      2.0547                 3.5323                 3.3356
  Atom  AN      X      Y      Z        X      Y      Z        X      Y      Z
     1   8     0.17   0.04  -0.01     0.13   0.10   0.06    -0.13  -0.03   0.00
     2   6     0.01  -0.09   0.06    -0.05   0.01  -0.07     0.03   0.10  -0.01
     3   6    -0.10  -0.10   0.06    -0.04  -0.07  -0.03    -0.09   0.03   0.11
     4   6    -0.11  -0.02  -0.10    -0.08   0.01  -0.03    -0.21  -0.00  -0.10
     5   6     0.08  -0.00  -0.04    -0.01   0.01  -0.01     0.00   0.00  -0.02
     6   6    -0.09  -0.13   0.02     0.10  -0.05   0.03     0.02  -0.04   0.04
     7   6    -0.09   0.15   0.03     0.12  -0.10  -0.01     0.07  -0.06  -0.01
     8   6     0.06   0.11   0.01    -0.10   0.01  -0.07     0.07  -0.04   0.01
     9   6    -0.01   0.02   0.03    -0.10   0.03   0.02     0.22   0.09  -0.05
    10   1     0.01  -0.09   0.09    -0.05  -0.11  -0.03    -0.04  -0.01   0.12
    11   1    -0.15   0.01  -0.12    -0.20   0.10  -0.10    -0.11  -0.06  -0.07
    12   1    -0.04   0.03  -0.07     0.02   0.10   0.05    -0.23  -0.04  -0.16
    13   1     0.07  -0.05   0.20    -0.01  -0.02   0.09    -0.03  -0.01   0.38
    14   1     0.24   0.04  -0.07     0.07   0.02  -0.02     0.22   0.01  -0.13
    15   1     0.19   0.03  -0.14     0.03   0.02  -0.05     0.23  -0.01  -0.12
    16   1    -0.18  -0.37  -0.01     0.21   0.09   0.07     0.10  -0.19   0.06
    17   1     0.14  -0.12  -0.19     0.02  -0.10   0.20     0.04  -0.01  -0.04
    18   1     0.06   0.11  -0.16     0.09   0.03   0.23     0.03  -0.04   0.05
    19   1    -0.21   0.30  -0.02     0.22  -0.30   0.04     0.09  -0.13   0.00
    20   1     0.27   0.16   0.05    -0.27  -0.05  -0.10    -0.19  -0.03  -0.04
    21   1     0.04   0.01  -0.21    -0.09   0.15   0.14     0.10  -0.13   0.29
    22   1    -0.03   0.06   0.03     0.04   0.36   0.09     0.29   0.15  -0.02
    23   1    -0.16   0.07   0.01    -0.27  -0.07   0.32     0.28   0.02   0.05
                     13                     14                     15
                      A                      A                      A
 Frequencies --    658.1155               724.5882               778.0579
 Red. masses --      2.8151                 2.1898                 1.3802
 Frc consts  --      0.7184                 0.6774                 0.4923
 IR Inten    --      1.8490                 5.4077                 1.9724
  Atom  AN      X      Y      Z        X      Y      Z        X      Y      Z
     1   8     0.07  -0.11  -0.10     0.02  -0.06   0.01    -0.01   0.00   0.01
     2   6     0.07  -0.18   0.22    -0.03  -0.04  -0.15    -0.04  -0.01  -0.02
     3   6    -0.03   0.06   0.08    -0.04   0.12   0.16    -0.02  -0.01   0.07
     4   6    -0.03   0.01  -0.02     0.02   0.07   0.01     0.03  -0.10   0.01
     5   6     0.01   0.00  -0.01     0.03   0.01  -0.04     0.02  -0.03  -0.02
     6   6    -0.02   0.12  -0.06     0.02   0.08   0.04     0.01   0.09  -0.01
     7   6    -0.00   0.03  -0.04     0.03   0.01   0.02    -0.03   0.04   0.01
     8   6    -0.05   0.06  -0.07     0.00  -0.03  -0.00     0.02  -0.03  -0.01
     9   6     0.00   0.01  -0.00    -0.08  -0.09  -0.04     0.02  -0.03  -0.03
    10   1     0.00   0.30   0.08    -0.02  -0.03   0.16    -0.01   0.02   0.07
    11   1     0.10  -0.07   0.03     0.26  -0.13   0.18    -0.13   0.23  -0.38
    12   1    -0.08  -0.06  -0.11    -0.08  -0.13  -0.24     0.21   0.22   0.41
    13   1     0.00   0.00   0.09     0.03  -0.07   0.00     0.02   0.16  -0.05
    14   1     0.06  -0.01  -0.07     0.11  -0.07  -0.22    -0.12   0.14   0.33
    15   1     0.07  -0.02  -0.02     0.01  -0.08   0.10     0.12   0.17  -0.35
    16   1     0.12   0.25  -0.02    -0.04  -0.33   0.01    -0.04  -0.06  -0.03
    17   1    -0.10   0.07   0.12     0.07   0.24  -0.35     0.06   0.13  -0.14
    18   1    -0.20   0.14   0.31    -0.01  -0.06  -0.06    -0.13  -0.01   0.03
    19   1     0.19  -0.30   0.04    -0.04   0.07   0.00    -0.02  -0.01   0.01
    20   1    -0.38   0.02  -0.14     0.01   0.00  -0.00    -0.09  -0.00  -0.03
    21   1    -0.02   0.04   0.28    -0.01   0.08  -0.03     0.03  -0.06   0.10
    22   1    -0.20   0.13  -0.06     0.18   0.19   0.06     0.11   0.14   0.00
    23   1    -0.06   0.01   0.02    -0.32  -0.16   0.23    -0.07  -0.08   0.12
                     16                     17                     18
                      A                      A                      A
 Frequencies --    848.1202               856.4131               863.3978
 Red. masses --      1.6824                 2.1851                 2.4144
 Frc consts  --      0.7130                 0.9442                 1.0604
 IR Inten    --     12.2414                 2.6656                 0.3838
  Atom  AN      X      Y      Z        X      Y      Z        X      Y      Z
     1   8    -0.02   0.05  -0.00     0.01  -0.04  -0.03    -0.03   0.03   0.01
     2   6    -0.08  -0.04   0.08     0.07  -0.00   0.04    -0.02   0.03   0.03
     3   6    -0.02  -0.02  -0.09     0.13   0.12  -0.08     0.01  -0.08  -0.05
     4   6     0.04   0.02   0.01    -0.08  -0.01  -0.10    -0.00   0.02  -0.01
     5   6     0.02   0.01   0.01    -0.08  -0.03   0.10    -0.01   0.03   0.01
     6   6    -0.05  -0.01   0.03     0.05   0.01   0.07     0.11   0.04   0.03
     7   6     0.03  -0.02   0.05     0.04  -0.04   0.08    -0.07   0.20   0.04
     8   6     0.12  -0.00  -0.01    -0.08  -0.01  -0.05    -0.10  -0.08  -0.12
     9   6     0.03  -0.02  -0.08    -0.05  -0.03  -0.01     0.08  -0.12   0.03
    10   1     0.06   0.08  -0.07     0.30   0.14  -0.03     0.04  -0.14  -0.03
    11   1    -0.05  -0.03   0.13    -0.00   0.05  -0.22    -0.11  -0.04   0.14
    12   1    -0.02  -0.03  -0.04    -0.17   0.04   0.06     0.05  -0.03  -0.13
    13   1     0.03  -0.05  -0.18    -0.10   0.07   0.32    -0.00  -0.09  -0.01
    14   1    -0.05  -0.05  -0.05    -0.04   0.07   0.24     0.05  -0.06  -0.16
    15   1    -0.14  -0.04   0.17     0.10   0.06  -0.12    -0.09  -0.07   0.19
    16   1    -0.25  -0.01  -0.03    -0.22  -0.11  -0.01     0.02  -0.12  -0.00
    17   1     0.06  -0.02  -0.04     0.08   0.11  -0.17     0.47  -0.04  -0.08
    18   1     0.09  -0.14  -0.21     0.32  -0.08  -0.25    -0.08   0.31   0.23
    19   1    -0.21   0.12  -0.04    -0.25   0.25  -0.03    -0.03  -0.02   0.07
    20   1    -0.33   0.15  -0.11    -0.02   0.10  -0.04    -0.15  -0.08  -0.13
    21   1     0.17  -0.02   0.45    -0.09   0.08  -0.11    -0.08  -0.23  -0.06
    22   1    -0.06   0.39  -0.09    -0.13   0.07  -0.03     0.03  -0.00   0.02
    23   1    -0.13  -0.12   0.19     0.05  -0.11   0.09     0.30  -0.27   0.19
                     19                     20                     21
                      A                      A                      A
 Frequencies --    910.5692               942.7969               976.1625
 Red. masses --      1.4033                 2.2062                 2.3103
 Frc consts  --      0.6855                 1.1554                 1.2971
 IR Inten    --      2.1340                 2.0781                 1.1025
  Atom  AN      X      Y      Z        X      Y      Z        X      Y      Z
     1   8    -0.01   0.00  -0.01    -0.02  -0.02  -0.01     0.03  -0.03  -0.02
     2   6    -0.01  -0.01   0.04     0.04   0.03  -0.01     0.05  -0.01   0.04
     3   6    -0.03   0.01   0.03    -0.10   0.11  -0.04    -0.06  -0.01  -0.03
     4   6    -0.00   0.00   0.03    -0.01   0.01   0.08    -0.07  -0.02   0.12
     5   6     0.01   0.00  -0.03     0.08  -0.03  -0.08     0.07   0.01  -0.13
     6   6     0.05  -0.04  -0.07    -0.09  -0.10   0.06     0.12   0.09   0.03
     7   6    -0.01  -0.00   0.07     0.10   0.04   0.00    -0.01  -0.08   0.07
     8   6    -0.08  -0.02   0.03    -0.04   0.06  -0.08    -0.05  -0.07  -0.01
     9   6     0.04  -0.02  -0.08     0.04  -0.11   0.07    -0.03   0.14   0.02
    10   1    -0.13   0.28  -0.01    -0.24   0.07  -0.07    -0.32  -0.08  -0.09
    11   1     0.03  -0.00   0.02     0.09   0.01   0.03    -0.19  -0.01   0.17
    12   1     0.01  -0.00   0.01    -0.28  -0.02   0.23    -0.08  -0.01   0.14
    13   1     0.01   0.01  -0.02     0.10   0.12  -0.36     0.08  -0.01  -0.26
    14   1     0.03   0.00  -0.05    -0.16   0.04   0.16     0.02  -0.02  -0.16
    15   1     0.02  -0.00  -0.03    -0.01   0.09  -0.21    -0.00   0.01  -0.08
    16   1     0.18   0.30  -0.03    -0.13  -0.04   0.05    -0.11  -0.11  -0.03
    17   1    -0.09  -0.15   0.28    -0.11  -0.09   0.07     0.33   0.11  -0.17
    18   1     0.09  -0.09  -0.15     0.37   0.23   0.08     0.05  -0.23  -0.22
    19   1     0.11   0.37   0.07     0.02  -0.03  -0.01    -0.28   0.12  -0.02
    20   1     0.22   0.28   0.08    -0.09  -0.01  -0.09    -0.00  -0.05  -0.01
    21   1    -0.09  -0.18  -0.29    -0.04   0.24   0.00    -0.05  -0.12  -0.04
    22   1     0.19   0.26  -0.01     0.04  -0.14   0.07    -0.30  -0.03  -0.08
    23   1    -0.03  -0.16   0.22     0.22  -0.16   0.08     0.11   0.20  -0.17
                     22                     23                     24
                      A                      A                      A
 Frequencies --   1018.2930              1046.4989              1079.5416
 Red. masses --      1.7152                 1.3949                 1.6994
 Frc consts  --      1.0479                 0.9001                 1.1668
 IR Inten    --      7.4476                 6.5510                 4.3519
  Atom  AN      X      Y      Z        X      Y      Z        X      Y      Z
     1   8    -0.01   0.00   0.00    -0.00  -0.00   0.01     0.02   0.00  -0.00
     2   6     0.04   0.04   0.01     0.03   0.03  -0.04    -0.06  -0.05   0.00
     3   6     0.02  -0.11   0.04     0.00   0.02   0.00    -0.04  -0.01   0.01
     4   6     0.01  -0.05   0.03     0.05   0.02   0.06     0.05  -0.02  -0.02
     5   6    -0.03   0.03  -0.03    -0.08  -0.02  -0.04    -0.02   0.02   0.03
     6   6    -0.08   0.10  -0.05     0.01  -0.06  -0.02    -0.08   0.03   0.01
     7   6     0.06  -0.06   0.02    -0.03   0.04   0.04     0.13   0.05   0.04
     8   6    -0.03   0.08  -0.04     0.06  -0.03  -0.03    -0.05  -0.10  -0.03
     9   6     0.02  -0.06   0.04    -0.05  -0.01   0.03     0.02   0.09  -0.01
    10   1    -0.16  -0.22  -0.00    -0.38   0.06  -0.11    -0.08   0.14  -0.01
    11   1    -0.14   0.01   0.02     0.35   0.01  -0.09     0.02   0.02  -0.07
    12   1     0.35   0.03  -0.08     0.13  -0.02  -0.07     0.24   0.03  -0.08
    13   1    -0.05  -0.11   0.22    -0.10   0.04   0.44    -0.02  -0.06   0.10
    14   1     0.19  -0.02  -0.24     0.21   0.07  -0.05     0.05  -0.01  -0.06
    15   1     0.07  -0.07   0.07     0.27  -0.00  -0.23    -0.00  -0.04   0.10
    16   1    -0.18   0.08  -0.08    -0.06   0.15  -0.04    -0.32   0.10  -0.05
    17   1    -0.21   0.17  -0.11     0.13  -0.18   0.16    -0.16   0.10  -0.06
    18   1     0.07  -0.15  -0.15     0.02   0.04  -0.01     0.49   0.26   0.06
    19   1    -0.02   0.12  -0.02    -0.14   0.01   0.01     0.07   0.09   0.02
    20   1    -0.02   0.23  -0.04    -0.17  -0.04  -0.07     0.06  -0.39   0.00
    21   1    -0.05   0.38  -0.04     0.09  -0.07   0.21    -0.03  -0.31  -0.08
    22   1    -0.03  -0.01   0.02    -0.24   0.02  -0.04     0.14  -0.10   0.01
    23   1     0.30  -0.18   0.13    -0.03   0.01  -0.03    -0.07   0.17  -0.13
                     25                     26                     27
                      A                      A                      A
 Frequencies --   1087.1683              1114.7677              1137.7044
 Red. masses --      1.3220                 2.2003                 2.0741
 Frc consts  --      0.9206                 1.6110                 1.5818
 IR Inten    --      4.8211                 3.8067                 6.0834
  Atom  AN      X      Y      Z        X      Y      Z        X      Y      Z
     1   8    -0.00   0.01   0.00    -0.01   0.00   0.00    -0.00   0.04  -0.00
     2   6    -0.06  -0.04   0.00     0.05   0.04  -0.02    -0.11  -0.09   0.07
     3   6    -0.01   0.02  -0.00     0.19   0.01   0.02     0.05   0.01  -0.12
     4   6     0.01  -0.02   0.01    -0.13  -0.07   0.12     0.02   0.04   0.12
     5   6    -0.01   0.02  -0.00     0.01   0.04  -0.11    -0.06  -0.03  -0.08
     6   6     0.07  -0.01   0.01    -0.04  -0.04  -0.02     0.02   0.02   0.07
     7   6    -0.05  -0.06  -0.01    -0.01   0.07  -0.01    -0.01  -0.03  -0.06
     8   6    -0.01   0.09  -0.01     0.05  -0.03   0.02    -0.04   0.06   0.04
     9   6     0.05  -0.02   0.01    -0.06  -0.04  -0.04     0.08  -0.01  -0.02
    10   1    -0.06   0.44  -0.04     0.31   0.22   0.04     0.04  -0.31  -0.09
    11   1    -0.04   0.02  -0.02    -0.47   0.00   0.20     0.17  -0.00   0.11
    12   1     0.12   0.02  -0.01    -0.08   0.02   0.24    -0.10  -0.04   0.07
    13   1    -0.02  -0.05   0.07    -0.00  -0.09   0.02    -0.08   0.07   0.31
    14   1     0.06  -0.01  -0.10     0.14  -0.03  -0.30     0.19   0.07  -0.06
    15   1     0.01  -0.03   0.05     0.06  -0.05  -0.01     0.25   0.01  -0.28
    16   1    -0.17   0.09  -0.06    -0.13   0.16  -0.04     0.11  -0.25   0.08
    17   1     0.22  -0.07   0.03    -0.19  -0.00   0.04    -0.24   0.26  -0.23
    18   1     0.04  -0.01  -0.02     0.11   0.21   0.11     0.06   0.09   0.08
    19   1    -0.42  -0.26  -0.10    -0.01  -0.06   0.00     0.14  -0.07  -0.02
    20   1     0.03  -0.15   0.01    -0.03  -0.20   0.00     0.12   0.15   0.07
    21   1    -0.03   0.26  -0.03     0.06  -0.05   0.08    -0.03  -0.25  -0.11
    22   1     0.46  -0.21   0.14     0.06   0.04   0.01     0.15   0.02   0.00
    23   1    -0.08   0.05  -0.04    -0.29   0.00   0.00    -0.06   0.01   0.02
                     28                     29                     30
                      A                      A                      A
 Frequencies --   1149.1264              1179.8703              1240.3325
 Red. masses --      1.7441                 2.2223                 1.4799
 Frc consts  --      1.3570                 1.8228                 1.3414
 IR Inten    --     15.7701                10.3131                10.0769
  Atom  AN      X      Y      Z        X      Y      Z        X      Y      Z
     1   8    -0.02   0.01  -0.01     0.01   0.03   0.02     0.04  -0.02  -0.00
     2   6     0.07   0.03   0.09    -0.11  -0.05  -0.06    -0.09  -0.06  -0.05
     3   6     0.00  -0.08  -0.03     0.10  -0.12   0.09    -0.01   0.04  -0.02
     4   6     0.01   0.06   0.02    -0.07   0.14   0.01     0.03  -0.04   0.04
     5   6    -0.01  -0.04  -0.02     0.03  -0.08  -0.02    -0.03   0.03  -0.03
     6   6    -0.07   0.03   0.02     0.01   0.04  -0.10    -0.05  -0.03   0.03
     7   6     0.07   0.04  -0.03     0.01  -0.01   0.07     0.03   0.04   0.01
     8   6    -0.02  -0.07   0.06     0.00   0.02  -0.07    -0.00  -0.04  -0.04
     9   6    -0.05   0.02  -0.11     0.02   0.02   0.06    -0.01   0.07   0.02
    10   1    -0.02  -0.07  -0.03     0.26  -0.07   0.13     0.34   0.30   0.06
    11   1     0.17  -0.04   0.07     0.18  -0.09   0.20    -0.01   0.02  -0.01
    12   1    -0.15  -0.05  -0.05    -0.37  -0.08  -0.11    -0.04   0.01   0.18
    13   1    -0.01   0.08   0.06     0.03   0.17  -0.09    -0.04  -0.05   0.10
    14   1    -0.01   0.04   0.13    -0.12   0.05   0.28     0.12  -0.00  -0.15
    15   1     0.08   0.04  -0.18     0.04   0.10  -0.28     0.07  -0.04   0.03
    16   1    -0.24   0.00  -0.02    -0.15   0.31  -0.14     0.07  -0.09   0.07
    17   1     0.37  -0.15   0.04    -0.09   0.01   0.05     0.13  -0.11   0.07
    18   1    -0.23  -0.09   0.02     0.07  -0.08  -0.11    -0.37  -0.24  -0.08
    19   1     0.05  -0.11  -0.03    -0.15   0.12   0.01     0.26   0.17   0.07
    20   1     0.16  -0.33   0.10    -0.11  -0.06  -0.09    -0.03  -0.00  -0.04
    21   1    -0.08   0.45  -0.16     0.02  -0.04   0.08    -0.01   0.23   0.01
    22   1     0.28   0.11   0.01     0.12  -0.19   0.07    -0.02  -0.06   0.01
    23   1    -0.05  -0.10   0.13     0.18   0.04  -0.07     0.49  -0.07   0.02
                     31                     32                     33
                      A                      A                      A
 Frequencies --   1275.3602              1291.2739              1313.1856
 Red. masses --      1.3869                 1.2961                 1.1761
 Frc consts  --      1.3291                 1.2732                 1.1949
 IR Inten    --      1.3762                 0.9399                 1.8005
  Atom  AN      X      Y      Z        X      Y      Z        X      Y      Z
     1   8    -0.02   0.01  -0.01     0.02  -0.01  -0.01    -0.00  -0.01  -0.00
     2   6     0.04   0.00   0.06    -0.04  -0.04   0.02     0.02   0.01   0.00
     3   6    -0.04   0.04  -0.03     0.02   0.03  -0.00     0.01  -0.03  -0.03
     4   6     0.02  -0.02   0.01    -0.02  -0.01  -0.01    -0.00   0.04  -0.01
     5   6    -0.01   0.02  -0.00     0.01   0.01   0.01     0.00  -0.07   0.00
     6   6    -0.01  -0.00  -0.05     0.06  -0.04  -0.03     0.01  -0.01   0.05
     7   6    -0.02   0.00   0.10    -0.04   0.04   0.04    -0.02   0.01   0.01
     8   6     0.02  -0.01  -0.09     0.03  -0.02   0.04     0.02  -0.02  -0.03
     9   6    -0.01   0.00   0.00    -0.04   0.04  -0.06    -0.03   0.01   0.00
    10   1     0.13  -0.40   0.04    -0.18  -0.18  -0.04    -0.21   0.41  -0.12
    11   1     0.03   0.02  -0.06     0.05   0.01  -0.08    -0.33  -0.04   0.28
    12   1    -0.04   0.00   0.09    -0.00   0.00  -0.01     0.31  -0.01  -0.33
    13   1    -0.01  -0.02   0.02     0.01  -0.01  -0.05     0.00   0.11  -0.01
    14   1     0.06  -0.00  -0.07    -0.02  -0.01  -0.01    -0.05   0.03   0.20
    15   1     0.02  -0.02   0.04    -0.04   0.00   0.04     0.03   0.05  -0.18
    16   1     0.37  -0.08   0.05     0.18   0.02   0.00     0.18  -0.20   0.10
    17   1    -0.10  -0.02   0.05    -0.43   0.17  -0.07    -0.23   0.15  -0.09
    18   1    -0.03  -0.12  -0.11     0.10   0.13   0.06    -0.09  -0.03   0.01
    19   1     0.03   0.26   0.09    -0.27  -0.09  -0.01     0.15   0.14   0.06
    20   1    -0.14  -0.22  -0.12     0.07  -0.37   0.07    -0.07   0.01  -0.05
    21   1     0.02   0.18   0.08     0.01   0.30   0.03     0.02   0.09   0.04
    22   1     0.42  -0.24   0.13    -0.04   0.12  -0.06     0.14  -0.09   0.05
    23   1    -0.32   0.14  -0.10     0.45  -0.22   0.17    -0.01   0.01  -0.01
                     34                     35                     36
                      A                      A                      A
 Frequencies --   1329.5608              1359.5302              1374.6539
 Red. masses --      1.3527                 1.4118                 1.3464
 Frc consts  --      1.4089                 1.5374                 1.4991
 IR Inten    --      4.0075                 4.7469                 1.3913
  Atom  AN      X      Y      Z        X      Y      Z        X      Y      Z
     1   8     0.00  -0.02  -0.00    -0.01   0.01   0.01    -0.00   0.00   0.01
     2   6     0.02   0.02  -0.02    -0.03  -0.02  -0.02     0.01   0.02  -0.02
     3   6    -0.12   0.01  -0.01     0.03   0.03   0.01     0.01  -0.13  -0.02
     4   6     0.07   0.02   0.02    -0.01   0.00  -0.00    -0.00   0.01   0.00
     5   6    -0.04  -0.04  -0.01     0.01  -0.01  -0.00    -0.01   0.03   0.01
     6   6    -0.01   0.02  -0.06     0.02  -0.03   0.01    -0.04   0.07   0.00
     7   6    -0.01  -0.02   0.02     0.01   0.02   0.03    -0.04  -0.03   0.02
     8   6    -0.01   0.00   0.03    -0.05   0.03  -0.02     0.01  -0.03   0.00
     9   6     0.03  -0.01  -0.00     0.15  -0.05   0.02     0.03  -0.02   0.01
    10   1     0.57  -0.02   0.18    -0.11  -0.03  -0.03    -0.02   0.47  -0.06
    11   1    -0.29  -0.03   0.30    -0.06  -0.00   0.03     0.32   0.01  -0.18
    12   1     0.15  -0.00  -0.08     0.06   0.00  -0.05    -0.32  -0.03   0.19
    13   1    -0.04   0.08   0.06     0.01   0.00   0.01    -0.00  -0.03  -0.04
    14   1     0.10   0.05   0.07    -0.03   0.00   0.03     0.04  -0.02  -0.10
    15   1     0.12   0.01  -0.16    -0.02   0.00  -0.01     0.00  -0.01   0.06
    16   1     0.21  -0.01   0.00    -0.10   0.05  -0.01     0.37  -0.27   0.11
    17   1     0.10  -0.08   0.07    -0.10   0.02   0.00    -0.02   0.08  -0.05
    18   1     0.27   0.14   0.03    -0.28  -0.18  -0.05     0.26   0.17   0.08
    19   1    -0.23  -0.11  -0.04     0.08   0.15   0.04     0.00   0.11   0.02
    20   1     0.07  -0.12   0.06     0.07  -0.47   0.02     0.02  -0.04   0.01
    21   1    -0.02   0.09  -0.02    -0.08   0.28  -0.09    -0.01   0.24   0.02
    22   1    -0.24   0.16  -0.08    -0.43   0.26  -0.17    -0.14   0.11  -0.05
    23   1     0.03  -0.01  -0.01    -0.34   0.17  -0.14    -0.10   0.06  -0.07
                     37                     38                     39
                      A                      A                      A
 Frequencies --   1384.7162              1392.9053              1399.0758
 Red. masses --      1.4678                 1.5019                 1.4971
 Frc consts  --      1.6582                 1.7169                 1.7266
 IR Inten    --     14.3697                 3.5418                 1.7195
  Atom  AN      X      Y      Z        X      Y      Z        X      Y      Z
     1   8     0.00   0.01   0.00     0.00   0.00   0.00    -0.00   0.01   0.00
     2   6    -0.05  -0.04  -0.00    -0.01  -0.01  -0.01    -0.02  -0.02  -0.00
     3   6     0.04   0.06   0.00     0.06   0.02  -0.02     0.03   0.01  -0.00
     4   6    -0.08  -0.01   0.04    -0.10  -0.01   0.05    -0.01  -0.00   0.00
     5   6     0.03  -0.01   0.01     0.03  -0.01   0.03     0.00  -0.00   0.01
     6   6    -0.01   0.01  -0.00    -0.10   0.03  -0.02    -0.04  -0.02  -0.03
     7   6    -0.09  -0.04  -0.03     0.05  -0.01   0.03     0.10   0.09   0.02
     8   6     0.02  -0.09   0.01    -0.02   0.09   0.00    -0.04  -0.12   0.01
     9   6     0.04   0.02   0.01    -0.01  -0.02  -0.01     0.05   0.02   0.02
    10   1     0.02  -0.21   0.02     0.01   0.03  -0.04    -0.06  -0.02  -0.03
    11   1     0.12  -0.00  -0.08     0.24   0.01  -0.16    -0.00   0.00  -0.02
    12   1     0.36   0.04  -0.21     0.41   0.04  -0.25     0.05   0.00  -0.03
    13   1     0.03   0.01  -0.10     0.04   0.03  -0.20     0.01   0.02  -0.05
    14   1    -0.05  -0.05  -0.01    -0.01  -0.07  -0.07     0.02  -0.01  -0.02
    15   1    -0.03   0.06  -0.06    -0.02   0.09  -0.09     0.00   0.02  -0.02
    16   1    -0.06   0.08  -0.02     0.37  -0.20   0.10     0.27  -0.04   0.05
    17   1     0.28  -0.11   0.03     0.25  -0.16   0.09    -0.13   0.01  -0.01
    18   1     0.33   0.27   0.10    -0.03  -0.12  -0.06    -0.16  -0.07  -0.01
    19   1     0.28   0.14   0.06    -0.15  -0.06  -0.03    -0.52  -0.37  -0.12
    20   1    -0.01   0.26  -0.01     0.06  -0.30   0.03     0.02   0.53   0.00
    21   1    -0.01   0.47   0.02     0.02  -0.36   0.02    -0.06   0.19  -0.06
    22   1    -0.01   0.01  -0.01    -0.02   0.03  -0.01    -0.05  -0.08  -0.01
    23   1    -0.03   0.07  -0.05     0.09  -0.09   0.06    -0.20   0.13  -0.05
                     40                     41                     42
                      A                      A                      A
 Frequencies --   1410.1603              1440.4321              1495.8295
 Red. masses --      1.4533                 1.2749                 1.0887
 Frc consts  --      1.7027                 1.5585                 1.4353
 IR Inten    --      2.2233                 8.9107                 6.4616
  Atom  AN      X      Y      Z        X      Y      Z        X      Y      Z
     1   8    -0.01  -0.00  -0.00     0.00  -0.00  -0.00    -0.00   0.00   0.00
     2   6     0.06   0.03   0.00     0.01   0.01  -0.00     0.00   0.00  -0.01
     3   6    -0.10  -0.05  -0.05    -0.03  -0.01  -0.02    -0.00  -0.01   0.00
     4   6    -0.06   0.00   0.07    -0.04  -0.00   0.04    -0.00   0.00   0.00
     5   6     0.00   0.01   0.04     0.07   0.00  -0.12     0.00   0.00  -0.00
     6   6     0.09  -0.04   0.03     0.01  -0.00  -0.00     0.00   0.00   0.00
     7   6     0.00   0.03  -0.00     0.01   0.01   0.00    -0.02   0.01   0.01
     8   6     0.00  -0.01  -0.00    -0.00  -0.00   0.00    -0.00   0.01  -0.01
     9   6    -0.01  -0.01   0.01    -0.00  -0.00   0.00     0.04   0.06  -0.04
    10   1     0.43   0.14   0.09     0.18   0.06   0.03     0.03   0.04   0.01
    11   1     0.41   0.03  -0.23     0.19  -0.00  -0.08     0.02  -0.01   0.01
    12   1     0.24   0.00  -0.16     0.17   0.02  -0.07     0.01   0.01   0.01
    13   1     0.03  -0.03  -0.24     0.01   0.01   0.51    -0.00  -0.01   0.01
    14   1     0.06  -0.10  -0.18    -0.31   0.17   0.40    -0.01  -0.00   0.00
    15   1     0.09   0.10  -0.14    -0.35  -0.19   0.39    -0.00  -0.00   0.00
    16   1    -0.28   0.10  -0.07     0.03  -0.04   0.00     0.00   0.01   0.00
    17   1    -0.36   0.18  -0.08    -0.06   0.02   0.01     0.00   0.01  -0.02
    18   1    -0.16  -0.06  -0.02    -0.01  -0.01  -0.01     0.06  -0.03  -0.11
    19   1     0.02  -0.02   0.00    -0.04  -0.03  -0.01     0.10  -0.09   0.04
    20   1    -0.05   0.04  -0.02    -0.01   0.01  -0.00     0.07  -0.04   0.01
    21   1    -0.00   0.01  -0.03    -0.00  -0.00  -0.01     0.01   0.02   0.07
    22   1     0.01   0.00   0.01    -0.00   0.02   0.00    -0.27  -0.60  -0.15
    23   1    -0.06   0.03  -0.03    -0.00   0.01  -0.02    -0.26  -0.20   0.61
                     43                     44                     45
                      A                      A                      A
 Frequencies --   1511.1076              1519.3541              1520.2617
 Red. masses --      1.0770                 1.0883                 1.0874
 Frc consts  --      1.4489                 1.4801                 1.4808
 IR Inten    --      3.6867                 4.5449                 5.6438
  Atom  AN      X      Y      Z        X      Y      Z        X      Y      Z
     1   8    -0.00   0.00   0.00    -0.00  -0.00  -0.00     0.00  -0.00  -0.00
     2   6     0.01  -0.00  -0.00     0.01   0.01   0.00    -0.01  -0.00  -0.00
     3   6    -0.00   0.00  -0.01    -0.01  -0.00  -0.00     0.01   0.01   0.00
     4   6    -0.03   0.00  -0.07    -0.00  -0.00  -0.00     0.00   0.00   0.01
     5   6     0.00   0.00   0.01     0.00  -0.00  -0.00    -0.00   0.00  -0.00
     6   6     0.01   0.00  -0.00    -0.01  -0.03   0.02     0.03   0.04  -0.03
     7   6     0.00  -0.00  -0.00     0.03  -0.03  -0.02     0.03  -0.04  -0.03
     8   6     0.00  -0.00   0.00    -0.04  -0.00  -0.05     0.01  -0.00   0.01
     9   6    -0.00  -0.00   0.00    -0.01   0.00  -0.00     0.01   0.01  -0.01
    10   1    -0.01   0.00  -0.01     0.02   0.00   0.01     0.01  -0.03   0.00
    11   1     0.28  -0.43   0.45     0.03  -0.03   0.03    -0.05   0.06  -0.05
    12   1     0.25   0.42   0.46     0.03   0.03   0.03    -0.02  -0.05  -0.07
    13   1    -0.01  -0.05   0.08    -0.00   0.04   0.02     0.00  -0.06  -0.03
    14   1    -0.11  -0.09  -0.08     0.02  -0.00  -0.01    -0.02   0.02   0.04
    15   1    -0.04   0.09  -0.10    -0.04   0.01   0.00     0.07  -0.03   0.01
    16   1    -0.02  -0.08  -0.01     0.09   0.28   0.04    -0.21  -0.40  -0.08
    17   1    -0.05  -0.01   0.07     0.09   0.07  -0.27    -0.13  -0.13   0.42
    18   1    -0.02   0.01   0.03    -0.17   0.10   0.34    -0.18   0.14   0.44
    19   1    -0.03   0.03  -0.01    -0.18   0.34  -0.10    -0.26   0.40  -0.13
    20   1    -0.05  -0.00  -0.01     0.49   0.04   0.08    -0.12   0.02  -0.02
    21   1    -0.00  -0.00  -0.05     0.03  -0.01   0.49     0.00  -0.01  -0.11
    22   1     0.01   0.00   0.00     0.01  -0.03  -0.00    -0.04  -0.11  -0.02
    23   1     0.00   0.00  -0.00    -0.01  -0.01   0.02    -0.03  -0.03   0.11
                     46                     47                     48
                      A                      A                      A
 Frequencies --   1533.0314              1535.2500              1542.7651
 Red. masses --      1.0595                 1.0779                 1.0539
 Frc consts  --      1.4671                 1.4968                 1.4779
 IR Inten    --      3.2307                 2.2779                 4.7554
  Atom  AN      X      Y      Z        X      Y      Z        X      Y      Z
     1   8     0.00  -0.00   0.00     0.00  -0.00  -0.00    -0.00   0.00   0.00
     2   6     0.00   0.00  -0.00    -0.00   0.00   0.00     0.00  -0.00  -0.00
     3   6    -0.00  -0.00   0.00     0.01   0.00   0.00     0.00  -0.00  -0.00
     4   6    -0.01  -0.01  -0.01    -0.02  -0.01  -0.01    -0.03   0.01  -0.01
     5   6    -0.01  -0.04  -0.00    -0.02  -0.02  -0.01    -0.04   0.03  -0.02
     6   6    -0.01  -0.02   0.01     0.03   0.03  -0.01    -0.01  -0.01   0.01
     7   6     0.01  -0.02  -0.01    -0.02   0.02   0.00     0.00  -0.01  -0.00
     8   6     0.03   0.00   0.03    -0.03  -0.01  -0.03     0.01   0.00   0.01
     9   6     0.00   0.01  -0.00    -0.01  -0.01   0.00     0.00   0.00  -0.00
    10   1    -0.00   0.01  -0.00    -0.02  -0.01  -0.01    -0.01   0.00  -0.00
    11   1     0.06  -0.05  -0.00     0.06  -0.06   0.03     0.08  -0.07   0.06
    12   1     0.03   0.05   0.07     0.05   0.06   0.05     0.08   0.07   0.02
    13   1     0.00   0.55  -0.11    -0.00   0.28  -0.20    -0.00  -0.33  -0.32
    14   1     0.48   0.14   0.00     0.37   0.19   0.12     0.06   0.27   0.37
    15   1    -0.26  -0.06   0.18     0.00  -0.16   0.20     0.54  -0.35   0.23
    16   1     0.05   0.19   0.03    -0.18  -0.31  -0.07     0.07   0.15   0.03
    17   1     0.07   0.05  -0.18    -0.13  -0.07   0.31     0.06   0.04  -0.15
    18   1    -0.06   0.04   0.14     0.07  -0.05  -0.18    -0.02   0.01   0.04
    19   1    -0.07   0.14  -0.04     0.12  -0.17   0.05    -0.02   0.04  -0.01
    20   1    -0.29  -0.03  -0.05     0.36   0.04   0.06    -0.09  -0.01  -0.01
    21   1    -0.01  -0.01  -0.29     0.01   0.02   0.35    -0.00  -0.01  -0.09
    22   1    -0.03  -0.05  -0.01     0.03   0.05   0.01    -0.00  -0.01  -0.00
    23   1    -0.02  -0.02   0.05     0.01   0.02  -0.06    -0.00  -0.00   0.01
                     49                     50                     51
                      A                      A                      A
 Frequencies --   1805.6480              2975.0840              3020.6024
 Red. masses --     11.3255                 1.0805                 1.0697
 Frc consts  --     21.7557                 5.6346                 5.7507
 IR Inten    --    155.1825                15.5173                 9.1334
  Atom  AN      X      Y      Z        X      Y      Z        X      Y      Z
     1   8     0.29  -0.39  -0.14    -0.00   0.00  -0.00     0.00   0.00  -0.00
     2   6    -0.44   0.59   0.21     0.00  -0.00  -0.00    -0.00  -0.00  -0.00
     3   6     0.03  -0.03  -0.02     0.02  -0.00  -0.08     0.00  -0.00  -0.01
     4   6    -0.01   0.01   0.00     0.00   0.00   0.01     0.00   0.00   0.00
     5   6     0.00  -0.00   0.01    -0.00   0.00  -0.00    -0.00  -0.00  -0.00
     6   6     0.00  -0.02  -0.00    -0.00   0.00   0.01    -0.00   0.00  -0.00
     7   6    -0.00   0.00  -0.00    -0.00   0.00   0.00    -0.00   0.00   0.00
     8   6     0.01  -0.01  -0.00     0.00   0.00  -0.00    -0.00  -0.00   0.02
     9   6     0.04  -0.03  -0.01    -0.00  -0.00   0.01     0.03   0.02  -0.06
    10   1    -0.06  -0.15  -0.01    -0.26   0.06   0.95    -0.02   0.01   0.08
    11   1     0.12  -0.04   0.02    -0.02  -0.07  -0.05    -0.01  -0.03  -0.02
    12   1     0.03   0.06   0.02    -0.01   0.04  -0.02    -0.00   0.01  -0.01
    13   1     0.00  -0.04  -0.03    -0.00   0.00  -0.00     0.00   0.00   0.00
    14   1    -0.03  -0.02  -0.02     0.00  -0.01   0.01     0.00  -0.00   0.00
    15   1     0.05   0.03  -0.05     0.00   0.01   0.01     0.00   0.00   0.00
    16   1    -0.02   0.05  -0.00     0.02   0.00  -0.08     0.00  -0.00   0.00
    17   1    -0.02  -0.01  -0.03    -0.01  -0.02  -0.01     0.00   0.00   0.00
    18   1    -0.01   0.00   0.01     0.00  -0.01   0.01     0.02  -0.04   0.03
    19   1     0.00   0.00  -0.00     0.00  -0.00  -0.03     0.02  -0.00  -0.08
    20   1    -0.04   0.04  -0.01    -0.00  -0.00   0.01     0.04  -0.01  -0.21
    21   1     0.02   0.03  -0.02    -0.00  -0.00   0.00     0.01   0.00   0.00
    22   1     0.10  -0.04   0.02     0.03   0.00  -0.09    -0.29  -0.03   0.89
    23   1    -0.27   0.07   0.02     0.00   0.01   0.01    -0.05  -0.19  -0.12
                     52                     53                     54
                      A                      A                      A
 Frequencies --   3024.2402              3037.4014              3038.7856
 Red. masses --      1.0684                 1.0618                 1.0636
 Frc consts  --      5.7575                 5.7714                 5.7865
 IR Inten    --     21.9852                23.1997                33.6018
  Atom  AN      X      Y      Z        X      Y      Z        X      Y      Z
     1   8     0.00  -0.00  -0.00    -0.00   0.00   0.00    -0.00   0.00   0.00
     2   6    -0.00  -0.00   0.00     0.00   0.00  -0.00     0.00  -0.00  -0.00
     3   6     0.00   0.00  -0.00    -0.00   0.00   0.00     0.00  -0.00  -0.01
     4   6     0.00  -0.00   0.00     0.00   0.00   0.01    -0.02  -0.02  -0.04
     5   6     0.00   0.00  -0.00    -0.00   0.00  -0.00     0.00  -0.00   0.01
     6   6    -0.00   0.01   0.01    -0.01  -0.01   0.01     0.02   0.03  -0.02
     7   6     0.03  -0.03  -0.06     0.01  -0.01  -0.00     0.01  -0.01   0.01
     8   6    -0.01   0.00   0.02    -0.02  -0.00  -0.06    -0.01  -0.00  -0.02
     9   6     0.00   0.00  -0.00     0.01   0.01  -0.01     0.00   0.00  -0.00
    10   1    -0.00  -0.00   0.02     0.00  -0.00  -0.01    -0.03   0.01   0.09
    11   1    -0.00  -0.00  -0.00    -0.03  -0.10  -0.06     0.17   0.48   0.31
    12   1    -0.00   0.01  -0.00    -0.02   0.05  -0.02     0.08  -0.21   0.11
    13   1    -0.00   0.00  -0.00    -0.01   0.00  -0.00    -0.02  -0.00  -0.00
    14   1     0.00  -0.01   0.00     0.01  -0.03   0.02    -0.01   0.05  -0.02
    15   1     0.00   0.00   0.00     0.01   0.02   0.01    -0.01  -0.05  -0.03
    16   1     0.03   0.00  -0.11     0.07  -0.00  -0.26    -0.11   0.00   0.43
    17   1    -0.03  -0.08  -0.04     0.06   0.16   0.08    -0.16  -0.41  -0.21
    18   1    -0.13   0.25  -0.17    -0.07   0.13  -0.09    -0.08   0.14  -0.09
    19   1    -0.24   0.05   0.86    -0.03   0.01   0.11     0.00  -0.00   0.00
    20   1     0.05  -0.01  -0.24    -0.17   0.02   0.74    -0.05   0.01   0.23
    21   1     0.02  -0.00   0.00     0.46   0.03  -0.06     0.16   0.01  -0.02
    22   1    -0.01  -0.00   0.04    -0.05  -0.01   0.15    -0.02  -0.00   0.06
    23   1     0.00   0.00   0.00    -0.03  -0.09  -0.05    -0.01  -0.04  -0.02
                     55                     56                     57
                      A                      A                      A
 Frequencies --   3040.4902              3055.0665              3074.7038
 Red. masses --      1.0636                 1.0389                 1.0962
 Frc consts  --      5.7933                 5.7128                 6.1060
 IR Inten    --     29.5732                30.1988                42.5717
  Atom  AN      X      Y      Z        X      Y      Z        X      Y      Z
     1   8     0.00  -0.00  -0.00     0.00  -0.00  -0.00     0.00  -0.00  -0.00
     2   6     0.00   0.00   0.00     0.00   0.00   0.00    -0.00   0.00   0.00
     3   6     0.00  -0.00  -0.00     0.00  -0.00  -0.00     0.00  -0.00  -0.00
     4   6    -0.02  -0.03  -0.04    -0.00   0.00  -0.01    -0.00   0.00  -0.00
     5   6     0.01   0.01  -0.01    -0.02  -0.02   0.04     0.01  -0.00  -0.00
     6   6    -0.02  -0.03   0.03    -0.01  -0.01  -0.00    -0.01  -0.04  -0.04
     7   6    -0.00   0.01  -0.01    -0.00   0.00  -0.00     0.02  -0.05   0.04
     8   6     0.00   0.00   0.01    -0.00   0.00   0.00     0.00   0.00   0.01
     9   6    -0.00  -0.00  -0.00     0.00  -0.00  -0.00    -0.00  -0.00  -0.00
    10   1    -0.01   0.00   0.04    -0.01   0.00   0.02    -0.01   0.00   0.04
    11   1     0.19   0.54   0.35     0.02   0.07   0.05     0.01   0.01   0.01
    12   1     0.09  -0.22   0.11     0.03  -0.08   0.04     0.02  -0.05   0.03
    13   1    -0.14   0.00  -0.02     0.58  -0.01   0.05    -0.07  -0.00  -0.01
    14   1     0.05  -0.13   0.07    -0.18   0.54  -0.31     0.00   0.00  -0.00
    15   1     0.01   0.02   0.01    -0.12  -0.34  -0.23     0.01   0.02   0.01
    16   1     0.12  -0.00  -0.47     0.02  -0.00  -0.06    -0.08  -0.01   0.29
    17   1     0.12   0.34   0.17     0.06   0.15   0.07     0.18   0.46   0.22
    18   1     0.06  -0.12   0.08     0.02  -0.03   0.02    -0.31   0.57  -0.35
    19   1    -0.01   0.00   0.01    -0.01   0.00   0.03     0.06  -0.02  -0.18
    20   1     0.02  -0.00  -0.08     0.00  -0.00  -0.00     0.02  -0.00  -0.11
    21   1    -0.05  -0.00   0.01     0.01   0.00  -0.00    -0.07  -0.01   0.01
    22   1     0.00   0.00  -0.00    -0.00  -0.00   0.00    -0.00   0.00   0.00
    23   1     0.00   0.01   0.01     0.00   0.00   0.00     0.01   0.02   0.01
                     58                     59                     60
                      A                      A                      A
 Frequencies --   3079.5069              3084.9160              3087.8900
 Red. masses --      1.0994                 1.1030                 1.0979
 Frc consts  --      6.1430                 6.1848                 6.1679
 IR Inten    --     33.8965                66.6276                10.4239
  Atom  AN      X      Y      Z        X      Y      Z        X      Y      Z
     1   8    -0.00   0.00   0.00    -0.00   0.00  -0.00    -0.00   0.00  -0.00
     2   6     0.00  -0.00   0.00     0.00  -0.00   0.00     0.00  -0.00  -0.00
     3   6     0.00  -0.00  -0.00    -0.00   0.00   0.00     0.00  -0.00  -0.00
     4   6    -0.00   0.01  -0.00     0.01  -0.02   0.01     0.02  -0.08   0.02
     5   6     0.01  -0.00  -0.00    -0.01   0.01  -0.00    -0.02   0.02  -0.00
     6   6    -0.00  -0.02  -0.05     0.00   0.02   0.04    -0.00  -0.01  -0.02
     7   6    -0.01   0.02  -0.03     0.00  -0.02   0.04    -0.00   0.01  -0.01
     8   6    -0.06  -0.00   0.02    -0.05  -0.00   0.04     0.01   0.00  -0.01
     9   6    -0.00  -0.00   0.00    -0.00  -0.01   0.00     0.00   0.00   0.00
    10   1    -0.01   0.00   0.04     0.01  -0.00  -0.05    -0.00   0.00   0.01
    11   1    -0.01  -0.02  -0.01     0.02   0.06   0.04     0.10   0.26   0.18
    12   1     0.03  -0.07   0.04    -0.09   0.20  -0.11    -0.30   0.67  -0.39
    13   1    -0.10  -0.00  -0.01     0.14   0.00   0.01     0.18   0.01   0.02
    14   1    -0.00   0.01  -0.00     0.02  -0.06   0.03     0.05  -0.16   0.09
    15   1     0.02   0.04   0.03    -0.02  -0.05  -0.03    -0.04  -0.09  -0.06
    16   1    -0.11  -0.01   0.41     0.10   0.01  -0.36    -0.06  -0.00   0.20
    17   1     0.11   0.29   0.13    -0.10  -0.25  -0.11     0.05   0.14   0.06
[...]
 075187,0.00026021,-0.00035600,-0.00407628,-0.00151687,-0.00330352,-0.0
 2578199,-0.05570417,-0.02670957,0.00049415,0.00005696,-0.00075875,-0.0
 0004262,-0.00016457,0.00030985,-0.00004443,-0.00006767,-0.00009998,0.0
 0010619,-0.00003649,0.00002816,0.00011744,0.00004497,0.00017532,0.0004
 6702,0.00027323,0.00039989,0.00053963,0.00065142,-0.00099673,0.0188230
 5,0.00518332,0.02127502,0.02624737,0.05463594,0.00026308,-0.00021008,0
 .00012135,-0.00025997,0.00019522,0.00004578,-0.00106117,0.00090808,0.0
 0064874,-0.02058295,-0.00385614,-0.02186178,-0.12646022,-0.02694053,-0
 .18757880,-0.00011967,0.00013526,-0.00049680,0.00021217,-0.00008332,0.
 00062703,-0.00015470,0.00001033,-0.00006751,-0.00002357,-0.00010529,-0
 .00007441,0.00006771,0.00005084,0.00013460,0.00001110,0.00058685,0.001
 13462,0.00394000,-0.00102420,-0.00478023,-0.00148550,0.00031929,-0.001
 73204,0.13935949,0.03018520,0.20562339,0.00091053,-0.00079892,-0.00120
 442,-0.00162057,0.00050611,0.00041399,0.00035790,-0.00089422,-0.000435
 00,-0.00977037,-0.01122551,0.00426358,-0.14686253,-0.12218153,0.038060
 36,-0.00026678,0.00016479,0.00021500,0.00004051,0.00001874,-0.00007539
 ,-0.00009761,-0.00006283,0.00003650,0.00016357,0.00008767,0.00020970,0
 .00015150,0.00014289,-0.00008386,-0.00024330,0.00090667,0.00304515,0.0
 0064293,0.00044480,-0.00029471,0.01345364,0.01524380,-0.00524754,-0.01
 292956,-0.01676037,0.00605906,0.15588406,-0.00003781,-0.00166447,-0.00
 104221,0.00043201,-0.00039441,-0.00057823,0.00009737,0.00062418,0.0006
 5068,0.00453098,0.00630380,-0.00117829,-0.12294810,-0.20743393,0.05208
 970,0.00001953,0.00008920,0.00018961,-0.00000446,-0.00001978,-0.000006
 34,0.00002701,0.00002662,0.00007591,0.00000876,0.00000580,-0.00005629,
 -0.00024319,0.00002715,0.00008583,0.00119294,0.00102135,-0.00182463,-0
 .00020033,0.00007770,0.00052367,-0.01672658,-0.01989980,0.00589048,-0.
 00047841,-0.00213542,0.00000731,0.13442585,0.22328508,-0.00222151,0.00
 018463,0.00070339,0.00348336,-0.00017686,-0.00017797,-0.00108531,-0.00
 001305,0.00162627,0.01853742,0.02439291,-0.00785372,0.03679725,0.04969
 832,-0.06496978,0.00008295,-0.00022103,0.00015171,0.00006378,0.0000599
 5,0.00002453,0.00001629,0.00019328,0.00016471,-0.00053177,-0.00019224,
 -0.00034647,-0.00036402,-0.00006506,0.00006226,0.00303997,-0.00155395,
 -0.00552298,-0.00060625,0.00044406,0.00092682,0.00139206,0.00220491,-0
 .00150350,-0.01388482,-0.02016621,0.00728698,-0.04459835,-0.05467537,0
 .06970077,-0.00027233,0.00015385,0.00026698,0.00209014,0.00082937,-0.0
 0049525,0.00975497,-0.00122075,-0.02348905,0.00100552,-0.00013743,0.00
 052366,-0.00041580,0.00091975,0.00039016,-0.09133173,-0.00034496,0.094
 62094,-0.00961636,0.00159416,0.01845014,0.00042569,-0.00121575,-0.0003
 8835,-0.00003671,-0.00003265,-0.00022677,-0.00338502,0.00010888,-0.004
 40925,-0.00007427,0.00008975,-0.00001823,0.00014799,-0.00020312,0.0002
 1465,-0.00001860,-0.00008529,-0.00005767,-0.00108274,0.00089849,-0.000
 06064,-0.00020133,-0.00002365,0.00008565,0.10159263,0.00030015,0.00006
 594,0.00010584,0.00010076,-0.00010650,-0.00073067,-0.00041551,-0.00006
 107,0.00020444,-0.00042091,0.00004535,0.00067268,0.00078499,-0.0000185
 7,0.00045890,-0.00030651,-0.05137108,-0.00553737,0.01269170,-0.0024308
 5,-0.02660339,0.00052463,0.00174465,-0.00131242,-0.00020853,-0.0001485
 0,0.00018817,0.00053046,0.00070429,-0.00002125,0.00007236,0.00003152,0
 .00002360,0.00006664,0.00003225,-0.00023595,-0.00021059,-0.00007163,-0
 .00013775,0.00085737,-0.00089339,-0.00035457,-0.00013309,0.00002921,-0
 .00005029,-0.00558162,0.05463500,-0.00142244,-0.00038981,0.00030910,0.
 00225464,0.00187953,-0.00041150,0.00672540,-0.00104390,-0.02134772,0.0
 0087508,-0.00079822,-0.00016314,0.00003974,-0.00071745,-0.00046461,0.0
 9445502,-0.00500834,-0.26099572,0.00158227,-0.00021338,-0.00239112,-0.
 00031140,0.00051532,0.00000853,-0.00008534,-0.00040040,-0.00031637,-0.
 00385349,-0.00036269,-0.00248150,-0.00007501,0.00000663,0.00004895,-0.
 00014999,0.00005029,0.00023845,0.00025707,-0.00004731,0.00061426,0.000
 67343,0.00027640,0.00098959,-0.00020540,-0.00004110,-0.00004599,-0.102
 38756,0.00709139,0.28593226,-0.00211541,-0.00171101,0.00085268,-0.0005
 7569,0.00477615,-0.00411376,-0.01627375,-0.02057499,-0.00062161,0.0005
 6514,-0.00142986,0.00073869,-0.00026135,0.00024716,-0.00004199,-0.1345
 6900,-0.12131253,0.01707541,0.01258180,0.01705024,-0.00224605,-0.00235
 385,0.00270171,0.00046509,-0.00003166,-0.00001900,0.00063689,0.0014771
 3,0.00064075,0.00042265,-0.00000468,0.00096897,-0.00034305,0.00039619,
 0.00009423,-0.00005347,0.00001636,0.00009472,0.00005563,-0.00016624,-0
 .00005875,0.00028775,0.00028541,-0.00000134,-0.00009980,-0.00799337,-0
 .01088876,0.00158426,0.14663499,-0.00018294,0.00041236,-0.00018332,0.0
 0117831,0.00033840,0.00017732,0.00069889,0.00124575,-0.00015983,0.0005
 2531,0.00069177,0.00001128,-0.00014676,0.00015302,-0.00001207,-0.12030
 431,-0.21671480,0.02036032,-0.01671352,-0.02199627,0.00324780,0.005639
 41,-0.00362667,-0.00094402,0.00027312,0.00070243,0.00024265,0.00000215
 ,0.00008385,-0.00043226,-0.00033861,0.00039811,-0.00002736,-0.00004521
 ,0.00014352,-0.00008603,-0.00003579,0.00000121,-0.00000592,-0.00008943
 ,-0.00002519,0.00005453,0.00005724,-0.00000626,0.00002905,0.00079419,0
 .00118910,0.00051827,0.12998111,0.23639090,-0.00227018,-0.00183884,0.0
 0091919,-0.00182481,0.00372367,-0.00363823,-0.01638591,-0.02080955,-0.
 00040319,0.00077447,-0.00059488,0.00089654,0.00012094,0.00013674,0.000
 14480,0.01700409,0.02093256,-0.05255379,-0.00177945,-0.00358582,-0.000
 58796,0.00031886,-0.00037458,0.00029831,0.00029978,0.00013356,0.000294
 71,0.00083817,-0.00041261,0.00137048,0.00011377,0.00050532,0.00001009,
 0.00031810,-0.00018168,-0.00011258,-0.00003779,-0.00005066,0.00005614,
 -0.00001577,0.00008415,-0.00012751,-0.00009630,-0.00007824,-0.00015687
 ,0.01762846,0.02542326,-0.00256502,-0.01436393,-0.02281191,0.05490117,
 -0.00045105,0.00008228,0.00003629,0.00116315,-0.00005692,0.00031364,-0
 .00075408,0.00334726,0.00185105,-0.00055985,-0.00054685,-0.00100280,0.
 00001417,-0.00002484,-0.00013682,-0.01317928,0.00041262,-0.01293021,-0
 .17629616,0.00183131,-0.12790258,-0.01355977,0.00013694,-0.01348011,-0
 .00120121,-0.00364076,0.00164582,0.00021923,0.00000052,-0.00014776,0.0
 0003112,0.00005815,0.00001470,-0.00026183,0.00036393,0.00003017,-0.000
 01327,0.00003037,0.00005056,0.00004636,0.00000668,0.00006396,0.0000017
 6,-0.00002101,-0.00000722,0.00020774,-0.00060279,0.00029775,0.00080759
 ,0.00005887,0.00017157,0.19118614,0.00000528,0.00092650,0.00000546,-0.
 00000957,-0.00229822,0.00005508,0.00274851,-0.00473885,-0.00213930,0.0
 0130295,0.00077744,0.00130239,-0.00004951,-0.00002059,0.00017230,0.020
 50002,-0.00044615,0.02168498,0.00188193,-0.04775360,0.00193835,-0.0200
 2316,0.00046007,-0.02149367,-0.00322986,-0.00465439,0.00186887,-0.0004
 3984,-0.00000290,-0.00027086,-0.00008590,0.00003467,0.00000352,0.00041
 843,-0.00059601,0.00002743,0.00003142,-0.00002399,-0.00007249,-0.00002
 755,0.00000982,-0.00006866,0.00002181,0.00000588,-0.00004784,-0.000635
 87,0.00112842,-0.00033181,-0.00081513,0.00083873,0.00034530,-0.0019573
 8,0.05461531,-0.00003659,-0.00000634,-0.00010578,0.00019773,-0.0000147
 5,0.00004992,0.00057073,-0.00000369,0.00075053,0.00002012,-0.00031065,
 0.00027767,-0.00007256,0.00012479,-0.00003082,0.00386055,-0.00015179,0
 .00257519,-0.12885761,0.00185778,-0.18201120,0.00365165,0.00009020,0.0
 0233984,0.00053736,-0.00006268,0.00099277,0.00011652,-0.00010137,0.000
 50432,0.00001524,0.00001347,-0.00000401,0.00000971,-0.00000541,0.00000
 321,-0.00003473,0.00002059,0.00003022,0.00000439,-0.00002289,-0.000015
 16,0.00000842,-0.00000838,0.00000180,-0.00010128,0.00043522,0.00078279
 ,-0.00012901,0.00052249,-0.00000364,0.14094157,-0.00199992,0.19350511,
 0.00020332,-0.00000620,0.00007255,-0.00045125,-0.00003494,-0.00003206,
 0.00065119,-0.00065009,0.00145156,0.00015523,0.00015032,-0.00018784,0.
 00005904,0.00003709,0.00012676,-0.00939285,0.00074353,0.01667298,-0.10
 507228,0.00011553,0.10014596,-0.00967749,-0.00068292,0.01747890,0.0006
 5684,0.00077813,0.00112331,-0.00018062,0.00022118,-0.00083609,-0.00000
 325,-0.00000833,0.00001491,-0.00000866,-0.00000548,-0.00003740,-0.0000
 4028,-0.00000696,-0.00010907,-0.00004081,-0.00009140,-0.00015196,0.000
 02124,0.00000211,-0.00000077,-0.00133710,0.00321943,0.00021473,0.00076
 186,-0.00016224,-0.00056234,0.01210484,-0.00004138,-0.02055263,0.11225
 446,-0.00004472,0.00022020,0.00000031,0.00003049,-0.00055610,-0.000010
 41,-0.00109689,0.00109417,-0.00096770,-0.00020595,-0.00010833,-0.00003
 384,-0.00006747,-0.00018656,-0.00016220,0.01453885,-0.00134937,-0.0268
 9708,0.00010675,-0.04826461,-0.00039356,-0.01428681,-0.00133009,0.0268
 7810,0.00106921,0.00107351,0.00053405,-0.00000565,0.00008981,0.0007962
 1,-0.00000035,-0.00003231,-0.00000572,-0.00001100,0.00001275,0.0000584
 4,0.00009462,-0.00000225,0.00012309,0.00006961,0.00013769,0.00021212,-
 0.00001439,0.00000433,-0.00000314,0.00389699,-0.00456124,-0.00014472,-
 0.00082344,0.00107469,0.00002129,-0.00016353,-0.00040488,0.00027371,-0
 .00018222,0.05650719,0.00012316,-0.00002136,-0.00014515,-0.00018064,0.
 00002017,0.00021473,-0.00048507,0.00038158,0.00065330,0.00005454,-0.00
 000932,0.00030632,-0.00014743,0.00006591,-0.00010506,0.00111411,-0.000
 75527,-0.00329353,0.10083351,-0.00035377,-0.24578644,0.00091393,0.0007
 0071,-0.00306323,-0.00036541,-0.00031468,0.00079366,0.00044526,-0.0000
 6322,0.00064813,-0.00001082,-0.00002580,-0.00002121,0.00005547,-0.0000
 4406,0.00001249,-0.00000503,-0.00000473,0.00005812,0.00003634,0.000042
 72,0.00004177,-0.00001133,-0.00000129,0.00000678,-0.00002127,-0.000806
 51,0.00145841,-0.00009519,-0.00055604,0.00027853,0.01081664,-0.0000174
 0,-0.02104308,-0.11344047,0.00040786,0.26640243,-0.00020720,-0.0002112
 3,0.00032373,0.00175155,-0.00090647,-0.00050638,0.00000167,0.00004379,
 -0.00025660,0.00007919,0.00003428,0.00003508,0.00001046,0.00000093,0.0
 0000489,0.00037617,0.00129711,-0.00033181,-0.00998664,-0.00155273,0.01
 927750,-0.09104385,-0.00102577,0.09444795,0.00919837,0.00095958,-0.024
 85966,-0.00013210,-0.00000108,-0.00000798,-0.00000875,0.00002397,0.000
 00173,0.00002810,-0.00003309,0.00000464,0.00000556,-0.00001068,0.00000
 345,-0.00000570,0.00000654,0.00001423,-0.00000229,0.00000726,0.0000033
 6,0.00064182,-0.00039940,-0.00032304,-0.00004408,0.00011563,-0.0002639
 6,0.00026197,0.00064162,-0.00013012,-0.00156526,-0.00408547,-0.0000715
 5,0.10062043,-0.00015674,0.00014398,-0.00014686,-0.00028801,-0.0002324
 8,0.00072296,0.00022866,-0.00013559,-0.00015920,0.00003751,0.00000325,
 0.00003307,-0.00000306,-0.00000107,0.00002868,-0.00054158,0.00174914,0
 .00130839,-0.01238029,-0.00231684,0.02626965,-0.00055368,-0.05241240,0
 .00708630,-0.00025602,-0.00012419,0.00013376,-0.00006832,0.00010554,-0
 .00019209,0.00000521,0.00001313,-0.00000037,0.00000688,-0.00002345,-0.
 00000277,-0.00000712,0.00001980,-0.00002155,-0.00000916,-0.00002864,-0
 .00001628,0.00003237,-0.00000246,-0.00000487,0.00036729,-0.00039766,-0
 .00069377,0.00002465,0.00034969,-0.00038677,0.00063914,0.00111911,-0.0
 0045406,-0.00333916,-0.00449857,0.00068893,0.00544013,0.05395080,-0.00
 126770,0.00042883,0.00034517,0.00195569,-0.00170183,-0.00054910,-0.000
 07994,0.00037972,-0.00026098,0.00008565,0.00002005,-0.00004998,0.00001
 517,0.00003320,-0.00004796,-0.00030668,-0.00044889,-0.00000412,0.00143
 403,0.00023242,-0.00193427,0.09419650,0.00713689,-0.25966267,0.0067617
 0,0.00125218,-0.02099438,0.00000101,-0.00004434,0.00015599,-0.00002899
 ,0.00005015,0.00001875,-0.00000197,-0.00000912,0.00002300,-0.00001488,
 -0.00000936,0.00003933,0.00002256,0.00003632,0.00002683,-0.00004552,-0
 .00000972,-0.00002213,-0.00030402,0.00063995,0.00031917,-0.00016208,0.
 00008336,0.00034562,0.00031584,0.00036132,0.00078588,0.00018472,0.0001
 1060,0.00153177,-0.10069067,-0.00798641,0.28441683,-0.00205421,0.00192
 234,0.00084289,-0.00086064,-0.00498384,-0.00401887,-0.00012399,0.00002
 988,0.00055434,0.00021063,0.00004851,0.00016301,-0.00006814,-0.0000282
 5,-0.00000557,-0.00258934,-0.00267145,0.00048226,0.01278319,-0.0178837
 5,-0.00273333,-0.12849477,0.11936873,0.01875412,-0.01461573,0.02139622
 ,0.00027061,-0.00003360,-0.00002896,0.00001937,-0.00001022,0.00013392,
 -0.00001740,0.00004770,-0.00010173,0.00003741,0.00000909,0.00004244,0.
 00001504,0.00001311,0.00002958,0.00004888,0.00006463,-0.00002839,-0.00
 008755,-0.00005639,0.00000630,-0.00016381,0.00078474,-0.00118703,-0.00
 000926,0.00079096,0.00084221,-0.00014570,0.00079177,0.00082777,-0.0000
 8232,-0.00770572,0.01096975,0.00188006,0.13932940,0.00012313,0.0000939
 8,0.00012680,-0.00056021,0.00068639,-0.00021947,-0.00037915,0.00067097
 ,-0.00020773,0.00008623,0.00012910,0.00006834,-0.00002051,-0.00004627,
 -0.00000179,-0.00565950,-0.00342714,0.00085491,0.01588709,-0.02183373,
 -0.00362787,0.11834138,-0.22507984,-0.02472378,-0.00058437,0.00169226,
 0.00008405,0.00001981,-0.00002977,0.00005320,-0.00003857,0.00005886,-0
 .00004101,0.00008349,-0.00005753,0.00001238,0.00003625,-0.00002592,0.0
 0000146,-0.00001053,0.00003225,0.00004970,0.00000716,0.00000689,-0.000
 00324,-0.00011768,0.00037199,-0.00007552,0.00112589,-0.00165159,-0.000
 09895,-0.00006559,0.00081114,-0.00050856,0.00017730,0.00105354,0.00056
 286,-0.00085327,0.00154211,-0.00062473,-0.12790387,0.24446776,-0.00234
 776,0.00181718,0.00089199,-0.00182905,-0.00354947,-0.00364915,0.000160
 37,-0.00010636,0.00027601,0.00011793,0.00003995,0.00004610,-0.00001270
 ,-0.00001177,-0.00000191,0.00032094,0.00026921,0.00034337,-0.00139986,
 0.00339511,-0.00062772,0.01896187,-0.02577597,-0.05369959,-0.01494988,
 0.02200071,0.00019856,-0.00002391,-0.00001090,0.00001494,-0.00000659,0
 .00006798,0.00001146,0.00001739,-0.00005268,0.00003436,0.00000407,0.00
 000675,0.00002515,0.00002252,0.00004150,0.00002272,-0.00000622,-0.0000
 1246,-0.00006809,-0.00026532,0.00039941,0.00035170,0.00000485,0.000085
 45,0.00055416,0.00015502,-0.00033727,-0.00002757,-0.00053745,0.0000280
 3,0.00028340,0.01694644,-0.02577056,-0.00319993,-0.01678992,0.02751583
 ,0.05624355,-0.00116180,0.00370082,-0.00327459,-0.01043392,0.00004788,
 0.01735237,0.00009402,-0.00027931,-0.00083651,-0.00005344,0.00012109,-
 0.00037123,0.00000722,-0.00012421,0.00001336,-0.00017306,-0.00032569,-
 0.00007849,0.00163266,0.00047813,-0.00019756,0.00901558,-0.00289125,-0
 .02596743,-0.08685779,0.00740715,0.09993856,0.00064978,0.00023615,-0.0
 0035673,-0.00000526,0.00003546,0.00001535,-0.00001502,-0.00003050,0.00
 005754,0.00001412,0.00000926,-0.00003380,0.00000984,0.00000635,-0.0000
 0345,0.00001942,-0.00000726,-0.00003310,-0.00011478,0.00006707,0.00001
 268,-0.00001818,-0.00001529,-0.00001704,0.00017974,0.00041481,0.000192
 69,-0.00020276,-0.00003384,0.00050249,-0.00351408,-0.00036074,-0.00395
 622,0.00162185,-0.00004837,0.00088992,0.09724138,0.00251029,-0.0027462
 2,0.00349230,0.01182509,0.00100131,-0.02922017,-0.00126704,-0.00024524
 ,0.00332586,0.00019047,0.00001595,0.00043028,-0.00002979,0.00012740,-0
 .00001007,0.00052706,0.00023035,0.00017399,0.00044936,0.00002032,-0.00
 104922,-0.00101389,0.00044778,0.00204340,0.00870603,-0.05341407,-0.026
 38424,-0.00048511,-0.00172194,0.00004270,0.00001621,-0.00000654,-0.000
 01288,-0.00002849,0.00005142,-0.00007362,-0.00003133,-0.00000543,0.000
 03235,-0.00001028,-0.00002137,-0.00001915,-0.00001891,0.00001519,0.000
 04947,0.00000144,0.00009309,0.00004437,0.00004668,-0.00000513,-0.00000
 018,-0.00002373,-0.00000339,0.00014048,-0.00021223,0.00009126,0.000042
 71,0.00061457,0.00102073,0.00045593,-0.00053508,0.00020159,0.00039206,
 -0.01156205,0.05123413,-0.00056796,-0.00074399,-0.00059915,0.00110866,
 0.00004251,0.00009282,0.00088772,0.00010930,-0.00075135,-0.00014137,-0
 .00022563,0.00027273,-0.00002751,0.00010752,-0.00004519,-0.00046418,-0
 .00002525,-0.00009070,0.00144776,0.00044873,0.00074104,0.00805862,-0.0
 0181100,-0.02461044,0.09560529,-0.02063189,-0.24934527,-0.00036415,0.0
 0013560,0.00065699,0.00002242,-0.00004735,-0.00000675,0.00002079,0.000
 03288,-0.00001819,-0.00001543,0.00000110,0.00003890,0.00000380,0.00000
 753,0.00001183,-0.00002479,0.00000413,0.00001679,0.00000721,0.00016921
 ,0.00014630,0.00001624,-0.00005856,0.00001973,-0.00013737,0.00020112,0
 .00041263,-0.00074901,-0.00072776,0.00052021,-0.00451224,-0.00004994,-
 0.00212399,0.00039746,0.00042753,0.00134559,-0.10208321,0.02260111,0.2
 7672017,0.00182383,-0.00104080,0.00009386,0.01121915,0.01521176,-0.002
 87126,-0.00211772,0.00246400,0.00039390,0.00075045,0.00071475,0.000040
 22,0.00001299,-0.00002297,-0.00009001,-0.00023781,0.00031212,-0.000004
 17,-0.00259393,0.00192278,-0.00438862,-0.01333892,-0.01741620,0.004603
 19,-0.15825605,-0.13215492,0.02354393,-0.00009794,-0.00007142,-0.00002
 931,-0.00012948,0.00034068,0.00001604,0.00007138,-0.00007418,-0.000002
 09,-0.00000640,-0.00000631,0.00002528,0.00000218,0.00001674,0.00003635
 ,-0.00000275,-0.00002328,0.00001838,0.00007004,-0.00005418,0.00000544,
 0.00009606,-0.00010309,0.00003853,-0.00073826,-0.00149383,-0.00006645,
 0.00031283,0.00038743,0.00002107,0.00124039,0.00021227,0.00000577,0.00
 016567,0.00035389,0.00056735,-0.00793552,-0.00966925,0.00151125,0.1696
 8980,-0.00008617,0.00610524,-0.00077614,-0.02253105,-0.02695312,0.0048
 8788,0.00524087,-0.00307694,-0.00086580,-0.00164855,-0.00080592,-0.000
 00404,-0.00000974,-0.00010913,0.00018998,0.00042745,0.00021761,0.00038
 309,0.00062129,0.00084009,0.00028669,0.00200748,0.00273378,-0.00124939
 ,-0.12754508,-0.20285968,0.02825679,0.00014234,0.00052593,0.00016998,0
 .00032686,-0.00058008,-0.00004833,0.00004391,0.00003126,0.00005781,0.0
 0006562,-0.00001840,-0.00008884,-0.00000330,0.00001271,-0.00003653,0.0
 0002985,0.00003413,-0.00008345,-0.00005539,-0.00001031,-0.00011378,-0.
 00011746,0.00001236,-0.00008118,0.00013531,0.00021588,0.00017175,-0.00
 002106,-0.00006482,0.00006002,-0.00010622,0.00015606,-0.00038653,-0.00
 026529,0.00033297,-0.00043170,0.00315432,0.00361880,0.00003308,0.14019
 399,0.21964156,-0.00082429,0.00035514,-0.00120203,0.00024856,-0.003244
 18,-0.00044713,0.00031841,0.00033186,0.00101829,0.00005128,-0.00006905
 ,0.00040717,-0.00006449,0.00006038,-0.00003702,-0.00013647,0.00058078,
 -0.00007967,-0.00305691,0.00128548,-0.00350591,-0.01439848,-0.01949919
 ,0.00368291,0.02306484,0.02872340,-0.05541684,-0.00041892,-0.00028836,
 0.00031336,0.00001091,0.00000184,-0.00003408,0.00002819,-0.00005232,0.
 00000065,-0.00000891,0.00001297,0.00003344,0.00000652,0.00000712,0.000
 01899,0.00001706,-0.00000475,-0.00000532,0.00003682,-0.00002190,-0.000
 01682,0.00012982,-0.00005517,0.00005934,-0.00095969,-0.00118692,0.0002
 2938,-0.00028930,-0.00009767,0.00024766,0.00089100,-0.00038622,0.00084
 118,0.00058829,0.00037558,0.00063092,0.01823441,0.02350252,-0.00340471
 ,-0.02346863,-0.03033135,0.05666623\\-0.00005307,0.00006088,0.00003770
 ,0.00009216,-0.00003922,-0.00000304,-0.00003176,-0.00000132,-0.0000279
 9,0.00001702,-0.00002640,0.00003890,0.00001695,-0.00003699,-0.00003065
 ,-0.00001686,0.00000152,-0.00000112,0.00005394,-0.00001035,-0.00002458
 ,0.00003009,0.00003589,0.00003772,-0.00008242,-0.00000658,-0.00006979,
 -0.00001138,-0.00002395,-0.00000146,0.00001103,0.00001342,-0.00000722,
 0.00000215,0.00000473,-0.00000477,-0.00001460,0.00000378,-0.00000526,0
 .00000375,-0.00000344,-0.00000662,-0.00001797,0.00001122,0.00000954,-0
 .00002045,-0.00000285,0.00001176,0.00000727,0.00000082,0.00000597,-0.0
 0000548,-0.00000412,0.00001251,-0.00000322,0.00001620,0.00000096,-0.00
 001891,-0.00000740,0.00000882,0.00001247,0.00000172,0.00000484,0.00000
 766,0.00000613,-0.00000054,0.00002164,0.00000632,0.00001432\\\@


 Until you make peace with who you are,
 you'll never be content with what you have.
                           -- Doris Mortman
 Job cpu time:       0 days  0 hours  1 minutes 30.5 seconds.
 Elapsed time:       0 days  0 hours  1 minutes 33.4 seconds.
 File lengths (MBytes):  RWF=     78 Int=      0 D2E=      0 Chk=      3 Scr=      1
 Normal termination of Gaussian 16 at Wed Feb 21 19:01:12 2024.
