 Entering Gaussian System, Link 0=g16
 Input=/Volumes/SSD-PMU3/b3lyp_6-31gd_freq/WKYYYUWKFPFVEY-SSDOTTSWSA-N_calculating/gaussianinput1.gjf
 Output=/Volumes/SSD-PMU3/b3lyp_6-31gd_freq/WKYYYUWKFPFVEY-SSDOTTSWSA-N_calculating/gaussianinput1.log
 Initial command:
 /Applications/g16/l1.exe "/Users/macmini_m1_2022/PycharmProjects/sphere_model/sphere_model_lib/Gau-51575.inp" -scrdir="/Users/macmini_m1_2022/PycharmProjects/sphere_model/sphere_model_lib/"
 Entering Link 1 = /Applications/g16/l1.exe PID=     51576.
  
 Copyright (c) 1988,1990,1992,1993,1995,1998,2003,2009,2016,
            Gaussian, Inc.  All Rights Reserved.
  
 This is part of the Gaussian(R) 16 program.  It is based on
 the Gaussian(R) 09 system (copyright 2009, Gaussian, Inc.),
 the Gaussian(R) 03 system (copyright 2003, Gaussian, Inc.),
 the Gaussian(R) 98 system (copyright 1998, Gaussian, Inc.),
 the Gaussian(R) 94 system (copyright 1995, Gaussian, Inc.),
 the Gaussian 92(TM) system (copyright 1992, Gaussian, Inc.),
 the Gaussian 90(TM) system (copyright 1990, Gaussian, Inc.),
 the Gaussian 88(TM) system (copyright 1988, Gaussian, Inc.),
 the Gaussian 86(TM) system (copyright 1986, Carnegie Mellon
 University), and the Gaussian 82(TM) system (copyright 1983,
 Carnegie Mellon University). Gaussian is a federally registered
 trademark of Gaussian, Inc.
  
 This software contains proprietary and confidential information,
 including trade secrets, belonging to Gaussian, Inc.
  
 This software is provided under written license and may be
 used, copied, transmitted, or stored only in accord with that
 written license.
  
 The following legend is applicable only to US Government
 contracts under FAR:
  
                    RESTRICTED RIGHTS LEGEND
  
 Use, reproduction and disclosure by the US Government is
 subject to restrictions as set forth in subparagraphs (a)
 and (c) of the Commercial Computer Software - Restricted
 Rights clause in FAR 52.227-19.
  
 Gaussian, Inc.
 340 Quinnipiac St., Bldg. 40, Wallingford CT 06492
  
  
 ---------------------------------------------------------------
 Warning -- This program may not be used in any manner that
 competes with the business of Gaussian, Inc. or will provide
 assistance to any competitor of Gaussian, Inc.  The licensee
 of this program is prohibited from giving any competitor of
 Gaussian, Inc. access to this program.  By using this program,
 the user acknowledges that Gaussian, Inc. is engaged in the
 business of creating and licensing software in the field of
 computational chemistry and represents and warrants to the
 licensee that it is not a competitor of Gaussian, Inc. and that
 it will not use this program in any manner prohibited above.
 ---------------------------------------------------------------
  

 Cite this work as:
 Gaussian 16, Revision A.03,
 M. J. Frisch, G. W. Trucks, H. B. Schlegel, G. E. Scuseria, 
 M. A. Robb, J. R. Cheeseman, G. Scalmani, V. Barone, 
 G. A. Petersson, H. Nakatsuji, X. Li, M. Caricato, A. V. Marenich, 
 J. Bloino, B. G. Janesko, R. Gomperts, B. Mennucci, H. P. Hratchian, 
 J. V. Ortiz, A. F. Izmaylov, J. L. Sonnenberg, D. Williams-Young, 
 F. Ding, F. Lipparini, F. Egidi, J. Goings, B. Peng, A. Petrone, 
 T. Henderson, D. Ranasinghe, V. G. Zakrzewski, J. Gao, N. Rega, 
 G. Zheng, W. Liang, M. Hada, M. Ehara, K. Toyota, R. Fukuda, 
 J. Hasegawa, M. Ishida, T. Nakajima, Y. Honda, O. Kitao, H. Nakai, 
 T. Vreven, K. Throssell, J. A. Montgomery, Jr., J. E. Peralta, 
 F. Ogliaro, M. J. Bearpark, J. J. Heyd, E. N. Brothers, K. N. Kudin, 
 V. N. Staroverov, T. A. Keith, R. Kobayashi, J. Normand, 
 K. Raghavachari, A. P. Rendell, J. C. Burant, S. S. Iyengar, 
 J. Tomasi, M. Cossi, J. M. Millam, M. Klene, C. Adamo, R. Cammi, 
 J. W. Ochterski, R. L. Martin, K. Morokuma, O. Farkas, 
 J. B. Foresman, and D. J. Fox, Gaussian, Inc., Wallingford CT, 2016.
 
 ******************************************
 Gaussian 16:  EM64M-G16RevA.03 25-Dec-2016
                21-Feb-2024 
 ******************************************
 %nprocshared=8
 Will use up to    8 processors via shared memory.
 %mem=4GB
 %chk= 1.chk
 ---------------------
 # freq b3lyp/6-31g(d)
 ---------------------
 1/10=4,30=1,38=1/1,3;
 2/12=2,17=6,18=5,40=1/2;
 3/5=1,6=6,7=1,11=2,25=1,30=1,71=2,74=-5,140=1/1,2,3;
 4//1;
 5/5=2,38=5,98=1/2;
 8/6=4,10=90,11=11/1;
 11/6=1,8=1,9=11,15=111,16=1/1,2,10;
 10/6=1/2;
 6/7=2,8=2,9=2,10=2,28=1/1;
 7/8=1,10=1,25=1/1,2,3,16;
 1/10=4,30=1/3;
 99//99;
 ---------
 good luck
 ---------
 Symbolic Z-matrix:
 Charge =  0 Multiplicity = 1
 O                     1.21737   0.        0. 
 C                     0.        0.        0. 
 C                    -0.8267   -1.29152  -0.00476 
 C                     0.06513  -2.54101  -0.04357 
 C                    -0.68212  -3.85429   0.21214 
 C                    -1.87023  -1.22818  -1.14967 
 C                    -2.72331   0.04734  -1.10173 
 C                    -1.84913   1.30719  -1.13986 
 C                    -0.80494   1.29465  -0.00476 
 H                    -1.39205  -1.28753   0.94403 
 H                     0.86015  -2.41868   0.69993 
 H                     0.5759   -2.58293  -1.01457 
 H                    -1.19812  -3.83737   1.18071 
 H                     0.01546  -4.69922   0.22536 
 H                    -1.43207  -4.06366  -0.55918 
 H                    -1.33962  -1.27725  -2.11216 
 H                    -2.51568  -2.11281  -1.10506 
 H                    -3.32732   0.04865  -0.18234 
 H                    -3.43151   0.05411  -1.9397 
 H                    -1.32826   1.36008  -2.10601 
 H                    -2.46549   2.21134  -1.06665 
 H                    -1.32671   1.37309   0.96129 
 H                    -0.10764   2.13443  -0.07718 
 

 GradGradGradGradGradGradGradGradGradGradGradGradGradGradGradGradGradGrad
 Berny optimization.
 Initialization pass.
 Trust Radius=3.00D-01 FncErr=1.00D-07 GrdErr=1.00D-07 EigMax=2.50D+02 EigMin=1.00D-04
 Number of steps in this run=      2 maximum allowed number of steps=      2.
 GradGradGradGradGradGradGradGradGradGradGradGradGradGradGradGradGradGrad

                          Input orientation:                          
 ---------------------------------------------------------------------
 Center     Atomic      Atomic             Coordinates (Angstroms)
 Number     Number       Type             X           Y           Z
 ---------------------------------------------------------------------
      1          8           0        1.217369    0.000000    0.000000
      2          6           0        0.000000    0.000000    0.000000
      3          6           0       -0.826699   -1.291520   -0.004757
      4          6           0        0.065134   -2.541012   -0.043574
      5          6           0       -0.682116   -3.854292    0.212139
      6          6           0       -1.870229   -1.228178   -1.149674
      7          6           0       -2.723312    0.047336   -1.101732
      8          6           0       -1.849130    1.307188   -1.139861
      9          6           0       -0.804935    1.294651   -0.004757
     10          1           0       -1.392050   -1.287528    0.944026
     11          1           0        0.860152   -2.418677    0.699934
     12          1           0        0.575899   -2.582926   -1.014568
     13          1           0       -1.198123   -3.837374    1.180714
     14          1           0        0.015456   -4.699217    0.225363
     15          1           0       -1.432067   -4.063663   -0.559176
     16          1           0       -1.339620   -1.277246   -2.112159
     17          1           0       -2.515681   -2.112813   -1.105062
     18          1           0       -3.327323    0.048649   -0.182339
     19          1           0       -3.431508    0.054113   -1.939701
     20          1           0       -1.328258    1.360079   -2.106011
     21          1           0       -2.465487    2.211343   -1.066651
     22          1           0       -1.326714    1.373088    0.961289
     23          1           0       -0.107642    2.134428   -0.077178
 ---------------------------------------------------------------------
                    Distance matrix (angstroms):
                    1          2          3          4          5
     1  O    0.000000
     2  C    1.217369   0.000000
     3  C    2.417904   1.533453   0.000000
     4  C    2.790392   2.542220   1.535612   0.000000
     5  C    4.302164   3.919930   2.575995   1.532474   0.000000
     6  C    3.516167   2.515537   1.550420   2.587010   3.187887
     7  C    4.092068   2.938109   2.567690   3.949009   4.595154
     8  C    3.522987   2.535213   3.014483   4.435639   5.461749
     9  C    2.401220   1.524488   2.586263   3.933299   5.154973
    10  H    3.059082   2.118187   1.104458   2.161009   2.761873
    11  H    2.543130   2.660783   2.147682   1.095365   2.162759
    12  H    2.848217   2.834169   2.157482   1.097938   2.168821
    13  H    4.685523   4.189872   2.832785   2.185235   1.097582
    14  H    4.855721   4.704643   3.517752   2.175464   1.095755
    15  H    4.883190   4.344750   2.891129   2.196798   1.095988
    16  H    3.553979   2.808408   2.168971   2.801693   3.532115
    17  H    4.429538   3.466092   2.176661   2.823246   2.851268
    18  H    4.548609   3.332670   2.842659   4.270171   4.731351
    19  H    5.037601   3.942159   3.512800   4.749366   5.240725
    20  H    3.572858   2.837141   3.420206   4.627494   5.742907
    21  H    4.426196   3.479426   4.010398   5.480475   6.450399
    22  H    3.046606   2.137666   2.878089   4.274011   5.319984
    23  H    2.513443   2.138534   3.501344   4.678752   6.023163
                    6          7          8          9         10
     6  C    0.000000
     7  C    1.535248   0.000000
     8  C    2.535473   1.533908   0.000000
     9  C    2.968224   2.537581   1.542388   0.000000
    10  H    2.148431   2.781950   3.359175   2.812924   0.000000
    11  H    3.506183   4.708337   4.960557   4.130122   2.532093
    12  H    2.799489   4.220269   4.585788   4.238163   3.063816
    13  H    3.562350   4.756757   5.681144   5.281820   2.568140
    14  H    4.182660   5.638421   6.435637   6.054127   3.759943
    15  H    2.929274   4.343040   5.418226   5.423302   3.157237
    16  H    1.100150   2.165660   2.807893   3.367742   3.056652
    17  H    1.095982   2.170107   3.484524   3.968392   2.478387
    18  H    2.165444   1.100052   2.164676   2.818953   2.607556
    19  H    2.169333   1.097169   2.171143   3.490248   3.778263
    20  H    2.812008   2.162879   1.098886   2.166429   4.039383
    21  H    3.491637   2.179594   1.096700   2.173793   4.175786
    22  H    3.393841   2.822084   2.166124   1.100750   2.661474
    23  H    3.945134   3.499628   2.201454   1.093932   3.795042
                   11         12         13         14         15
    11  H    0.000000
    12  H    1.745650   0.000000
    13  H    2.545652   3.088698   0.000000
    14  H    2.477820   2.515991   1.768684   0.000000
    15  H    3.089596   2.536117   1.770072   1.764866   0.000000
    16  H    3.748297   2.564901   4.173403   4.360060   3.191304
    17  H    3.840288   3.128428   3.151958   3.855667   2.297396
    18  H    4.939742   4.780474   4.636009   5.820878   4.543689
    19  H    5.612549   4.885607   5.465224   6.258052   4.781181
    20  H    5.190517   4.512688   6.150855   6.629928   5.640962
    21  H    5.968064   5.677830   6.576005   7.455214   6.379748
    22  H    4.384994   4.813937   5.216665   6.262260   5.646342
    23  H    4.719247   4.857917   6.199505   6.841446   6.356316
                   16         17         18         19         20
    16  H    0.000000
    17  H    1.759414   0.000000
    18  H    3.071346   2.486383   0.000000
    19  H    2.485609   2.496183   1.760456   0.000000
    20  H    2.637357   3.804320   3.068652   2.481303   0.000000
    21  H    3.811944   4.324618   2.490384   2.519733   1.760173
    22  H    4.058389   4.223145   2.657905   3.819109   3.067328
    23  H    4.159139   4.989414   3.837692   4.341058   2.491121
                   21         22         23
    21  H    0.000000
    22  H    2.472249   0.000000
    23  H    2.558204   1.773186   0.000000
 Stoichiometry    C8H14O
 Framework group  C1[X(C8H14O)]
 Deg. of freedom    63
 Full point group                 C1      NOp   1
 Largest Abelian subgroup         C1      NOp   1
 Largest concise Abelian subgroup C1      NOp   1
                         Standard orientation:                         
 ---------------------------------------------------------------------
 Center     Atomic      Atomic             Coordinates (Angstroms)
 Number     Number       Type             X           Y           Z
 ---------------------------------------------------------------------
      1          8           0       -0.117644    2.215170   -0.362534
      2          6           0       -0.427847    1.124781    0.081103
      3          6           0        0.587581   -0.007560    0.276518
      4          6           0        1.994841    0.400967   -0.182642
      5          6           0        3.098196   -0.581827    0.223806
      6          6           0        0.054860   -1.296556   -0.400607
      7          6           0       -1.365599   -1.659535    0.054942
      8          6           0       -2.346583   -0.508223   -0.200059
      9          6           0       -1.863729    0.793523    0.471709
     10          1           0        0.610970   -0.203254    1.363249
     11          1           0        2.215396    1.392554    0.227157
     12          1           0        1.989560    0.529063   -1.273069
     13          1           0        3.125451   -0.722961    1.311935
     14          1           0        4.081011   -0.208055   -0.084496
     15          1           0        2.966790   -1.568421   -0.235055
     16          1           0        0.062968   -1.150073   -1.490932
     17          1           0        0.738843   -2.127485   -0.193475
     18          1           0       -1.354821   -1.900253    1.128280
     19          1           0       -1.703736   -2.565148   -0.464007
     20          1           0       -2.438479   -0.340842   -1.282228
     21          1           0       -3.349371   -0.763157    0.163502
     22          1           0       -1.896844    0.664985    1.564427
     23          1           0       -2.496906    1.648257    0.216357
 ---------------------------------------------------------------------
 Rotational constants (GHZ):           2.3947396           1.2650419           0.8937005
 Standard basis: 6-31G(d) (6D, 7F)
 There are   163 symmetry adapted cartesian basis functions of A   symmetry.
 There are   163 symmetry adapted basis functions of A   symmetry.
   163 basis functions,   308 primitive gaussians,   163 cartesian basis functions
    35 alpha electrons       35 beta electrons
       nuclear repulsion energy       470.0256540250 Hartrees.
 NAtoms=   23 NActive=   23 NUniq=   23 SFac= 1.00D+00 NAtFMM=   60 NAOKFM=F Big=F
 Integral buffers will be    131072 words long.
 Raffenetti 2 integral format.
 Two-electron integral symmetry is turned on.
 One-electron integrals computed using PRISM.
 NBasis=   163 RedAO= T EigKep=  2.66D-03  NBF=   163
 NBsUse=   163 1.00D-06 EigRej= -1.00D+00 NBFU=   163
 ExpMin= 1.61D-01 ExpMax= 5.48D+03 ExpMxC= 8.25D+02 IAcc=3 IRadAn=         5 AccDes= 0.00D+00
 Harris functional with IExCor=  402 and IRadAn=       5 diagonalized for initial guess.
 HarFok:  IExCor=  402 AccDes= 0.00D+00 IRadAn=         5 IDoV= 1 UseB2=F ITyADJ=14
 ICtDFT=  3500011 ScaDFX=  1.000000  1.000000  1.000000  1.000000
 FoFCou: FMM=F IPFlag=           0 FMFlag=      100000 FMFlg1=           0
         NFxFlg=           0 DoJE=T BraDBF=F KetDBF=T FulRan=T
         wScrn=  0.000000 ICntrl=       500 IOpCl=  0 I1Cent=   200000004 NGrid=           0
         NMat0=    1 NMatS0=      1 NMatT0=    0 NMatD0=    1 NMtDS0=    0 NMtDT0=    0
 Petite list used in FoFCou.
 Requested convergence on RMS density matrix=1.00D-08 within 128 cycles.
 Requested convergence on MAX density matrix=1.00D-06.
 Requested convergence on             energy=1.00D-06.
 No special actions if energy rises.
 Integral accuracy reduced to 1.0D-05 until final iterations.
 Initial convergence to 1.0D-05 achieved.  Increase integral accuracy.
 SCF Done:  E(RB3LYP) =  -388.519316228     A.U. after   13 cycles
            NFock= 13  Conv=0.63D-08     -V/T= 2.0098
 DoSCS=F DFT=T ScalE2(SS,OS)=  1.000000  1.000000
 Range of M.O.s used for correlation:     1   163
 NBasis=   163 NAE=    35 NBE=    35 NFC=     0 NFV=     0
 NROrb=    163 NOA=    35 NOB=    35 NVA=   128 NVB=   128
 Symmetrizing basis deriv contribution to polar:
 IMax=3 JMax=2 DiffMx= 0.00D+00
 G2DrvN: will do    24 centers at a time, making    1 passes.
 Calling FoFCou, ICntrl=  3107 FMM=F I1Cent=   0 AccDes= 0.00D+00.
 End of G2Drv F.D. properties file   721 does not exist.
 End of G2Drv F.D. properties file   722 does not exist.
 End of G2Drv F.D. properties file   788 does not exist.
          IDoAtm=11111111111111111111111
          Differentiating once with respect to electric field.
                with respect to dipole field.
          Differentiating once with respect to nuclear coordinates.
 Keep R1 ints in memory in canonical form, NReq=97235297.
          There are    72 degrees of freedom in the 1st order CPHF.  IDoFFX=6 NUNeed=     3.
     69 vectors produced by pass  0 Test12= 6.22D-15 1.39D-09 XBig12= 6.04D+01 2.25D+00.
 AX will form    69 AO Fock derivatives at one time.
     69 vectors produced by pass  1 Test12= 6.22D-15 1.39D-09 XBig12= 6.44D+00 4.80D-01.
     69 vectors produced by pass  2 Test12= 6.22D-15 1.39D-09 XBig12= 3.00D-02 2.06D-02.
     69 vectors produced by pass  3 Test12= 6.22D-15 1.39D-09 XBig12= 7.40D-05 1.46D-03.
     69 vectors produced by pass  4 Test12= 6.22D-15 1.39D-09 XBig12= 5.92D-08 2.80D-05.
     31 vectors produced by pass  5 Test12= 6.22D-15 1.39D-09 XBig12= 3.01D-11 5.51D-07.
      3 vectors produced by pass  6 Test12= 6.22D-15 1.39D-09 XBig12= 1.41D-14 9.64D-09.
 InvSVY:  IOpt=1 It=  1 EMax= 1.78D-15
 Solved reduced A of dimension   379 with    72 vectors.
 Isotropic polarizability for W=    0.000000       82.89 Bohr**3.
 End of Minotr F.D. properties file   721 does not exist.
 End of Minotr F.D. properties file   722 does not exist.
 End of Minotr F.D. properties file   788 does not exist.

 **********************************************************************

            Population analysis using the SCF density.

 **********************************************************************

 Orbital symmetries:
       Occupied  (A) (A) (A) (A) (A) (A) (A) (A) (A) (A) (A) (A)
                 (A) (A) (A) (A) (A) (A) (A) (A) (A) (A) (A) (A)
                 (A) (A) (A) (A) (A) (A) (A) (A) (A) (A) (A)
       Virtual   (A) (A) (A) (A) (A) (A) (A) (A) (A) (A) (A) (A)
                 (A) (A) (A) (A) (A) (A) (A) (A) (A) (A) (A) (A)
                 (A) (A) (A) (A) (A) (A) (A) (A) (A) (A) (A) (A)
                 (A) (A) (A) (A) (A) (A) (A) (A) (A) (A) (A) (A)
                 (A) (A) (A) (A) (A) (A) (A) (A) (A) (A) (A) (A)
                 (A) (A) (A) (A) (A) (A) (A) (A) (A) (A) (A) (A)
                 (A) (A) (A) (A) (A) (A) (A) (A) (A) (A) (A) (A)
                 (A) (A) (A) (A) (A) (A) (A) (A) (A) (A) (A) (A)
                 (A) (A) (A) (A) (A) (A) (A) (A) (A) (A) (A) (A)
                 (A) (A) (A) (A) (A) (A) (A) (A) (A) (A) (A) (A)
                 (A) (A) (A) (A) (A) (A) (A) (A)
 The electronic state is 1-A.
 Alpha  occ. eigenvalues --  -19.13304 -10.26614 -10.19415 -10.19348 -10.19114
 Alpha  occ. eigenvalues --  -10.19007 -10.18950 -10.17725 -10.17408  -1.03160
 Alpha  occ. eigenvalues --   -0.83398  -0.78299  -0.73501  -0.71146  -0.63924
 Alpha  occ. eigenvalues --   -0.59257  -0.58244  -0.52689  -0.47228  -0.46115
 Alpha  occ. eigenvalues --   -0.45178  -0.43920  -0.42710  -0.41847  -0.40222
 Alpha  occ. eigenvalues --   -0.39668  -0.36531  -0.35951  -0.35779  -0.34648
 Alpha  occ. eigenvalues --   -0.33401  -0.32881  -0.32053  -0.31087  -0.23397
 Alpha virt. eigenvalues --   -0.01145   0.08976   0.10050   0.10609   0.13063
 Alpha virt. eigenvalues --    0.14073   0.14548   0.15377   0.15990   0.16834
 Alpha virt. eigenvalues --    0.17601   0.18092   0.18503   0.18793   0.19685
 Alpha virt. eigenvalues --    0.21846   0.22437   0.24173   0.25115   0.26795
 Alpha virt. eigenvalues --    0.27373   0.28712   0.33860   0.36543   0.50349
 Alpha virt. eigenvalues --    0.51250   0.52471   0.53539   0.53865   0.55243
 Alpha virt. eigenvalues --    0.56375   0.58565   0.60647   0.63314   0.64951
 Alpha virt. eigenvalues --    0.65494   0.67436   0.68424   0.70371   0.73145
 Alpha virt. eigenvalues --    0.74959   0.77375   0.78450   0.81358   0.82090
 Alpha virt. eigenvalues --    0.84374   0.85469   0.87197   0.87365   0.88317
 Alpha virt. eigenvalues --    0.89329   0.90508   0.90616   0.92444   0.93635
 Alpha virt. eigenvalues --    0.94745   0.95262   0.96371   0.97763   1.00152
 Alpha virt. eigenvalues --    1.01766   1.04318   1.08870   1.10425   1.14313
 Alpha virt. eigenvalues --    1.15939   1.20658   1.25223   1.35208   1.39775
 Alpha virt. eigenvalues --    1.44010   1.47316   1.49588   1.55528   1.62901
 Alpha virt. eigenvalues --    1.64988   1.66039   1.68158   1.71208   1.75811
 Alpha virt. eigenvalues --    1.77454   1.80544   1.82441   1.84184   1.86398
 Alpha virt. eigenvalues --    1.90462   1.91378   1.94220   1.94694   1.97049
 Alpha virt. eigenvalues --    1.99187   1.99993   2.01476   2.02816   2.06420
 Alpha virt. eigenvalues --    2.11103   2.13690   2.16003   2.21141   2.27505
 Alpha virt. eigenvalues --    2.30151   2.32449   2.32882   2.37499   2.37797
 Alpha virt. eigenvalues --    2.39114   2.40567   2.44611   2.52162   2.56888
 Alpha virt. eigenvalues --    2.60631   2.62018   2.64411   2.69036   2.72424
 Alpha virt. eigenvalues --    2.75935   2.84261   2.98665   3.04214   4.00607
 Alpha virt. eigenvalues --    4.11240   4.19834   4.25819   4.31546   4.45646
 Alpha virt. eigenvalues --    4.52672   4.57091   4.64536
          Condensed to atoms (all electrons):
               1          2          3          4          5          6
     1  O    8.008130   0.583106  -0.093054   0.004667   0.000609   0.000553
     2  C    0.583106   4.520627   0.292696  -0.028058   0.004159  -0.023637
     3  C   -0.093054   0.292696   5.265295   0.359347  -0.038004   0.350888
     4  C    0.004667  -0.028058   0.359347   4.978489   0.350831  -0.040431
     5  C    0.000609   0.004159  -0.038004   0.350831   5.096878  -0.003778
     6  C    0.000553  -0.023637   0.350888  -0.040431  -0.003778   5.050028
     7  C    0.000151  -0.012996  -0.036183   0.003793   0.000105   0.369922
     8  C    0.000971  -0.028294  -0.002925  -0.000019  -0.000012  -0.044979
     9  C   -0.074806   0.346562  -0.133078   0.005878  -0.000081  -0.006253
    10  H    0.001284  -0.036059   0.351389  -0.041294  -0.004312  -0.045740
    11  H    0.008226  -0.003215  -0.038725   0.376854  -0.038075   0.004838
    12  H    0.002704  -0.004160  -0.038057   0.377065  -0.039370  -0.007772
    13  H   -0.000001  -0.000005  -0.005081  -0.034789   0.375254  -0.000417
    14  H    0.000003  -0.000064   0.003894  -0.028835   0.375170   0.000089
    15  H   -0.000008  -0.000045  -0.005755  -0.030405   0.373122   0.001985
    16  H    0.000454  -0.004623  -0.043615  -0.003341  -0.000237   0.370662
    17  H   -0.000068   0.003123  -0.031704  -0.004154   0.001758   0.369167
    18  H   -0.000008  -0.001865  -0.004184   0.000046  -0.000014  -0.041494
    19  H    0.000002   0.000324   0.004165  -0.000134   0.000001  -0.030737
    20  H    0.000482  -0.003123   0.000207  -0.000042  -0.000001  -0.004949
    21  H   -0.000064   0.003420  -0.000248   0.000009   0.000000   0.004852
    22  H    0.001368  -0.030464   0.003291  -0.000082  -0.000003  -0.001178
    23  H    0.005453  -0.023679   0.006603  -0.000152   0.000001  -0.000132
               7          8          9         10         11         12
     1  O    0.000151   0.000971  -0.074806   0.001284   0.008226   0.002704
     2  C   -0.012996  -0.028294   0.346562  -0.036059  -0.003215  -0.004160
     3  C   -0.036183  -0.002925  -0.133078   0.351389  -0.038725  -0.038057
     4  C    0.003793  -0.000019   0.005878  -0.041294   0.376854   0.377065
     5  C    0.000105  -0.000012  -0.000081  -0.004312  -0.038075  -0.039370
     6  C    0.369922  -0.044979  -0.006253  -0.045740   0.004838  -0.007772
     7  C    5.008937   0.378691  -0.045841  -0.002030  -0.000155   0.000099
     8  C    0.378691   5.016066   0.341712  -0.001660  -0.000013  -0.000043
     9  C   -0.045841   0.341712   5.282083   0.002030   0.000470   0.000112
    10  H   -0.002030  -0.001660   0.002030   0.624063  -0.002334   0.006025
    11  H   -0.000155  -0.000013   0.000470  -0.002334   0.575097  -0.034249
    12  H    0.000099  -0.000043   0.000112   0.006025  -0.034249   0.593691
    13  H   -0.000021   0.000000  -0.000002   0.005631  -0.003762   0.005099
    14  H   -0.000000   0.000000   0.000002  -0.000015  -0.003211  -0.002243
    15  H   -0.000094   0.000000  -0.000001  -0.000186   0.004726  -0.004369
    16  H   -0.039094  -0.005240   0.000166   0.006501   0.000008   0.005940
    17  H   -0.030238   0.004769  -0.000245  -0.006376  -0.000060  -0.000276
    18  H    0.373490  -0.042432  -0.003261   0.005165   0.000002   0.000007
    19  H    0.367135  -0.032046   0.004670  -0.000022   0.000002  -0.000001
    20  H   -0.039545   0.376221  -0.042744   0.000115  -0.000001  -0.000006
    21  H   -0.030690   0.369206  -0.029148  -0.000027   0.000000   0.000000
    22  H   -0.003306  -0.036219   0.349499   0.001695  -0.000032  -0.000003
    23  H    0.004207  -0.025355   0.342916  -0.000129  -0.000011   0.000003
              13         14         15         16         17         18
     1  O   -0.000001   0.000003  -0.000008   0.000454  -0.000068  -0.000008
     2  C   -0.000005  -0.000064  -0.000045  -0.004623   0.003123  -0.001865
     3  C   -0.005081   0.003894  -0.005755  -0.043615  -0.031704  -0.004184
     4  C   -0.034789  -0.028835  -0.030405  -0.003341  -0.004154   0.000046
     5  C    0.375254   0.375170   0.373122  -0.000237   0.001758  -0.000014
     6  C   -0.000417   0.000089   0.001985   0.370662   0.369167  -0.041494
     7  C   -0.000021  -0.000000  -0.000094  -0.039094  -0.030238   0.373490
     8  C    0.000000   0.000000   0.000000  -0.005240   0.004769  -0.042432
     9  C   -0.000002   0.000002  -0.000001   0.000166  -0.000245  -0.003261
    10  H    0.005631  -0.000015  -0.000186   0.006501  -0.006376   0.005165
    11  H   -0.003762  -0.003211   0.004726   0.000008  -0.000060   0.000002
    12  H    0.005099  -0.002243  -0.004369   0.005940  -0.000276   0.000007
    13  H    0.582677  -0.030761  -0.033550   0.000061   0.000315  -0.000001
    14  H   -0.030761   0.569647  -0.031093  -0.000024  -0.000111  -0.000000
    15  H   -0.033550  -0.031093   0.578257   0.000225   0.003720   0.000009
    16  H    0.000061  -0.000024   0.000225   0.602989  -0.036880   0.005792
    17  H    0.000315  -0.000111   0.003720  -0.036880   0.588744  -0.004005
    18  H   -0.000001  -0.000000   0.000009   0.005792  -0.004005   0.610043
    19  H    0.000000  -0.000000   0.000006  -0.003918  -0.002334  -0.036065
    20  H   -0.000000  -0.000000   0.000000   0.004679  -0.000006   0.005831
    21  H   -0.000000  -0.000000  -0.000000  -0.000025  -0.000181  -0.004213
    22  H   -0.000001  -0.000000   0.000000   0.000111  -0.000014   0.004711
    23  H    0.000000  -0.000000   0.000000  -0.000039   0.000017  -0.000031
              19         20         21         22         23
     1  O    0.000002   0.000482  -0.000064   0.001368   0.005453
     2  C    0.000324  -0.003123   0.003420  -0.030464  -0.023679
     3  C    0.004165   0.000207  -0.000248   0.003291   0.006603
     4  C   -0.000134  -0.000042   0.000009  -0.000082  -0.000152
     5  C    0.000001  -0.000001   0.000000  -0.000003   0.000001
     6  C   -0.030737  -0.004949   0.004852  -0.001178  -0.000132
     7  C    0.367135  -0.039545  -0.030690  -0.003306   0.004207
     8  C   -0.032046   0.376221   0.369206  -0.036219  -0.025355
     9  C    0.004670  -0.042744  -0.029148   0.349499   0.342916
    10  H   -0.000022   0.000115  -0.000027   0.001695  -0.000129
    11  H    0.000002  -0.000001   0.000000  -0.000032  -0.000011
    12  H   -0.000001  -0.000006   0.000000  -0.000003   0.000003
    13  H    0.000000  -0.000000  -0.000000  -0.000001   0.000000
    14  H   -0.000000  -0.000000  -0.000000  -0.000000  -0.000000
    15  H    0.000006   0.000000  -0.000000   0.000000   0.000000
    16  H   -0.003918   0.004679  -0.000025   0.000111  -0.000039
    17  H   -0.002334  -0.000006  -0.000181  -0.000014   0.000017
    18  H   -0.036065   0.005831  -0.004213   0.004711  -0.000031
    19  H    0.595715  -0.004180  -0.002155  -0.000035  -0.000144
    20  H   -0.004180   0.596468  -0.036701   0.005795  -0.003320
    21  H   -0.002155  -0.036701   0.592198  -0.006326  -0.002487
    22  H   -0.000035   0.005795  -0.006326   0.587276  -0.027192
    23  H   -0.000144  -0.003320  -0.002487  -0.027192   0.561598
 Mulliken charges:
               1
     1  O   -0.450153
     2  C    0.446271
     3  C   -0.167164
     4  C   -0.245244
     5  C   -0.454003
     6  C   -0.271488
     7  C   -0.266339
     8  C   -0.268399
     9  C   -0.340639
    10  H    0.136287
    11  H    0.153619
    12  H    0.139803
    13  H    0.139353
    14  H    0.147552
    15  H    0.143455
    16  H    0.139446
    17  H    0.145038
    18  H    0.132478
    19  H    0.139751
    20  H    0.144819
    21  H    0.142579
    22  H    0.151107
    23  H    0.161873
 Sum of Mulliken charges =  -0.00000
 Mulliken charges with hydrogens summed into heavy atoms:
               1
     1  O   -0.450153
     2  C    0.446271
     3  C   -0.030877
     4  C    0.048178
     5  C   -0.023644
     6  C    0.012996
     7  C    0.005891
     8  C    0.018999
     9  C   -0.027660
 APT charges:
               1
     1  O   -0.634394
     2  C    0.700340
     3  C   -0.049756
     4  C    0.113566
     5  C    0.084915
     6  C    0.113821
     7  C    0.115225
     8  C    0.144318
     9  C   -0.062645
    10  H   -0.040238
    11  H   -0.026342
    12  H   -0.040939
    13  H   -0.029999
    14  H   -0.036330
    15  H   -0.023217
    16  H   -0.040287
    17  H   -0.042132
    18  H   -0.049897
    19  H   -0.056294
    20  H   -0.041976
    21  H   -0.053916
    22  H   -0.014195
    23  H   -0.029628
 Sum of APT charges =  -0.00000
 APT charges with hydrogens summed into heavy atoms:
               1
     1  O   -0.634394
     2  C    0.700340
     3  C   -0.089994
     4  C    0.046284
     5  C   -0.004631
     6  C    0.031403
     7  C    0.009035
     8  C    0.048426
     9  C   -0.106468
 Electronic spatial extent (au):  <R**2>=           1383.0376
 Charge=             -0.0000 electrons
 Dipole moment (field-independent basis, Debye):
    X=             -0.7373    Y=             -2.6057    Z=              0.8668  Tot=              2.8434
 Quadrupole moment (field-independent basis, Debye-Ang):
   XX=            -54.0174   YY=            -63.3264   ZZ=            -55.1109
   XY=              0.0640   XZ=             -0.2591   YZ=              2.0726
 Traceless Quadrupole moment (field-independent basis, Debye-Ang):
   XX=              3.4675   YY=             -5.8415   ZZ=              2.3740
   XY=              0.0640   XZ=             -0.2591   YZ=              2.0726
 Octapole moment (field-independent basis, Debye-Ang**2):
  XXX=             -4.8600  YYY=            -11.4464  ZZZ=             -0.6568  XYY=             -0.9878
  XXY=              5.6364  XXZ=             -0.6910  XZZ=             -1.0988  YZZ=              2.6288
  YYZ=              3.4013  XYZ=             -0.1140
 Hexadecapole moment (field-independent basis, Debye-Ang**3):
 XXXX=          -1156.3234 YYYY=           -585.9222 ZZZZ=           -132.3930 XXXY=              5.7646
 XXXZ=             -6.0758 YYYX=              0.8165 YYYZ=              9.4458 ZZZX=              0.2226
 ZZZY=             -3.3813 XXYY=           -282.8662 XXZZ=           -217.1596 YYZZ=           -114.7302
 XXYZ=             -0.2073 YYXZ=              0.6101 ZZXY=              0.2289
 N-N= 4.700256540250D+02 E-N=-1.841403333443D+03  KE= 3.847554817230D+02
  Exact polarizability:  94.001   1.392  84.665  -1.176  -1.714  70.010
 Approx polarizability: 112.533   4.289 124.503  -2.371  -7.239 110.059
 Calling FoFJK, ICntrl=    100127 FMM=F ISym2X=0 I1Cent= 0 IOpClX= 0 NMat=1 NMatS=1 NMatT=0.
 Full mass-weighted force constant matrix:
 Low frequencies ---   -7.1412   -2.8230   -0.0004    0.0006    0.0009   11.4810
 Low frequencies ---   70.3572   84.9014  137.1610
 Diagonal vibrational polarizability:
        6.8977324       3.1430054       8.1655513
 Harmonic frequencies (cm**-1), IR intensities (KM/Mole), Raman scattering
 activities (A**4/AMU), depolarization ratios for plane and unpolarized
 incident light, reduced masses (AMU), force constants (mDyne/A),
 and normal coordinates:
                      1                      2                      3
                      A                      A                      A
 Frequencies --     70.3534                84.8995               137.1609
 Red. masses --      2.4912                 2.6871                 2.2942
 Frc consts  --      0.0073                 0.0114                 0.0254
 IR Inten    --      0.2278                 1.6897                 0.4297
  Atom  AN      X      Y      Z        X      Y      Z        X      Y      Z
     1   8    -0.02  -0.04  -0.09     0.06   0.08   0.21    -0.03  -0.08  -0.07
     2   6     0.01  -0.02  -0.01     0.01   0.00   0.00     0.00  -0.03   0.07
     3   6     0.01  -0.03  -0.07    -0.00  -0.03  -0.07     0.01  -0.02   0.08
     4   6     0.02  -0.04  -0.05    -0.02  -0.06  -0.18    -0.03  -0.01  -0.04
     5   6     0.02   0.06   0.20     0.03   0.09   0.06     0.06   0.09  -0.05
     6   6    -0.04   0.03  -0.15    -0.03  -0.06   0.03     0.01  -0.05   0.13
     7   6    -0.01   0.00  -0.08    -0.03  -0.02   0.06    -0.08   0.03  -0.08
     8   6    -0.03   0.03   0.11    -0.01  -0.02  -0.05     0.02   0.10  -0.12
     9   6     0.05  -0.01   0.13    -0.02   0.00  -0.10     0.02  -0.02   0.11
    10   1     0.01  -0.10  -0.08     0.07   0.03  -0.06     0.07   0.02   0.09
    11   1    -0.05   0.03  -0.20    -0.07   0.05  -0.42    -0.04   0.04  -0.14
    12   1     0.09  -0.23  -0.07    -0.04  -0.34  -0.21    -0.12  -0.10  -0.05
    13   1    -0.01   0.32   0.23     0.10   0.44   0.10     0.23   0.26  -0.03
    14   1     0.02  -0.00   0.14    -0.00   0.01  -0.13     0.00   0.07  -0.25
    15   1     0.04  -0.05   0.43     0.02  -0.06   0.38     0.02   0.01   0.13
    16   1    -0.12   0.14  -0.14    -0.04  -0.13   0.02     0.17  -0.13   0.12
    17   1    -0.03   0.01  -0.28    -0.03  -0.05   0.07    -0.06  -0.07   0.28
    18   1     0.08  -0.10  -0.10    -0.04   0.07   0.08    -0.25  -0.04  -0.09
    19   1    -0.06   0.05  -0.13    -0.03  -0.06   0.13    -0.06   0.08  -0.18
    20   1    -0.14   0.10   0.13     0.04  -0.09  -0.06     0.21   0.24  -0.12
    21   1     0.01   0.01   0.20    -0.03   0.01  -0.07    -0.05   0.12  -0.31
    22   1     0.16  -0.07   0.13    -0.08   0.06  -0.10     0.03  -0.22   0.09
    23   1     0.03   0.01   0.24     0.01   0.00  -0.17     0.03   0.03   0.26
                      4                      5                      6
                      A                      A                      A
 Frequencies --    201.1245               225.7806               305.7815
 Red. masses --      2.9297                 1.2090                 1.8170
 Frc consts  --      0.0698                 0.0363                 0.1001
 IR Inten    --      2.7939                 0.0624                 0.4066
  Atom  AN      X      Y      Z        X      Y      Z        X      Y      Z
     1   8     0.15  -0.11  -0.00     0.00   0.01   0.01    -0.06  -0.05  -0.01
     2   6     0.03  -0.07   0.00     0.00  -0.01  -0.02    -0.01  -0.03   0.06
     3   6    -0.02  -0.11   0.04    -0.00  -0.02  -0.06     0.02  -0.03  -0.01
     4   6    -0.04   0.04   0.10    -0.01  -0.00  -0.05     0.03  -0.01   0.01
     5   6     0.14   0.18  -0.05    -0.00   0.04   0.03     0.03  -0.01   0.01
     6   6    -0.09  -0.03  -0.07    -0.01  -0.06   0.02    -0.05   0.05  -0.09
     7   6    -0.08   0.00   0.01    -0.03   0.00   0.01     0.02   0.07   0.14
     8   6    -0.09   0.01   0.05     0.01   0.03  -0.01     0.05   0.03  -0.11
     9   6    -0.02   0.06  -0.08     0.02  -0.00   0.04    -0.03  -0.03   0.03
    10   1    -0.06  -0.19   0.03     0.03   0.02  -0.05     0.04  -0.13  -0.03
    11   1    -0.17   0.02   0.22    -0.06   0.01  -0.06     0.02  -0.02   0.03
    12   1    -0.06   0.18   0.12     0.04  -0.02  -0.06     0.05   0.01   0.01
    13   1     0.24   0.07  -0.07    -0.40  -0.32  -0.00     0.03  -0.02   0.01
    14   1     0.05   0.40  -0.07     0.06   0.30   0.53     0.03  -0.00   0.01
    15   1     0.29   0.20  -0.15     0.32   0.17  -0.35     0.04  -0.01   0.00
    16   1    -0.16   0.07  -0.05     0.02  -0.15   0.01    -0.27   0.17  -0.08
    17   1    -0.10  -0.08  -0.19    -0.02  -0.05   0.11    -0.01   0.03  -0.31
    18   1    -0.02   0.01   0.01    -0.05   0.02   0.02     0.12   0.40   0.22
    19   1    -0.13   0.00   0.04    -0.05   0.00   0.03    -0.00  -0.08   0.44
    20   1    -0.19  -0.06   0.05     0.06   0.06  -0.01     0.32   0.02  -0.14
    21   1    -0.05   0.04   0.17    -0.01   0.05  -0.06    -0.04   0.05  -0.35
    22   1    -0.10   0.20  -0.07     0.07  -0.06   0.03    -0.10  -0.13   0.01
    23   1     0.06   0.07  -0.23     0.02   0.01   0.11     0.01   0.01   0.05
                      7                      8                      9
                      A                      A                      A
 Frequencies --    325.4920               338.4192               417.4963
 Red. masses --      3.5220                 2.2345                 3.0087
 Frc consts  --      0.2198                 0.1508                 0.3090
 IR Inten    --      4.0108                 1.4307                 0.4035
  Atom  AN      X      Y      Z        X      Y      Z        X      Y      Z
     1   8    -0.17   0.06   0.00     0.06  -0.09  -0.03     0.04   0.14  -0.05
     2   6    -0.02   0.02   0.00     0.01  -0.01   0.12     0.01   0.14  -0.04
     3   6     0.07   0.05   0.06     0.01   0.03   0.16    -0.13   0.01   0.06
     4   6     0.16  -0.14  -0.01    -0.07  -0.04  -0.11    -0.11  -0.14   0.07
     5   6     0.27  -0.07  -0.00    -0.08   0.00  -0.01     0.05   0.01  -0.02
     6   6    -0.04   0.10   0.06     0.02   0.13   0.01    -0.10   0.02  -0.01
     7   6    -0.07   0.03  -0.04     0.06   0.00  -0.03    -0.01  -0.16   0.03
     8   6    -0.14  -0.03   0.00     0.02  -0.03   0.00     0.14  -0.05  -0.01
     9   6    -0.06  -0.03  -0.06    -0.05   0.03  -0.03     0.08  -0.01   0.02
    10   1     0.07   0.09   0.07     0.13  -0.03   0.14    -0.24   0.04   0.07
    11   1     0.22  -0.09  -0.15     0.01   0.05  -0.39    -0.10  -0.10  -0.03
    12   1     0.12  -0.27  -0.02    -0.23  -0.32  -0.14    -0.18  -0.20   0.06
    13   1     0.23  -0.19  -0.02    -0.28  -0.10  -0.02     0.19  -0.04  -0.03
    14   1     0.22   0.14   0.10    -0.04   0.09   0.23    -0.06   0.25  -0.09
    15   1     0.47  -0.04  -0.13     0.08   0.04  -0.13     0.24   0.01  -0.07
    16   1    -0.02   0.16   0.06    -0.03   0.35   0.04    -0.25   0.19   0.01
    17   1    -0.07   0.06   0.00     0.07   0.12  -0.19     0.06   0.11  -0.22
    18   1    -0.12  -0.04  -0.05     0.06  -0.08  -0.05    -0.03  -0.25   0.01
    19   1     0.03   0.04  -0.11     0.12   0.03  -0.12    -0.02  -0.09  -0.08
    20   1    -0.27  -0.06   0.01    -0.00  -0.04   0.00     0.34  -0.04  -0.03
    21   1    -0.09  -0.04   0.13     0.03  -0.07   0.01     0.05   0.07  -0.19
    22   1    -0.10   0.01  -0.06    -0.23   0.14  -0.02     0.20  -0.08   0.02
    23   1    -0.01  -0.01  -0.10     0.00   0.01  -0.22    -0.10  -0.11   0.14
                     10                     11                     12
                      A                      A                      A
 Frequencies --    426.0088               511.9805               568.0215
 Red. masses --      2.9685                 1.9352                 3.9340
 Frc consts  --      0.3174                 0.2989                 0.7478
 IR Inten    --      0.3821                 1.8716                 6.2883
  Atom  AN      X      Y      Z        X      Y      Z        X      Y      Z
     1   8    -0.11   0.00   0.00     0.08   0.00   0.01    -0.23   0.04   0.04
     2   6    -0.09   0.02   0.05    -0.05   0.00  -0.08     0.12  -0.09  -0.04
     3   6    -0.06  -0.08  -0.04    -0.07  -0.00   0.02     0.05  -0.10   0.12
     4   6    -0.05  -0.11   0.02    -0.08  -0.09   0.04    -0.11  -0.05   0.05
     5   6     0.06  -0.03  -0.00     0.01  -0.01  -0.01    -0.09   0.04  -0.01
     6   6     0.11  -0.12  -0.07     0.09   0.03  -0.01     0.02  -0.02  -0.01
     7   6     0.12   0.03  -0.04     0.09   0.13  -0.02     0.01   0.07  -0.01
     8   6     0.12   0.09   0.07    -0.08  -0.01  -0.03     0.04   0.08   0.00
     9   6    -0.11   0.18   0.03    -0.04  -0.05   0.02     0.27  -0.02  -0.15
    10   1    -0.12  -0.14  -0.05    -0.17   0.03   0.03    -0.01  -0.09   0.12
    11   1    -0.06  -0.09  -0.01    -0.05  -0.05  -0.08    -0.15   0.01  -0.06
    12   1    -0.04  -0.13   0.02    -0.13  -0.18   0.02    -0.25  -0.13   0.04
    13   1     0.15  -0.02  -0.00     0.11  -0.02  -0.01    -0.07   0.01  -0.02
    14   1    -0.01   0.11  -0.06    -0.06   0.15  -0.06    -0.11   0.08  -0.02
    15   1     0.17  -0.04   0.00     0.13  -0.01  -0.03    -0.07   0.05  -0.04
    16   1     0.23  -0.22  -0.08     0.24  -0.04  -0.02     0.04   0.12   0.01
    17   1     0.10  -0.09   0.11     0.04   0.03   0.15    -0.04  -0.09  -0.11
    18   1     0.18  -0.02  -0.05     0.18   0.39   0.04     0.04   0.19   0.01
    19   1    -0.05   0.09  -0.03     0.10  -0.02   0.24    -0.05   0.03   0.10
    20   1     0.16   0.13   0.07    -0.29  -0.01  -0.01    -0.23  -0.02   0.01
    21   1     0.12  -0.03  -0.02     0.03  -0.14   0.16     0.12   0.19   0.30
    22   1    -0.34   0.45   0.05     0.22  -0.30  -0.00     0.30   0.01  -0.14
    23   1    -0.04   0.12  -0.33    -0.13  -0.02   0.36     0.41   0.08  -0.14
                     13                     14                     15
                      A                      A                      A
 Frequencies --    668.7096               744.9797               779.3086
 Red. masses --      2.9836                 2.0259                 1.3282
 Frc consts  --      0.7861                 0.6625                 0.4753
 IR Inten    --      1.9591                 4.4929                 2.2466
  Atom  AN      X      Y      Z        X      Y      Z        X      Y      Z
     1   8     0.01   0.11  -0.11    -0.01  -0.05  -0.00    -0.00   0.03  -0.01
     2   6     0.10   0.19   0.24     0.06  -0.02   0.10    -0.02   0.03  -0.01
     3   6     0.04  -0.04   0.05    -0.07   0.08  -0.13     0.04  -0.08   0.03
     4   6     0.00   0.01  -0.01    -0.06  -0.08  -0.02    -0.02  -0.05  -0.07
     5   6    -0.02   0.01  -0.00    -0.01  -0.02  -0.00    -0.01  -0.01  -0.03
     6   6    -0.01  -0.12  -0.08    -0.06   0.13   0.03     0.03  -0.02   0.05
     7   6    -0.03  -0.04  -0.04     0.01   0.04  -0.02     0.03   0.01   0.02
     8   6    -0.06  -0.07  -0.07     0.02  -0.03   0.00    -0.00   0.01  -0.02
     9   6     0.01  -0.01   0.01     0.08  -0.06   0.00    -0.04   0.04  -0.02
    10   1     0.14  -0.29  -0.00    -0.03   0.01  -0.14     0.19   0.00   0.04
    11   1     0.00   0.01   0.00    -0.02  -0.23   0.32     0.01  -0.25   0.40
    12   1    -0.04   0.02  -0.00     0.08   0.29   0.03    -0.02   0.45  -0.00
    13   1    -0.07   0.03   0.00     0.02   0.17   0.02    -0.22   0.30   0.02
    14   1     0.01  -0.03   0.03    -0.10   0.22  -0.01     0.01   0.07   0.13
    15   1    -0.05   0.01   0.01     0.27  -0.12   0.13     0.21  -0.15   0.23
    16   1     0.17  -0.27  -0.10     0.12  -0.19  -0.01    -0.13   0.18   0.07
    17   1    -0.05  -0.10   0.17    -0.03   0.24   0.39     0.05  -0.07  -0.22
    18   1     0.09   0.32   0.04     0.02   0.05  -0.02    -0.08  -0.08  -0.01
    19   1    -0.09  -0.23   0.32     0.13  -0.00  -0.02     0.05   0.07  -0.09
    20   1    -0.36  -0.12  -0.04     0.00  -0.01   0.01    -0.09  -0.05  -0.02
    21   1     0.05  -0.05   0.25     0.02   0.02   0.03     0.04  -0.05   0.07
    22   1    -0.24  -0.14  -0.02    -0.19   0.10   0.01     0.07  -0.13  -0.03
    23   1    -0.03  -0.04  -0.02     0.20  -0.05  -0.26    -0.10   0.05   0.17
                     16                     17                     18
                      A                      A                      A
 Frequencies --    841.2358               862.2554               871.8010
 Red. masses --      2.0260                 2.1875                 2.0165
 Frc consts  --      0.8448                 0.9582                 0.9030
 IR Inten    --      9.0623                 1.0972                 2.5025
  Atom  AN      X      Y      Z        X      Y      Z        X      Y      Z
     1   8    -0.01  -0.08   0.01     0.01   0.05  -0.03     0.02  -0.00   0.01
     2   6    -0.10   0.00   0.10     0.03   0.04   0.01    -0.06  -0.00  -0.05
     3   6    -0.10   0.05  -0.04     0.07  -0.10  -0.04    -0.05   0.02   0.13
     4   6     0.02   0.05  -0.02    -0.00  -0.02   0.04     0.04   0.05  -0.06
     5   6     0.06  -0.03   0.02    -0.03   0.04   0.01     0.07  -0.02  -0.03
     6   6    -0.05  -0.02   0.03    -0.08   0.01   0.04    -0.09  -0.02  -0.04
     7   6     0.02  -0.01   0.02     0.03   0.20   0.02    -0.05   0.06  -0.08
     8   6     0.13   0.06  -0.05     0.09  -0.04   0.05     0.13  -0.01   0.07
     9   6     0.03   0.05  -0.10    -0.06  -0.10  -0.03     0.01  -0.09  -0.01
    10   1    -0.02  -0.02  -0.05     0.10  -0.18  -0.06    -0.09   0.04   0.13
    11   1     0.02   0.08  -0.08    -0.17   0.05  -0.05     0.14  -0.01   0.05
    12   1     0.10  -0.03  -0.03     0.08  -0.14   0.02    -0.18   0.21  -0.04
    13   1     0.09  -0.10   0.01     0.08  -0.13  -0.01    -0.25   0.17   0.01
    14   1     0.07  -0.09  -0.01    -0.04  -0.01  -0.08     0.20  -0.17   0.21
    15   1    -0.02   0.00  -0.03    -0.17   0.12  -0.12     0.06  -0.11   0.16
    16   1    -0.20  -0.05   0.02    -0.14  -0.11   0.02     0.19  -0.02  -0.04
    17   1     0.07   0.07  -0.03    -0.29  -0.15   0.07    -0.22  -0.08   0.15
    18   1    -0.13  -0.07   0.01    -0.11  -0.19  -0.07     0.14   0.29  -0.03
    19   1    -0.07   0.08  -0.08     0.06   0.41  -0.35    -0.25  -0.03   0.20
    20   1    -0.36  -0.20  -0.04     0.11  -0.13   0.03     0.12   0.12   0.09
    21   1     0.32   0.10   0.48     0.13  -0.21   0.02     0.13  -0.03   0.04
    22   1     0.10  -0.38  -0.14    -0.11  -0.12  -0.03     0.08   0.14   0.02
    23   1    -0.08   0.06   0.24    -0.20  -0.21  -0.05    -0.18  -0.27  -0.17
                     19                     20                     21
                      A                      A                      A
 Frequencies --    911.5476               946.7747               990.0303
 Red. masses --      1.3907                 2.0581                 1.8239
 Frc consts  --      0.6808                 1.0870                 1.0533
 IR Inten    --      1.3625                 1.0233                 1.5755
  Atom  AN      X      Y      Z        X      Y      Z        X      Y      Z
     1   8     0.01   0.01   0.00    -0.02   0.01   0.00    -0.01  -0.03   0.02
     2   6     0.01  -0.01  -0.04     0.02  -0.01  -0.02    -0.04  -0.02  -0.02
     3   6     0.01   0.01  -0.04    -0.06  -0.12  -0.00     0.08   0.01   0.03
     4   6    -0.00  -0.01   0.01    -0.01   0.04  -0.03     0.07  -0.06   0.01
     5   6    -0.02   0.01   0.01     0.09   0.01  -0.00    -0.11   0.04   0.01
     6   6    -0.02  -0.05   0.09    -0.11   0.07   0.07    -0.10   0.03   0.00
     7   6     0.00   0.00  -0.07     0.09  -0.01  -0.04    -0.01  -0.04  -0.07
     8   6     0.05  -0.01  -0.06    -0.03  -0.08  -0.06     0.06  -0.05   0.01
     9   6    -0.00  -0.03   0.09     0.03   0.13   0.06    -0.02   0.12  -0.02
    10   1     0.02   0.29   0.02    -0.10  -0.15  -0.01     0.33   0.02   0.02
    11   1    -0.06  -0.00   0.02    -0.29   0.09  -0.00     0.13  -0.10   0.07
    12   1     0.12  -0.03   0.01    -0.08   0.07  -0.03     0.34  -0.06   0.01
    13   1     0.09  -0.07  -0.00    -0.14  -0.08  -0.00     0.16  -0.02  -0.01
    14   1    -0.06   0.05  -0.08     0.28  -0.38   0.13    -0.27   0.31  -0.18
    15   1    -0.04   0.05  -0.06    -0.25   0.05   0.00     0.03   0.08  -0.11
    16   1    -0.24   0.23   0.12    -0.03  -0.04   0.06     0.15  -0.02  -0.00
    17   1     0.05  -0.09  -0.29    -0.18   0.05   0.18    -0.25  -0.05   0.17
    18   1    -0.21   0.32   0.01     0.10   0.06  -0.02     0.21   0.15  -0.03
    19   1     0.04  -0.14   0.15     0.39  -0.15   0.00    -0.02  -0.17   0.15
    20   1    -0.29   0.22   0.01    -0.04  -0.03  -0.05     0.07  -0.07   0.01
    21   1     0.19  -0.18   0.21     0.01  -0.22  -0.06     0.06  -0.10  -0.02
    22   1    -0.24   0.21   0.11     0.13   0.14   0.06     0.29   0.01  -0.02
    23   1     0.03  -0.10  -0.24     0.14   0.21   0.09    -0.13   0.11   0.21
                     22                     23                     24
                      A                      A                      A
 Frequencies --   1010.8998              1047.2050              1078.2711
 Red. masses --      1.6115                 2.0729                 1.3872
 Frc consts  --      0.9703                 1.3393                 0.9503
 IR Inten    --      8.5004                 0.3596                 4.4183
  Atom  AN      X      Y      Z        X      Y      Z        X      Y      Z
     1   8    -0.01  -0.01   0.01    -0.00   0.01   0.01     0.01  -0.00  -0.00
     2   6     0.06  -0.03  -0.02     0.01  -0.02  -0.05    -0.08   0.04   0.03
     3   6    -0.01   0.09   0.04     0.00  -0.06  -0.00    -0.02  -0.01   0.02
     4   6     0.05   0.01   0.04     0.14  -0.10   0.06     0.03   0.04   0.00
     5   6    -0.04  -0.00  -0.05    -0.06   0.12  -0.09    -0.03  -0.02  -0.00
     6   6    -0.07  -0.09  -0.04    -0.00   0.09   0.00    -0.03  -0.04   0.02
     7   6     0.05   0.06   0.02    -0.00  -0.08   0.03     0.09   0.00  -0.01
     8   6    -0.01  -0.06  -0.05     0.04   0.09  -0.03    -0.06   0.04   0.00
     9   6     0.00   0.05   0.05    -0.05  -0.03   0.02     0.05  -0.05  -0.04
    10   1    -0.33   0.10   0.05    -0.34  -0.28  -0.03     0.05  -0.31  -0.04
    11   1     0.41  -0.00  -0.10     0.20  -0.09  -0.01     0.22   0.02  -0.06
    12   1    -0.19  -0.07   0.03    -0.01  -0.15   0.06     0.03  -0.04  -0.01
    13   1    -0.13   0.22  -0.01    -0.36   0.22  -0.06     0.06   0.05   0.01
    14   1    -0.06   0.15   0.07     0.06  -0.07   0.10    -0.09   0.14  -0.02
    15   1     0.18  -0.10   0.11    -0.20   0.08   0.03     0.14  -0.05   0.02
    16   1    -0.21  -0.19  -0.05     0.00  -0.13  -0.03    -0.30  -0.20  -0.00
    17   1    -0.11  -0.12  -0.03     0.12   0.23   0.17    -0.05  -0.07  -0.04
    18   1    -0.04  -0.13  -0.02    -0.10  -0.02   0.05    -0.09   0.02   0.00
    19   1     0.02   0.16  -0.14     0.10  -0.10   0.02     0.44  -0.10  -0.06
    20   1    -0.04  -0.19  -0.06    -0.20   0.10  -0.00    -0.02   0.40   0.05
    21   1     0.07  -0.34  -0.02     0.09   0.22   0.21    -0.10   0.13  -0.06
    22   1    -0.09  -0.02   0.04    -0.22  -0.10   0.00     0.29   0.25   0.01
    23   1     0.23   0.23   0.06    -0.14  -0.11  -0.04    -0.09  -0.17  -0.11
                     25                     26                     27
                      A                      A                      A
 Frequencies --   1085.3538              1100.2189              1148.2853
 Red. masses --      1.5669                 2.4628                 1.6750
 Frc consts  --      1.0875                 1.7565                 1.3013
 IR Inten    --      0.3447                 6.3740                18.2184
  Atom  AN      X      Y      Z        X      Y      Z        X      Y      Z
     1   8     0.00   0.00  -0.01    -0.00   0.02   0.01     0.02   0.01   0.00
     2   6     0.03  -0.00   0.01     0.08  -0.06  -0.10    -0.11   0.02  -0.03
     3   6    -0.03   0.02   0.01     0.16   0.02   0.02    -0.01  -0.09  -0.00
     4   6     0.02  -0.03  -0.02    -0.13   0.10   0.01     0.03   0.06  -0.01
     5   6     0.00   0.03   0.00     0.03  -0.11   0.04    -0.02  -0.04   0.00
     6   6    -0.09  -0.07   0.02    -0.08   0.05  -0.04     0.05   0.04  -0.01
     7   6     0.12  -0.02  -0.02     0.03  -0.09   0.02    -0.06   0.03   0.04
     8   6    -0.05   0.10   0.03     0.06   0.09  -0.03     0.01  -0.06  -0.06
     9   6    -0.02  -0.06  -0.02    -0.10   0.00   0.04     0.08   0.03   0.09
    10   1    -0.06   0.42   0.09     0.20  -0.13  -0.02    -0.09   0.00   0.02
    11   1    -0.04  -0.05   0.06    -0.09   0.14  -0.10     0.13   0.06  -0.06
    12   1     0.12   0.04  -0.01    -0.40   0.04   0.01     0.05  -0.03  -0.02
    13   1    -0.01  -0.04  -0.01     0.18  -0.03   0.05     0.08   0.05   0.01
    14   1     0.03  -0.04  -0.01    -0.08   0.13   0.00    -0.10   0.15  -0.02
    15   1    -0.10   0.06  -0.04     0.28  -0.16   0.07     0.16  -0.07   0.02
    16   1     0.04   0.11   0.05    -0.05  -0.29  -0.08     0.24   0.17   0.01
    17   1    -0.23  -0.20  -0.04    -0.12   0.07   0.21    -0.31  -0.27  -0.03
    18   1     0.53  -0.13  -0.05     0.05  -0.07   0.03     0.06  -0.10   0.00
    19   1     0.15  -0.05   0.00     0.17  -0.14   0.01     0.23  -0.01  -0.07
    20   1     0.05  -0.01   0.00    -0.20   0.08  -0.01    -0.04  -0.36  -0.10
    21   1    -0.12   0.32  -0.01     0.12   0.13   0.19    -0.04   0.47   0.16
    22   1    -0.29  -0.25  -0.06    -0.26  -0.14   0.01    -0.28  -0.00   0.06
    23   1     0.07   0.02  -0.01    -0.16  -0.04   0.02     0.03  -0.08  -0.14
                     28                     29                     30
                      A                      A                      A
 Frequencies --   1158.4901              1174.7475              1242.6349
 Red. masses --      2.1283                 2.1582                 1.5011
 Frc consts  --      1.6829                 1.7548                 1.3657
 IR Inten    --     16.2322                 6.6666                13.1446
  Atom  AN      X      Y      Z        X      Y      Z        X      Y      Z
     1   8     0.01  -0.05   0.01     0.02   0.01   0.01     0.03   0.02  -0.01
     2   6    -0.10   0.03   0.05    -0.10   0.00  -0.07    -0.12   0.03  -0.02
     3   6     0.14   0.11  -0.09     0.02   0.08   0.13     0.02  -0.03  -0.04
     4   6    -0.07  -0.10   0.12    -0.02  -0.09  -0.08     0.00   0.03   0.08
     5   6     0.05   0.04  -0.06     0.02   0.06   0.05    -0.00  -0.02  -0.06
     6   6     0.02  -0.01  -0.02    -0.02  -0.02  -0.11    -0.04   0.01   0.06
     7   6    -0.03   0.00  -0.01     0.03   0.00   0.09     0.03  -0.03  -0.02
     8   6     0.01  -0.05  -0.00    -0.01   0.01  -0.10    -0.01   0.04  -0.01
     9   6     0.03   0.04  -0.01     0.04  -0.04   0.07     0.02  -0.07   0.01
    10   1     0.17   0.29  -0.05     0.32  -0.05   0.09     0.38  -0.22  -0.08
    11   1    -0.15  -0.02  -0.01    -0.12  -0.18   0.20    -0.06   0.11  -0.10
    12   1    -0.36  -0.13   0.12     0.18   0.19  -0.04     0.05  -0.20   0.05
    13   1    -0.31   0.10  -0.04     0.07  -0.21   0.01    -0.12   0.17  -0.03
    14   1     0.20  -0.20   0.16     0.05  -0.15  -0.09     0.03   0.03   0.11
    15   1    -0.19  -0.00   0.11    -0.25   0.18  -0.13     0.10  -0.11   0.12
    16   1    -0.08  -0.09  -0.04    -0.02  -0.30  -0.15     0.02   0.10   0.07
    17   1    -0.27  -0.27  -0.09     0.01   0.07   0.14     0.07   0.09   0.02
    18   1    -0.06   0.04  -0.00    -0.09  -0.22   0.04     0.28  -0.05  -0.02
    19   1     0.21  -0.09  -0.01    -0.04   0.16  -0.14    -0.39   0.09   0.06
    20   1     0.02  -0.01   0.00    -0.19  -0.00  -0.08    -0.01  -0.03  -0.02
    21   1    -0.04   0.23   0.03     0.07  -0.02   0.11     0.04  -0.18  -0.02
    22   1     0.16   0.09   0.00    -0.04   0.20   0.09    -0.06   0.01   0.01
    23   1    -0.11  -0.06   0.01     0.24   0.03  -0.17     0.46   0.24  -0.08
                     31                     32                     33
                      A                      A                      A
 Frequencies --   1271.1869              1291.4188              1306.0275
 Red. masses --      1.3916                 1.3075                 1.2492
 Frc consts  --      1.3249                 1.2848                 1.2554
 IR Inten    --      0.2284                 1.6696                 0.5014
  Atom  AN      X      Y      Z        X      Y      Z        X      Y      Z
     1   8    -0.01  -0.02  -0.00     0.01   0.01  -0.01     0.00   0.01  -0.00
     2   6     0.05   0.01   0.04    -0.05   0.03   0.03     0.01  -0.01  -0.02
     3   6    -0.03  -0.05  -0.02     0.03  -0.03  -0.01    -0.05  -0.01   0.05
     4   6     0.01   0.03   0.03     0.01  -0.00  -0.03    -0.01   0.02   0.03
     5   6    -0.01  -0.02  -0.04    -0.00  -0.00   0.03    -0.00  -0.02  -0.06
     6   6    -0.03   0.01  -0.05     0.03   0.05  -0.03     0.01  -0.01  -0.06
     7   6     0.01  -0.02   0.10    -0.02  -0.05   0.04    -0.01   0.01   0.00
     8   6    -0.01   0.03  -0.09     0.04   0.02   0.03     0.01  -0.02   0.06
     9   6    -0.01  -0.01   0.00    -0.04  -0.05  -0.05     0.00   0.02  -0.02
    10   1     0.04   0.40   0.07    -0.28   0.09   0.01     0.28   0.21   0.09
    11   1    -0.13   0.09  -0.06     0.05  -0.03   0.02    -0.24   0.10  -0.02
    12   1     0.17  -0.11   0.01    -0.13   0.09  -0.02     0.48  -0.18   0.01
    13   1    -0.06   0.11  -0.02     0.06  -0.05   0.02    -0.10   0.14  -0.04
    14   1    -0.00   0.05   0.06    -0.04   0.04  -0.05     0.05   0.00   0.11
    15   1     0.08  -0.09   0.07    -0.03   0.04  -0.05     0.09  -0.12   0.12
    16   1     0.34   0.17  -0.02     0.19   0.06  -0.03    -0.01  -0.13  -0.08
    17   1    -0.08  -0.01   0.08    -0.37  -0.28  -0.01     0.03   0.04   0.04
    18   1     0.09  -0.24   0.05    -0.22  -0.01   0.06    -0.36   0.12   0.03
    19   1    -0.07   0.11  -0.08     0.12  -0.09   0.02     0.31  -0.09  -0.03
    20   1    -0.22   0.20  -0.04    -0.03   0.35   0.09     0.09   0.11   0.07
    21   1     0.09  -0.19   0.04     0.10  -0.28  -0.01    -0.02   0.01  -0.02
    22   1     0.33   0.32   0.06     0.01  -0.09  -0.05    -0.22  -0.25  -0.06
    23   1    -0.24  -0.19  -0.03     0.41   0.32   0.07     0.10   0.10   0.03
                     34                     35                     36
                      A                      A                      A
 Frequencies --   1334.2506              1347.5110              1360.0891
 Red. masses --      1.3426                 1.2809                 1.3283
 Frc consts  --      1.4083                 1.3704                 1.4477
 IR Inten    --      4.1412                 2.6749                 2.4747
  Atom  AN      X      Y      Z        X      Y      Z        X      Y      Z
     1   8    -0.01   0.01   0.00     0.00  -0.00  -0.00    -0.00  -0.01   0.01
     2   6     0.06  -0.03  -0.03    -0.04   0.01   0.00    -0.02  -0.01  -0.02
     3   6    -0.08   0.05  -0.03    -0.02  -0.11  -0.03     0.02   0.05   0.01
     4   6    -0.08  -0.00   0.02     0.01   0.01   0.02    -0.01  -0.01  -0.01
     5   6     0.03   0.04  -0.00    -0.00   0.03   0.03     0.01  -0.01  -0.01
     6   6     0.00  -0.03   0.01    -0.02   0.02  -0.03     0.01   0.01   0.02
     7   6    -0.04   0.00   0.03     0.01   0.01   0.01     0.02  -0.01   0.03
     8   6     0.02   0.03   0.00    -0.02  -0.02   0.01    -0.04  -0.03  -0.01
     9   6    -0.02  -0.00   0.00     0.06   0.03  -0.01     0.11   0.09  -0.01
    10   1     0.39  -0.35  -0.12     0.33   0.45   0.07    -0.13  -0.27  -0.05
    11   1     0.53  -0.12  -0.02     0.46  -0.08  -0.01    -0.15   0.02   0.01
    12   1     0.07  -0.05   0.02    -0.40   0.01   0.02     0.12   0.01  -0.01
    13   1    -0.04  -0.09  -0.01     0.07  -0.09   0.02    -0.03   0.03  -0.00
    14   1     0.10  -0.11   0.03     0.00  -0.04  -0.03    -0.01   0.03   0.00
    15   1    -0.11   0.04   0.03    -0.04   0.06  -0.04    -0.01  -0.01   0.01
    16   1     0.29   0.32   0.06    -0.02  -0.11  -0.04     0.03   0.08   0.03
    17   1    -0.12  -0.14  -0.05     0.18   0.22   0.08    -0.16  -0.15  -0.02
    18   1     0.01  -0.06   0.02    -0.03   0.01   0.01     0.11  -0.15   0.00
    19   1     0.26  -0.09  -0.02    -0.03   0.04  -0.03    -0.22   0.06   0.05
    20   1    -0.02  -0.00   0.00     0.02   0.20   0.04    -0.06   0.44   0.07
    21   1     0.06  -0.12   0.01    -0.02  -0.13  -0.06    -0.01  -0.28  -0.09
    22   1    -0.01  -0.03   0.00    -0.20  -0.20  -0.05    -0.35  -0.35  -0.08
    23   1    -0.02  -0.00  -0.01    -0.07  -0.07  -0.04    -0.29  -0.24  -0.08
                     37                     38                     39
                      A                      A                      A
 Frequencies --   1384.7815              1388.1503              1400.0427
 Red. masses --      1.4014                 1.4435                 1.4851
 Frc consts  --      1.5834                 1.6389                 1.7150
 IR Inten    --      1.3574                 7.4688                 1.2491
  Atom  AN      X      Y      Z        X      Y      Z        X      Y      Z
     1   8     0.01  -0.00   0.00    -0.00   0.01  -0.00     0.00   0.01  -0.00
     2   6    -0.05   0.01  -0.00     0.02  -0.02  -0.01     0.01  -0.01  -0.00
     3   6     0.03   0.04  -0.01    -0.00   0.02  -0.02    -0.01   0.01   0.01
     4   6     0.08  -0.03   0.00     0.03  -0.01   0.01     0.02  -0.01  -0.00
     5   6    -0.02  -0.02   0.01    -0.01  -0.00   0.01    -0.01   0.00  -0.00
     6   6    -0.08  -0.09  -0.02    -0.07  -0.05  -0.01     0.03  -0.03   0.01
     7   6    -0.04   0.03   0.02     0.10   0.02   0.02    -0.14   0.07   0.02
     8   6    -0.01   0.05   0.02     0.01  -0.13  -0.01     0.06  -0.09  -0.03
     9   6     0.04   0.00  -0.00    -0.04   0.01  -0.00    -0.05   0.01  -0.01
    10   1    -0.03  -0.10  -0.03     0.06  -0.12  -0.05     0.03  -0.01   0.01
    11   1    -0.35   0.09  -0.04    -0.04   0.03  -0.04    -0.10   0.02   0.01
    12   1    -0.30   0.12   0.02    -0.16   0.06   0.01    -0.04   0.01   0.00
    13   1     0.02   0.05   0.02     0.02   0.00   0.01     0.02   0.01  -0.00
    14   1    -0.07   0.06  -0.05    -0.02   0.01  -0.02    -0.00  -0.02   0.00
    15   1     0.03   0.01  -0.06     0.01   0.01  -0.02     0.04  -0.00  -0.01
    16   1     0.38   0.30   0.03     0.31   0.30   0.04    -0.18  -0.05   0.01
    17   1     0.30   0.22  -0.01     0.05   0.08   0.05     0.20   0.11  -0.01
    18   1    -0.07  -0.02   0.01    -0.34   0.06   0.03     0.62  -0.21  -0.05
    19   1     0.43  -0.11  -0.04    -0.26   0.18  -0.02     0.26  -0.04  -0.05
    20   1     0.09  -0.15  -0.01    -0.03   0.37   0.07    -0.14   0.48   0.08
    21   1     0.06  -0.25  -0.01    -0.13   0.55   0.08     0.04   0.15   0.07
    22   1    -0.07  -0.07  -0.02     0.01  -0.02  -0.00     0.06  -0.07  -0.02
    23   1    -0.01  -0.05  -0.05     0.09   0.14   0.07     0.16   0.17   0.02
                     40                     41                     42
                      A                      A                      A
 Frequencies --   1413.5783              1443.7626              1498.0123
 Red. masses --      1.6713                 1.2486                 1.0912
 Frc consts  --      1.9676                 1.5334                 1.4427
 IR Inten    --     10.0600                 2.7064                 5.8538
  Atom  AN      X      Y      Z        X      Y      Z        X      Y      Z
     1   8     0.01  -0.01   0.00    -0.00  -0.00   0.00    -0.00  -0.00   0.00
     2   6    -0.06   0.03   0.01     0.00  -0.00  -0.00    -0.00  -0.00  -0.01
     3   6     0.15  -0.04   0.00    -0.01   0.01  -0.00    -0.00   0.01   0.00
     4   6    -0.14   0.03  -0.01     0.03  -0.02   0.00     0.00  -0.00   0.00
     5   6     0.01   0.03  -0.02    -0.11   0.08  -0.04    -0.00  -0.00  -0.00
     6   6    -0.08  -0.04   0.00     0.01   0.01   0.00     0.00  -0.00   0.00
     7   6    -0.00   0.02  -0.00     0.00  -0.01   0.00    -0.01  -0.01   0.01
     8   6    -0.00  -0.01   0.00    -0.00   0.01   0.00    -0.00  -0.01  -0.01
     9   6     0.01  -0.00  -0.01     0.00   0.00   0.00     0.05  -0.04  -0.05
    10   1    -0.51   0.05   0.04     0.02  -0.02  -0.01     0.04  -0.03  -0.01
    11   1     0.35  -0.10   0.03    -0.09   0.01  -0.00    -0.01   0.01  -0.01
    12   1     0.49  -0.10  -0.03    -0.09   0.02   0.01    -0.01   0.01   0.00
    13   1    -0.01  -0.13  -0.03     0.48  -0.31  -0.09     0.00   0.00  -0.00
    14   1     0.10  -0.16   0.02     0.21  -0.45   0.26     0.00   0.00   0.01
    15   1     0.06  -0.05   0.11     0.47  -0.14   0.24    -0.00  -0.00   0.00
    16   1     0.17   0.11   0.03     0.00  -0.00  -0.00     0.01  -0.02  -0.00
    17   1     0.29   0.27   0.03    -0.07  -0.06  -0.02     0.01  -0.01  -0.03
    18   1     0.02  -0.02  -0.01    -0.02  -0.00   0.00     0.09   0.12   0.03
    19   1     0.07  -0.00  -0.01    -0.02  -0.00   0.01     0.02   0.06  -0.14
    20   1     0.03   0.05   0.01    -0.00  -0.01  -0.00     0.06   0.06  -0.00
    21   1     0.00   0.02   0.02     0.00  -0.02  -0.01     0.03  -0.02   0.07
    22   1    -0.02   0.01  -0.01    -0.00  -0.00  -0.00    -0.45   0.50   0.01
    23   1     0.04   0.03   0.03    -0.02  -0.01  -0.01    -0.12   0.07   0.67
                     43                     44                     45
                      A                      A                      A
 Frequencies --   1513.9314              1518.7470              1519.0450
 Red. masses --      1.0652                 1.0885                 1.0865
 Frc consts  --      1.4385                 1.4793                 1.4771
 IR Inten    --      3.0113                 3.8247                 4.7831
  Atom  AN      X      Y      Z        X      Y      Z        X      Y      Z
     1   8    -0.00   0.00  -0.00    -0.00   0.00  -0.00     0.00   0.00  -0.00
     2   6     0.00   0.00  -0.00     0.01  -0.00  -0.00    -0.01   0.00  -0.00
     3   6    -0.00  -0.01   0.00    -0.01  -0.00   0.00     0.01  -0.01  -0.00
     4   6    -0.00  -0.05   0.03     0.00   0.00  -0.00    -0.00  -0.02   0.01
     5   6     0.01   0.02  -0.01     0.00   0.00   0.00    -0.00  -0.00  -0.00
     6   6    -0.00   0.01   0.01    -0.01   0.02   0.02     0.03  -0.02  -0.04
     7   6    -0.00  -0.01   0.00     0.01   0.04  -0.02     0.01   0.05  -0.03
     8   6    -0.00  -0.00  -0.00    -0.04  -0.01  -0.03     0.01   0.01   0.01
     9   6    -0.00   0.00   0.00    -0.01  -0.00  -0.00     0.01  -0.01  -0.01
    10   1     0.01   0.02   0.01     0.03   0.01   0.00     0.01   0.03   0.00
    11   1     0.05   0.21  -0.58    -0.00  -0.01   0.02     0.03   0.05  -0.16
    12   1     0.14   0.59   0.09    -0.01  -0.03  -0.00     0.03   0.16   0.03
    13   1    -0.12  -0.26  -0.03    -0.03  -0.03  -0.00     0.01  -0.00  -0.00
    14   1    -0.07   0.12  -0.09    -0.01   0.01  -0.03    -0.00   0.01   0.01
    15   1    -0.05  -0.10   0.25     0.01  -0.01   0.02    -0.01  -0.00   0.01
    16   1     0.05  -0.11  -0.01     0.17  -0.25  -0.02    -0.32   0.34   0.02
    17   1     0.02  -0.00  -0.11     0.04  -0.01  -0.29    -0.07   0.04   0.46
    18   1     0.05   0.08   0.02    -0.11  -0.39  -0.11    -0.16  -0.42  -0.12
    19   1    -0.00   0.04  -0.08    -0.04  -0.18   0.37    -0.02  -0.21   0.41
    20   1     0.02   0.01  -0.00     0.47   0.10  -0.05    -0.10  -0.05   0.00
    21   1     0.00  -0.00   0.02     0.15  -0.02   0.45    -0.02   0.01  -0.10
    22   1     0.02  -0.03  -0.00    -0.00   0.04   0.00    -0.08   0.11   0.00
    23   1     0.01  -0.00  -0.04    -0.01   0.01   0.03    -0.01   0.02   0.13
                     46                     47                     48
                      A                      A                      A
 Frequencies --   1531.0220              1534.3564              1538.8728
 Red. masses --      1.0563                 1.0871                 1.0585
 Frc consts  --      1.4588                 1.5080                 1.4768
 IR Inten    --      5.0522                 0.4581                 5.6617
  Atom  AN      X      Y      Z        X      Y      Z        X      Y      Z
     1   8     0.00   0.00   0.00     0.00   0.00  -0.00     0.00   0.00  -0.00
     2   6    -0.00   0.00   0.00     0.00  -0.00   0.00    -0.00  -0.00   0.00
     3   6     0.01  -0.00  -0.00     0.00  -0.00  -0.00    -0.00   0.00   0.00
     4   6    -0.02  -0.02   0.00     0.00   0.00   0.01     0.03   0.02  -0.03
     5   6    -0.02  -0.04  -0.02     0.00   0.01   0.02     0.02   0.01  -0.04
     6   6     0.01  -0.01  -0.01     0.03  -0.02  -0.03     0.01  -0.01  -0.01
     7   6    -0.00  -0.01   0.00    -0.01  -0.03   0.01    -0.00  -0.00   0.00
     8   6    -0.02  -0.00  -0.01    -0.05   0.00  -0.03    -0.01  -0.00  -0.00
     9   6    -0.00   0.00   0.00    -0.01   0.01   0.01    -0.00   0.00   0.00
    10   1    -0.03   0.01   0.00    -0.00   0.01  -0.00    -0.02  -0.01  -0.00
    11   1     0.07   0.02  -0.15    -0.02   0.01   0.01    -0.06  -0.07   0.22
    12   1     0.06   0.17   0.02     0.00  -0.02   0.00    -0.12  -0.19  -0.05
    13   1     0.47   0.32   0.02    -0.20  -0.06   0.01     0.06  -0.45  -0.08
    14   1     0.11   0.13   0.55    -0.03  -0.13  -0.25    -0.08   0.42   0.17
    15   1    -0.32   0.10  -0.17     0.20  -0.01  -0.02    -0.36  -0.19   0.52
    16   1    -0.07   0.07   0.01    -0.26   0.28   0.02    -0.06   0.09   0.01
    17   1     0.00   0.02   0.09    -0.09  -0.00   0.37     0.01   0.02   0.11
    18   1     0.04   0.10   0.02     0.07   0.23   0.06     0.01   0.03   0.01
    19   1     0.00   0.04  -0.10     0.00   0.10  -0.22     0.01   0.01  -0.03
    20   1     0.21   0.04  -0.02     0.44   0.08  -0.04     0.06   0.01  -0.01
    21   1     0.06  -0.02   0.20     0.14  -0.05   0.41     0.02  -0.00   0.05
    22   1     0.03  -0.03  -0.00     0.06  -0.06  -0.00     0.01  -0.01  -0.00
    23   1     0.00  -0.01  -0.05     0.00  -0.01  -0.08     0.00  -0.00  -0.01
                     49                     50                     51
                      A                      A                      A
 Frequencies --   1808.0146              2977.3030              3022.7952
 Red. masses --     11.4838                 1.0803                 1.0702
 Frc consts  --     22.1176                 5.6419                 5.7613
 IR Inten    --    158.4752                10.2846                13.4003
  Atom  AN      X      Y      Z        X      Y      Z        X      Y      Z
     1   8    -0.13  -0.45   0.18    -0.00  -0.00   0.00     0.00   0.00  -0.00
     2   6     0.20   0.69  -0.29     0.00   0.00  -0.00     0.00  -0.00   0.00
     3   6    -0.02  -0.03   0.02    -0.00   0.02  -0.08    -0.00  -0.00   0.00
     4   6     0.01   0.01  -0.00    -0.00   0.00   0.01     0.00   0.00  -0.00
     5   6    -0.01  -0.01   0.00     0.00  -0.00   0.00     0.00  -0.00   0.00
     6   6     0.00  -0.02  -0.00     0.00  -0.00   0.01    -0.01   0.00   0.04
     7   6    -0.00   0.00   0.00    -0.00  -0.00   0.00     0.01   0.03  -0.05
     8   6    -0.01  -0.01   0.00     0.00   0.00  -0.00    -0.00  -0.00   0.01
     9   6    -0.02  -0.04   0.02    -0.00   0.00   0.01    -0.00   0.00   0.01
    10   1     0.10  -0.13  -0.02     0.03  -0.18   0.96    -0.00   0.01  -0.04
    11   1    -0.03   0.04   0.00    -0.00  -0.02  -0.00    -0.00  -0.01  -0.01
    12   1    -0.03   0.01  -0.02    -0.00   0.01  -0.07     0.00  -0.01   0.06
    13   1     0.01  -0.01   0.00     0.00   0.00  -0.02    -0.00   0.00  -0.01
    14   1    -0.02   0.03  -0.01    -0.01  -0.00   0.00    -0.00  -0.00   0.00
    15   1     0.02  -0.01   0.01     0.00   0.01   0.01     0.00   0.01   0.00
    16   1     0.00   0.06   0.00     0.00   0.02  -0.11    -0.00   0.08  -0.57
    17   1     0.02  -0.00   0.03    -0.01   0.01   0.00     0.08  -0.09   0.03
    18   1    -0.00  -0.00   0.00    -0.00   0.00  -0.03     0.01  -0.16   0.74
    19   1     0.01   0.01  -0.01     0.00   0.01   0.01    -0.07  -0.17  -0.12
    20   1     0.03   0.05   0.01     0.00  -0.00   0.01    -0.01   0.02  -0.10
    21   1    -0.01   0.02   0.04    -0.00  -0.00   0.00     0.04   0.01  -0.01
    22   1    -0.11  -0.08  -0.00     0.00   0.01  -0.09     0.00   0.01  -0.08
    23   1     0.22   0.14  -0.08     0.01  -0.01   0.01     0.02  -0.02   0.01
                     52                     53                     54
                      A                      A                      A
 Frequencies --   3024.0204              3029.3363              3038.4747
 Red. masses --      1.0696                 1.0642                 1.0616
 Frc consts  --      5.7627                 5.7542                 5.7747
 IR Inten    --      7.0012                29.9319                34.9789
  Atom  AN      X      Y      Z        X      Y      Z        X      Y      Z
     1   8     0.00  -0.00  -0.00     0.00  -0.00   0.00    -0.00  -0.00   0.00
     2   6    -0.00   0.00  -0.00    -0.00   0.00  -0.00     0.00   0.00  -0.00
     3   6    -0.00   0.00  -0.01     0.00   0.00  -0.01    -0.00   0.00  -0.00
     4   6     0.00   0.00   0.00    -0.00  -0.00   0.01    -0.00  -0.00   0.00
     5   6     0.00  -0.00   0.00    -0.00   0.00  -0.00    -0.00   0.00  -0.00
     6   6    -0.00   0.00   0.01     0.02  -0.01  -0.05     0.00  -0.00  -0.01
     7   6    -0.00  -0.00  -0.00     0.01   0.03  -0.03     0.01   0.02   0.00
     8   6     0.00  -0.00   0.02     0.01  -0.00   0.02    -0.04   0.00  -0.05
     9   6     0.01  -0.01  -0.07    -0.00   0.00  -0.00     0.01  -0.01  -0.01
    10   1     0.00  -0.02   0.08     0.00  -0.01   0.09     0.00  -0.00   0.03
    11   1    -0.00  -0.00  -0.00     0.00   0.02   0.01     0.00   0.01   0.01
    12   1    -0.00   0.00  -0.01    -0.00   0.01  -0.08    -0.00   0.00  -0.04
    13   1     0.00   0.00  -0.01     0.00  -0.00   0.02     0.00  -0.00   0.03
    14   1    -0.01  -0.00   0.00     0.01   0.01  -0.00     0.02   0.01  -0.01
    15   1     0.00   0.01   0.00    -0.01  -0.03  -0.02    -0.00  -0.03  -0.01
    16   1     0.00   0.01  -0.09     0.00  -0.10   0.68    -0.00  -0.01   0.09
    17   1     0.01  -0.02   0.01    -0.21   0.26  -0.08    -0.05   0.06  -0.02
    18   1     0.00  -0.01   0.01     0.01  -0.10   0.47     0.00  -0.02   0.12
    19   1     0.01   0.03   0.02    -0.08  -0.23  -0.15    -0.09  -0.22  -0.13
    20   1    -0.02   0.04  -0.25    -0.02   0.04  -0.27     0.05  -0.12   0.75
    21   1     0.00  -0.00   0.00    -0.04  -0.01   0.02     0.45   0.12  -0.18
    22   1    -0.03  -0.12   0.92    -0.00   0.00   0.00    -0.00  -0.03   0.20
    23   1    -0.13   0.18  -0.07     0.01  -0.01   0.00    -0.07   0.09  -0.03
                     55                     56                     57
                      A                      A                      A
 Frequencies --   3042.6158              3052.0295              3076.6909
 Red. masses --      1.0387                 1.0649                 1.0948
 Frc consts  --      5.6657                 5.8445                 6.1057
 IR Inten    --     20.1001                23.5742                51.3413
  Atom  AN      X      Y      Z        X      Y      Z        X      Y      Z
     1   8     0.00   0.00  -0.00    -0.00  -0.00   0.00    -0.00  -0.00   0.00
     2   6    -0.00  -0.00   0.00     0.00   0.00  -0.00     0.00   0.00  -0.00
     3   6     0.00   0.00   0.00    -0.00   0.00  -0.01     0.00   0.00  -0.00
     4   6    -0.00  -0.01   0.01     0.01   0.04  -0.06     0.00   0.00  -0.00
     5   6    -0.03   0.03  -0.03    -0.01   0.00   0.01    -0.00   0.00   0.00
     6   6     0.00  -0.00   0.01     0.00  -0.00  -0.00     0.00  -0.00  -0.01
     7   6    -0.00  -0.00  -0.00     0.00   0.00   0.00    -0.02  -0.05  -0.06
     8   6     0.00   0.00   0.00    -0.00  -0.00  -0.00    -0.03  -0.01   0.01
     9   6    -0.00   0.00  -0.00     0.00  -0.00  -0.00     0.00  -0.00   0.00
    10   1    -0.00  -0.00   0.00     0.00  -0.01   0.07     0.00  -0.00   0.01
    11   1     0.01   0.05   0.02    -0.08  -0.36  -0.17    -0.00  -0.01  -0.00
    12   1    -0.00   0.02  -0.14     0.01  -0.09   0.87    -0.00  -0.00   0.02
    13   1     0.01  -0.08   0.69    -0.00  -0.00   0.02    -0.00   0.00  -0.02
    14   1     0.41   0.17  -0.14     0.16   0.07  -0.05     0.00   0.00  -0.00
    15   1    -0.07  -0.45  -0.22    -0.02  -0.10  -0.05    -0.00  -0.01  -0.00
    16   1     0.00   0.01  -0.08     0.00  -0.01   0.06    -0.00  -0.02   0.12
    17   1    -0.02   0.02  -0.00    -0.05   0.06  -0.02    -0.05   0.06  -0.02
    18   1    -0.00   0.00  -0.02    -0.00   0.00  -0.01    -0.00  -0.08   0.30
    19   1     0.01   0.03   0.02    -0.01  -0.03  -0.02     0.26   0.70   0.41
    20   1    -0.00   0.00  -0.03     0.00  -0.00   0.00    -0.00  -0.00   0.00
    21   1    -0.02  -0.01   0.01     0.01   0.00  -0.00     0.35   0.09  -0.13
    22   1    -0.00   0.00  -0.00    -0.00  -0.00   0.01     0.00   0.00  -0.03
    23   1     0.00  -0.00   0.00    -0.01   0.01  -0.00    -0.01   0.01  -0.00
                     58                     59                     60
                      A                      A                      A
 Frequencies --   3082.3562              3085.5297              3091.1192
 Red. masses --      1.0996                 1.1004                 1.0970
 Frc consts  --      6.1556                 6.1726                 6.1759
 IR Inten    --     39.3926                41.4909                13.5649
  Atom  AN      X      Y      Z        X      Y      Z        X      Y      Z
     1   8    -0.00   0.00  -0.00     0.00   0.00  -0.00     0.00   0.00  -0.00
     2   6     0.00  -0.00   0.00     0.00   0.00   0.00    -0.00  -0.00   0.00
     3   6    -0.00   0.00  -0.00     0.00  -0.00   0.00    -0.00   0.00  -0.01
     4   6     0.00   0.01   0.01    -0.01  -0.03  -0.02    -0.01  -0.05  -0.04
     5   6    -0.00  -0.01  -0.01     0.01   0.02   0.02    -0.00   0.02   0.03
     6   6    -0.03   0.04  -0.02     0.03  -0.04   0.03    -0.02   0.03  -0.02
     7   6     0.01   0.01   0.02     0.00   0.00   0.02    -0.00   0.00  -0.01
     8   6    -0.05  -0.02   0.05    -0.03  -0.01   0.04     0.01   0.00  -0.01
     9   6    -0.00   0.00   0.01    -0.00   0.00   0.00     0.00  -0.00  -0.00
    10   1     0.00  -0.00   0.02    -0.00   0.00  -0.03     0.00  -0.01   0.06
    11   1    -0.03  -0.13  -0.06     0.07   0.33   0.14     0.14   0.60   0.25
    12   1     0.00   0.01  -0.04    -0.00  -0.02   0.11    -0.00  -0.04   0.27
    13   1     0.00  -0.02   0.12    -0.00   0.03  -0.20    -0.00   0.03  -0.24
    14   1     0.04   0.01  -0.02    -0.04  -0.01   0.02     0.06   0.03  -0.01
    15   1     0.02   0.12   0.05    -0.03  -0.23  -0.10    -0.05  -0.32  -0.15
    16   1    -0.00  -0.01   0.14     0.01   0.03  -0.26    -0.00  -0.02   0.18
    17   1     0.34  -0.41   0.10    -0.35   0.43  -0.11     0.30  -0.36   0.09
[...]
 292,0.00136451,0.01906600,-0.02195321,-0.00029669,0.13070614,-0.201590
 32,0.00195807,-0.00050238,0.00007915,-0.00046160,0.00007032,0.00009533
 ,0.00010551,-0.00009125,0.00005663,-0.00013760,-0.00052685,-0.00048120
 ,-0.00000594,-0.00019783,0.00034911,-0.00005478,0.00013450,0.00103007,
 -0.00072142,0.00009240,0.00101926,0.00047832,-0.00006928,-0.00015578,-
 0.00065344,-0.14135732,0.22049273,0.00000763,-0.00007361,-0.00010068,-
 0.00034039,0.00019659,0.00040169,0.00078351,0.00040497,0.00016283,-0.0
 0403065,0.00439656,-0.00103725,-0.00177282,0.00198339,-0.04964381,-0.0
 0027768,-0.00007187,0.00014844,0.00022424,0.00002711,-0.00000191,-0.00
 006653,0.00006199,0.00003593,0.00008915,0.00007380,-0.00010753,-0.0002
 7218,0.00028179,0.00027627,0.00021846,-0.00050936,0.00021076,-0.000430
 96,-0.00005607,0.00001684,0.01958856,-0.02366956,0.00140492,0.00169243
 ,-0.00270716,0.04822573,0.00028717,-0.00046800,0.00010888,-0.00038059,
 0.00012995,0.00002376,-0.00014713,0.00079376,0.00023538,-0.01169272,-0
 .00282337,-0.01156168,-0.17009921,-0.03135902,-0.12562501,-0.00040227,
 0.00018290,-0.00039521,0.00033442,0.00007926,0.00021799,-0.00010772,0.
 00006094,-0.00005108,-0.00001214,-0.00007500,-0.00001824,0.00007356,-0
 .00004545,0.00001696,-0.00033595,-0.00316249,0.00130793,0.00020447,0.0
 0046983,0.00021229,0.01246461,0.00323185,0.01153702,-0.01468892,-0.004
 23077,-0.01579408,0.18419630,0.00073637,-0.00049577,0.00008686,-0.0010
 3681,-0.00009184,0.00021530,-0.00015957,0.00157695,-0.00067211,-0.0202
 3555,-0.00420025,-0.02251517,-0.03114058,-0.05756598,-0.03299003,-0.00
 046740,-0.00078952,0.00007979,0.00052565,0.00010251,0.00008890,-0.0002
 4191,0.00009144,-0.00003310,0.00006285,-0.00000840,-0.00005261,0.00004
 183,-0.00014499,-0.00002385,-0.00269230,-0.00495113,0.00152140,0.00079
 376,0.00132810,0.00033769,-0.00057409,-0.00116302,-0.00118252,0.016730
 95,0.00549916,0.01952063,0.03625212,0.06156407,0.00008295,-0.00001029,
 -0.00004220,0.00008943,-0.00005212,0.00006443,-0.00066149,-0.00012544,
 -0.00007996,0.00558992,0.00029698,0.00587197,-0.12582011,-0.03349870,-
 0.18274771,-0.00082228,-0.00003991,-0.00001615,0.00036502,0.00014768,0
 .00002867,-0.00013708,0.00006611,-0.00001454,-0.00005399,-0.00006016,-
 0.00002727,-0.00009150,0.00002346,-0.00003782,0.00101116,0.00170390,0.
 00114642,-0.00004816,-0.00071368,0.00087828,-0.02080856,-0.00439112,-0
 .02029671,0.00090018,0.00077134,0.00001973,0.13992160,0.03498648,0.195
 25942,-0.00002003,0.00020369,0.00029111,0.00169758,0.00059488,-0.00050
 160,0.00953147,-0.00053109,-0.02094242,0.00159637,-0.00058883,-0.00037
 348,0.00006906,-0.00001552,0.00002754,-0.10868906,0.00206106,0.1064110
 5,-0.01105875,0.00141574,0.01738146,0.00042998,-0.00122108,-0.00032332
 ,-0.00000790,0.00001073,-0.00016626,-0.00268415,0.00013805,-0.00426544
 ,0.00014155,-0.00024389,0.00018376,-0.00011818,0.00000691,0.00049660,-
 0.00007935,-0.00007172,-0.00001450,0.00005690,0.00003412,0.00004180,-0
 .00005230,0.00002983,0.00011361,0.11944392,0.00014455,0.00013013,0.000
 19709,0.00031525,-0.00018761,-0.00087034,0.00001853,-0.00030529,0.0002
 7288,-0.00062183,0.00036852,0.00102268,0.00004705,-0.00017185,-0.00010
 530,0.00153771,-0.05205979,-0.00747472,0.01486241,-0.00229329,-0.02540
 301,0.00058811,0.00181494,-0.00116905,-0.00021379,-0.00013415,0.000144
 36,0.00047614,0.00075768,0.00007304,0.00005168,-0.00002180,-0.00013209
 ,0.00024265,0.00010865,-0.00008550,-0.00002957,0.00006848,-0.00014838,
 0.00006590,-0.00002497,0.00001391,-0.00010294,0.00001528,0.00009435,-0
 .00660446,0.05364801,-0.00149608,-0.00037730,0.00039533,0.00255641,0.0
 0183755,-0.00060348,0.00941324,-0.00144576,-0.02346836,0.00154850,-0.0
 0089488,0.00046856,-0.00020851,0.00025030,0.00008036,0.10680361,-0.007
 34640,-0.23843857,0.00054593,-0.00003878,-0.00036224,-0.00024157,0.000
 34181,-0.00002447,-0.00007914,-0.00039791,-0.00031084,-0.00392364,-0.0
 0040386,-0.00316061,-0.00015708,-0.00009954,0.00054003,-0.00095495,0.0
 0072354,0.00063243,-0.00004200,-0.00019284,0.00014934,-0.00001695,0.00
 008245,-0.00001038,0.00009918,0.00005155,-0.00013413,-0.11465074,0.008
 33636,0.26262351,-0.00179375,-0.00144215,0.00073239,-0.00030482,0.0043
 8119,-0.00391476,-0.01456854,-0.01827144,-0.00147368,0.00030345,-0.001
 08548,0.00050651,-0.00042651,-0.00034674,-0.00085032,-0.14022296,-0.12
 523448,0.01039234,0.01263184,0.01732054,-0.00111089,-0.00233469,0.0026
 8184,0.00018772,-0.00004254,-0.00001064,0.00064675,0.00135779,0.000666
 70,0.00039965,0.00015269,0.00002036,0.00003871,-0.00011733,0.00010023,
 -0.00004598,0.00003282,0.00007242,0.00009926,0.00042804,0.00014588,0.0
 0036967,0.00026988,0.00129212,0.00029830,-0.00976314,-0.01293217,0.001
 09001,0.15196269,-0.00011029,0.00015578,-0.00018841,0.00100431,0.00030
 985,0.00019401,0.00036203,0.00213535,-0.00027792,-0.00000945,-0.000187
 76,-0.00037907,0.00044779,-0.00082442,0.00027482,-0.12459463,-0.216151
 43,0.01062204,-0.01698745,-0.02254096,0.00189563,0.00564929,-0.0036151
 2,-0.00043370,0.00026550,0.00069138,0.00026187,-0.00005538,0.00019082,
 -0.00044477,-0.00013825,0.00013898,-0.00001013,0.00004221,-0.00000965,
 -0.00002653,-0.00003002,0.00002805,-0.00000833,0.00016738,0.00011647,0
 .00006428,0.00110488,-0.00085661,0.00083021,0.00108704,0.00170986,0.00
 054803,0.13313031,0.23802942,-0.00247174,-0.00183348,0.00107888,-0.001
 49932,0.00411928,-0.00438639,-0.01738737,-0.02262553,-0.00157203,0.000
 80693,-0.00023447,0.00079217,-0.00010098,0.00027154,0.00014773,0.01045
 766,0.01113507,-0.05032808,-0.00057218,-0.00197303,-0.00075916,0.00008
 300,-0.00019254,0.00036493,0.00030149,0.00013710,0.00043589,0.00094328
 ,-0.00031605,0.00146898,0.00017763,-0.00023050,-0.00002270,-0.00005002
 ,0.00017975,0.00000723,-0.00003128,0.00004162,-0.00024445,0.00017361,0
 .00002792,-0.00002544,-0.00032208,0.00052147,0.00009165,0.01724455,0.0
 2416247,-0.00124836,-0.00725907,-0.01288867,0.05304087,0.00020486,-0.0
 0000690,0.00007923,-0.00041089,-0.00002500,-0.00005315,0.00055559,-0.0
 0070706,0.00141783,0.00007094,0.00018088,-0.00023042,0.00002500,0.0000
 1832,0.00006423,-0.01100512,0.00091669,0.01614848,-0.12403751,0.000029
 39,0.11126388,-0.01118961,-0.00080119,0.01667956,0.00057241,0.00075844
 ,0.00113628,-0.00016797,0.00022841,-0.00089775,0.00000747,0.00001012,-
 0.00008464,0.00018454,-0.00013755,-0.00012040,0.00000234,0.00002967,-0
 .00004877,-0.00000867,-0.00001149,-0.00002434,-0.00004296,-0.00004678,
 -0.00000424,-0.00132904,0.00330668,-0.00008092,0.00083494,-0.00015592,
 -0.00050741,0.13349150,-0.00002412,0.00021294,-0.00000963,0.00002797,-
 0.00058672,-0.00001573,-0.00095839,0.00108591,-0.00092789,-0.00006823,
 -0.00015269,-0.00000222,-0.00002092,0.00001000,-0.00003096,0.01678508,
 -0.00147837,-0.02560820,0.00005334,-0.04821246,-0.00031437,-0.01670403
 ,-0.00148543,0.02561002,0.00099733,0.00105115,0.00062627,-0.00001865,0
 .00004785,0.00077100,-0.00002960,-0.00000879,0.00011395,-0.00018846,0.
 00008162,0.00014033,0.00000301,-0.00002620,0.00005720,-0.00000028,-0.0
 0000584,0.00002170,0.00004635,0.00003559,-0.00002516,0.00393164,-0.004
 60979,0.00023195,-0.00078735,0.00111588,-0.00009704,-0.00007752,0.0567
 4936,0.00012439,-0.00001605,-0.00012651,-0.00022389,0.00001043,0.00018
 183,-0.00035485,0.00022570,0.00067759,-0.00010219,0.00006730,0.0003544
 3,0.00003206,-0.00001898,-0.00007177,0.00036487,-0.00068329,-0.0016333
 4,0.11185521,-0.00027426,-0.22691551,0.00017897,0.00067193,-0.00154473
 ,-0.00036166,-0.00026145,0.00086016,0.00036175,-0.00001900,0.00057511,
 0.00005061,-0.00006206,0.00001845,-0.00013259,0.00011570,-0.00009055,0
 .00000254,-0.00000687,0.00004761,-0.00000246,-0.00001790,0.00002243,0.
 00001958,0.00003285,-0.00000993,-0.00026303,-0.00047733,0.00143405,-0.
 00005502,-0.00055938,0.00022293,-0.12544173,0.00025508,0.24515260,-0.0
 0045514,0.00009180,0.00003828,0.00114688,-0.00006895,0.00036028,-0.000
 90543,0.00332354,0.00170302,-0.00044139,-0.00047462,-0.00110085,-0.000
 12282,-0.00007346,0.00003712,-0.01231404,0.00044385,-0.01434626,-0.153
 72290,0.00089204,-0.12550670,-0.01250704,0.00006782,-0.01468884,-0.001
 36093,-0.00361309,0.00138468,0.00020137,0.00000315,-0.00019223,-0.0002
 5702,0.00036101,0.00000480,0.00000141,-0.00002430,0.00005662,0.0000202
 6,0.00000694,-0.00001649,0.00001748,0.00007006,-0.00000826,0.00005758,
 0.00000865,0.00001993,0.00020564,-0.00065863,0.00026402,0.00079446,-0.
 00000520,0.00024717,0.01272568,-0.00011538,0.01383888,0.16638046,0.000
 00771,0.00091611,0.00000296,-0.00004485,-0.00236995,0.00004273,0.00285
 790,-0.00466279,-0.00186820,0.00118569,0.00074186,0.00142788,0.0000879
 0,0.00016458,-0.00000871,0.01843917,-0.00040998,0.02344880,0.00095002,
 -0.04782584,0.00127922,-0.01808970,0.00040000,-0.02314806,-0.00334988,
 -0.00466960,0.00150205,-0.00042195,0.00000615,-0.00025942,0.00042405,-
 0.00059682,0.00003986,0.00000081,-0.00001197,-0.00008194,-0.00002697,-
 0.00000450,0.00001295,-0.00001970,-0.00005332,-0.00000429,-0.00006345,
 -0.00001965,-0.00003131,-0.00058097,0.00112282,-0.00042388,-0.00080606
 ,0.00085485,0.00027884,-0.00004858,-0.00041418,-0.00003228,-0.00097316
 ,0.05469357,-0.00005968,0.00000398,-0.00009206,0.00027361,-0.00001730,
 0.00009660,0.00045344,0.00031345,0.00099567,-0.00004511,-0.00033273,0.
 00015196,-0.00003886,-0.00000824,-0.00001181,0.00247263,-0.00013265,0.
 00157609,-0.12643225,0.00120868,-0.20432380,0.00235151,0.00011381,0.00
 136920,0.00036758,-0.00039768,0.00115543,0.00012597,-0.00009959,0.0004
 6953,-0.00001116,0.00004491,0.00000661,-0.00006592,0.00008335,-0.00000
 277,0.00001361,-0.00000821,-0.00000303,-0.00000331,0.00002869,-0.00000
 368,0.00001160,-0.00001423,0.00000799,-0.00015959,0.00039166,0.0007789
 4,-0.00004843,0.00053622,0.00000424,-0.01757968,0.00016357,-0.02165697
 ,0.13859054,-0.00128649,0.21813941,-0.00011165,-0.00028118,0.00033518,
 0.00170831,-0.00073146,-0.00047696,0.00001289,0.00001277,-0.00023304,0
 .00007552,0.00004028,0.00004703,-0.00000766,0.00001393,0.00000335,0.00
 041573,0.00124808,-0.00032262,-0.01152773,-0.00164886,0.01826575,-0.10
 747246,-0.00265521,0.10702434,0.01035929,0.00115170,-0.02227235,-0.000
 12948,0.00000072,-0.00001628,0.00002442,-0.00003481,0.00000741,0.00000
 185,0.00000913,0.00000379,-0.00000630,-0.00000042,-0.00000553,0.000010
 29,-0.00000546,0.00000252,-0.00000094,0.00001448,0.00000702,0.00067711
 ,-0.00044705,-0.00027240,-0.00000955,0.00010092,-0.00027977,-0.0015041
 2,-0.00407572,-0.00032589,0.00025401,0.00060249,-0.00016674,0.11814746
 ,-0.00011520,0.00014581,-0.00017648,-0.00037228,-0.00026317,0.00080897
 ,0.00021897,-0.00013909,-0.00012427,0.00003649,0.00000410,0.00003558,-
 0.00000789,0.00000454,0.00001383,-0.00057501,0.00178947,0.00117664,-0.
 01457271,-0.00240622,0.02529995,-0.00216838,-0.05268516,0.00887313,-0.
 00023394,-0.00014588,0.00012409,-0.00005078,0.00009704,-0.00019047,0.0
 0001426,-0.00002037,-0.00000321,0.00002973,-0.00002344,-0.00001361,0.0
 0000367,0.00000453,-0.00001487,-0.00000278,0.00000680,-0.00000451,-0.0
 0000433,-0.00000801,0.00000163,0.00046040,-0.00036237,-0.00062872,0.00
 006011,0.00032972,-0.00038722,-0.00337420,-0.00452471,0.00039949,0.000
 67377,0.00113797,-0.00039586,0.00714572,0.05409906,-0.00137036,0.00038
 661,0.00040220,0.00229245,-0.00174396,-0.00055214,-0.00005873,0.000379
 04,-0.00028436,0.00011395,0.00002846,-0.00006388,-0.00005351,0.0000227
 4,0.00001106,-0.00027265,-0.00029079,-0.00004087,0.00050516,0.00006087
 ,-0.00008773,0.10673396,0.00892302,-0.24328373,0.00920818,0.00160732,-
 0.02232616,-0.00002359,-0.00004732,0.00015129,0.00000222,-0.00001029,0
 .00001410,-0.00004386,0.00005115,0.00003415,-0.00000594,-0.00001364,0.
 00000966,0.00000535,0.00003003,-0.00000270,0.00001451,0.00000458,0.000
 00356,-0.00027759,0.00061132,0.00023571,-0.00018132,0.00009541,0.00029
 214,-0.00011396,-0.00026441,0.00152726,0.00027080,0.00041628,0.0008104
 3,-0.11425119,-0.00969045,0.26691374,-0.00173307,0.00168443,0.00075140
 ,-0.00055615,-0.00458361,-0.00394111,-0.00014401,0.00006088,0.00055076
 ,0.00020220,0.00007963,0.00016123,-0.00006053,-0.00002920,-0.00001950,
 -0.00258044,-0.00265035,0.00018896,0.01303033,-0.01789502,-0.00167456,
 -0.13231992,0.12154515,0.01355116,-0.01357785,0.01942062,-0.00073896,-
 0.00002761,-0.00003358,0.00001120,0.00003725,-0.00010487,0.00004834,-0
 .00003262,-0.00000613,-0.00002927,0.00001287,0.00000729,-0.00000508,0.
 00002741,0.00004448,0.00001277,0.00004325,0.00006937,0.00003365,-0.000
 00276,-0.00003977,-0.00018742,0.00075486,-0.00116373,0.00002578,0.0008
 6314,0.00080746,-0.00004562,0.00074993,0.00086482,-0.00007976,-0.00922
 564,0.01292663,0.00147906,0.14292437,0.00008604,0.00008061,0.00013427,
 -0.00052569,0.00064403,-0.00023004,-0.00034834,0.00068831,-0.00023821,
 0.00005385,0.00008711,0.00008317,-0.00001089,-0.00003552,-0.00008075,-
 0.00570761,-0.00340126,0.00034254,0.01633194,-0.02184199,-0.00241208,0
 .12035902,-0.22353386,-0.01635714,-0.00058368,0.00165269,0.00003256,0.
 00001841,-0.00002983,0.00005987,0.00006292,-0.00006228,0.00003141,-0.0
 0002091,-0.00001167,-0.00001221,-0.00000951,0.00000793,0.00001753,0.00
 004647,-0.00001622,0.00003106,0.00003084,0.00009526,0.00004989,-0.0000
 7765,0.00034403,-0.00009290,0.00111170,-0.00163264,-0.00001326,0.00014
 018,0.00108067,0.00057813,-0.00003445,0.00078311,-0.00050717,-0.000974
 26,0.00178622,-0.00065092,-0.13019500,0.24278868,-0.00245929,0.0019089
 1,0.00101954,-0.00155862,-0.00391814,-0.00434399,0.00015807,-0.0000949
 7,0.00039268,0.00016065,0.00007083,0.00005067,-0.00004788,-0.00000511,
 0.00000957,0.00004333,0.00012827,0.00040785,-0.00020034,0.00183551,-0.
 00086439,0.01373827,-0.01726230,-0.05134325,-0.01630924,0.02351240,-0.
 00098327,-0.00002758,-0.00001888,0.00000790,0.00001619,-0.00006422,0.0
 0004566,-0.00003415,0.00001050,-0.00000117,0.00000264,0.00000045,-0.00
 000774,0.00001405,0.00002741,0.00000132,0.00002580,0.00001954,0.000016
 68,-0.00028177,0.00039624,0.00028928,0.00003419,0.00000105,0.00055233,
 -0.00050042,0.00011045,0.00025669,0.00022091,-0.00024925,-0.00003184,0
 .01656581,-0.02468471,-0.00188205,-0.01105016,0.01841493,0.05421669,-0
 .00130200,0.00417355,-0.00302645,-0.01184138,-0.00072768,0.01666430,0.
 00009259,-0.00025465,-0.00079579,-0.00000780,0.00010324,-0.00044250,-0
 .00000767,0.00001086,0.00001989,-0.00013923,-0.00032197,-0.00006956,0.
 00152032,0.00042957,-0.00012620,0.01028966,-0.00233632,-0.02325771,-0.
 10362772,0.00649857,0.11219827,0.00071146,0.00023785,-0.00036545,-0.00
 001019,-0.00004097,0.00007527,0.00004681,-0.00013555,-0.00003307,0.000
 01091,0.00001868,-0.00000725,-0.00000728,0.00001966,0.00000294,0.00001
 004,0.00000783,-0.00000883,-0.00011815,0.00005482,-0.00002077,-0.00001
 748,-0.00001792,-0.00002461,-0.00017289,0.00002215,0.00044906,0.000183
 63,0.00040549,0.00017392,-0.00285103,-0.00034363,-0.00402070,0.0015123
 9,-0.00006647,0.00093199,0.11499061,0.00289709,-0.00310846,0.00352019,
 0.01351333,0.00225054,-0.02806777,-0.00141795,-0.00030846,0.00298143,0
 .00012930,0.00008165,0.00044101,-0.00001329,0.00001928,0.00000392,0.00
 049459,0.00022791,0.00024446,0.00051904,0.00005612,-0.00102644,-0.0012
 7335,0.00043980,0.00208865,0.00781165,-0.05345861,-0.02099120,-0.00041
 215,-0.00169912,0.00000129,-0.00003294,0.00008226,-0.00008888,-0.00005
 954,0.00009568,0.00002244,-0.00000271,-0.00000834,0.00000376,0.0000105
 3,-0.00000514,-0.00001870,-0.00001259,-0.00002325,0.00000082,0.0000035
 5,0.00009218,0.00005638,0.00003941,-0.00000650,0.00001049,-0.00019888,
 0.00009763,0.00001729,-0.00002767,-0.00000737,0.00012669,0.00059481,0.
 00101548,0.00048942,-0.00057400,0.00017014,0.00031162,-0.01055809,0.05
 077066,-0.00057711,-0.00057026,-0.00084942,0.00042678,0.00038216,0.001
 01812,0.00085662,0.00010394,-0.00071656,-0.00014887,-0.00019609,0.0002
 5298,0.00001803,-0.00003729,-0.00002918,-0.00045414,-0.00008793,-0.000
 15082,0.00151767,0.00050017,0.00086025,0.01084671,-0.00161824,-0.02580
 824,0.10805536,-0.01612461,-0.23419705,-0.00037199,0.00010204,0.000608
 36,0.00001885,0.00003787,-0.00002739,-0.00006740,0.00011436,0.00003332
 ,-0.00000119,-0.00001697,0.00001595,-0.00000661,-0.00000912,0.00000878
 ,0.00000257,-0.00000037,0.00000439,-0.00002092,0.00018021,0.00014877,0
 .00001035,-0.00005782,0.00001236,-0.00080934,-0.00073351,0.00049565,-0
 .00015472,0.00023880,0.00042518,-0.00454855,-0.00005666,-0.00279336,0.
 00039990,0.00041897,0.00145048,-0.11578160,0.01704062,0.26069639,0.001
 93936,-0.00118007,0.00003341,0.01148044,0.01574523,-0.00164148,-0.0021
 8433,0.00246473,0.00025695,0.00076217,0.00076864,-0.00001827,-0.000256
 70,0.00019541,0.00003324,-0.00023387,0.00027840,-0.00003126,-0.0020222
 5,0.00179453,-0.00429824,-0.01244733,-0.01610433,0.00309980,-0.1588992
 2,-0.13388906,0.01403849,-0.00005544,-0.00003814,-0.00006283,0.0000760
 9,-0.00005714,-0.00001341,-0.00000917,-0.00003243,0.00003693,0.0000020
 8,-0.00000489,-0.00001333,0.00006179,0.00010157,-0.00001578,0.00002157
 ,0.00002920,0.00002346,0.00007322,-0.00006127,0.00001127,0.00007785,-0
 .00009342,0.00004471,0.00033038,0.00039431,0.00003102,-0.00065206,-0.0
 0140076,-0.00014393,0.00115969,0.00025139,0.00004777,0.00010261,0.0003
 1308,0.00055756,-0.00926561,-0.01143014,0.00078962,0.16993874,-0.00003
 882,0.00609531,-0.00049472,-0.02271292,-0.02686341,0.00298358,0.005244
 49,-0.00306229,-0.00051653,-0.00165122,-0.00083324,-0.00005049,0.00060
 365,-0.00032943,-0.00009061,0.00041343,0.00023919,0.00042201,0.0006076
 2,0.00084455,0.00036558,0.00212925,0.00287959,-0.00106538,-0.12904967,
 -0.20605629,0.01622316,0.00011037,0.00047449,0.00016975,0.00002868,0.0
 0001631,0.00009758,0.00006386,-0.00010768,-0.00009495,-0.00001649,0.00
 003400,0.00002175,-0.00010684,-0.00023872,0.00003736,-0.00003527,0.000
 01006,-0.00002495,-0.00004242,-0.00000966,-0.00011715,-0.00010630,0.00
 001868,-0.00009375,-0.00002771,-0.00006342,0.00005495,0.00012629,0.000
 22495,0.00018515,-0.00008059,0.00015767,-0.00039448,-0.00023549,0.0003
 5649,-0.00045052,0.00282096,0.00322590,0.00038975,0.14195512,0.2229869
 5,-0.00053689,0.00023955,-0.00125663,0.00055926,-0.00197924,-0.0005494
 6,0.00013608,0.00048221,0.00114768,0.00008764,0.00000925,0.00040491,-0
 .00003651,-0.00002182,-0.00002732,-0.00012817,0.00061101,-0.00010618,-
 0.00292110,0.00144308,-0.00406744,-0.01557076,-0.02093535,0.00247620,0
 .01380630,0.01656271,-0.05233987,-0.00042950,-0.00031889,0.00027127,0.
 00003050,-0.00005402,0.00000189,-0.00006574,0.00007191,0.00000938,0.00
 001139,-0.00000031,-0.00000155,0.00001184,0.00000809,-0.00000228,0.000
 01234,0.00001694,0.00001324,0.00004917,-0.00003084,-0.00001487,0.00013
 365,-0.00004883,0.00007426,-0.00029233,-0.00007239,0.00022253,-0.00102
 271,-0.00129655,0.00013867,0.00090912,-0.00036227,0.00091167,0.0005572
 6,0.00040035,0.00074037,0.01746485,0.02283251,-0.00145896,-0.01276570,
 -0.01755711,0.05341247\\0.00005381,-0.00001417,0.00002065,-0.00002805,
 0.00000938,-0.00000830,0.00000015,-0.00001741,0.00000041,0.00000346,0.
 00000057,0.00000664,0.00000563,-0.00001112,0.00000309,-0.00001981,0.00
 000923,-0.00000172,-0.00000801,0.00000209,-0.00001068,0.00000723,0.000
 00633,-0.00000733,-0.00000593,-0.00000615,-0.00001444,0.00000699,0.000
 00756,0.00000222,-0.00000534,-0.00001515,-0.00000348,0.00000536,0.0000
 0338,0.00000555,-0.00000186,0.00000340,-0.00000647,0.00000275,0.000006
 65,0.00000002,0.00000382,-0.00000213,-0.00000424,0.00000114,-0.0000003
 6,0.00000329,-0.00000243,0.00001214,0.00000540,-0.00000600,0.00000476,
 -0.00000277,-0.00000166,0.00000520,0.00000511,-0.00000268,-0.00000031,
 0.00000543,-0.00000472,-0.00000532,0.00000452,0.00000416,-0.00000107,0
 .00000082,-0.00000803,0.00000248,-0.00000370\\\@


 TERRY FORSTER, PORTLY ATLANTA BRAVES RELIEVER,
 ANNOUNCING THAT HE WAS GOING TO A FAT FARM:
 "A WAIST IS A TERRIBLE THING TO MIND."
 Job cpu time:       0 days  0 hours  1 minutes 27.4 seconds.
 Elapsed time:       0 days  0 hours  1 minutes 31.4 seconds.
 File lengths (MBytes):  RWF=     78 Int=      0 D2E=      0 Chk=      4 Scr=      1
 Normal termination of Gaussian 16 at Wed Feb 21 18:59:34 2024.
