 Entering Gaussian System, Link 0=g16
 Input=/Volumes/SSD-PMU3/b3lyp_6-31gd_freq/WKYYYUWKFPFVEY-SSDOTTSWSA-N_calculating/gaussianinput0.gjf
 Output=/Volumes/SSD-PMU3/b3lyp_6-31gd_freq/WKYYYUWKFPFVEY-SSDOTTSWSA-N_calculating/gaussianinput0.log
 Initial command:
 /Applications/g16/l1.exe "/Users/macmini_m1_2022/PycharmProjects/sphere_model/sphere_model_lib/Gau-51439.inp" -scrdir="/Users/macmini_m1_2022/PycharmProjects/sphere_model/sphere_model_lib/"
 Entering Link 1 = /Applications/g16/l1.exe PID=     51440.
  
 Copyright (c) 1988,1990,1992,1993,1995,1998,2003,2009,2016,
            Gaussian, Inc.  All Rights Reserved.
  
 This is part of the Gaussian(R) 16 program.  It is based on
 the Gaussian(R) 09 system (copyright 2009, Gaussian, Inc.),
 the Gaussian(R) 03 system (copyright 2003, Gaussian, Inc.),
 the Gaussian(R) 98 system (copyright 1998, Gaussian, Inc.),
 the Gaussian(R) 94 system (copyright 1995, Gaussian, Inc.),
 the Gaussian 92(TM) system (copyright 1992, Gaussian, Inc.),
 the Gaussian 90(TM) system (copyright 1990, Gaussian, Inc.),
 the Gaussian 88(TM) system (copyright 1988, Gaussian, Inc.),
 the Gaussian 86(TM) system (copyright 1986, Carnegie Mellon
 University), and the Gaussian 82(TM) system (copyright 1983,
 Carnegie Mellon University). Gaussian is a federally registered
 trademark of Gaussian, Inc.
  
 This software contains proprietary and confidential information,
 including trade secrets, belonging to Gaussian, Inc.
  
 This software is provided under written license and may be
 used, copied, transmitted, or stored only in accord with that
 written license.
  
 The following legend is applicable only to US Government
 contracts under FAR:
  
                    RESTRICTED RIGHTS LEGEND
  
 Use, reproduction and disclosure by the US Government is
 subject to restrictions as set forth in subparagraphs (a)
 and (c) of the Commercial Computer Software - Restricted
 Rights clause in FAR 52.227-19.
  
 Gaussian, Inc.
 340 Quinnipiac St., Bldg. 40, Wallingford CT 06492
  
  
 ---------------------------------------------------------------
 Warning -- This program may not be used in any manner that
 competes with the business of Gaussian, Inc. or will provide
 assistance to any competitor of Gaussian, Inc.  The licensee
 of this program is prohibited from giving any competitor of
 Gaussian, Inc. access to this program.  By using this program,
 the user acknowledges that Gaussian, Inc. is engaged in the
 business of creating and licensing software in the field of
 computational chemistry and represents and warrants to the
 licensee that it is not a competitor of Gaussian, Inc. and that
 it will not use this program in any manner prohibited above.
 ---------------------------------------------------------------
  

 Cite this work as:
 Gaussian 16, Revision A.03,
 M. J. Frisch, G. W. Trucks, H. B. Schlegel, G. E. Scuseria, 
 M. A. Robb, J. R. Cheeseman, G. Scalmani, V. Barone, 
 G. A. Petersson, H. Nakatsuji, X. Li, M. Caricato, A. V. Marenich, 
 J. Bloino, B. G. Janesko, R. Gomperts, B. Mennucci, H. P. Hratchian, 
 J. V. Ortiz, A. F. Izmaylov, J. L. Sonnenberg, D. Williams-Young, 
 F. Ding, F. Lipparini, F. Egidi, J. Goings, B. Peng, A. Petrone, 
 T. Henderson, D. Ranasinghe, V. G. Zakrzewski, J. Gao, N. Rega, 
 G. Zheng, W. Liang, M. Hada, M. Ehara, K. Toyota, R. Fukuda, 
 J. Hasegawa, M. Ishida, T. Nakajima, Y. Honda, O. Kitao, H. Nakai, 
 T. Vreven, K. Throssell, J. A. Montgomery, Jr., J. E. Peralta, 
 F. Ogliaro, M. J. Bearpark, J. J. Heyd, E. N. Brothers, K. N. Kudin, 
 V. N. Staroverov, T. A. Keith, R. Kobayashi, J. Normand, 
 K. Raghavachari, A. P. Rendell, J. C. Burant, S. S. Iyengar, 
 J. Tomasi, M. Cossi, J. M. Millam, M. Klene, C. Adamo, R. Cammi, 
 J. W. Ochterski, R. L. Martin, K. Morokuma, O. Farkas, 
 J. B. Foresman, and D. J. Fox, Gaussian, Inc., Wallingford CT, 2016.
 
 ******************************************
 Gaussian 16:  EM64M-G16RevA.03 25-Dec-2016
                21-Feb-2024 
 ******************************************
 %nprocshared=8
 Will use up to    8 processors via shared memory.
 %mem=4GB
 %chk= 0.chk
 ---------------------
 # freq b3lyp/6-31g(d)
 ---------------------
 1/10=4,30=1,38=1/1,3;
 2/12=2,17=6,18=5,40=1/2;
 3/5=1,6=6,7=1,11=2,25=1,30=1,71=2,74=-5,140=1/1,2,3;
 4//1;
 5/5=2,38=5,98=1/2;
 8/6=4,10=90,11=11/1;
 11/6=1,8=1,9=11,15=111,16=1/1,2,10;
 10/6=1/2;
 6/7=2,8=2,9=2,10=2,28=1/1;
 7/8=1,10=1,25=1/1,2,3,16;
 1/10=4,30=1/3;
 99//99;
 ---------
 good luck
 ---------
 Symbolic Z-matrix:
 Charge =  0 Multiplicity = 1
 O                     1.21778   0.        0. 
 C                     0.        0.        0. 
 C                    -0.83478  -1.28467  -0.03119 
 C                     0.01772  -2.56046   0.00227 
 C                     0.68503  -2.8313    1.35524 
 C                    -1.77534  -1.22343  -1.26438 
 C                    -2.6314    0.05071  -1.28888 
 C                    -1.76069   1.31371  -1.24439 
 C                    -0.80586   1.29317  -0.03119 
 H                    -1.48106  -1.25895   0.86266 
 H                     0.78685  -2.48995  -0.77632 
 H                    -0.62508  -3.41088  -0.26319 
 H                    -0.06145  -2.92209   2.15491 
 H                     1.255    -3.76699   1.3284 
 H                     1.37435  -2.02455   1.61848 
 H                    -1.16568  -1.27507  -2.17827 
 H                    -2.41553  -2.11448  -1.26683 
 H                    -3.31384   0.04684  -0.42621 
 H                    -3.26296   0.06044  -2.186 
 H                    -1.16503   1.37883  -2.16537 
 H                    -2.38453   2.21499  -1.21011 
 H                    -1.39914   1.35538   0.8933 
 H                    -0.10963   2.13678  -0.04473 
 

 GradGradGradGradGradGradGradGradGradGradGradGradGradGradGradGradGradGrad
 Berny optimization.
 Initialization pass.
 Trust Radius=3.00D-01 FncErr=1.00D-07 GrdErr=1.00D-07 EigMax=2.50D+02 EigMin=1.00D-04
 Number of steps in this run=      2 maximum allowed number of steps=      2.
 GradGradGradGradGradGradGradGradGradGradGradGradGradGradGradGradGradGrad

                          Input orientation:                          
 ---------------------------------------------------------------------
 Center     Atomic      Atomic             Coordinates (Angstroms)
 Number     Number       Type             X           Y           Z
 ---------------------------------------------------------------------
      1          8           0        1.217782    0.000000    0.000000
      2          6           0        0.000000    0.000000    0.000000
      3          6           0       -0.834781   -1.284673   -0.031194
      4          6           0        0.017723   -2.560460    0.002266
      5          6           0        0.685030   -2.831304    1.355243
      6          6           0       -1.775342   -1.223434   -1.264376
      7          6           0       -2.631397    0.050710   -1.288884
      8          6           0       -1.760692    1.313705   -1.244389
      9          6           0       -0.805863    1.293172   -0.031194
     10          1           0       -1.481061   -1.258953    0.862656
     11          1           0        0.786848   -2.489945   -0.776323
     12          1           0       -0.625079   -3.410878   -0.263186
     13          1           0       -0.061448   -2.922088    2.154913
     14          1           0        1.255003   -3.766986    1.328404
     15          1           0        1.374349   -2.024553    1.618477
     16          1           0       -1.165682   -1.275067   -2.178272
     17          1           0       -2.415529   -2.114479   -1.266834
     18          1           0       -3.313839    0.046837   -0.426210
     19          1           0       -3.262962    0.060436   -2.185998
     20          1           0       -1.165026    1.378833   -2.165372
     21          1           0       -2.384525    2.214990   -1.210110
     22          1           0       -1.399138    1.355384    0.893296
     23          1           0       -0.109631    2.136776   -0.044731
 ---------------------------------------------------------------------
                    Distance matrix (angstroms):
                    1          2          3          4          5
     1  O    0.000000
     2  C    1.217782   0.000000
     3  C    2.421647   1.532389   0.000000
     4  C    2.827738   2.560522   1.534769   0.000000
     5  C    3.183833   3.212823   2.573733   1.532711   0.000000
     6  C    3.471920   2.499455   1.552141   2.570428   3.937141
     7  C    4.059553   2.930536   2.567657   3.937399   5.127972
     8  C    3.485058   2.524750   3.013424   4.441403   5.469986
     9  C    2.401751   1.524035   2.578007   3.940799   4.599595
    10  H    3.100466   2.126659   1.103316   2.163457   2.721558
    11  H    2.643522   2.724267   2.153504   1.096689   2.161126
    12  H    3.885807   3.477654   2.149080   1.098576   2.161389
    13  H    3.849504   3.631257   2.838703   2.184246   1.097699
    14  H    3.994525   4.186869   3.518179   2.178350   1.095943
    15  H    2.596689   2.933789   2.854661   2.177101   1.093298
    16  H    3.471536   2.780194   2.172448   2.794178   4.281675
    17  H    4.390540   3.451184   2.171209   2.780329   4.123420
    18  H    4.551861   3.341463   2.841599   4.252164   5.239105
    19  H    4.985911   3.927997   3.514052   4.735028   6.040628
    20  H    3.502541   2.819096   3.429000   4.649256   5.791605
    21  H    4.398541   3.472248   4.004896   5.481384   6.439587
    22  H    3.079499   2.143042   2.853609   4.258552   4.699522
    23  H    2.515917   2.140054   3.497476   4.699197   5.222378
                    6          7          8          9         10
     6  C    0.000000
     7  C    1.535211   0.000000
     8  C    2.537260   1.534687   0.000000
     9  C    2.965457   2.541273   1.544008   0.000000
    10  H    2.147587   2.769046   3.337125   2.787149   0.000000
    11  H    2.899494   4.289761   4.601826   4.171801   3.056960
    12  H    2.666533   4.130370   4.957223   4.713236   2.575074
    13  H    4.185020   5.225122   5.690749   4.806416   2.539931
    14  H    4.730238   6.043931   6.444152   5.630353   3.740748
    15  H    4.344328   5.367072   5.400782   4.299074   3.051356
    16  H    1.099799   2.167260   2.815655   3.366789   3.057281
    17  H    1.097181   2.176035   3.490238   3.966096   2.477879
    18  H    2.164043   1.099977   2.164864   2.828309   2.593326
    19  H    2.170420   1.097170   2.171204   3.492872   3.769648
    20  H    2.820651   2.163882   1.098758   2.165884   4.028244
    21  H    3.492393   2.179738   1.096657   2.175262   4.144983
    22  H    3.383398   2.825340   2.168445   1.100240   2.615800
    23  H    3.943747   3.501270   2.200597   1.093888   3.772949
                   11         12         13         14         15
    11  H    0.000000
    12  H    1.762091   0.000000
    13  H    3.081963   2.530573   0.000000
    14  H    2.505969   2.488911   1.769184   0.000000
    15  H    2.509345   3.075754   1.776189   1.770440   0.000000
    16  H    2.693281   2.919160   4.765344   4.936208   4.629124
    17  H    3.261410   2.427688   4.231109   4.789451   4.764061
    18  H    4.834612   4.383127   5.104386   6.204694   5.518198
    19  H    4.989247   4.765045   6.163493   6.885651   6.350265
    20  H    4.550463   5.181813   6.195213   6.674014   5.687616
    21  H    5.690535   5.970151   6.565793   7.448104   6.332753
    22  H    4.727866   4.965266   4.655949   5.785539   4.431940
    23  H    4.769219   5.575829   5.516599   6.213061   4.720711
                   16         17         18         19         20
    16  H    0.000000
    17  H    1.759957   0.000000
    18  H    3.071112   2.486945   0.000000
    19  H    2.486405   2.508637   1.760576   0.000000
    20  H    2.653931   3.817638   3.068598   2.477889   0.000000
    21  H    3.821441   4.329952   2.485762   2.523116   1.760358
    22  H    4.050716   4.211788   2.668234   3.825282   3.067704
    23  H    4.160278   4.988374   3.844518   4.340473   2.487057
                   21         22         23
    21  H    0.000000
    22  H    2.476737   0.000000
    23  H    2.557219   1.775752   0.000000
 Stoichiometry    C8H14O
 Framework group  C1[X(C8H14O)]
 Deg. of freedom    63
 Full point group                 C1      NOp   1
 Largest Abelian subgroup         C1      NOp   1
 Largest concise Abelian subgroup C1      NOp   1
                         Standard orientation:                         
 ---------------------------------------------------------------------
 Center     Atomic      Atomic             Coordinates (Angstroms)
 Number     Number       Type             X           Y           Z
 ---------------------------------------------------------------------
      1          8           0        0.676533    1.771558   -0.650436
      2          6           0        0.016208    0.950803   -0.039433
      3          6           0        0.493119   -0.483401    0.213213
      4          6           0        1.904914   -0.754465   -0.324259
      5          6           0        3.019843   -0.068111    0.472644
      6          6           0       -0.567137   -1.457514   -0.366530
      7          6           0       -1.975984   -1.187178    0.180228
      8          6           0       -2.412064    0.260806   -0.081381
      9          6           0       -1.382120    1.265667    0.478469
     10          1           0        0.490096   -0.625353    1.307356
     11          1           0        1.951188   -0.429513   -1.370677
     12          1           0        2.071392   -1.840351   -0.321843
     13          1           0        3.009355   -0.384880    1.523591
     14          1           0        4.004253   -0.320047    0.062090
     15          1           0        2.909710    1.019143    0.440247
     16          1           0       -0.573177   -1.363828   -1.462314
     17          1           0       -0.261671   -2.487582   -0.144137
     18          1           0       -1.989683   -1.382997    1.262548
     19          1           0       -2.693192   -1.883690   -0.271730
     20          1           0       -2.514244    0.421209   -1.163554
     21          1           0       -3.397399    0.455664    0.358849
     22          1           0       -1.370614    1.193396    1.576272
     23          1           0       -1.628951    2.296731    0.209081
 ---------------------------------------------------------------------
 Rotational constants (GHZ):           2.6713554           1.2226145           0.9319806
 Standard basis: 6-31G(d) (6D, 7F)
 There are   163 symmetry adapted cartesian basis functions of A   symmetry.
 There are   163 symmetry adapted basis functions of A   symmetry.
   163 basis functions,   308 primitive gaussians,   163 cartesian basis functions
    35 alpha electrons       35 beta electrons
       nuclear repulsion energy       472.4014602401 Hartrees.
 NAtoms=   23 NActive=   23 NUniq=   23 SFac= 1.00D+00 NAtFMM=   60 NAOKFM=F Big=F
 Integral buffers will be    131072 words long.
 Raffenetti 2 integral format.
 Two-electron integral symmetry is turned on.
 One-electron integrals computed using PRISM.
 NBasis=   163 RedAO= T EigKep=  2.81D-03  NBF=   163
 NBsUse=   163 1.00D-06 EigRej= -1.00D+00 NBFU=   163
 ExpMin= 1.61D-01 ExpMax= 5.48D+03 ExpMxC= 8.25D+02 IAcc=3 IRadAn=         5 AccDes= 0.00D+00
 Harris functional with IExCor=  402 and IRadAn=       5 diagonalized for initial guess.
 HarFok:  IExCor=  402 AccDes= 0.00D+00 IRadAn=         5 IDoV= 1 UseB2=F ITyADJ=14
 ICtDFT=  3500011 ScaDFX=  1.000000  1.000000  1.000000  1.000000
 FoFCou: FMM=F IPFlag=           0 FMFlag=      100000 FMFlg1=           0
         NFxFlg=           0 DoJE=T BraDBF=F KetDBF=T FulRan=T
         wScrn=  0.000000 ICntrl=       500 IOpCl=  0 I1Cent=   200000004 NGrid=           0
         NMat0=    1 NMatS0=      1 NMatT0=    0 NMatD0=    1 NMtDS0=    0 NMtDT0=    0
 Petite list used in FoFCou.
 Requested convergence on RMS density matrix=1.00D-08 within 128 cycles.
 Requested convergence on MAX density matrix=1.00D-06.
 Requested convergence on             energy=1.00D-06.
 No special actions if energy rises.
 Integral accuracy reduced to 1.0D-05 until final iterations.
 Initial convergence to 1.0D-05 achieved.  Increase integral accuracy.
 SCF Done:  E(RB3LYP) =  -388.519952768     A.U. after   13 cycles
            NFock= 13  Conv=0.60D-08     -V/T= 2.0098
 DoSCS=F DFT=T ScalE2(SS,OS)=  1.000000  1.000000
 Range of M.O.s used for correlation:     1   163
 NBasis=   163 NAE=    35 NBE=    35 NFC=     0 NFV=     0
 NROrb=    163 NOA=    35 NOB=    35 NVA=   128 NVB=   128
 Symmetrizing basis deriv contribution to polar:
 IMax=3 JMax=2 DiffMx= 0.00D+00
 G2DrvN: will do    24 centers at a time, making    1 passes.
 Calling FoFCou, ICntrl=  3107 FMM=F I1Cent=   0 AccDes= 0.00D+00.
 End of G2Drv F.D. properties file   721 does not exist.
 End of G2Drv F.D. properties file   722 does not exist.
 End of G2Drv F.D. properties file   788 does not exist.
          IDoAtm=11111111111111111111111
          Differentiating once with respect to electric field.
                with respect to dipole field.
          Differentiating once with respect to nuclear coordinates.
 Keep R1 ints in memory in canonical form, NReq=97235297.
          There are    72 degrees of freedom in the 1st order CPHF.  IDoFFX=6 NUNeed=     3.
     69 vectors produced by pass  0 Test12= 6.22D-15 1.39D-09 XBig12= 5.54D+01 1.76D+00.
 AX will form    69 AO Fock derivatives at one time.
     69 vectors produced by pass  1 Test12= 6.22D-15 1.39D-09 XBig12= 5.06D+00 5.85D-01.
     69 vectors produced by pass  2 Test12= 6.22D-15 1.39D-09 XBig12= 2.63D-02 2.37D-02.
     69 vectors produced by pass  3 Test12= 6.22D-15 1.39D-09 XBig12= 5.19D-05 9.27D-04.
     69 vectors produced by pass  4 Test12= 6.22D-15 1.39D-09 XBig12= 5.26D-08 2.69D-05.
     31 vectors produced by pass  5 Test12= 6.22D-15 1.39D-09 XBig12= 3.05D-11 6.23D-07.
      3 vectors produced by pass  6 Test12= 6.22D-15 1.39D-09 XBig12= 1.82D-14 1.34D-08.
 InvSVY:  IOpt=1 It=  1 EMax= 6.22D-15
 Solved reduced A of dimension   379 with    72 vectors.
 Isotropic polarizability for W=    0.000000       82.90 Bohr**3.
 End of Minotr F.D. properties file   721 does not exist.
 End of Minotr F.D. properties file   722 does not exist.
 End of Minotr F.D. properties file   788 does not exist.

 **********************************************************************

            Population analysis using the SCF density.

 **********************************************************************

 Orbital symmetries:
       Occupied  (A) (A) (A) (A) (A) (A) (A) (A) (A) (A) (A) (A)
                 (A) (A) (A) (A) (A) (A) (A) (A) (A) (A) (A) (A)
                 (A) (A) (A) (A) (A) (A) (A) (A) (A) (A) (A)
       Virtual   (A) (A) (A) (A) (A) (A) (A) (A) (A) (A) (A) (A)
                 (A) (A) (A) (A) (A) (A) (A) (A) (A) (A) (A) (A)
                 (A) (A) (A) (A) (A) (A) (A) (A) (A) (A) (A) (A)
                 (A) (A) (A) (A) (A) (A) (A) (A) (A) (A) (A) (A)
                 (A) (A) (A) (A) (A) (A) (A) (A) (A) (A) (A) (A)
                 (A) (A) (A) (A) (A) (A) (A) (A) (A) (A) (A) (A)
                 (A) (A) (A) (A) (A) (A) (A) (A) (A) (A) (A) (A)
                 (A) (A) (A) (A) (A) (A) (A) (A) (A) (A) (A) (A)
                 (A) (A) (A) (A) (A) (A) (A) (A) (A) (A) (A) (A)
                 (A) (A) (A) (A) (A) (A) (A) (A) (A) (A) (A) (A)
                 (A) (A) (A) (A) (A) (A) (A) (A)
 The electronic state is 1-A.
 Alpha  occ. eigenvalues --  -19.13432 -10.26715 -10.19443 -10.19401 -10.19224
 Alpha  occ. eigenvalues --  -10.19058 -10.18996 -10.17787 -10.16571  -1.03262
 Alpha  occ. eigenvalues --   -0.83454  -0.78191  -0.73626  -0.70977  -0.63005
 Alpha  occ. eigenvalues --   -0.60161  -0.57938  -0.52648  -0.47496  -0.46902
 Alpha  occ. eigenvalues --   -0.44734  -0.43393  -0.42167  -0.41465  -0.40196
 Alpha  occ. eigenvalues --   -0.39476  -0.37324  -0.36286  -0.35175  -0.34053
 Alpha  occ. eigenvalues --   -0.33286  -0.33075  -0.32169  -0.31005  -0.23459
 Alpha virt. eigenvalues --   -0.01264   0.09053   0.10076   0.11250   0.13059
 Alpha virt. eigenvalues --    0.14386   0.14517   0.15275   0.16230   0.16632
 Alpha virt. eigenvalues --    0.17555   0.18139   0.18886   0.19464   0.19907
 Alpha virt. eigenvalues --    0.20599   0.22191   0.24054   0.25249   0.26617
 Alpha virt. eigenvalues --    0.28386   0.28434   0.32656   0.37053   0.49131
 Alpha virt. eigenvalues --    0.51687   0.51868   0.52857   0.54328   0.55997
 Alpha virt. eigenvalues --    0.56631   0.59862   0.61243   0.62626   0.63791
 Alpha virt. eigenvalues --    0.65692   0.66435   0.68679   0.70169   0.73899
 Alpha virt. eigenvalues --    0.75248   0.76939   0.78972   0.80061   0.82387
 Alpha virt. eigenvalues --    0.83956   0.85696   0.86567   0.87337   0.89169
 Alpha virt. eigenvalues --    0.89626   0.90645   0.91760   0.92807   0.92866
 Alpha virt. eigenvalues --    0.94093   0.94813   0.95668   0.97053   0.97619
 Alpha virt. eigenvalues --    1.03645   1.04859   1.09419   1.10324   1.15117
 Alpha virt. eigenvalues --    1.16915   1.20640   1.30233   1.33795   1.37878
 Alpha virt. eigenvalues --    1.44580   1.46264   1.48491   1.53096   1.62928
 Alpha virt. eigenvalues --    1.64536   1.67269   1.69067   1.70963   1.74772
 Alpha virt. eigenvalues --    1.79956   1.80747   1.82593   1.85378   1.87567
 Alpha virt. eigenvalues --    1.88301   1.93626   1.94172   1.94486   1.97335
 Alpha virt. eigenvalues --    1.98284   2.00995   2.01468   2.04206   2.06365
 Alpha virt. eigenvalues --    2.10438   2.13686   2.16567   2.20997   2.26355
 Alpha virt. eigenvalues --    2.31213   2.32930   2.35161   2.37518   2.37717
 Alpha virt. eigenvalues --    2.39348   2.40899   2.45899   2.49332   2.55262
 Alpha virt. eigenvalues --    2.58544   2.61532   2.63745   2.71344   2.73215
 Alpha virt. eigenvalues --    2.77498   2.84049   2.99113   3.03439   4.01975
 Alpha virt. eigenvalues --    4.11979   4.20332   4.25125   4.30776   4.46994
 Alpha virt. eigenvalues --    4.52854   4.57476   4.64490
          Condensed to atoms (all electrons):
               1          2          3          4          5          6
     1  O    8.011734   0.576610  -0.091034   0.005518  -0.006541  -0.000052
     2  C    0.576610   4.529245   0.292400  -0.029607  -0.002147  -0.024573
     3  C   -0.091034   0.292400   5.257117   0.356123  -0.031600   0.355776
     4  C    0.005518  -0.029607   0.356123   4.976888   0.366850  -0.037072
     5  C   -0.006541  -0.002147  -0.031600   0.366850   5.082530   0.003492
     6  C   -0.000052  -0.024573   0.355776  -0.037072   0.003492   5.043632
     7  C    0.000142  -0.013185  -0.036035   0.003635  -0.000138   0.367308
     8  C    0.000569  -0.027423  -0.004490   0.000049   0.000002  -0.044879
     9  C   -0.074140   0.343593  -0.130344   0.006024  -0.000268  -0.007388
    10  H    0.001888  -0.037507   0.350240  -0.042922  -0.004239  -0.042615
    11  H    0.007971  -0.008048  -0.039332   0.373501  -0.034427  -0.003059
    12  H    0.000344   0.004912  -0.040681   0.369313  -0.039583  -0.004379
    13  H    0.000152  -0.000219  -0.005921  -0.037237   0.373683   0.000053
    14  H    0.000103   0.000018   0.003916  -0.028070   0.371257  -0.000113
    15  H    0.009541   0.004074  -0.008139  -0.031062   0.376338   0.000113
    16  H    0.000674  -0.004912  -0.043246  -0.002982   0.000021   0.371027
    17  H   -0.000072   0.003494  -0.032366  -0.004029   0.000014   0.367616
    18  H   -0.000007  -0.001892  -0.004490   0.000045   0.000001  -0.041063
    19  H    0.000001   0.000307   0.004210  -0.000123   0.000002  -0.030022
    20  H    0.000625  -0.003097   0.000073  -0.000029   0.000000  -0.004625
    21  H   -0.000064   0.003476  -0.000231   0.000008  -0.000000   0.004794
    22  H    0.001644  -0.030668   0.003463  -0.000118   0.000028  -0.001036
    23  H    0.005519  -0.023698   0.006597  -0.000154   0.000003  -0.000082
               7          8          9         10         11         12
     1  O    0.000142   0.000569  -0.074140   0.001888   0.007971   0.000344
     2  C   -0.013185  -0.027423   0.343593  -0.037507  -0.008048   0.004912
     3  C   -0.036035  -0.004490  -0.130344   0.350240  -0.039332  -0.040681
     4  C    0.003635   0.000049   0.006024  -0.042922   0.373501   0.369313
     5  C   -0.000138   0.000002  -0.000268  -0.004239  -0.034427  -0.039583
     6  C    0.367308  -0.044879  -0.007388  -0.042615  -0.003059  -0.004379
     7  C    5.011390   0.379438  -0.046341  -0.002365  -0.000040   0.000182
     8  C    0.379438   5.013686   0.344499  -0.001746  -0.000057  -0.000005
     9  C   -0.046341   0.344499   5.279169   0.002151   0.000478  -0.000136
    10  H   -0.002365  -0.001746   0.002151   0.625471   0.006136  -0.001815
    11  H   -0.000040  -0.000057   0.000478   0.006136   0.583563  -0.037470
    12  H    0.000182  -0.000005  -0.000136  -0.001815  -0.037470   0.621653
    13  H   -0.000001  -0.000000   0.000010   0.005936   0.005169  -0.004049
    14  H    0.000001   0.000000   0.000004  -0.000002  -0.002520  -0.003059
    15  H    0.000003  -0.000002   0.000163  -0.000368  -0.004261   0.004975
    16  H   -0.039071  -0.005162   0.000210   0.006487   0.004130  -0.000195
    17  H   -0.029915   0.004792  -0.000276  -0.006373  -0.000446   0.005152
    18  H    0.373520  -0.042321  -0.003132   0.005187   0.000003  -0.000004
    19  H    0.366353  -0.031667   0.004689  -0.000006   0.000003  -0.000006
    20  H   -0.039389   0.376227  -0.043058   0.000114  -0.000009  -0.000000
    21  H   -0.030614   0.369373  -0.029559  -0.000025   0.000000  -0.000000
    22  H   -0.003361  -0.035710   0.348848   0.001840  -0.000007  -0.000001
    23  H    0.004218  -0.025117   0.342675  -0.000148  -0.000007   0.000002
              13         14         15         16         17         18
     1  O    0.000152   0.000103   0.009541   0.000674  -0.000072  -0.000007
     2  C   -0.000219   0.000018   0.004074  -0.004912   0.003494  -0.001892
     3  C   -0.005921   0.003916  -0.008139  -0.043246  -0.032366  -0.004490
     4  C   -0.037237  -0.028070  -0.031062  -0.002982  -0.004029   0.000045
     5  C    0.373683   0.371257   0.376338   0.000021   0.000014   0.000001
     6  C    0.000053  -0.000113   0.000113   0.371027   0.367616  -0.041063
     7  C   -0.000001   0.000001   0.000003  -0.039071  -0.029915   0.373520
     8  C   -0.000000   0.000000  -0.000002  -0.005162   0.004792  -0.042321
     9  C    0.000010   0.000004   0.000163   0.000210  -0.000276  -0.003132
    10  H    0.005936  -0.000002  -0.000368   0.006487  -0.006373   0.005187
    11  H    0.005169  -0.002520  -0.004261   0.004130  -0.000446   0.000003
    12  H   -0.004049  -0.003059   0.004975  -0.000195   0.005152  -0.000004
    13  H    0.593324  -0.031748  -0.030746   0.000008  -0.000003  -0.000002
    14  H   -0.031748   0.576429  -0.027409   0.000003  -0.000007   0.000000
    15  H   -0.030746  -0.027409   0.535628  -0.000002  -0.000004  -0.000000
    16  H    0.000008   0.000003  -0.000002   0.601333  -0.036709   0.005777
    17  H   -0.000003  -0.000007  -0.000004  -0.036709   0.593937  -0.004107
    18  H   -0.000002   0.000000  -0.000000   0.005777  -0.004107   0.609785
    19  H    0.000000  -0.000000   0.000000  -0.003950  -0.002333  -0.036140
    20  H   -0.000000  -0.000000  -0.000000   0.004467  -0.000009   0.005801
    21  H   -0.000000   0.000000   0.000000  -0.000021  -0.000181  -0.004313
    22  H   -0.000009  -0.000000  -0.000034   0.000112  -0.000010   0.004558
    23  H   -0.000000  -0.000000   0.000002  -0.000042   0.000017  -0.000038
              19         20         21         22         23
     1  O    0.000001   0.000625  -0.000064   0.001644   0.005519
     2  C    0.000307  -0.003097   0.003476  -0.030668  -0.023698
     3  C    0.004210   0.000073  -0.000231   0.003463   0.006597
     4  C   -0.000123  -0.000029   0.000008  -0.000118  -0.000154
     5  C    0.000002   0.000000  -0.000000   0.000028   0.000003
     6  C   -0.030022  -0.004625   0.004794  -0.001036  -0.000082
     7  C    0.366353  -0.039389  -0.030614  -0.003361   0.004218
     8  C   -0.031667   0.376227   0.369373  -0.035710  -0.025117
     9  C    0.004689  -0.043058  -0.029559   0.348848   0.342675
    10  H   -0.000006   0.000114  -0.000025   0.001840  -0.000148
    11  H    0.000003  -0.000009   0.000000  -0.000007  -0.000007
    12  H   -0.000006  -0.000000  -0.000000  -0.000001   0.000002
    13  H    0.000000  -0.000000  -0.000000  -0.000009  -0.000000
    14  H   -0.000000  -0.000000   0.000000  -0.000000  -0.000000
    15  H    0.000000  -0.000000   0.000000  -0.000034   0.000002
    16  H   -0.003950   0.004467  -0.000021   0.000112  -0.000042
    17  H   -0.002333  -0.000009  -0.000181  -0.000010   0.000017
    18  H   -0.036140   0.005801  -0.004313   0.004558  -0.000038
    19  H    0.594958  -0.004350  -0.002076  -0.000042  -0.000142
    20  H   -0.004350   0.594992  -0.036513   0.005807  -0.003302
    21  H   -0.002076  -0.036513   0.591386  -0.006272  -0.002582
    22  H   -0.000042   0.005807  -0.006272   0.588182  -0.027297
    23  H   -0.000142  -0.003302  -0.002582  -0.027297   0.561991
 Mulliken charges:
               1
     1  O   -0.451126
     2  C    0.448847
     3  C   -0.162006
     4  C   -0.244548
     5  C   -0.455278
     6  C   -0.272854
     7  C   -0.265737
     8  C   -0.270055
     9  C   -0.337872
    10  H    0.134684
    11  H    0.148729
    12  H    0.124853
    13  H    0.131601
    14  H    0.141199
    15  H    0.171191
    16  H    0.142044
    17  H    0.141818
    18  H    0.132831
    19  H    0.140333
    20  H    0.146273
    21  H    0.143413
    22  H    0.150081
    23  H    0.161583
 Sum of Mulliken charges =  -0.00000
 Mulliken charges with hydrogens summed into heavy atoms:
               1
     1  O   -0.451126
     2  C    0.448847
     3  C   -0.027322
     4  C    0.029033
     5  C   -0.011288
     6  C    0.011007
     7  C    0.007427
     8  C    0.019630
     9  C   -0.026208
 APT charges:
               1
     1  O   -0.629600
     2  C    0.691415
     3  C   -0.057391
     4  C    0.121474
     5  C    0.071393
     6  C    0.127823
     7  C    0.105648
     8  C    0.148528
     9  C   -0.061567
    10  H   -0.037879
    11  H   -0.027210
    12  H   -0.058522
    13  H   -0.035219
    14  H   -0.039779
    15  H    0.013063
    16  H   -0.038921
    17  H   -0.050296
    18  H   -0.049590
    19  H   -0.056030
    20  H   -0.041145
    21  H   -0.053411
    22  H   -0.014489
    23  H   -0.028296
 Sum of APT charges =   0.00000
 APT charges with hydrogens summed into heavy atoms:
               1
     1  O   -0.629600
     2  C    0.691415
     3  C   -0.095270
     4  C    0.035742
     5  C    0.009458
     6  C    0.038607
     7  C    0.000028
     8  C    0.053972
     9  C   -0.104351
 Electronic spatial extent (au):  <R**2>=           1355.1450
 Charge=             -0.0000 electrons
 Dipole moment (field-independent basis, Debye):
    X=             -1.7270    Y=             -1.9614    Z=              1.1540  Tot=              2.8568
 Quadrupole moment (field-independent basis, Debye-Ang):
   XX=            -55.5508   YY=            -59.9761   ZZ=            -55.9355
   XY=             -2.5816   XZ=              0.6257   YZ=              2.3562
 Traceless Quadrupole moment (field-independent basis, Debye-Ang):
   XX=              1.6033   YY=             -2.8219   ZZ=              1.2186
   XY=             -2.5816   XZ=              0.6257   YZ=              2.3562
 Octapole moment (field-independent basis, Debye-Ang**2):
  XXX=             -2.3103  YYY=             -2.2892  ZZZ=             -1.7649  XYY=             -4.7551
  XXY=              1.5307  XXZ=             -1.6844  XZZ=             -1.1035  YZZ=              1.0517
  YYZ=              3.7879  XYZ=              1.1904
 Hexadecapole moment (field-independent basis, Debye-Ang**3):
 XXXX=          -1171.7367 YYYY=           -494.6912 ZZZZ=           -152.0559 XXXY=              1.5253
 XXXZ=             -9.8615 YYYX=             -4.8203 YYYZ=              3.6270 ZZZX=             -2.0604
 ZZZY=             -4.1116 XXYY=           -277.1857 XXZZ=           -223.7068 YYZZ=           -110.8530
 XXYZ=              1.3378 YYXZ=              3.8210 ZZXY=             -0.0072
 N-N= 4.724014602401D+02 E-N=-1.846188032538D+03  KE= 3.847555316542D+02
  Exact polarizability:  95.203   1.070  82.421  -2.271  -1.136  71.078
 Approx polarizability: 116.612   6.123 118.627  -6.349  -7.672 112.177
 Calling FoFJK, ICntrl=    100127 FMM=F ISym2X=0 I1Cent= 0 IOpClX= 0 NMat=1 NMatS=1 NMatT=0.
 Full mass-weighted force constant matrix:
 Low frequencies ---  -10.6663   -2.8733   -0.0012   -0.0011   -0.0008    5.1221
 Low frequencies ---   81.9036  100.5347  143.3299
 Diagonal vibrational polarizability:
        6.4891832       4.1812700       7.5196425
 Harmonic frequencies (cm**-1), IR intensities (KM/Mole), Raman scattering
 activities (A**4/AMU), depolarization ratios for plane and unpolarized
 incident light, reduced masses (AMU), force constants (mDyne/A),
 and normal coordinates:
                      1                      2                      3
                      A                      A                      A
 Frequencies --     81.9011               100.5328               143.3297
 Red. masses --      4.0097                 2.1658                 2.2924
 Frc consts  --      0.0158                 0.0129                 0.0277
 IR Inten    --      1.7432                 0.0663                 1.1463
  Atom  AN      X      Y      Z        X      Y      Z        X      Y      Z
     1   8     0.11   0.11   0.27     0.01  -0.06   0.03     0.12   0.03   0.09
     2   6    -0.01   0.03   0.04     0.02  -0.04   0.07     0.03  -0.01  -0.06
     3   6    -0.01   0.02   0.03    -0.01  -0.04   0.07    -0.03  -0.03  -0.08
     4   6    -0.04   0.01  -0.08    -0.01  -0.08   0.08     0.01  -0.06   0.03
     5   6     0.05  -0.05  -0.17     0.00   0.16  -0.15    -0.07   0.09   0.02
     6   6     0.00  -0.06   0.15    -0.01  -0.01   0.01    -0.04   0.02  -0.12
     7   6    -0.02  -0.01   0.07    -0.05   0.02  -0.09     0.02  -0.03   0.07
     8   6    -0.02  -0.06  -0.16     0.02   0.05  -0.06    -0.05  -0.05   0.12
     9   6    -0.09   0.01  -0.17     0.02  -0.02   0.07     0.01   0.02  -0.11
    10   1     0.08   0.08   0.03    -0.03  -0.06   0.07    -0.09  -0.05  -0.08
    11   1    -0.12   0.02  -0.08    -0.08  -0.33  -0.00     0.07  -0.21  -0.01
    12   1    -0.07   0.00  -0.11     0.04  -0.07   0.32     0.03  -0.05   0.20
    13   1     0.14  -0.07  -0.17     0.03   0.48  -0.05    -0.22   0.33   0.09
    14   1     0.00  -0.08  -0.27    -0.01   0.04  -0.10    -0.02  -0.05   0.21
    15   1     0.09  -0.05  -0.13    -0.00   0.15  -0.47    -0.03   0.08  -0.25
    16   1     0.01  -0.21   0.14     0.07  -0.00   0.01    -0.15   0.15  -0.11
    17   1     0.01  -0.02   0.29    -0.06  -0.02   0.02    -0.01  -0.00  -0.27
    18   1    -0.05   0.15   0.10    -0.14  -0.02  -0.10     0.19  -0.04   0.07
    19   1     0.01  -0.10   0.15    -0.03   0.07  -0.18    -0.03  -0.05   0.17
    20   1     0.08  -0.20  -0.19     0.12   0.11  -0.06    -0.26  -0.09   0.13
    21   1    -0.07  -0.02  -0.28    -0.00   0.07  -0.13     0.02  -0.06   0.29
    22   1    -0.20   0.12  -0.16    -0.02  -0.12   0.07     0.07   0.20  -0.09
    23   1    -0.08  -0.02  -0.28     0.06   0.01   0.14    -0.00  -0.02  -0.24
                      4                      5                      6
                      A                      A                      A
 Frequencies --    197.2563               233.8548               296.2853
 Red. masses --      2.0170                 1.5393                 2.2093
 Frc consts  --      0.0462                 0.0496                 0.1143
 IR Inten    --      1.3706                 0.4266                 2.1135
  Atom  AN      X      Y      Z        X      Y      Z        X      Y      Z
     1   8     0.08  -0.08   0.03     0.02  -0.05  -0.01    -0.01   0.18   0.00
     2   6     0.03  -0.06   0.00    -0.01  -0.01   0.02     0.02   0.07  -0.10
     3   6    -0.01  -0.08  -0.04    -0.00   0.00   0.09    -0.01   0.05  -0.08
     4   6    -0.00   0.05  -0.08    -0.00  -0.01   0.08    -0.00  -0.15   0.06
     5   6    -0.13   0.13   0.03     0.08  -0.00  -0.05    -0.05  -0.02   0.00
     6   6    -0.05  -0.07   0.02     0.01   0.07  -0.05     0.01  -0.05   0.04
     7   6    -0.03   0.03   0.03    -0.00  -0.01  -0.04    -0.01  -0.04  -0.03
     8   6     0.04   0.04  -0.02    -0.06  -0.01   0.04     0.03  -0.01   0.03
     9   6     0.06   0.00   0.00    -0.04   0.03  -0.06     0.04  -0.04   0.03
    10   1     0.04  -0.08  -0.04    -0.06  -0.03   0.08    -0.05   0.18  -0.06
    11   1    -0.03   0.17  -0.04    -0.07  -0.05   0.07     0.09  -0.39  -0.01
    12   1     0.12   0.07  -0.18    -0.01  -0.01   0.10    -0.06  -0.15   0.32
    13   1     0.05  -0.19  -0.07     0.47  -0.29  -0.13     0.19  -0.20  -0.05
    14   1    -0.08   0.56  -0.13     0.00   0.31  -0.42    -0.05   0.31  -0.19
    15   1    -0.45   0.11   0.37    -0.14  -0.01   0.27    -0.32  -0.04   0.20
    16   1    -0.06  -0.13   0.02     0.03   0.22  -0.03     0.04  -0.22   0.03
    17   1    -0.09  -0.07   0.07     0.01   0.04  -0.19     0.04  -0.00   0.21
    18   1    -0.02   0.08   0.04     0.01  -0.08  -0.05    -0.09  -0.10  -0.04
    19   1    -0.07   0.04   0.08     0.02  -0.01  -0.08    -0.00   0.00  -0.11
    20   1     0.09   0.02  -0.03    -0.18  -0.00   0.06    -0.00   0.03   0.04
    21   1     0.03   0.09  -0.06    -0.02  -0.05   0.15     0.04  -0.01   0.06
    22   1     0.05  -0.01   0.00    -0.05   0.16  -0.05     0.16  -0.16   0.02
    23   1     0.10   0.02   0.01    -0.02   0.00  -0.18    -0.03  -0.02   0.18
                      7                      8                      9
                      A                      A                      A
 Frequencies --    306.2122               361.2358               424.4392
 Red. masses --      1.7817                 3.6636                 2.7765
 Frc consts  --      0.0984                 0.2817                 0.2947
 IR Inten    --      0.7668                 2.3991                 1.5812
  Atom  AN      X      Y      Z        X      Y      Z        X      Y      Z
     1   8    -0.07   0.02  -0.00    -0.07   0.03   0.05     0.15  -0.00  -0.05
     2   6    -0.01   0.00   0.04    -0.02  -0.10  -0.07     0.07   0.04  -0.07
     3   6     0.00  -0.02  -0.02     0.08  -0.07  -0.11    -0.04   0.08   0.04
     4   6     0.01  -0.07   0.03     0.22   0.00   0.01    -0.05   0.09   0.04
     5   6    -0.01  -0.01  -0.00     0.22   0.05   0.06     0.03   0.02   0.00
     6   6    -0.02   0.06  -0.09    -0.10  -0.02   0.01    -0.10   0.11   0.02
     7   6     0.07   0.05   0.13    -0.13   0.11   0.03    -0.13  -0.08   0.06
     8   6     0.06  -0.01  -0.11    -0.18   0.08  -0.02    -0.02  -0.09  -0.04
     9   6    -0.02  -0.02   0.03    -0.03  -0.10  -0.03     0.06  -0.16   0.02
    10   1    -0.04  -0.09  -0.03     0.09  -0.04  -0.11    -0.06   0.14   0.05
    11   1     0.04  -0.17  -0.00     0.31  -0.03   0.00    -0.08   0.15   0.06
    12   1    -0.00  -0.07   0.14     0.27   0.01   0.05    -0.05   0.09  -0.04
    13   1     0.08  -0.07  -0.02     0.24   0.04   0.06     0.07   0.02   0.00
    14   1    -0.01   0.11  -0.07     0.21   0.07   0.04    -0.02  -0.07  -0.06
    15   1    -0.12  -0.02   0.06     0.20   0.05   0.07     0.13   0.03   0.01
    16   1    -0.17   0.25  -0.07    -0.15  -0.14   0.00    -0.20   0.31   0.04
    17   1     0.00   0.03  -0.29    -0.24  -0.05   0.10     0.00   0.10  -0.21
    18   1     0.29   0.28   0.18    -0.10   0.22   0.05    -0.17  -0.08   0.06
    19   1     0.01  -0.07   0.41    -0.12   0.03   0.13    -0.06  -0.11  -0.00
    20   1     0.30  -0.13  -0.15    -0.27   0.10  -0.01     0.10  -0.15  -0.06
    21   1    -0.03   0.04  -0.33    -0.12   0.12   0.09    -0.03   0.08  -0.14
    22   1    -0.11  -0.10   0.02     0.02  -0.24  -0.03     0.19  -0.49  -0.00
    23   1     0.00  -0.00   0.07     0.09  -0.03   0.13    -0.09  -0.10   0.37
                     10                     11                     12
                      A                      A                      A
 Frequencies --    437.9675               497.3767               572.2048
 Red. masses --      3.0182                 2.0344                 3.0234
 Frc consts  --      0.3411                 0.2965                 0.5832
 IR Inten    --      0.8188                 2.5463                 3.7313
  Atom  AN      X      Y      Z        X      Y      Z        X      Y      Z
     1   8    -0.03   0.02  -0.01     0.09  -0.08   0.02    -0.13   0.13   0.03
     2   6     0.08  -0.03   0.05    -0.06  -0.01  -0.06     0.04  -0.09  -0.06
     3   6     0.17   0.01   0.10    -0.03   0.04  -0.01    -0.02  -0.09   0.13
     4   6     0.05  -0.12  -0.13    -0.06   0.02   0.03    -0.10   0.05   0.09
     5   6    -0.15  -0.02  -0.01    -0.03  -0.01  -0.02    -0.03  -0.00  -0.02
     6   6     0.07   0.18   0.10     0.10  -0.00  -0.01     0.00  -0.05  -0.03
     7   6    -0.00   0.05  -0.01     0.13   0.10  -0.03     0.04   0.05  -0.02
     8   6    -0.12  -0.00  -0.02    -0.10   0.04  -0.03     0.05   0.04  -0.01
     9   6    -0.01  -0.10  -0.06    -0.06  -0.05   0.03     0.18  -0.11  -0.14
    10   1     0.33   0.01   0.09    -0.08   0.08  -0.01    -0.14  -0.04   0.13
    11   1    -0.00  -0.10  -0.12    -0.06  -0.03   0.01    -0.27   0.33   0.16
    12   1     0.03  -0.12  -0.11    -0.10   0.02   0.08     0.00   0.07  -0.24
    13   1    -0.35  -0.01  -0.01     0.00  -0.03  -0.02     0.07   0.07   0.01
    14   1    -0.00   0.16   0.23    -0.06  -0.04  -0.06    -0.10  -0.12  -0.12
    15   1    -0.35  -0.04  -0.03     0.00  -0.01   0.00     0.07   0.01  -0.09
    16   1     0.11   0.33   0.11     0.20  -0.18  -0.03     0.08   0.05  -0.02
    17   1     0.02   0.14  -0.05     0.05   0.03   0.20    -0.07  -0.08  -0.08
    18   1    -0.11   0.03  -0.02     0.32   0.32   0.02     0.15   0.17   0.01
    19   1     0.15  -0.05  -0.11     0.11  -0.06   0.25    -0.04   0.02   0.15
    20   1    -0.25   0.01  -0.01    -0.29   0.13   0.00    -0.21   0.07   0.02
    21   1    -0.05   0.00   0.12    -0.04  -0.13   0.17     0.18   0.10   0.25
    22   1    -0.05  -0.13  -0.06     0.05  -0.40   0.01     0.24  -0.17  -0.14
    23   1     0.07  -0.07  -0.03    -0.07   0.04   0.39     0.29  -0.07  -0.06
                     13                     14                     15
                      A                      A                      A
 Frequencies --    670.5364               720.1775               793.4385
 Red. masses --      3.0784                 2.0766                 1.3304
 Frc consts  --      0.8155                 0.6346                 0.4935
 IR Inten    --      1.2814                 8.0019                 0.8507
  Atom  AN      X      Y      Z        X      Y      Z        X      Y      Z
     1   8     0.06   0.09  -0.13    -0.04  -0.05  -0.00    -0.01   0.01  -0.00
     2   6     0.17   0.19   0.17     0.08  -0.03   0.15    -0.03   0.03   0.01
     3   6     0.02  -0.07   0.08    -0.01   0.12  -0.10     0.01  -0.04   0.05
     4   6     0.02  -0.04   0.00    -0.05   0.09  -0.00    -0.00   0.06  -0.05
     5   6     0.01   0.00   0.00    -0.01   0.01  -0.00     0.00   0.02  -0.02
     6   6    -0.06  -0.12  -0.07    -0.03   0.05  -0.02     0.01  -0.09   0.02
     7   6    -0.04  -0.03  -0.04    -0.03   0.00  -0.02    -0.00  -0.03   0.02
     8   6    -0.09  -0.04  -0.05     0.00  -0.03  -0.02     0.02   0.03  -0.04
     9   6    -0.04   0.03   0.03     0.10  -0.10  -0.03     0.01   0.05  -0.04
    10   1    -0.03  -0.29   0.04     0.00  -0.06  -0.12     0.16  -0.05   0.05
    11   1    -0.07   0.18   0.07     0.08  -0.30  -0.12    -0.05  -0.37  -0.18
    12   1     0.09  -0.03  -0.23    -0.13   0.07   0.41     0.07   0.07   0.38
    13   1     0.02   0.09   0.03    -0.04  -0.17  -0.05    -0.21  -0.26  -0.10
    14   1     0.03   0.06   0.02    -0.07  -0.12  -0.04     0.02  -0.11   0.11
    15   1    -0.07  -0.01  -0.08     0.18   0.03   0.17     0.22   0.05   0.27
    16   1     0.04  -0.26  -0.08     0.01  -0.29  -0.05    -0.07   0.22   0.04
    17   1    -0.08  -0.09   0.12     0.06   0.16   0.32     0.02  -0.15  -0.29
    18   1     0.21   0.22   0.02     0.08   0.11  -0.00    -0.09   0.00   0.02
    19   1    -0.14  -0.16   0.31    -0.03  -0.09   0.11    -0.05   0.02  -0.00
    20   1    -0.34   0.03  -0.02    -0.13   0.01   0.01    -0.19   0.02  -0.02
    21   1     0.01  -0.09   0.20     0.09   0.06   0.14     0.10  -0.00   0.15
    22   1    -0.25  -0.06   0.02    -0.14   0.12  -0.01     0.03  -0.21  -0.06
    23   1    -0.16   0.02   0.09     0.19  -0.14  -0.27    -0.02   0.11   0.20
                     16                     17                     18
                      A                      A                      A
 Frequencies --    846.9421               863.9496               876.4776
 Red. masses --      1.7871                 2.3222                 1.8643
 Frc consts  --      0.7553                 1.0212                 0.8438
 IR Inten    --     10.1363                 0.6992                 4.3001
  Atom  AN      X      Y      Z        X      Y      Z        X      Y      Z
     1   8    -0.02  -0.05   0.01     0.04   0.04  -0.03     0.00  -0.03   0.03
     2   6    -0.05   0.05   0.08     0.03   0.02  -0.03    -0.09   0.01  -0.04
     3   6    -0.06   0.03  -0.06     0.01  -0.10   0.04    -0.04   0.09   0.12
     4   6     0.02  -0.05  -0.01    -0.01   0.02  -0.01     0.05  -0.04  -0.08
     5   6     0.04  -0.01   0.03    -0.00   0.03  -0.01     0.08   0.00  -0.01
     6   6    -0.06   0.03   0.05    -0.09   0.04   0.01    -0.06   0.00  -0.03
     7   6     0.06   0.04   0.01     0.08   0.19  -0.04    -0.07  -0.02  -0.09
     8   6     0.14  -0.03  -0.04     0.09  -0.09   0.08     0.09  -0.03   0.02
     9   6     0.00   0.01  -0.09    -0.11  -0.11  -0.00     0.02  -0.03   0.01
    10   1    -0.03  -0.06  -0.06     0.00  -0.14   0.03    -0.02   0.20   0.13
    11   1     0.13   0.11   0.04    -0.13  -0.13  -0.06    -0.08  -0.08  -0.09
    12   1    -0.09  -0.06  -0.16     0.16   0.05   0.14    -0.06  -0.06  -0.04
    13   1     0.13   0.17   0.08    -0.11  -0.17  -0.07    -0.20  -0.02  -0.01
    14   1     0.07   0.14   0.00    -0.02  -0.12   0.03     0.26   0.23   0.30
    15   1    -0.15  -0.03  -0.15     0.21   0.06   0.19    -0.16  -0.02   0.05
    16   1    -0.22   0.02   0.05    -0.02  -0.08   0.00     0.20  -0.01  -0.03
    17   1    -0.02   0.04   0.01    -0.40  -0.02   0.15    -0.05   0.02   0.07
    18   1    -0.17  -0.04  -0.00     0.01   0.00  -0.07     0.29   0.28  -0.02
    19   1     0.05   0.18  -0.19     0.06   0.30  -0.19    -0.28  -0.10   0.36
    20   1    -0.34  -0.08   0.00     0.20  -0.09   0.07     0.05   0.16   0.05
    21   1     0.32  -0.11   0.39     0.01  -0.23  -0.05     0.13  -0.01   0.08
    22   1    -0.12  -0.34  -0.11    -0.05   0.07   0.01     0.15   0.11   0.01
    23   1    -0.11   0.05   0.19    -0.36  -0.21  -0.14    -0.14  -0.09  -0.10
                     19                     20                     21
                      A                      A                      A
 Frequencies --    915.9032               945.3629               990.8085
 Red. masses --      1.4353                 2.4498                 1.7976
 Frc consts  --      0.7094                 1.2900                 1.0398
 IR Inten    --      1.0874                 2.5675                 1.1149
  Atom  AN      X      Y      Z        X      Y      Z        X      Y      Z
     1   8     0.02   0.01  -0.00    -0.02   0.02   0.01     0.02   0.02  -0.02
     2   6     0.02  -0.02  -0.04     0.02  -0.03  -0.02     0.06  -0.01   0.01
     3   6     0.00  -0.01  -0.06    -0.12  -0.09  -0.00    -0.07   0.03  -0.02
     4   6    -0.01   0.01   0.02    -0.03  -0.05  -0.06    -0.08  -0.04  -0.03
     5   6    -0.02   0.00   0.01     0.09   0.06   0.02     0.12   0.03   0.01
     6   6    -0.03  -0.03   0.10    -0.09   0.13   0.07     0.06  -0.08  -0.01
     7   6     0.01   0.00  -0.06     0.10  -0.05  -0.04     0.04   0.04   0.06
     8   6     0.03  -0.03  -0.06    -0.08  -0.07  -0.06    -0.04   0.07  -0.01
     9   6    -0.00  -0.01   0.11     0.10   0.12   0.05    -0.03  -0.10   0.03
    10   1     0.11   0.24  -0.02    -0.21  -0.10  -0.00    -0.28   0.13  -0.00
    11   1     0.09   0.05   0.03    -0.21  -0.08  -0.08    -0.32  -0.05  -0.05
    12   1     0.01   0.01  -0.01     0.10  -0.03  -0.05    -0.21  -0.06  -0.08
    13   1     0.12   0.04   0.03    -0.09  -0.08  -0.02    -0.17   0.01   0.00
    14   1    -0.10  -0.07  -0.13     0.16   0.05   0.19     0.30   0.24   0.32
    15   1     0.05   0.01  -0.04     0.13   0.07   0.18    -0.09   0.01   0.10
    16   1    -0.16   0.31   0.12    -0.08  -0.06   0.06    -0.13   0.07   0.00
    17   1    -0.01  -0.10  -0.29    -0.17   0.14   0.24     0.20  -0.07  -0.18
    18   1    -0.09   0.35   0.00     0.11  -0.04  -0.04    -0.22  -0.08   0.04
    19   1     0.05  -0.14   0.10     0.36  -0.30  -0.07     0.09   0.15  -0.17
    20   1    -0.18   0.31   0.01    -0.08  -0.07  -0.06    -0.03   0.06  -0.01
    21   1     0.09  -0.27   0.19    -0.11  -0.25  -0.06    -0.04   0.08  -0.00
    22   1    -0.14   0.31   0.12     0.17   0.06   0.04    -0.27   0.09   0.04
    23   1     0.00  -0.10  -0.24     0.29   0.18   0.11     0.09  -0.13  -0.18
                     22                     23                     24
                      A                      A                      A
 Frequencies --   1025.6888              1041.3304              1075.2440
 Red. masses --      1.9212                 1.6866                 1.5549
 Frc consts  --      1.1908                 1.0776                 1.0592
 IR Inten    --      4.3822                 1.7246                13.5769
  Atom  AN      X      Y      Z        X      Y      Z        X      Y      Z
     1   8    -0.01  -0.01   0.01     0.00   0.00   0.01     0.01  -0.01  -0.01
     2   6     0.03  -0.04   0.00     0.01  -0.04  -0.04    -0.06   0.08   0.05
     3   6     0.08   0.12   0.05    -0.00   0.02   0.02    -0.03   0.01   0.02
     4   6     0.01   0.06   0.03     0.14   0.01   0.09     0.08   0.06   0.04
     5   6    -0.01  -0.05  -0.03    -0.07  -0.03  -0.12    -0.02  -0.06  -0.06
     6   6    -0.11  -0.10  -0.04    -0.01   0.03  -0.03    -0.01  -0.03   0.02
     7   6     0.06   0.07  -0.01    -0.02  -0.02   0.04     0.06   0.00  -0.01
     8   6    -0.06  -0.08  -0.01     0.04   0.00  -0.05    -0.05   0.02   0.00
     9   6     0.04   0.05   0.02    -0.02   0.02   0.05     0.05  -0.06  -0.03
    10   1     0.12   0.28   0.07    -0.46   0.15   0.04    -0.12  -0.31  -0.02
    11   1     0.05   0.00   0.02    -0.13   0.13   0.12     0.14   0.01   0.03
    12   1    -0.25   0.02   0.09     0.40   0.05  -0.05    -0.00   0.05   0.09
    13   1    -0.08   0.06   0.00    -0.35  -0.25  -0.18    -0.14  -0.01  -0.04
    14   1     0.08   0.13   0.06     0.01  -0.08   0.09     0.07   0.09   0.06
    15   1    -0.23  -0.08  -0.11    -0.03  -0.02   0.10    -0.22  -0.08  -0.09
    16   1    -0.14  -0.01  -0.03    -0.12  -0.14  -0.04    -0.32  -0.03   0.02
    17   1    -0.29  -0.17  -0.10     0.13   0.11   0.11    -0.05  -0.06  -0.06
    18   1     0.02  -0.12  -0.05    -0.13  -0.02   0.04    -0.15   0.12   0.01
    19   1    -0.05   0.23  -0.10    -0.02   0.04  -0.05     0.32  -0.21  -0.08
    20   1    -0.01  -0.28  -0.04    -0.18  -0.02  -0.03     0.15   0.32   0.03
    21   1    -0.17  -0.38  -0.12     0.11  -0.06   0.15    -0.08   0.09  -0.08
    22   1     0.04  -0.02   0.01    -0.27   0.01   0.04     0.45   0.13  -0.02
    23   1     0.34   0.14   0.08     0.07   0.03  -0.01    -0.13  -0.12  -0.10
                     25                     26                     27
                      A                      A                      A
 Frequencies --   1083.8689              1108.6541              1142.7888
 Red. masses --      1.8303                 1.9577                 1.5826
 Frc consts  --      1.2669                 1.4177                 1.2177
 IR Inten    --      1.5632                 2.6007                 9.0941
  Atom  AN      X      Y      Z        X      Y      Z        X      Y      Z
     1   8     0.01   0.00  -0.00     0.00   0.01   0.01     0.02   0.02  -0.01
     2   6     0.02  -0.02  -0.01     0.02  -0.07  -0.08    -0.04   0.01  -0.04
     3   6     0.01   0.03   0.02     0.18  -0.01   0.02    -0.03  -0.10  -0.03
     4   6     0.02   0.00  -0.00    -0.09   0.04   0.03    -0.00   0.10   0.03
     5   6    -0.02  -0.00   0.00     0.04  -0.01   0.01     0.03  -0.07  -0.03
     6   6    -0.13  -0.01   0.03    -0.04   0.05  -0.05     0.06   0.04   0.00
     7   6     0.12  -0.11  -0.03    -0.01  -0.07   0.03    -0.05   0.03   0.02
     8   6     0.01   0.15   0.02     0.06   0.04  -0.03     0.01  -0.05  -0.03
     9   6    -0.06  -0.05  -0.02    -0.07   0.04   0.02     0.05   0.02   0.06
    10   1     0.10   0.30   0.06     0.15  -0.41  -0.04     0.08  -0.05  -0.02
    11   1     0.06   0.01   0.00    -0.26  -0.04   0.00     0.10  -0.07  -0.01
    12   1     0.03   0.01   0.00    -0.35   0.00   0.07    -0.20   0.07   0.17
    13   1     0.02  -0.00  -0.00    -0.04   0.07   0.03    -0.11   0.10   0.02
    14   1    -0.04  -0.03  -0.04     0.10   0.12   0.09     0.14   0.20   0.10
    15   1     0.02   0.00  -0.01    -0.12  -0.03  -0.02    -0.29  -0.10  -0.12
    16   1    -0.06   0.00   0.03    -0.34  -0.29  -0.08     0.31   0.07   0.00
    17   1    -0.33  -0.07   0.03     0.07   0.13   0.18    -0.35  -0.08   0.02
    18   1     0.41  -0.34  -0.06    -0.16   0.06   0.05     0.06  -0.09   0.00
    19   1     0.23  -0.23  -0.02     0.08  -0.14  -0.01     0.12  -0.12  -0.03
    20   1     0.04   0.12   0.01    -0.08   0.28   0.02    -0.16  -0.27  -0.05
    21   1     0.06   0.39   0.01     0.09  -0.13   0.11     0.16   0.36   0.13
    22   1    -0.35  -0.09  -0.02     0.03   0.02   0.02    -0.31   0.05   0.06
    23   1    -0.01  -0.03  -0.02    -0.16   0.03   0.04    -0.07  -0.05  -0.08
                     28                     29                     30
                      A                      A                      A
 Frequencies --   1160.1034              1166.9156              1238.0862
 Red. masses --      2.1170                 2.2009                 1.5106
 Frc consts  --      1.6787                 1.7658                 1.3643
 IR Inten    --     19.3004                 1.5262                18.4768
  Atom  AN      X      Y      Z        X      Y      Z        X      Y      Z
     1   8    -0.01   0.04  -0.02     0.03   0.03  -0.01     0.04   0.01  -0.02
     2   6     0.14  -0.10  -0.01    -0.06   0.01  -0.08    -0.10   0.08  -0.01
     3   6    -0.13  -0.06   0.01    -0.06   0.03   0.17     0.01  -0.03  -0.04
     4   6     0.04   0.11  -0.02     0.05   0.01  -0.14    -0.02  -0.01   0.08
     5   6     0.01  -0.08  -0.01    -0.04  -0.01   0.07     0.02   0.01  -0.04
     6   6    -0.02   0.03   0.07    -0.02  -0.00  -0.08    -0.03   0.03   0.05
     7   6     0.00  -0.03  -0.04     0.04  -0.00   0.08     0.02  -0.04  -0.01
     8   6     0.03   0.06   0.06    -0.01   0.02  -0.08     0.00   0.04  -0.02
     9   6    -0.08   0.01  -0.05     0.02  -0.06   0.08    -0.01  -0.07   0.02
    10   1    -0.13  -0.16  -0.01    -0.03  -0.27   0.12     0.34  -0.33  -0.08
    11   1     0.32  -0.10  -0.07     0.34  -0.15  -0.17    -0.01   0.10   0.11
    12   1    -0.08   0.09   0.21     0.05   0.00   0.11     0.04  -0.00  -0.05
    13   1    -0.02   0.12   0.04     0.31   0.14   0.12    -0.15  -0.06  -0.06
    14   1     0.08   0.16   0.01    -0.17  -0.06  -0.22     0.08   0.01   0.11
    15   1    -0.26  -0.11  -0.18     0.07  -0.01  -0.15    -0.04   0.00   0.09
    16   1     0.09   0.14   0.08    -0.02  -0.17  -0.09     0.06   0.07   0.05
    17   1     0.38   0.14   0.01     0.15   0.09   0.14     0.11   0.06   0.02
    18   1     0.12   0.06  -0.02    -0.12  -0.17   0.05     0.23  -0.17  -0.03
    19   1    -0.22   0.10   0.12    -0.01   0.18  -0.13    -0.32   0.26   0.07
    20   1     0.13   0.09   0.05    -0.19   0.01  -0.07    -0.03  -0.01  -0.02
    21   1    -0.13  -0.35  -0.11     0.05  -0.06   0.10    -0.04  -0.20  -0.01
    22   1    -0.09  -0.15  -0.05    -0.11   0.17   0.09    -0.04   0.04   0.02
    23   1     0.03   0.09   0.13     0.23  -0.08  -0.19     0.54   0.02  -0.13
                     31                     32                     33
                      A                      A                      A
 Frequencies --   1269.5382              1289.9692              1306.1025
 Red. masses --      1.3928                 1.2933                 1.2417
 Frc consts  --      1.3226                 1.2680                 1.2480
 IR Inten    --      0.3958                 0.3324                 4.3967
  Atom  AN      X      Y      Z        X      Y      Z        X      Y      Z
     1   8    -0.02  -0.01   0.00     0.01   0.00  -0.01     0.00   0.01  -0.00
     2   6     0.05  -0.01   0.04    -0.03   0.04   0.03     0.02  -0.03  -0.02
     3   6    -0.04  -0.04  -0.02     0.01  -0.03  -0.01    -0.05   0.04   0.03
     4   6    -0.02   0.00   0.02     0.01   0.02  -0.03     0.00  -0.05   0.02
     5   6     0.01  -0.00  -0.02    -0.00  -0.02   0.03    -0.01   0.07  -0.06
     6   6    -0.02   0.02  -0.05     0.05   0.03  -0.04     0.01  -0.02  -0.02
     7   6     0.01  -0.02   0.10    -0.04  -0.03   0.04    -0.02   0.01   0.02
     8   6    -0.00   0.03  -0.09     0.05   0.00   0.03     0.02  -0.00   0.02
     9   6    -0.02  -0.01   0.00    -0.06  -0.03  -0.05    -0.01   0.01  -0.01
    10   1     0.27   0.35   0.03    -0.18   0.19   0.02     0.09  -0.23  -0.01
    11   1     0.09   0.04   0.04    -0.14  -0.08  -0.07     0.55   0.19   0.12
    12   1     0.04   0.01   0.00     0.06   0.03   0.05    -0.43  -0.12  -0.14
    13   1    -0.06  -0.01  -0.02     0.07   0.06   0.05    -0.12  -0.17  -0.13
    14   1     0.05   0.03   0.05    -0.02   0.03  -0.05     0.02  -0.10   0.10
    15   1    -0.03  -0.01   0.03    -0.03  -0.02  -0.07     0.15   0.09   0.20
    16   1     0.39   0.01  -0.05     0.15  -0.05  -0.04     0.19   0.04  -0.02
    17   1    -0.08   0.03   0.09    -0.45  -0.11   0.03    -0.16  -0.06  -0.00
    18   1    -0.01  -0.26   0.06    -0.23   0.13   0.07    -0.16   0.09   0.04
    19   1    -0.04   0.14  -0.08     0.10  -0.16   0.01     0.17  -0.16  -0.03
    20   1    -0.13   0.28  -0.04     0.13   0.31   0.08     0.05   0.07   0.03
    21   1     0.01  -0.23   0.05    -0.02  -0.27  -0.00    -0.00  -0.07   0.00
    22   1     0.46   0.16   0.01    -0.07  -0.10  -0.05    -0.13  -0.07  -0.01
    23   1    -0.28  -0.07  -0.01     0.52   0.13   0.03     0.07   0.03   0.01
                     34                     35                     36
                      A                      A                      A
 Frequencies --   1317.3718              1355.5513              1370.1762
 Red. masses --      1.2123                 1.3687                 1.3108
 Frc consts  --      1.2395                 1.4818                 1.4499
 IR Inten    --      1.5764                 3.3826                 3.9524
  Atom  AN      X      Y      Z        X      Y      Z        X      Y      Z
     1   8     0.00   0.00  -0.00    -0.00  -0.01   0.01     0.00  -0.00   0.00
     2   6    -0.02   0.01  -0.01    -0.04   0.02  -0.01    -0.01  -0.01  -0.02
     3   6    -0.05  -0.04   0.03     0.02  -0.02  -0.00     0.01   0.09  -0.03
     4   6    -0.04  -0.00   0.02     0.02   0.00   0.00    -0.01  -0.01   0.01
     5   6     0.02  -0.02  -0.02    -0.00   0.01   0.00     0.00  -0.02   0.01
     6   6    -0.02   0.00  -0.07     0.02   0.02   0.01    -0.08  -0.06   0.00
     7   6     0.01   0.02  -0.01     0.02  -0.02   0.03    -0.03   0.05   0.03
     8   6    -0.01  -0.03   0.05    -0.06  -0.01   0.00     0.02   0.03   0.01
     9   6     0.03   0.01  -0.02     0.15   0.03  -0.03     0.03   0.01  -0.00
    10   1     0.60   0.30   0.08    -0.07  -0.01  -0.00     0.03  -0.37  -0.09
    11   1     0.08   0.03   0.04    -0.06  -0.01  -0.01    -0.24  -0.01  -0.01
    12   1     0.28   0.05   0.02    -0.13  -0.02  -0.01     0.36   0.05   0.02
    13   1    -0.03   0.04   0.00     0.00  -0.02  -0.00     0.03   0.06   0.04
    14   1     0.07   0.06   0.07    -0.02  -0.02  -0.02     0.01   0.03  -0.02
    15   1    -0.05  -0.02   0.02     0.01   0.01  -0.01    -0.05  -0.03  -0.04
    16   1    -0.15  -0.17  -0.08    -0.03  -0.01   0.01     0.52   0.21   0.02
    17   1     0.30   0.13   0.06    -0.12  -0.02   0.03     0.14  -0.00  -0.04
    18   1    -0.21   0.22   0.02     0.04  -0.15   0.01    -0.01  -0.09   0.01
    19   1     0.16  -0.10  -0.06    -0.22   0.20   0.05     0.33  -0.27  -0.05
    20   1     0.12   0.05   0.05     0.16   0.47   0.05     0.03  -0.00   0.01
    21   1    -0.03   0.05  -0.03    -0.15  -0.26  -0.09    -0.04  -0.24  -0.00
    22   1    -0.26  -0.11  -0.02    -0.51  -0.20  -0.05    -0.14  -0.08  -0.01
    23   1     0.06   0.02  -0.00    -0.37  -0.11  -0.06    -0.09  -0.03  -0.04
                     37                     38                     39
                      A                      A                      A
 Frequencies --   1386.7512              1396.6500              1399.0329
 Red. masses --      1.4443                 1.4185                 1.4728
 Frc consts  --      1.6365                 1.6302                 1.6985
 IR Inten    --      6.9541                 0.6148                 1.1232
  Atom  AN      X      Y      Z        X      Y      Z        X      Y      Z
     1   8    -0.00   0.01   0.00    -0.01  -0.00   0.01     0.01   0.01  -0.01
     2   6     0.02  -0.04  -0.01     0.03  -0.02  -0.01     0.01  -0.02   0.00
     3   6     0.02   0.04  -0.01     0.00   0.06   0.02    -0.03  -0.01   0.01
     4   6    -0.04  -0.00  -0.00    -0.13  -0.02  -0.01     0.05   0.00   0.00
     5   6     0.01  -0.01  -0.00     0.01  -0.04  -0.03    -0.01   0.01   0.01
     6   6    -0.05  -0.01   0.01     0.09   0.00   0.01     0.02  -0.03   0.01
     7   6     0.10  -0.03   0.01    -0.05   0.02  -0.00    -0.08   0.11   0.02
     8   6    -0.04  -0.12  -0.01     0.01  -0.00  -0.01     0.01  -0.12  -0.03
     9   6    -0.04   0.03  -0.00    -0.00   0.01   0.00    -0.05   0.02  -0.01
    10   1    -0.08  -0.18  -0.05    -0.07  -0.13  -0.01     0.10   0.01   0.01
    11   1     0.05   0.02   0.01     0.41   0.08   0.04    -0.13  -0.02  -0.01
    12   1     0.23   0.04   0.04     0.57   0.09   0.07    -0.16  -0.03  -0.03
    13   1    -0.02   0.03   0.01     0.03   0.16   0.03     0.01  -0.05  -0.01
    14   1     0.03   0.03   0.01     0.13   0.15   0.14    -0.04  -0.04  -0.02
    15   1    -0.04  -0.02   0.00     0.04  -0.02   0.13     0.01   0.01  -0.03
    16   1     0.29   0.14   0.02    -0.33  -0.04   0.01    -0.19   0.02   0.02
    17   1    -0.05   0.01   0.04    -0.29  -0.12  -0.02     0.23   0.03  -0.02
    18   1    -0.24   0.15   0.04     0.21  -0.20  -0.03     0.45  -0.42  -0.07
    19   1    -0.22   0.30   0.00    -0.05  -0.02   0.04     0.18  -0.11  -0.06
    20   1     0.12   0.39   0.05    -0.04   0.08   0.00     0.08   0.50   0.06
    21   1     0.12   0.56   0.06    -0.01  -0.10  -0.01     0.11   0.16   0.06
    22   1     0.01  -0.02  -0.00     0.01  -0.02  -0.00     0.04  -0.08  -0.01
    23   1     0.12   0.09   0.07    -0.06  -0.01  -0.00     0.24   0.09   0.00
                     40                     41                     42
                      A                      A                      A
 Frequencies --   1411.2918              1436.9915              1499.2817
 Red. masses --      1.6632                 1.2541                 1.0930
 Frc consts  --      1.9517                 1.5258                 1.4476
 IR Inten    --     13.2680                 3.7410                 5.5887
  Atom  AN      X      Y      Z        X      Y      Z        X      Y      Z
     1   8    -0.01   0.01  -0.00     0.00  -0.00   0.00    -0.00  -0.00   0.00
     2   6     0.06  -0.06  -0.02    -0.01   0.01   0.00    -0.00   0.00  -0.01
     3   6    -0.14   0.10  -0.01     0.01  -0.02  -0.01    -0.00   0.01   0.00
     4   6     0.10  -0.01   0.02     0.03   0.01   0.01     0.00  -0.00   0.00
     5   6    -0.03  -0.01   0.01    -0.11  -0.06  -0.07     0.00   0.00   0.00
     6   6     0.08   0.01  -0.01    -0.02  -0.00   0.00     0.00   0.00   0.00
     7   6     0.01  -0.03  -0.00     0.01   0.00   0.00    -0.02  -0.01   0.01
     8   6     0.00   0.01  -0.00    -0.00  -0.00   0.00    -0.01  -0.01  -0.01
     9   6    -0.02   0.01   0.01     0.00  -0.00  -0.00     0.02  -0.06  -0.05
    10   1     0.55  -0.30  -0.07    -0.05   0.03  -0.00     0.02  -0.04  -0.01
    11   1    -0.51  -0.01  -0.00    -0.08  -0.00  -0.00    -0.01   0.01   0.00
    12   1     0.04  -0.02  -0.03    -0.14  -0.01   0.01     0.01  -0.00   0.01
    13   1     0.11  -0.00   0.02     0.44   0.33   0.07    -0.00  -0.00  -0.00
    14   1    -0.02  -0.01   0.02     0.19   0.33   0.38    -0.00  -0.00  -0.00
    15   1     0.04  -0.01  -0.04     0.49   0.03   0.31    -0.00  -0.00  -0.00
    16   1    -0.18  -0.01  -0.01     0.07   0.01   0.00     0.01  -0.03  -0.00
    17   1    -0.41  -0.13   0.02     0.08   0.03  -0.00     0.00  -0.01  -0.04
    18   1    -0.06   0.07   0.02    -0.01   0.02   0.00     0.13   0.08   0.02
    19   1    -0.12   0.08   0.02     0.01   0.01  -0.01     0.04   0.05  -0.14
    20   1    -0.06  -0.04  -0.01     0.01   0.01   0.00     0.09   0.02  -0.01
    21   1    -0.00   0.03  -0.02     0.01   0.02   0.01     0.03  -0.04   0.07
    22   1     0.03   0.00   0.01    -0.00   0.00  -0.00    -0.21   0.64   0.01
    23   1    -0.06  -0.01  -0.01     0.02   0.00   0.01    -0.03   0.13   0.67
                     43                     44                     45
                      A                      A                      A
 Frequencies --   1509.6381              1518.7132              1520.0126
 Red. masses --      1.0787                 1.0857                 1.0869
 Frc consts  --      1.4485                 1.4754                 1.4795
 IR Inten    --      0.4046                 4.7618                 7.4310
  Atom  AN      X      Y      Z        X      Y      Z        X      Y      Z
     1   8     0.00   0.00  -0.00    -0.00   0.00   0.00     0.00   0.00  -0.00
     2   6    -0.00  -0.00   0.00     0.01  -0.01  -0.00    -0.01   0.01   0.00
     3   6    -0.00  -0.00  -0.00    -0.01   0.00   0.00     0.01  -0.02  -0.01
     4   6     0.00  -0.04  -0.06     0.00   0.00   0.01     0.00  -0.01  -0.02
     5   6    -0.00   0.01   0.00     0.00   0.00  -0.00    -0.00   0.01   0.00
     6   6    -0.01   0.02   0.02     0.00   0.02   0.01     0.01  -0.04  -0.04
     7   6    -0.00  -0.00   0.00     0.03   0.04  -0.03     0.02   0.03  -0.02
     8   6    -0.01   0.00  -0.01    -0.04   0.01  -0.03     0.03  -0.00   0.01
     9   6    -0.00   0.00   0.00    -0.01  -0.00  -0.00     0.01  -0.02  -0.01
    10   1    -0.01   0.00  -0.00     0.03  -0.00  -0.00    -0.00   0.03  -0.00
    11   1    -0.10   0.59   0.15     0.00  -0.06  -0.01    -0.04   0.23   0.06
    12   1    -0.03  -0.02   0.63     0.00   0.00  -0.06    -0.03  -0.01   0.25
    13   1     0.08  -0.14  -0.04     0.00   0.01   0.00     0.07  -0.09  -0.03
    14   1     0.04   0.01   0.09    -0.00  -0.01  -0.00     0.03  -0.01   0.07
    15   1     0.00  -0.00  -0.15    -0.01  -0.00   0.01    -0.01  -0.00  -0.08
    16   1     0.08  -0.24  -0.01     0.00  -0.14  -0.01    -0.14   0.47   0.02
    17   1     0.02  -0.04  -0.25     0.01  -0.01  -0.13    -0.00   0.09   0.48
    18   1     0.05   0.03   0.01    -0.35  -0.38  -0.10    -0.24  -0.23  -0.06
    19   1     0.01   0.03  -0.05    -0.10  -0.18   0.48    -0.05  -0.13   0.30
    20   1     0.09  -0.01  -0.01     0.42  -0.11  -0.08    -0.23   0.03   0.03
    21   1     0.03  -0.02   0.08     0.16  -0.06   0.41    -0.07   0.03  -0.21
    22   1     0.01  -0.04  -0.00     0.01   0.07  -0.00    -0.03   0.12   0.00
    23   1    -0.00  -0.01  -0.04    -0.00   0.02   0.07     0.01   0.02   0.12
                     46                     47                     48
                      A                      A                      A
 Frequencies --   1528.1421              1533.8726              1543.9699
 Red. masses --      1.0483                 1.0955                 1.0514
 Frc consts  --      1.4424                 1.5185                 1.4767
 IR Inten    --      5.4902                 0.9825                 5.6445
  Atom  AN      X      Y      Z        X      Y      Z        X      Y      Z
     1   8     0.00   0.00  -0.00     0.00   0.00  -0.00     0.00   0.00  -0.00
     2   6    -0.00  -0.00   0.00    -0.00  -0.00   0.00    -0.00  -0.00   0.00
     3   6     0.01  -0.00  -0.00     0.00  -0.01  -0.00    -0.00  -0.00   0.00
     4   6    -0.02   0.03   0.01    -0.00  -0.00  -0.01     0.02  -0.01  -0.03
     5   6    -0.02   0.04  -0.01     0.00  -0.00   0.00     0.03   0.00  -0.04
     6   6    -0.00   0.00   0.00     0.02  -0.03  -0.03     0.00  -0.00  -0.00
     7   6    -0.00  -0.00   0.00    -0.02  -0.03   0.01    -0.00   0.00   0.00
     8   6    -0.00   0.00  -0.00    -0.05   0.02  -0.02    -0.00   0.00  -0.00
     9   6    -0.00   0.00   0.00    -0.01   0.01   0.01    -0.00  -0.00  -0.00
    10   1    -0.03   0.00  -0.00    -0.01   0.02   0.00    -0.01   0.01   0.00
    11   1     0.04  -0.14  -0.05    -0.01   0.07   0.02    -0.08   0.10   0.00
    12   1     0.07   0.04  -0.11    -0.01  -0.00   0.07    -0.04  -0.01   0.13
    13   1     0.54  -0.32  -0.11    -0.02  -0.00   0.00     0.07   0.45   0.11
    14   1     0.11  -0.35   0.52    -0.00   0.03  -0.02    -0.10  -0.48  -0.01
    15   1    -0.31  -0.01  -0.21     0.03   0.00  -0.01    -0.42  -0.03   0.57
    16   1     0.01  -0.00   0.00    -0.13   0.39   0.02    -0.01   0.01   0.00
    17   1    -0.01  -0.00  -0.01    -0.04   0.05   0.40     0.00   0.00   0.01
    18   1     0.03   0.03   0.01     0.19   0.21   0.05     0.00   0.00   0.00
    19   1     0.00   0.02  -0.04     0.04   0.09  -0.26     0.00  -0.00  -0.00
    20   1     0.04  -0.01  -0.01     0.47  -0.12  -0.08     0.00  -0.00  -0.00
    21   1     0.01  -0.01   0.03     0.15  -0.10   0.44     0.00  -0.00   0.00
    22   1     0.00  -0.01  -0.00     0.03  -0.09  -0.00     0.00  -0.00  -0.00
    23   1    -0.00  -0.00  -0.01    -0.01  -0.02  -0.10     0.00  -0.00  -0.00
                     49                     50                     51
                      A                      A                      A
 Frequencies --   1807.0762              2988.6738              3024.3935
 Red. masses --     11.0879                 1.0807                 1.0694
 Frc consts  --     21.3329                 5.6874                 5.7630
 IR Inten    --    153.7189                 9.2107                13.9464
  Atom  AN      X      Y      Z        X      Y      Z        X      Y      Z
     1   8    -0.27  -0.33   0.25    -0.00  -0.00   0.00     0.00   0.00  -0.00
     2   6     0.41   0.51  -0.38     0.00   0.00  -0.00    -0.00  -0.00   0.00
     3   6    -0.02  -0.02   0.02     0.00   0.01  -0.08    -0.00  -0.00   0.00
     4   6     0.01   0.01  -0.01    -0.00  -0.00   0.00     0.00  -0.00  -0.00
     5   6     0.00   0.00   0.00     0.00   0.00   0.00     0.00   0.00   0.00
     6   6    -0.01  -0.02  -0.00     0.00  -0.00   0.01    -0.00   0.00   0.04
     7   6     0.00   0.00   0.00    -0.00  -0.00   0.00     0.01   0.03  -0.06
     8   6    -0.01  -0.01   0.00     0.00  -0.00  -0.00    -0.00  -0.00   0.01
     9   6    -0.03  -0.03   0.03    -0.00   0.00   0.01    -0.00   0.00   0.00
    10   1     0.04  -0.18  -0.02    -0.00  -0.14   0.97     0.00   0.01  -0.03
    11   1    -0.04   0.06  -0.01     0.00   0.02  -0.06    -0.00  -0.01   0.04
    12   1    -0.09  -0.00   0.09    -0.00   0.03   0.00    -0.01   0.05  -0.00
    13   1     0.02  -0.03  -0.01     0.00   0.01  -0.03    -0.00   0.00  -0.01
    14   1    -0.01  -0.05   0.00    -0.01   0.00   0.01    -0.00   0.00   0.00
    15   1    -0.07   0.00  -0.04     0.00  -0.01   0.00     0.00  -0.00   0.00
    16   1     0.03   0.06  -0.00     0.00   0.01  -0.13    -0.00   0.04  -0.46
    17   1     0.03  -0.01   0.04    -0.01   0.01   0.00     0.03  -0.09   0.03
    18   1    -0.00   0.00   0.00    -0.00   0.01  -0.03    -0.00  -0.14   0.81
    19   1     0.01   0.00  -0.02     0.01   0.01   0.01    -0.17  -0.16  -0.12
    20   1     0.05   0.03  -0.00     0.00  -0.00   0.01    -0.01   0.02  -0.14
    21   1     0.00   0.03   0.04    -0.00   0.00   0.00     0.04  -0.00  -0.02
    22   1    -0.14  -0.02   0.01    -0.00   0.01  -0.11     0.00   0.00  -0.03
    23   1     0.25   0.04  -0.11     0.00  -0.02   0.01     0.00  -0.02   0.01
                     52                     53                     54
                      A                      A                      A
 Frequencies --   3028.7111              3029.4805              3037.8091
 Red. masses --      1.0679                 1.0627                 1.0649
 Frc consts  --      5.7716                 5.7465                 5.7898
 IR Inten    --      4.1275                24.0063                40.6883
  Atom  AN      X      Y      Z        X      Y      Z        X      Y      Z
     1   8     0.00  -0.00  -0.00    -0.00  -0.00   0.00    -0.00  -0.00   0.00
     2   6    -0.00   0.00  -0.00    -0.00   0.00  -0.00    -0.00   0.00  -0.00
     3   6     0.00   0.00  -0.01     0.00   0.00  -0.01    -0.00  -0.00  -0.00
     4   6     0.00  -0.01  -0.00    -0.00   0.02   0.01     0.01  -0.06  -0.03
     5   6    -0.00   0.00   0.00     0.00  -0.00   0.00    -0.01   0.01  -0.00
     6   6    -0.00   0.01   0.02     0.01  -0.03  -0.04     0.00  -0.00  -0.02
     7   6    -0.01  -0.01   0.01     0.01   0.02  -0.02     0.00   0.00  -0.00
     8   6     0.00  -0.00   0.02     0.00  -0.00   0.02     0.01  -0.00   0.01
     9   6     0.01  -0.01  -0.07     0.00  -0.00  -0.02    -0.00   0.00   0.00
    10   1    -0.00  -0.01   0.07     0.00  -0.02   0.12     0.00  -0.00   0.02
    11   1    -0.00  -0.01   0.03     0.00   0.05  -0.13    -0.01  -0.13   0.35
    12   1    -0.01   0.08  -0.00     0.04  -0.24   0.01    -0.13   0.82  -0.02
    13   1     0.00   0.00  -0.01     0.00   0.01  -0.02    -0.00  -0.02   0.08
    14   1     0.00  -0.00  -0.00    -0.03   0.01   0.01     0.11  -0.03  -0.05
    15   1     0.00  -0.01   0.00     0.00  -0.00   0.00    -0.00  -0.01   0.00
    16   1    -0.00   0.02  -0.23     0.01  -0.07   0.64     0.00  -0.02   0.24
    17   1     0.04  -0.13   0.03    -0.12   0.41  -0.11    -0.02   0.07  -0.02
    18   1    -0.00   0.02  -0.12    -0.00  -0.05   0.33    -0.00  -0.01   0.04
    19   1     0.08   0.08   0.06    -0.14  -0.14  -0.10    -0.01  -0.02  -0.01
    20   1    -0.02   0.04  -0.24    -0.02   0.04  -0.27    -0.02   0.03  -0.22
    21   1    -0.02   0.00   0.01    -0.03   0.01   0.02    -0.11   0.02   0.06
    22   1     0.00  -0.07   0.87     0.00  -0.02   0.24    -0.00   0.01  -0.07
    23   1    -0.05   0.22  -0.07    -0.01   0.05  -0.02     0.01  -0.03   0.01
                     55                     56                     57
                      A                      A                      A
 Frequencies --   3039.7974              3045.2789              3074.4308
 Red. masses --      1.0619                 1.0413                 1.0962
 Frc consts  --      5.7810                 5.6894                 6.1048
 IR Inten    --     36.2534                30.6581                34.0214
  Atom  AN      X      Y      Z        X      Y      Z        X      Y      Z
     1   8    -0.00  -0.00   0.00     0.00   0.00  -0.00    -0.00  -0.00   0.00
     2   6     0.00   0.00  -0.00     0.00  -0.00   0.00     0.00   0.00  -0.00
     3   6    -0.00   0.00  -0.00     0.00   0.00  -0.00     0.00  -0.00   0.00
     4   6     0.00  -0.01  -0.01    -0.00   0.00   0.01     0.00   0.01  -0.02
     5   6    -0.00   0.00  -0.00    -0.03  -0.00  -0.04    -0.00  -0.00   0.00
     6   6     0.00  -0.01  -0.01    -0.00   0.00   0.00     0.02  -0.06   0.04
     7   6     0.01   0.01   0.00    -0.00  -0.00  -0.00    -0.02  -0.02  -0.02
     8   6    -0.04   0.02  -0.04    -0.00  -0.00   0.00     0.00   0.00  -0.01
     9   6     0.00  -0.01  -0.02    -0.00   0.00  -0.00     0.00  -0.00   0.00
    10   1     0.00  -0.01   0.04    -0.00  -0.00   0.02    -0.00   0.01  -0.04
    11   1    -0.00  -0.03   0.08     0.01   0.05  -0.14    -0.01  -0.08   0.25
    12   1    -0.03   0.20  -0.00     0.01  -0.08   0.00     0.01  -0.06  -0.00
    13   1    -0.00  -0.01   0.02    -0.02  -0.23   0.73    -0.00   0.01  -0.02
    14   1     0.03  -0.01  -0.01     0.44  -0.12  -0.20     0.06  -0.02  -0.03
    15   1    -0.00  -0.00   0.00    -0.04   0.37  -0.02    -0.01   0.04  -0.00
    16   1     0.00  -0.01   0.11     0.00   0.00  -0.02    -0.00   0.02  -0.32
    17   1    -0.03   0.10  -0.02     0.00  -0.00   0.00    -0.22   0.73  -0.16
    18   1     0.00  -0.01   0.09    -0.00  -0.00   0.01    -0.00  -0.01   0.04
    19   1    -0.17  -0.17  -0.11     0.00   0.00   0.00     0.29   0.28   0.18
    20   1     0.05  -0.10   0.71    -0.00   0.00  -0.01     0.01  -0.01   0.09
    21   1     0.43  -0.08  -0.21     0.00  -0.00  -0.00    -0.02   0.00   0.01
    22   1     0.00  -0.02   0.25    -0.00  -0.00   0.01     0.00   0.00  -0.00
    23   1    -0.04   0.13  -0.04    -0.00   0.00  -0.00    -0.00   0.02  -0.00
                     58                     59                     60
                      A                      A                      A
 Frequencies --   3077.5417              3082.9900              3085.7708
 Red. masses --      1.0977                 1.0981                 1.1027
 Frc consts  --      6.1257                 6.1497                 6.1864
 IR Inten    --     40.9560                24.0483                56.1665
  Atom  AN      X      Y      Z        X      Y      Z        X      Y      Z
     1   8    -0.00  -0.00   0.00    -0.00  -0.00   0.00     0.00   0.00  -0.00
     2   6     0.00  -0.00  -0.00     0.00   0.00  -0.00     0.00   0.00   0.00
     3   6     0.00   0.00  -0.00     0.00   0.00  -0.01     0.00  -0.00   0.01
     4   6     0.00  -0.01   0.01    -0.00   0.05  -0.06     0.00  -0.02   0.02
     5   6     0.00   0.00  -0.00    -0.02  -0.01   0.02     0.01   0.00  -0.01
     6   6    -0.01   0.02  -0.03    -0.00   0.02  -0.01     0.01  -0.02   0.02
     7   6    -0.04  -0.03  -0.05     0.00   0.00   0.01     0.01   0.01   0.03
     8   6    -0.03   0.01   0.02    -0.03   0.00   0.03    -0.05   0.00   0.06
     9   6     0.00  -0.00   0.00    -0.00   0.00   0.00    -0.00   0.01   0.01
    10   1     0.00  -0.00   0.02    -0.00  -0.01   0.07    -0.00   0.01  -0.06
    11   1     0.01   0.05  -0.17    -0.03  -0.22   0.69     0.01   0.08  -0.26
    12   1    -0.01   0.08   0.00     0.06  -0.35  -0.01    -0.02   0.14   0.00
    13   1     0.00  -0.00   0.01     0.00   0.04  -0.12    -0.00  -0.02   0.05
    14   1    -0.05   0.01   0.02     0.22  -0.06  -0.09    -0.10   0.03   0.04
    15   1     0.01  -0.04   0.00    -0.02   0.16  -0.00     0.01  -0.07   0.00
    16   1    -0.00  -0.02   0.26     0.00  -0.01   0.10     0.00   0.01  -0.21
    17   1     0.06  -0.22   0.05     0.05  -0.18   0.04    -0.07   0.23  -0.05
[...]
 6343,-0.00837609,-0.00006244,-0.00039069,-0.00040198,0.00004546,0.0000
 7465,0.00019048,-0.00001547,0.00000720,-0.00008050,0.00009835,-0.00001
 851,-0.00011062,-0.00012070,0.00005426,-0.00008088,-0.00022484,0.00000
 711,0.00033401,0.00012652,0.00078219,0.00030287,-0.00238672,0.00362416
 ,-0.00063998,-0.12874564,0.26059863,0.00055839,0.00009242,0.00006801,-
 0.00077492,-0.00047387,-0.00006637,-0.00163531,-0.00062054,-0.00585200
 ,-0.01639642,0.02777948,0.00155133,0.00605954,-0.00916474,-0.04894568,
 -0.00076882,0.00172346,0.00058175,-0.00027210,-0.00018158,-0.00058880,
 -0.00006086,-0.00009077,0.00001982,0.00016103,0.00009243,0.00001522,-0
 .00028405,-0.00012062,0.00015827,0.00078691,-0.00003485,0.00116783,0.0
 0039680,-0.00052369,0.00134492,0.01134468,-0.02167557,-0.00066547,-0.0
 0378960,0.00872944,0.05231092,0.00100649,-0.00088477,0.00130695,-0.001
 71818,0.00050593,-0.00043159,0.00046380,-0.00078667,0.00047602,-0.0095
 1542,-0.01041442,-0.00378703,-0.15770430,-0.12517269,-0.03826704,-0.00
 021751,0.00013729,-0.00012720,0.00002876,0.00000486,0.00001914,-0.0001
 0783,-0.00002415,-0.00009657,0.00019141,0.00006821,-0.00017151,-0.0002
 0521,0.00002739,0.00002972,0.00073362,0.00045214,0.00032752,-0.0000576
 1,0.00098332,-0.00272797,-0.01399608,-0.01676652,-0.00585995,0.0132709
 6,0.01384772,0.00474448,0.16758097,-0.00008409,-0.00165015,0.00092846,
 0.00060987,-0.00044469,0.00065082,0.00004793,0.00062214,-0.00070610,0.
 00472295,0.00593440,0.00100459,-0.12622476,-0.19952286,-0.04835996,-0.
 00003507,-0.00000490,0.00009235,-0.00002315,-0.00003811,-0.00006351,0.
 00003513,0.00000028,0.00006000,-0.00003499,0.00001560,0.00005449,-0.00
 000436,-0.00000527,-0.00003355,-0.00020246,0.00010348,-0.00053317,0.00
 107839,0.00101605,0.00178542,0.00056121,-0.00046916,0.00060551,-0.0181
 8891,-0.01992553,-0.00581699,0.13788582,0.21427541,0.00216822,-0.00032
 535,0.00068230,-0.00344101,0.00020839,-0.00005811,0.00106671,-0.000341
 17,0.00136046,-0.01980425,-0.02405992,-0.00787010,-0.03674326,-0.04577
 487,-0.06288105,-0.00008166,0.00021094,-0.00019450,0.00007028,0.000016
 06,0.00002877,-0.00010627,-0.00005716,-0.00012037,0.00053119,0.0001522
 8,-0.00028401,-0.00005008,0.00024433,0.00002962,0.00062948,-0.00047788
 ,0.00108977,-0.00308947,0.00161036,-0.00560337,0.01459434,0.01936147,0
 .00664518,-0.00058362,-0.00123483,-0.00115130,0.04437920,0.05044541,0.
 06808993,0.00010714,0.00030659,0.00031798,0.00169792,0.00044771,-0.000
 50989,0.01063025,-0.00084563,-0.01808497,0.00127339,-0.00051736,0.0001
 0579,0.00009135,-0.00007058,-0.00013770,-0.12790784,0.00325714,0.11632
 390,-0.01256548,0.00140019,0.01645917,0.00047118,-0.00119914,-0.000286
 88,-0.00000134,0.00004056,-0.00015200,-0.00200705,0.00009774,-0.004154
 88,-0.00008305,-0.00004525,0.00021039,-0.00003225,0.00007475,0.0001692
 8,-0.00012907,-0.00001088,0.00008331,-0.00002296,0.00000762,0.00010926
 ,0.00003298,0.00001176,-0.00002405,0.13989593,0.00017344,0.00017405,0.
 00021841,0.00038819,-0.00022472,-0.00094041,-0.00026652,-0.00017419,0.
 00029132,-0.00046557,0.00031034,0.00036580,0.00000239,-0.00012467,-0.0
 0000257,0.00279816,-0.05230626,-0.00781412,0.01687391,-0.00219468,-0.0
 2407932,0.00062086,0.00180506,-0.00107405,-0.00021663,-0.00013398,0.00
 012795,0.00048841,0.00075941,0.00002678,0.00021281,0.00022086,0.000087
 40,-0.00018869,-0.00004174,0.00008123,0.00003918,-0.00002894,-0.000068
 81,0.00000917,-0.00001088,0.00001042,-0.00002921,0.00001519,-0.0000573
 1,-0.00757068,0.05373112,-0.00158294,-0.00030693,0.00048252,0.00300442
 ,0.00193468,-0.00058519,0.01227154,-0.00182547,-0.02392595,0.00136498,
 -0.00087387,0.00085841,-0.00035258,0.00013047,0.00014872,0.11666283,-0
 .00770439,-0.22043867,-0.00058205,0.00011995,0.00121624,-0.00019465,0.
 00017833,-0.00007697,-0.00007595,-0.00039717,-0.00030978,-0.00382776,-
 0.00033775,-0.00373605,-0.00096682,0.00050000,0.00022146,-0.00005897,0
 .00024366,-0.00002847,0.00003869,-0.00011315,0.00031099,-0.00009793,0.
 00006674,-0.00000322,0.00007225,-0.00002459,0.00003877,-0.12545426,0.0
 0849337,0.24302384,-0.00144157,-0.00123886,0.00061851,-0.00013835,0.00
 388039,-0.00363239,-0.01325579,-0.01607121,-0.00274661,0.00010057,-0.0
 0198168,0.00034983,0.00031629,0.00040972,-0.00007204,-0.13848457,-0.12
 395577,0.00413250,0.01279100,0.01743578,-0.00007437,-0.00241898,0.0026
 9392,-0.00008263,-0.00005361,-0.00001206,0.00064365,0.00123337,0.00068
 733,0.00037101,0.00006057,0.00003568,-0.00006019,0.00000432,0.00130366
 ,-0.00007312,-0.00002182,-0.00003028,0.00000277,-0.00002453,0.00003657
 ,-0.00001676,0.00015300,-0.00007191,0.00029949,-0.01107256,-0.01493252
 ,0.00034102,0.14978392,-0.00013338,0.00030993,-0.00011650,0.00105902,0
 .00027181,-0.00008665,0.00048071,0.00045993,0.00009190,0.00078269,0.00
 066157,0.00035743,0.00002169,0.00029117,-0.00005995,-0.12324553,-0.216
 88124,0.00178767,-0.01687785,-0.02203366,0.00052149,0.00571387,-0.0034
 8761,0.00003591,0.00017187,0.00068853,0.00030214,0.00005085,0.00013073
 ,-0.00043599,0.00011532,-0.00004295,0.00003730,-0.00008856,0.00049145,
 0.00020034,0.00000338,-0.00001641,-0.00003485,-0.00002575,0.00002208,-
 0.00004974,0.00011932,-0.00001591,0.00006840,0.00085350,0.00162673,0.0
 0053326,0.13225965,0.23696039,-0.00258907,-0.00192878,0.00120508,-0.00
 104146,0.00444408,-0.00498996,-0.01933364,-0.02329718,-0.00396108,0.00
 078745,-0.00131031,0.00057645,0.00019514,-0.00009807,-0.00006136,0.004
 17306,0.00225270,-0.04859680,0.00071595,-0.00044492,-0.00084740,-0.000
 22922,-0.00004249,0.00036273,0.00032546,0.00013763,0.00060258,0.000894
 81,-0.00021377,0.00154569,0.00002953,0.00011120,0.00003405,0.00008710,
 0.00066534,0.00028808,0.00000119,-0.00000848,-0.00005659,0.00005461,0.
 00002646,0.00004536,0.00009604,-0.00003206,0.00014210,0.01622264,0.023
 06792,0.00007160,-0.00001220,-0.00297368,0.05251325,0.00022126,0.00000
 096,0.00007563,-0.00035772,-0.00005343,-0.00007131,0.00040393,-0.00066
 245,0.00142294,0.00016509,0.00018037,-0.00032073,0.00000233,-0.0000136
 6,-0.00000836,-0.01246220,0.00091732,0.01527896,-0.14457166,-0.0006749
 8,0.11860926,-0.01249240,-0.00097233,0.01564445,0.00049156,0.00077524,
 0.00109482,-0.00011666,0.00021180,-0.00097223,0.00019554,-0.00014600,-
 0.00005012,-0.00001064,-0.00006031,0.00003843,-0.00000091,0.00002781,-
 0.00005523,0.00000541,-0.00000081,-0.00000932,-0.00001225,0.00000299,-
 0.00001024,-0.00129382,0.00334415,-0.00033679,0.00090221,-0.00007472,-
 0.00046721,0.15644104,-0.00003355,0.00020924,-0.00001021,0.00001571,-0
 .00061709,-0.00001631,-0.00080908,0.00104882,-0.00102509,-0.00012426,-
 0.00011476,0.00009318,-0.00006618,0.00001759,0.00002863,0.01911717,-0.
 00148701,-0.02399465,-0.00068160,-0.04810647,0.00066041,-0.01888438,-0
 .00171182,0.02413144,0.00092000,0.00103466,0.00068779,-0.00011563,0.00
 011385,0.00075338,-0.00019344,0.00006044,0.00006723,0.00001543,0.00001
 845,-0.00006140,0.00001443,-0.00001218,0.00005017,0.00000645,-0.000008
 22,-0.00000093,0.00000853,0.00000087,0.00002024,0.00392596,-0.00459131
 ,0.00058649,-0.00078225,0.00109384,-0.00015407,0.00063267,0.05685303,0
 .00014072,-0.00001791,-0.00010774,-0.00031065,0.00001740,0.00015488,-0
 .00037958,0.00021498,0.00081259,-0.00014235,0.00003066,0.00033234,0.00
 006439,-0.00005220,-0.00004799,-0.00053232,-0.00058382,-0.00041848,0.1
 1921112,0.00065126,-0.20674546,-0.00091900,0.00059993,0.00000363,-0.00
 031446,-0.00017515,0.00092095,0.00030619,0.00000733,0.00052888,-0.0000
 7248,0.00011063,-0.00008335,0.00000987,0.00000026,-0.00002237,-0.00000
 625,-0.00000642,0.00001393,0.00002160,-0.00002127,0.00003029,-0.000006
 47,0.00000871,-0.00000335,-0.00049168,-0.00019785,0.00139479,-0.000000
 94,-0.00058139,0.00020108,-0.13331890,-0.00079452,0.22240326,-0.000484
 65,0.00006054,0.00003509,0.00113323,-0.00007137,0.00038289,-0.00113163
 ,0.00325870,0.00147605,-0.00024791,-0.00040378,-0.00112528,-0.00022538
 ,0.00034927,0.00018116,-0.01121741,0.00030477,-0.01549635,-0.13198879,
 0.00131161,-0.11913420,-0.01132308,0.00010581,-0.01568138,-0.00148100,
 -0.00352682,0.00109975,0.00022717,0.00000557,-0.00019649,-0.00005102,-
 0.00003277,0.00002587,0.00004947,0.00003707,-0.00000462,0.00003091,-0.
 00000498,-0.00001099,-0.00007994,0.00005738,-0.00014503,0.00001276,-0.
 00002900,0.00001350,0.00021869,-0.00069607,0.00021981,0.00073383,-0.00
 000648,0.00029638,0.01279185,-0.00018016,0.01688224,0.14245929,0.00000
 314,0.00092779,0.00000172,-0.00002089,-0.00242612,0.00006553,0.0030709
 9,-0.00457751,-0.00150724,0.00092973,0.00068308,0.00152493,0.00028686,
 -0.00053981,-0.00024301,0.01628383,-0.00023007,0.02488006,0.00135157,-
 0.04782941,0.00194203,-0.01604602,0.00050354,-0.02458412,-0.00342779,-
 0.00462266,0.00108969,-0.00040600,-0.00000643,-0.00033123,0.00008869,-
 0.00007407,-0.00006039,-0.00009295,0.00004268,0.00000950,-0.00003430,0
 .00001534,0.00000837,0.00011750,-0.00006651,0.00021642,0.00001855,0.00
 002156,0.00002352,-0.00055956,0.00114206,-0.00047242,-0.00084750,0.000
 78499,0.00017810,0.00005952,-0.00041233,0.00009793,-0.00131671,0.05451
 619,-0.00009096,0.00001275,-0.00008130,0.00034039,-0.00002752,0.000155
 38,0.00034529,0.00060187,0.00113258,-0.00014067,-0.00035679,0.00007464
 ,-0.00001751,0.00004693,0.00005920,0.00138575,-0.00005070,0.00048132,-
 0.12007024,0.00183646,-0.22608275,0.00114771,0.00013178,0.00005545,0.0
 0017026,-0.00073835,0.00129878,0.00009145,-0.00008893,0.00047748,-0.00
 007545,0.00010607,-0.00000488,0.00001591,0.00001005,-0.00000893,0.0000
 0821,-0.00001396,-0.00001252,-0.00001608,0.00001411,-0.00002868,0.0000
 0227,-0.00000880,-0.00000474,-0.00020985,0.00033912,0.00079312,-0.0000
 0958,0.00051214,0.00001530,-0.01454023,0.00021671,-0.02170365,0.131919
 60,-0.00202436,0.24213032,-0.00000877,-0.00034843,0.00035676,0.0016209
 4,-0.00060481,-0.00048998,0.00003518,-0.00001020,-0.00020517,0.0000588
 8,0.00004101,0.00005560,0.00000950,-0.00002875,-0.00000943,0.00042748,
 0.00120278,-0.00027459,-0.01284522,-0.00185024,0.01701388,-0.12525980,
 -0.00490754,0.11665821,0.01100411,0.00135581,-0.01963115,-0.00013216,0
 .00000330,-0.00003130,0.00001215,0.00000686,0.00000660,-0.00000831,0.0
 0002331,0.00000689,-0.00000692,-0.00000522,0.00000210,0.00000867,-0.00
 000814,0.00001615,0.00000525,0.00000250,-0.00000684,0.00071303,-0.0004
 9168,-0.00021633,0.00003144,0.00007678,-0.00028572,-0.00140635,-0.0040
 3608,-0.00058856,0.00025420,0.00056711,-0.00019967,0.13721950,-0.00007
 927,0.00014342,-0.00020718,-0.00048988,-0.00022738,0.00083096,0.000210
 54,-0.00014749,-0.00009337,0.00002801,-0.00000473,0.00003753,0.0000088
 0,-0.00001717,-0.00000241,-0.00065722,0.00177965,0.00109092,-0.0165899
 8,-0.00265507,0.02407470,-0.00445731,-0.05300498,0.01104836,-0.0002694
 2,-0.00019584,0.00025914,-0.00003584,0.00009231,-0.00020012,0.00003026
 ,-0.00003105,-0.00000997,0.00000486,0.00000918,0.00000482,0.00000336,0
 .00000484,-0.00001236,-0.00000041,0.00000863,0.00000164,0.00000745,-0.
 00000699,0.00001597,0.00049575,-0.00037201,-0.00057006,0.00009647,0.00
 032122,-0.00039309,-0.00337224,-0.00454464,0.00006175,0.00070408,0.001
 16380,-0.00032904,0.00961631,0.05438966,-0.00147366,0.00033621,0.00048
 099,0.00264087,-0.00183138,-0.00056013,-0.00003586,0.00036923,-0.00028
 975,0.00011085,0.00002288,-0.00002757,-0.00001709,0.00000808,0.0000078
 2,-0.00023159,-0.00014542,-0.00008526,-0.00076064,-0.00013932,0.001643
 43,0.11633565,0.01103056,-0.22556011,0.01167378,0.00206777,-0.02326956
 ,-0.00005369,-0.00005406,0.00014442,-0.00005325,0.00003148,0.00001169,
 -0.00001440,0.00004698,0.00001126,-0.00000381,-0.00001306,0.00001484,-
 0.00000731,0.00002133,-0.00000356,0.00002223,-0.00001190,0.00000545,-0
 .00021857,0.00058437,0.00017508,-0.00019349,0.00010858,0.00023593,-0.0
 0040970,-0.00065728,0.00147542,0.00022057,0.00045752,0.00083777,-0.124
 55523,-0.01169640,0.24793759,-0.00147512,0.00144811,0.00066853,-0.0002
 3592,-0.00415952,-0.00371070,-0.00014063,0.00003882,0.00055065,0.00013
 492,0.00002519,0.00021816,0.00001902,-0.00003675,-0.00000894,-0.002584
 82,-0.00260877,-0.00014675,0.01305256,-0.01788344,-0.00071144,-0.13489
 546,0.12298689,0.00846214,-0.01234507,0.01738504,-0.00153512,-0.000026
 98,-0.00002887,0.00000348,-0.00000634,-0.00005655,-0.00004529,-0.00000
 114,0.00015562,-0.00001531,0.00001224,0.00000488,-0.00001012,0.0000041
 6,0.00002231,0.00001245,0.00003967,-0.00001974,0.00006152,0.00003508,-
 0.00007548,-0.00020013,0.00075856,-0.00115903,0.00007149,0.00092062,0.
 00078169,0.00000992,0.00070557,0.00087892,-0.00001254,-0.01061758,0.01
 476258,0.00093159,0.14520892,0.00004579,0.00009806,0.00013668,-0.00041
 703,0.00059888,-0.00019567,-0.00027888,0.00063684,-0.00021088,0.000037
 72,0.00007424,0.00011746,0.00004286,-0.00002516,-0.00005811,-0.0057265
 6,-0.00336768,-0.00020842,0.01654008,-0.02185640,-0.00129736,0.1216821
 8,-0.22249253,-0.00873294,-0.00050862,0.00148015,-0.00003966,0.0000139
 6,-0.00002969,0.00005584,0.00000882,-0.00001479,0.00000081,-0.00002808
 ,0.00010107,-0.00000661,-0.00001174,0.00000007,0.00001316,0.00002752,-
 0.00002914,0.00003283,0.00001686,0.00001209,0.00001701,-0.00006358,0.0
 0033218,-0.00010485,0.00113353,-0.00163682,0.00008797,0.00010542,0.001
 09450,0.00060094,0.00000024,0.00076369,-0.00049716,-0.00114813,0.00211
 336,-0.00068008,-0.13165423,0.24163855,-0.00258074,0.00193931,0.001146
 38,-0.00124985,-0.00419415,-0.00495552,0.00017477,-0.00009902,0.000523
 21,0.00016478,0.00003828,0.00013094,-0.00000809,-0.00003031,0.00000473
 ,-0.00026915,-0.00000302,0.00038332,0.00107989,0.00021997,-0.00093227,
 0.00857851,-0.00943534,-0.04975344,-0.01741342,0.02480053,-0.00229077,
 -0.00003575,-0.00003188,-0.00000450,-0.00003159,-0.00004290,-0.0000313
 2,0.00000094,0.00009872,0.00000224,0.00001276,0.00000498,-0.00000368,0
 .00000523,0.00001884,0.00000559,0.00002712,-0.00001715,0.00004989,-0.0
 0029923,0.00039344,0.00023332,0.00007057,-0.00009566,0.00057313,-0.000
 45403,0.00018601,0.00023300,0.00027961,-0.00016281,-0.00002833,0.01594
 495,-0.02350631,-0.00075013,-0.00547905,0.01015381,0.05307393,-0.00150
 039,0.00459978,-0.00271235,-0.01286248,-0.00142866,0.01570030,0.000007
 39,-0.00034829,-0.00076746,0.00002307,0.00003325,-0.00039815,-0.000061
 56,0.00001702,-0.00003061,-0.00009763,-0.00031621,-0.00006103,0.001414
 22,0.00035436,-0.00002465,0.01111361,-0.00188306,-0.02048477,-0.121282
 86,0.00559997,0.12137049,0.00081233,0.00019853,-0.00037212,0.00003287,
 -0.00017034,-0.00005408,0.00001647,0.00001038,-0.00002006,0.00004896,0
 .00006191,-0.00002690,0.00001402,0.00002387,-0.00002921,0.00001836,-0.
 00002243,0.00014819,-0.00011860,0.00004142,-0.00004780,-0.00002254,-0.
 00001263,-0.00003925,-0.00016082,0.00007498,0.00038680,0.00017197,0.00
 038970,0.00016335,-0.00220912,-0.00030234,-0.00398718,0.00140173,-0.00
 009312,0.00095516,0.13366634,0.00331569,-0.00345957,0.00345425,0.01489
 839,0.00326776,-0.02682033,-0.00147949,-0.00034218,0.00262705,0.000107
 84,0.00015085,0.00042149,0.00005961,0.00001507,0.00004653,0.00045365,0
 .00020262,0.00026270,0.00057649,0.00006919,-0.00093934,-0.00154607,0.0
 0041789,0.00219842,0.00680404,-0.05357607,-0.01692389,-0.00040913,-0.0
 0171068,-0.00000903,-0.00000402,0.00013533,0.00006019,-0.00005625,0.00
 005441,0.00000781,-0.00005091,-0.00005343,0.00002012,-0.00001542,-0.00
 003167,0.00000637,-0.00004304,0.00003799,-0.00016392,0.00000175,0.0000
 9268,0.00006711,0.00003970,0.00000275,0.00002086,-0.00019265,0.0001263
 7,-0.00002013,-0.00002638,-0.00001675,0.00011726,0.00059754,0.00101575
 ,0.00054701,-0.00059971,0.00014464,0.00023312,-0.00940269,0.05051521,-
 0.00057784,-0.00032569,-0.00103240,-0.00039784,0.00065782,0.00176053,0
 .00086117,0.00012285,-0.00063841,-0.00016181,-0.00020811,0.00017210,0.
 00006588,0.00002085,0.00001241,-0.00048190,-0.00010305,-0.00019628,0.0
 0154061,0.00046268,0.00098643,0.01367218,-0.00139246,-0.02639711,0.117
 49309,-0.01287287,-0.21829646,-0.00040760,0.00009757,0.00060106,-0.000
 07074,0.00011973,0.00002542,0.00001644,-0.00003004,0.00000106,-0.00000
 273,-0.00001194,0.00001569,-0.00001877,-0.00000113,-0.00000249,-0.0000
 3128,-0.00001630,-0.00000468,-0.00003082,0.00018239,0.00014590,0.00000
 911,-0.00006154,0.00000659,-0.00085398,-0.00071720,0.00043345,-0.00017
 919,0.00027245,0.00042152,-0.00447040,-0.00005086,-0.00342720,0.000380
 74,0.00039817,0.00155738,-0.12623278,0.01280200,0.24364483,0.00197574,
 -0.00129541,-0.00005320,0.01155816,0.01596842,-0.00049739,-0.00216339,
 0.00248284,0.00008678,0.00076340,0.00073317,0.00007626,0.00003948,-0.0
 0003326,0.00007548,-0.00025367,0.00024546,-0.00006594,-0.00144850,0.00
 170575,-0.00408681,-0.01146703,-0.01467933,0.00181128,-0.15908876,-0.1
 3460385,0.00518034,-0.00001326,0.00000718,-0.00009941,0.00002713,-0.00
 006279,0.00001476,-0.00013477,0.00035385,-0.00001162,-0.00000075,0.000
 00433,-0.00001227,-0.00000493,-0.00001105,-0.00000729,-0.00000362,-0.0
 0001768,-0.00002134,0.00006709,-0.00005904,0.00001941,0.00006526,-0.00
 008473,0.00004690,0.00034459,0.00039360,0.00005081,-0.00055813,-0.0012
 9439,-0.00020740,0.00109390,0.00028545,0.00007993,0.00003601,0.0002749
 8,0.00052664,-0.01042532,-0.01302895,-0.00012154,0.16959138,-0.0000078
 8,0.00612316,-0.00025375,-0.02280568,-0.02663395,0.00128447,0.00525646
 ,-0.00321810,-0.00002789,-0.00166980,-0.00084271,-0.00028623,-0.000052
 73,-0.00000350,-0.00018719,0.00044357,0.00028368,0.00046961,0.00058355
 ,0.00081386,0.00044876,0.00231018,0.00303534,-0.00084422,-0.12964565,-
 0.20775697,0.00482486,0.00010960,0.00045410,0.00015419,0.00006391,-0.0
 0003669,-0.00006254,0.00035127,-0.00059623,-0.00002274,0.00000059,0.00
 001720,0.00002405,0.00005850,-0.00001575,0.00006900,0.00003809,0.00002
 852,0.00009804,-0.00003836,-0.00000629,-0.00012338,-0.00008837,-0.0000
 0253,-0.00009537,-0.00003468,-0.00006581,0.00004887,0.00009946,0.00023
 695,0.00019036,-0.00005409,0.00016553,-0.00040310,-0.00020797,0.000363
 90,-0.00046845,0.00257458,0.00294182,0.00065468,0.14271546,0.22471447,
 -0.00024418,0.00014992,-0.00128475,0.00091710,-0.00072682,-0.00059350,
 0.00002040,0.00065707,0.00119944,0.00005697,0.00001141,0.00040672,0.00
 004344,-0.00001447,-0.00000294,-0.00015045,0.00066899,-0.00014139,-0.0
 0268953,0.00155009,-0.00455238,-0.01657509,-0.02212519,0.00107891,0.00
 513393,0.00498654,-0.05081567,-0.00047125,-0.00030627,0.00023271,-0.00
 004819,0.00005869,0.00000602,-0.00002873,0.00008424,-0.00001696,0.0000
 0241,-0.00000887,-0.00000147,-0.00000206,-0.00000011,0.00000826,0.0000
 0368,-0.00001167,0.00001334,0.00005307,-0.00003549,-0.00001045,0.00013
 586,-0.00006062,0.00009418,-0.00028612,-0.00005003,0.00019388,-0.00105
 899,-0.00138216,0.00002291,0.00090326,-0.00035462,0.00099157,0.0005047
 2,0.00041705,0.00083291,0.01656412,0.02198435,0.00021068,-0.00278438,-
 0.00549204,0.05212799\\-0.00009573,-0.00000339,-0.00000245,0.00015689,
 -0.00002731,-0.00000498,0.00003042,0.00002060,0.00001774,-0.00003813,-
 0.00001164,0.00004506,0.00006548,0.00005280,-0.00001903,-0.00000491,-0
 .00000159,-0.00000133,-0.00000937,0.00002948,-0.00001479,0.00004251,0.
 00001611,0.00002628,-0.00006795,0.00002389,-0.00005956,-0.00000540,-0.
 00002067,-0.00003838,-0.00001624,-0.00000502,0.00001783,0.00002071,-0.
 00002237,0.00000665,0.00001063,-0.00000690,-0.00001916,-0.00001681,-0.
 00000200,0.00000813,-0.00004583,-0.00003258,-0.00001249,-0.00000446,-0
 .00000097,0.00002712,-0.00000826,-0.00001433,-0.00001100,-0.00000176,0
 .00000222,0.00000012,-0.00000853,-0.00000078,0.00000425,-0.00001151,-0
 .00000810,0.00001954,-0.00000190,-0.00000294,-0.00000217,0.00000247,-0
 .00000403,-0.00001143,0.00000771,0.00001952,0.00002406\\\@


 The theorems and results in mathematical physics are
 not theorems and results about Nature, but about our
 description of it.
                   --Gerard 't Hooft
 Job cpu time:       0 days  0 hours  1 minutes 31.6 seconds.
 Elapsed time:       0 days  0 hours  1 minutes 31.7 seconds.
 File lengths (MBytes):  RWF=     78 Int=      0 D2E=      0 Chk=      5 Scr=      1
 Normal termination of Gaussian 16 at Wed Feb 21 18:57:58 2024.
