 Entering Gaussian System, Link 0=g16
 Input=/Volumes/SSD-PMU3/b3lyp_6-31gd_freq/HXRZNVBODCOAQA-AOOOYVTPSA-N_calculating/gaussianinput0.gjf
 Output=/Volumes/SSD-PMU3/b3lyp_6-31gd_freq/HXRZNVBODCOAQA-AOOOYVTPSA-N_calculating/gaussianinput0.log
 Initial command:
 /Applications/g16/l1.exe "/Users/macmini_m1_2022/PycharmProjects/sphere_model/sphere_model_lib/Gau-86503.inp" -scrdir="/Users/macmini_m1_2022/PycharmProjects/sphere_model/sphere_model_lib/"
 Entering Link 1 = /Applications/g16/l1.exe PID=     86504.
  
 Copyright (c) 1988,1990,1992,1993,1995,1998,2003,2009,2016,
            Gaussian, Inc.  All Rights Reserved.
  
 This is part of the Gaussian(R) 16 program.  It is based on
 the Gaussian(R) 09 system (copyright 2009, Gaussian, Inc.),
 the Gaussian(R) 03 system (copyright 2003, Gaussian, Inc.),
 the Gaussian(R) 98 system (copyright 1998, Gaussian, Inc.),
 the Gaussian(R) 94 system (copyright 1995, Gaussian, Inc.),
 the Gaussian 92(TM) system (copyright 1992, Gaussian, Inc.),
 the Gaussian 90(TM) system (copyright 1990, Gaussian, Inc.),
 the Gaussian 88(TM) system (copyright 1988, Gaussian, Inc.),
 the Gaussian 86(TM) system (copyright 1986, Carnegie Mellon
 University), and the Gaussian 82(TM) system (copyright 1983,
 Carnegie Mellon University). Gaussian is a federally registered
 trademark of Gaussian, Inc.
  
 This software contains proprietary and confidential information,
 including trade secrets, belonging to Gaussian, Inc.
  
 This software is provided under written license and may be
 used, copied, transmitted, or stored only in accord with that
 written license.
  
 The following legend is applicable only to US Government
 contracts under FAR:
  
                    RESTRICTED RIGHTS LEGEND
  
 Use, reproduction and disclosure by the US Government is
 subject to restrictions as set forth in subparagraphs (a)
 and (c) of the Commercial Computer Software - Restricted
 Rights clause in FAR 52.227-19.
  
 Gaussian, Inc.
 340 Quinnipiac St., Bldg. 40, Wallingford CT 06492
  
  
 ---------------------------------------------------------------
 Warning -- This program may not be used in any manner that
 competes with the business of Gaussian, Inc. or will provide
 assistance to any competitor of Gaussian, Inc.  The licensee
 of this program is prohibited from giving any competitor of
 Gaussian, Inc. access to this program.  By using this program,
 the user acknowledges that Gaussian, Inc. is engaged in the
 business of creating and licensing software in the field of
 computational chemistry and represents and warrants to the
 licensee that it is not a competitor of Gaussian, Inc. and that
 it will not use this program in any manner prohibited above.
 ---------------------------------------------------------------
  

 Cite this work as:
 Gaussian 16, Revision A.03,
 M. J. Frisch, G. W. Trucks, H. B. Schlegel, G. E. Scuseria, 
 M. A. Robb, J. R. Cheeseman, G. Scalmani, V. Barone, 
 G. A. Petersson, H. Nakatsuji, X. Li, M. Caricato, A. V. Marenich, 
 J. Bloino, B. G. Janesko, R. Gomperts, B. Mennucci, H. P. Hratchian, 
 J. V. Ortiz, A. F. Izmaylov, J. L. Sonnenberg, D. Williams-Young, 
 F. Ding, F. Lipparini, F. Egidi, J. Goings, B. Peng, A. Petrone, 
 T. Henderson, D. Ranasinghe, V. G. Zakrzewski, J. Gao, N. Rega, 
 G. Zheng, W. Liang, M. Hada, M. Ehara, K. Toyota, R. Fukuda, 
 J. Hasegawa, M. Ishida, T. Nakajima, Y. Honda, O. Kitao, H. Nakai, 
 T. Vreven, K. Throssell, J. A. Montgomery, Jr., J. E. Peralta, 
 F. Ogliaro, M. J. Bearpark, J. J. Heyd, E. N. Brothers, K. N. Kudin, 
 V. N. Staroverov, T. A. Keith, R. Kobayashi, J. Normand, 
 K. Raghavachari, A. P. Rendell, J. C. Burant, S. S. Iyengar, 
 J. Tomasi, M. Cossi, J. M. Millam, M. Klene, C. Adamo, R. Cammi, 
 J. W. Ochterski, R. L. Martin, K. Morokuma, O. Farkas, 
 J. B. Foresman, and D. J. Fox, Gaussian, Inc., Wallingford CT, 2016.
 
 ******************************************
 Gaussian 16:  EM64M-G16RevA.03 25-Dec-2016
                24-Feb-2024 
 ******************************************
 %nprocshared=10
 Will use up to   10 processors via shared memory.
 %mem=12GB
 %chk= 0.chk
 ---------------------
 # freq b3lyp/6-31g(d)
 ---------------------
 1/10=4,30=1,38=1/1,3;
 2/12=2,17=6,18=5,40=1/2;
 3/5=1,6=6,7=1,11=2,25=1,30=1,71=2,74=-5,140=1/1,2,3;
 4//1;
 5/5=2,38=5,98=1/2;
 8/6=4,10=90,11=11/1;
 11/6=1,8=1,9=11,15=111,16=1/1,2,10;
 10/6=1/2;
 6/7=2,8=2,9=2,10=2,28=1/1;
 7/8=1,10=1,25=1/1,2,3,16;
 1/10=4,30=1/3;
 99//99;
 ---------
 good luck
 ---------
 Symbolic Z-matrix:
 Charge =  0 Multiplicity = 1
 O                     1.21893   0.        0. 
 C                     0.        0.        0. 
 C                    -0.78284  -1.31582   0.02879 
 C                     0.12944  -2.50338  -0.29411 
 C                    -1.46637  -1.50029   1.42156 
 C                    -2.7367   -0.70541   1.63017 
 C                    -3.9484   -1.38313   1.81599 
 C                    -5.14805  -0.69678   2.00319 
 C                    -5.14805   0.69678   2.00319 
 C                    -3.9484    1.38313   1.81599 
 C                    -2.7367    0.70541   1.63017 
 C                    -1.46637   1.50029   1.42156 
 C                    -0.78284   1.31582   0.02879 
 C                     0.12944   2.50338  -0.29411 
 H                    -1.5833   -1.25275  -0.72163 
 H                     0.90987  -2.61468   0.4648 
 H                     0.63044  -2.36642  -1.25708 
 H                    -0.4536   -3.43012  -0.33481 
 H                    -1.70011  -2.56496   1.53273 
 H                    -0.72738  -1.27082   2.20321 
 H                    -3.94791  -2.47101   1.81672 
 H                    -6.07316  -1.24837   2.14766 
 H                    -6.07315   1.24837   2.14767 
 H                    -3.94791   2.47101   1.81672 
 H                    -1.70011   2.56496   1.53273 
 H                    -0.72738   1.27082   2.20321 
 H                    -1.5833    1.25275  -0.72163 
 H                    -0.4536    3.43012  -0.33482 
 H                     0.90987   2.61468   0.4648 
 H                     0.63045   2.36642  -1.25708 
 

 GradGradGradGradGradGradGradGradGradGradGradGradGradGradGradGradGradGrad
 Berny optimization.
 Initialization pass.
 Trust Radius=3.00D-01 FncErr=1.00D-07 GrdErr=1.00D-07 EigMax=2.50D+02 EigMin=1.00D-04
 Number of steps in this run=      2 maximum allowed number of steps=      2.
 GradGradGradGradGradGradGradGradGradGradGradGradGradGradGradGradGradGrad

                          Input orientation:                          
 ---------------------------------------------------------------------
 Center     Atomic      Atomic             Coordinates (Angstroms)
 Number     Number       Type             X           Y           Z
 ---------------------------------------------------------------------
      1          8           0        1.218929    0.000000    0.000000
      2          6           0        0.000000    0.000000    0.000000
      3          6           0       -0.782843   -1.315824    0.028792
      4          6           0        0.129442   -2.503378   -0.294111
      5          6           0       -1.466369   -1.500287    1.421564
      6          6           0       -2.736700   -0.705410    1.630169
      7          6           0       -3.948397   -1.383131    1.815991
      8          6           0       -5.148053   -0.696777    2.003186
      9          6           0       -5.148053    0.696778    2.003186
     10          6           0       -3.948396    1.383132    1.815991
     11          6           0       -2.736700    0.705410    1.630170
     12          6           0       -1.466368    1.500287    1.421564
     13          6           0       -0.782843    1.315823    0.028792
     14          6           0        0.129442    2.503378   -0.294112
     15          1           0       -1.583304   -1.252754   -0.721628
     16          1           0        0.909871   -2.614676    0.464795
     17          1           0        0.630444   -2.366418   -1.257082
     18          1           0       -0.453602   -3.430116   -0.334814
     19          1           0       -1.700112   -2.564963    1.532727
     20          1           0       -0.727379   -1.270819    2.203211
     21          1           0       -3.947914   -2.471014    1.816717
     22          1           0       -6.073156   -1.248365    2.147665
     23          1           0       -6.073155    1.248367    2.147666
     24          1           0       -3.947913    2.471014    1.816718
     25          1           0       -1.700111    2.564963    1.532728
     26          1           0       -0.727379    1.270818    2.203211
     27          1           0       -1.583304    1.252754   -0.721627
     28          1           0       -0.453603    3.430116   -0.334817
     29          1           0        0.909870    2.614678    0.464795
     30          1           0        0.630445    2.366417   -1.257082
 ---------------------------------------------------------------------
                    Distance matrix (angstroms):
                    1          2          3          4          5
     1  O    0.000000
     2  C    1.218929   0.000000
     3  C    2.395686   1.531360   0.000000
     4  C    2.745976   2.523917   1.531932   0.000000
     5  C    3.388588   2.534155   1.562385   2.548793   0.000000
     6  C    4.336134   3.262603   2.598956   3.892340   1.512973
     7  C    5.649082   4.560780   3.635841   4.726125   2.515902
     8  C    6.710940   5.567827   4.830788   6.032689   3.812966
     9  C    6.710940   5.567828   5.196524   6.585630   4.326682
    10  C    5.649082   4.560779   4.527601   6.015501   3.824936
    11  C    4.336134   3.262604   3.235329   4.713167   2.553890
    12  C    3.388588   2.534155   3.215199   4.638910   3.000574
    13  C    2.395686   1.531360   2.631647   3.939902   3.215198
    14  C    2.745976   2.523917   3.939903   5.006756   4.638910
    15  H    3.153197   2.144059   1.099020   2.163407   2.160606
    16  H    2.673590   2.807210   2.177704   1.094255   2.793526
    17  H    2.743447   2.752753   2.180504   1.094109   3.510264
    18  H    3.830817   3.476140   2.170447   1.095646   2.799071
    19  H    4.177211   3.437829   2.159526   2.586194   1.095686
    20  H    3.202692   2.645411   2.175592   2.913754   1.099879
    21  H    6.008547   4.999240   3.814291   4.591457   2.693793
    22  H    7.703596   6.561563   5.699262   6.783034   4.670458
    23  H    7.703595   6.561562   6.249168   7.649188   5.413391
    24  H    6.008546   4.999239   5.249237   6.769416   4.699515
    25  H    4.177210   3.437829   4.261891   5.689700   4.073481
    26  H    3.202691   2.645411   3.379629   4.606009   2.972558
    27  H    3.153196   2.144059   2.793109   4.150277   3.490870
    28  H    3.830817   3.476141   4.771222   5.962210   5.330989
    29  H    2.673592   2.807212   4.301653   5.232543   4.847149
    30  H    2.743446   2.752752   4.148464   4.989311   5.150065
                    6          7          8          9         10
     6  C    0.000000
     7  C    1.400730   0.000000
     8  C    2.440049   1.394740   0.000000
     9  C    2.814231   2.408368   1.393555   0.000000
    10  C    2.421723   2.766263   2.408369   1.394740   0.000000
    11  C    1.410820   2.421723   2.814230   2.440049   1.400730
    12  C    2.553891   3.824937   4.326682   3.812967   2.515902
    13  C    3.235328   4.527600   5.196523   4.830787   3.635841
    14  C    4.713167   6.015501   6.585630   6.032689   4.726124
    15  H    2.675978   3.471336   4.521190   4.892108   4.356726
    16  H    4.277952   5.190877   6.537846   7.073247   6.435135
    17  H    4.736330   5.601466   6.841643   7.307773   6.668484
    18  H    4.061738   4.585815   5.913988   6.673482   6.325101
    19  H    2.131184   2.555729   3.949652   4.769547   4.552194
    20  H    2.164587   3.246153   4.462274   4.842913   4.191461
    21  H    2.149232   1.087883   2.150121   3.392641   3.854146
    22  H    3.419728   2.154709   1.086710   2.158766   3.398439
    23  H    3.900895   3.398439   2.158767   1.086710   2.154709
    24  H    3.404630   3.854145   3.392640   2.150121   1.087882
    25  H    3.432106   4.552194   4.769547   3.949652   2.555728
    26  H    2.875974   4.191461   4.842912   4.462274   3.246152
    27  H    3.270424   4.356726   4.892107   4.521189   3.471335
    28  H    5.116276   6.325101   6.673482   5.913988   4.585815
    29  H    5.067401   6.435135   7.073246   6.537845   5.190875
    30  H    5.395369   6.668484   7.307773   6.841643   5.601465
                   11         12         13         14         15
    11  C    0.000000
    12  C    1.512974   0.000000
    13  C    2.598956   1.562385   0.000000
    14  C    3.892341   2.548793   1.531933   0.000000
    15  H    3.270425   3.490871   2.793109   4.150277   0.000000
    16  H    5.067401   4.847148   4.301651   5.232541   3.078693
    17  H    5.395369   5.150065   4.148464   4.989311   2.535279
    18  H    5.116275   5.330988   4.771221   5.962210   2.483296
    19  H    3.432106   4.073481   4.261890   5.689700   2.611064
    20  H    2.875974   2.972559   3.379629   4.606010   3.047559
    21  H    3.404630   4.699516   5.249237   6.769417   3.676783
    22  H    3.900894   5.413391   6.249168   7.649188   5.328380
    23  H    3.419728   4.670458   5.699261   6.783033   5.886189
    24  H    2.149231   2.693793   3.814291   4.591457   5.089305
    25  H    2.131185   1.095686   2.159527   2.586194   4.435169
    26  H    2.164586   1.099879   2.175592   2.913755   3.956729
    27  H    2.675978   2.160605   1.099020   2.163407   2.505508
    28  H    4.061740   2.799073   2.170448   1.095647   4.832713
    29  H    4.277952   2.793525   2.177705   1.094256   4.751899
    30  H    4.736331   3.510264   2.180505   1.094109   4.276189
                   16         17         18         19         20
    16  H    0.000000
    17  H    1.761980   0.000000
    18  H    1.778588   1.776848   0.000000
    19  H    2.820454   3.640597   2.406239   0.000000
    20  H    2.740188   3.875261   3.343514   1.752303   0.000000
    21  H    5.044443   5.515482   4.214164   2.267618   3.458568
    22  H    7.311739   7.601355   6.519366   4.608155   5.346113
    23  H    8.155845   8.342495   7.722065   5.834650   5.909882
    24  H    7.161704   7.335554   7.187672   5.522167   4.952023
    25  H    5.897554   6.126422   6.401755   5.129926   4.013599
    26  H    4.560673   5.200653   5.349328   4.013599   2.541637
    27  H    4.751898   4.276190   4.832714   4.435168   3.956729
    28  H    6.248036   5.968713   6.860232   6.401756   5.349330
    29  H    5.229354   5.277713   6.248037   5.897556   4.560676
    30  H    5.277710   4.732835   5.968713   6.126421   5.200654
                   21         22         23         24         25
    21  H    0.000000
    22  H    2.474076   0.000000
    23  H    4.296507   2.496732   0.000000
    24  H    4.942028   4.296506   2.474075   0.000000
    25  H    5.522167   5.834650   4.608154   2.267618   0.000000
    26  H    4.952023   5.909882   5.346112   3.458567   1.752303
    27  H    5.089304   5.886188   5.328379   3.676782   2.611064
    28  H    7.187673   7.722064   6.519365   4.214164   2.406241
    29  H    7.161705   8.155845   7.311737   5.044442   2.820453
    30  H    7.335554   8.342495   7.601355   5.515483   3.640598
                   26         27         28         29         30
    26  H    0.000000
    27  H    3.047558   0.000000
    28  H    3.343517   2.483295   0.000000
    29  H    2.740189   3.078693   1.778589   0.000000
    30  H    3.875261   2.535279   1.776848   1.761980   0.000000
 Stoichiometry    C13H16O
 Framework group  C1[X(C13H16O)]
 Deg. of freedom    84
 Full point group                 C1      NOp   1
 Largest Abelian subgroup         C1      NOp   1
 Largest concise Abelian subgroup C1      NOp   1
                         Standard orientation:                         
 ---------------------------------------------------------------------
 Center     Atomic      Atomic             Coordinates (Angstroms)
 Number     Number       Type             X           Y           Z
 ---------------------------------------------------------------------
      1          8           0        3.126573    0.000000    0.363802
      2          6           0        2.005349    0.000000   -0.114365
      3          6           0        1.273961   -1.315824   -0.394978
      4          6           0        2.239791   -2.503378   -0.334123
      5          6           0        0.098861   -1.500287    0.618018
      6          6           0       -1.151478   -0.705410    0.311571
      7          6           0       -2.338945   -1.383131    0.007168
      8          6           0       -3.515875   -0.696777   -0.291249
      9          6           0       -3.515875    0.696778   -0.291249
     10          6           0       -2.338945    1.383132    0.007168
     11          6           0       -1.151479    0.705410    0.311572
     12          6           0        0.098861    1.500287    0.618018
     13          6           0        1.273961    1.315823   -0.394978
     14          6           0        2.239791    2.503378   -0.334124
     15          1           0        0.832040   -1.252754   -1.399256
     16          1           0        2.659956   -2.614676    0.670102
     17          1           0        3.078393   -2.366418   -1.023371
     18          1           0        1.719448   -3.430116   -0.600283
     19          1           0       -0.159754   -2.564963    0.628577
     20          1           0        0.471988   -1.270819    1.626906
     21          1           0       -2.338786   -2.471014    0.008025
     22          1           0       -4.423503   -1.248366   -0.521254
     23          1           0       -4.423502    1.248366   -0.521253
     24          1           0       -2.338786    2.471014    0.008026
     25          1           0       -0.159754    2.564963    0.628578
     26          1           0        0.471988    1.270818    1.626906
     27          1           0        0.832039    1.252754   -1.399255
     28          1           0        1.719448    3.430116   -0.600286
     29          1           0        2.659955    2.614678    0.670102
     30          1           0        3.078393    2.366417   -1.023370
 ---------------------------------------------------------------------
 Rotational constants (GHZ):           1.1591571           0.5307513           0.3843173
 Standard basis: 6-31G(d) (6D, 7F)
 There are   242 symmetry adapted cartesian basis functions of A   symmetry.
 There are   242 symmetry adapted basis functions of A   symmetry.
   242 basis functions,   456 primitive gaussians,   242 cartesian basis functions
    51 alpha electrons       51 beta electrons
       nuclear repulsion energy       881.8766828261 Hartrees.
 NAtoms=   30 NActive=   30 NUniq=   30 SFac= 1.00D+00 NAtFMM=   60 NAOKFM=F Big=F
 Integral buffers will be    131072 words long.
 Raffenetti 2 integral format.
 Two-electron integral symmetry is turned on.
 One-electron integrals computed using PRISM.
 NBasis=   242 RedAO= T EigKep=  3.96D-04  NBF=   242
 NBsUse=   242 1.00D-06 EigRej= -1.00D+00 NBFU=   242
 ExpMin= 1.61D-01 ExpMax= 5.48D+03 ExpMxC= 8.25D+02 IAcc=3 IRadAn=         5 AccDes= 0.00D+00
 Harris functional with IExCor=  402 and IRadAn=       5 diagonalized for initial guess.
 HarFok:  IExCor=  402 AccDes= 0.00D+00 IRadAn=         5 IDoV= 1 UseB2=F ITyADJ=14
 ICtDFT=  3500011 ScaDFX=  1.000000  1.000000  1.000000  1.000000
 FoFCou: FMM=F IPFlag=           0 FMFlag=      100000 FMFlg1=           0
         NFxFlg=           0 DoJE=T BraDBF=F KetDBF=T FulRan=T
         wScrn=  0.000000 ICntrl=       500 IOpCl=  0 I1Cent=   200000004 NGrid=           0
         NMat0=    1 NMatS0=      1 NMatT0=    0 NMatD0=    1 NMtDS0=    0 NMtDT0=    0
 Petite list used in FoFCou.
 Requested convergence on RMS density matrix=1.00D-08 within 128 cycles.
 Requested convergence on MAX density matrix=1.00D-06.
 Requested convergence on             energy=1.00D-06.
 No special actions if energy rises.
 Integral accuracy reduced to 1.0D-05 until final iterations.
 Initial convergence to 1.0D-05 achieved.  Increase integral accuracy.
 SCF Done:  E(RB3LYP) =  -580.257408763     A.U. after   15 cycles
            NFock= 15  Conv=0.29D-08     -V/T= 2.0098
 DoSCS=F DFT=T ScalE2(SS,OS)=  1.000000  1.000000
 Range of M.O.s used for correlation:     1   242
 NBasis=   242 NAE=    51 NBE=    51 NFC=     0 NFV=     0
 NROrb=    242 NOA=    51 NOB=    51 NVA=   191 NVB=   191
 Symmetrizing basis deriv contribution to polar:
 IMax=3 JMax=2 DiffMx= 0.00D+00
 G2DrvN: will do    31 centers at a time, making    1 passes.
 Calling FoFCou, ICntrl=  3107 FMM=F I1Cent=   0 AccDes= 0.00D+00.
 End of G2Drv F.D. properties file   721 does not exist.
 End of G2Drv F.D. properties file   722 does not exist.
 End of G2Drv F.D. properties file   788 does not exist.
          IDoAtm=111111111111111111111111111111
          Differentiating once with respect to electric field.
                with respect to dipole field.
          Differentiating once with respect to nuclear coordinates.
 Keep R1 ints in memory in canonical form, NReq=442997440.
          There are    93 degrees of freedom in the 1st order CPHF.  IDoFFX=6 NUNeed=     3.
     90 vectors produced by pass  0 Test12= 1.05D-14 1.08D-09 XBig12= 1.60D+02 6.19D+00.
 AX will form    90 AO Fock derivatives at one time.
     90 vectors produced by pass  1 Test12= 1.05D-14 1.08D-09 XBig12= 2.56D+01 1.17D+00.
     90 vectors produced by pass  2 Test12= 1.05D-14 1.08D-09 XBig12= 1.73D-01 7.61D-02.
     90 vectors produced by pass  3 Test12= 1.05D-14 1.08D-09 XBig12= 4.70D-04 2.62D-03.
     90 vectors produced by pass  4 Test12= 1.05D-14 1.08D-09 XBig12= 4.56D-07 7.32D-05.
     53 vectors produced by pass  5 Test12= 1.05D-14 1.08D-09 XBig12= 2.89D-10 1.67D-06.
      5 vectors produced by pass  6 Test12= 1.05D-14 1.08D-09 XBig12= 2.32D-13 5.81D-08.
      2 vectors produced by pass  7 Test12= 1.05D-14 1.08D-09 XBig12= 2.08D-16 2.74D-09.
 InvSVY:  IOpt=1 It=  1 EMax= 5.33D-15
 Solved reduced A of dimension   510 with    93 vectors.
 Isotropic polarizability for W=    0.000000      130.80 Bohr**3.
 End of Minotr F.D. properties file   721 does not exist.
 End of Minotr F.D. properties file   722 does not exist.
 End of Minotr F.D. properties file   788 does not exist.

 **********************************************************************

            Population analysis using the SCF density.

 **********************************************************************

 Orbital symmetries:
       Occupied  (A) (A) (A) (A) (A) (A) (A) (A) (A) (A) (A) (A)
                 (A) (A) (A) (A) (A) (A) (A) (A) (A) (A) (A) (A)
                 (A) (A) (A) (A) (A) (A) (A) (A) (A) (A) (A) (A)
                 (A) (A) (A) (A) (A) (A) (A) (A) (A) (A) (A) (A)
                 (A) (A) (A)
       Virtual   (A) (A) (A) (A) (A) (A) (A) (A) (A) (A) (A) (A)
                 (A) (A) (A) (A) (A) (A) (A) (A) (A) (A) (A) (A)
                 (A) (A) (A) (A) (A) (A) (A) (A) (A) (A) (A) (A)
                 (A) (A) (A) (A) (A) (A) (A) (A) (A) (A) (A) (A)
                 (A) (A) (A) (A) (A) (A) (A) (A) (A) (A) (A) (A)
                 (A) (A) (A) (A) (A) (A) (A) (A) (A) (A) (A) (A)
                 (A) (A) (A) (A) (A) (A) (A) (A) (A) (A) (A) (A)
                 (A) (A) (A) (A) (A) (A) (A) (A) (A) (A) (A) (A)
                 (A) (A) (A) (A) (A) (A) (A) (A) (A) (A) (A) (A)
                 (A) (A) (A) (A) (A) (A) (A) (A) (A) (A) (A) (A)
                 (A) (A) (A) (A) (A) (A) (A) (A) (A) (A) (A) (A)
                 (A) (A) (A) (A) (A) (A) (A) (A) (A) (A) (A) (A)
                 (A) (A) (A) (A) (A) (A) (A) (A) (A) (A) (A) (A)
                 (A) (A) (A) (A) (A) (A) (A) (A) (A) (A) (A) (A)
                 (A) (A) (A) (A) (A) (A) (A) (A) (A) (A) (A) (A)
                 (A) (A) (A) (A) (A) (A) (A) (A) (A) (A) (A)
 The electronic state is 1-A.
 Alpha  occ. eigenvalues --  -19.13564 -10.26705 -10.19969 -10.19968 -10.19812
 Alpha  occ. eigenvalues --  -10.19812 -10.19759 -10.19711 -10.19013 -10.18976
 Alpha  occ. eigenvalues --  -10.18939 -10.18921 -10.17412 -10.17412  -1.03523
 Alpha  occ. eigenvalues --   -0.86442  -0.81437  -0.79832  -0.75517  -0.74906
 Alpha  occ. eigenvalues --   -0.68967  -0.67624  -0.64955  -0.60315  -0.60021
 Alpha  occ. eigenvalues --   -0.56343  -0.52079  -0.50777  -0.48657  -0.47338
 Alpha  occ. eigenvalues --   -0.45866  -0.44481  -0.43017  -0.42447  -0.42221
 Alpha  occ. eigenvalues --   -0.40446  -0.39752  -0.39377  -0.38534  -0.37191
 Alpha  occ. eigenvalues --   -0.37188  -0.35515  -0.35163  -0.34690  -0.33793
 Alpha  occ. eigenvalues --   -0.33367  -0.33272  -0.32362  -0.24871  -0.23996
 Alpha  occ. eigenvalues --   -0.23747
 Alpha virt. eigenvalues --   -0.01291  -0.00425  -0.00001   0.08956   0.09266
 Alpha virt. eigenvalues --    0.10555   0.10833   0.13258   0.13653   0.14608
 Alpha virt. eigenvalues --    0.15177   0.15887   0.16714   0.17233   0.17717
 Alpha virt. eigenvalues --    0.17839   0.18008   0.18536   0.19578   0.21486
 Alpha virt. eigenvalues --    0.21569   0.22357   0.25759   0.26008   0.26890
 Alpha virt. eigenvalues --    0.27092   0.27103   0.31846   0.33113   0.34281
 Alpha virt. eigenvalues --    0.34841   0.36767   0.37356   0.48275   0.50208
 Alpha virt. eigenvalues --    0.50322   0.51220   0.52557   0.54786   0.54951
 Alpha virt. eigenvalues --    0.55390   0.56211   0.57595   0.58038   0.58905
 Alpha virt. eigenvalues --    0.60388   0.60925   0.61544   0.61738   0.63498
 Alpha virt. eigenvalues --    0.63595   0.63856   0.66387   0.66560   0.67040
 Alpha virt. eigenvalues --    0.68956   0.69675   0.71251   0.72240   0.75183
 Alpha virt. eigenvalues --    0.77280   0.78556   0.80058   0.81952   0.82332
 Alpha virt. eigenvalues --    0.83356   0.83670   0.83948   0.85309   0.86384
 Alpha virt. eigenvalues --    0.87725   0.88143   0.88211   0.90151   0.90602
 Alpha virt. eigenvalues --    0.90943   0.91755   0.91872   0.94348   0.95140
 Alpha virt. eigenvalues --    0.95935   0.96880   0.97858   0.98275   0.98576
 Alpha virt. eigenvalues --    1.01836   1.04077   1.05765   1.08517   1.08955
 Alpha virt. eigenvalues --    1.10731   1.14695   1.14985   1.17069   1.20824
 Alpha virt. eigenvalues --    1.21542   1.25870   1.30911   1.32493   1.35554
 Alpha virt. eigenvalues --    1.40990   1.43424   1.44847   1.44871   1.48635
 Alpha virt. eigenvalues --    1.48991   1.50540   1.50878   1.53631   1.57917
 Alpha virt. eigenvalues --    1.59536   1.64110   1.67144   1.70015   1.72996
 Alpha virt. eigenvalues --    1.74521   1.77221   1.79777   1.80128   1.82000
 Alpha virt. eigenvalues --    1.82370   1.84951   1.85228   1.87576   1.90623
 Alpha virt. eigenvalues --    1.92046   1.92454   1.92971   1.93064   1.96607
 Alpha virt. eigenvalues --    1.98151   1.99960   2.00216   2.02514   2.04386
 Alpha virt. eigenvalues --    2.07031   2.07822   2.08862   2.09571   2.12904
 Alpha virt. eigenvalues --    2.19159   2.19383   2.19671   2.22139   2.23633
 Alpha virt. eigenvalues --    2.23889   2.28841   2.29501   2.29879   2.31937
 Alpha virt. eigenvalues --    2.32446   2.35463   2.38576   2.39415   2.42030
 Alpha virt. eigenvalues --    2.46222   2.49090   2.49908   2.50033   2.53751
 Alpha virt. eigenvalues --    2.60996   2.62620   2.63767   2.68108   2.69482
 Alpha virt. eigenvalues --    2.70428   2.71676   2.75696   2.77490   2.80065
 Alpha virt. eigenvalues --    2.80905   2.84287   2.98552   3.00195   3.03770
 Alpha virt. eigenvalues --    3.09523   3.41322   4.04099   4.09352   4.12525
 Alpha virt. eigenvalues --    4.12795   4.17192   4.24084   4.32297   4.33986
 Alpha virt. eigenvalues --    4.36624   4.43311   4.43695   4.63844   4.66823
 Alpha virt. eigenvalues --    4.74249
          Condensed to atoms (all electrons):
               1          2          3          4          5          6
     1  O    8.032239   0.571474  -0.089854   0.003601  -0.001949   0.000051
     2  C    0.571474   4.554911   0.319837  -0.030840  -0.026660  -0.004139
     3  C   -0.089854   0.319837   5.222943   0.337095   0.333933  -0.034443
     4  C    0.003601  -0.030840   0.337095   5.092944  -0.038043   0.003721
     5  C   -0.001949  -0.026660   0.333933  -0.038043   5.239169   0.342861
     6  C    0.000051  -0.004139  -0.034443   0.003721   0.342861   4.739829
     7  C   -0.000001  -0.000051  -0.001232  -0.000077  -0.060948   0.525370
     8  C   -0.000000   0.000005  -0.000151   0.000002   0.007554  -0.024057
     9  C   -0.000000   0.000005   0.000029  -0.000000  -0.000056  -0.040854
    10  C   -0.000001  -0.000051   0.000048   0.000003   0.008853  -0.018189
    11  C    0.000051  -0.004139   0.000326   0.000054  -0.066711   0.532848
    12  C   -0.001949  -0.026660   0.000031  -0.000046  -0.012927  -0.066711
    13  C   -0.089854   0.319837  -0.130268   0.006429   0.000031   0.000326
    14  C    0.003601  -0.030840   0.006429  -0.000201  -0.000046   0.000054
    15  H    0.002401  -0.036634   0.359410  -0.040761  -0.049249   0.002348
    16  H    0.005746  -0.006293  -0.032718   0.376864  -0.004434   0.000278
    17  H    0.002597  -0.003066  -0.028175   0.374400   0.004199  -0.000121
    18  H    0.000615   0.004677  -0.029933   0.362058  -0.005409  -0.000099
    19  H   -0.000055   0.003323  -0.035695  -0.006344   0.363147  -0.034512
    20  H    0.001635  -0.005318  -0.045422  -0.001477   0.349859  -0.024619
    21  H    0.000000   0.000004   0.000215  -0.000039  -0.011194  -0.039372
    22  H    0.000000   0.000000   0.000001  -0.000000  -0.000184   0.003583
    23  H    0.000000   0.000000   0.000000   0.000000   0.000009   0.001032
    24  H    0.000000   0.000004  -0.000002  -0.000000  -0.000175   0.005176
    25  H   -0.000055   0.003323  -0.000255   0.000004   0.000013   0.004636
    26  H    0.001635  -0.005318   0.000268  -0.000009   0.001749  -0.005810
    27  H    0.002401  -0.036634   0.001926  -0.000084  -0.000098  -0.000444
    28  H    0.000615   0.004677  -0.000054   0.000001  -0.000003   0.000006
    29  H    0.005746  -0.006293   0.000273  -0.000002  -0.000006  -0.000012
    30  H    0.002597  -0.003066   0.000113  -0.000005   0.000004  -0.000004
               7          8          9         10         11         12
     1  O   -0.000001  -0.000000  -0.000000  -0.000001   0.000051  -0.001949
     2  C   -0.000051   0.000005   0.000005  -0.000051  -0.004139  -0.026660
     3  C   -0.001232  -0.000151   0.000029   0.000048   0.000326   0.000031
     4  C   -0.000077   0.000002  -0.000000   0.000003   0.000054  -0.000046
     5  C   -0.060948   0.007554  -0.000056   0.008853  -0.066711  -0.012927
     6  C    0.525370  -0.024057  -0.040854  -0.018189   0.532848  -0.066711
     7  C    4.998214   0.515574  -0.027153  -0.061395  -0.018189   0.008853
     8  C    0.515574   4.874086   0.549012  -0.027153  -0.040855  -0.000056
     9  C   -0.027153   0.549012   4.874087   0.515574  -0.024057   0.007554
    10  C   -0.061395  -0.027153   0.515574   4.998214   0.525370  -0.060948
    11  C   -0.018189  -0.040855  -0.024057   0.525370   4.739830   0.342861
    12  C    0.008853  -0.000056   0.007554  -0.060948   0.342861   5.239169
    13  C    0.000048   0.000029  -0.000151  -0.001232  -0.034443   0.333933
    14  C    0.000003  -0.000000   0.000002  -0.000077   0.003721  -0.038043
    15  H    0.001992  -0.000103  -0.000008  -0.000159  -0.000444  -0.000098
    16  H    0.000002  -0.000000   0.000000  -0.000000  -0.000012  -0.000006
    17  H    0.000000  -0.000000   0.000000  -0.000000  -0.000004   0.000004
    18  H    0.000001   0.000000  -0.000000   0.000000   0.000006  -0.000003
    19  H   -0.005489   0.000320  -0.000004  -0.000161   0.004636   0.000013
    20  H    0.001890  -0.000243   0.000036  -0.000147  -0.005810   0.001749
    21  H    0.350263  -0.045799   0.004619   0.000682   0.005176  -0.000175
    22  H   -0.038583   0.355836  -0.042162   0.004363   0.001032   0.000009
    23  H    0.004363  -0.042162   0.355836  -0.038583   0.003583  -0.000184
    24  H    0.000682   0.004619  -0.045799   0.350263  -0.039372  -0.011194
    25  H   -0.000161  -0.000004   0.000320  -0.005489  -0.034512   0.363147
    26  H   -0.000147   0.000036  -0.000243   0.001890  -0.024619   0.349859
    27  H   -0.000159  -0.000008  -0.000103   0.001992   0.002348  -0.049249
    28  H    0.000000  -0.000000   0.000000   0.000001  -0.000099  -0.005409
    29  H   -0.000000   0.000000  -0.000000   0.000002   0.000278  -0.004434
    30  H   -0.000000   0.000000  -0.000000   0.000000  -0.000121   0.004199
              13         14         15         16         17         18
     1  O   -0.089854   0.003601   0.002401   0.005746   0.002597   0.000615
     2  C    0.319837  -0.030840  -0.036634  -0.006293  -0.003066   0.004677
     3  C   -0.130268   0.006429   0.359410  -0.032718  -0.028175  -0.029933
     4  C    0.006429  -0.000201  -0.040761   0.376864   0.374400   0.362058
     5  C    0.000031  -0.000046  -0.049249  -0.004434   0.004199  -0.005409
     6  C    0.000326   0.000054   0.002348   0.000278  -0.000121  -0.000099
     7  C    0.000048   0.000003   0.001992   0.000002   0.000000   0.000001
     8  C    0.000029  -0.000000  -0.000103  -0.000000  -0.000000   0.000000
     9  C   -0.000151   0.000002  -0.000008   0.000000   0.000000  -0.000000
    10  C   -0.001232  -0.000077  -0.000159  -0.000000  -0.000000   0.000000
    11  C   -0.034443   0.003721  -0.000444  -0.000012  -0.000004   0.000006
    12  C    0.333933  -0.038043  -0.000098  -0.000006   0.000004  -0.000003
    13  C    5.222943   0.337095   0.001926   0.000273   0.000113  -0.000054
    14  C    0.337095   5.092944  -0.000084  -0.000002  -0.000005   0.000001
    15  H    0.001926  -0.000084   0.608531   0.005208  -0.002548  -0.002919
    16  H    0.000273  -0.000002   0.005208   0.549416  -0.027742  -0.030937
    17  H    0.000113  -0.000005  -0.002548  -0.027742   0.555013  -0.029934
    18  H   -0.000054   0.000001  -0.002919  -0.030937  -0.029934   0.590994
    19  H   -0.000255   0.000004  -0.002073  -0.000390   0.000130   0.005048
    20  H    0.000268  -0.000009   0.006383   0.003740  -0.000166  -0.000034
    21  H   -0.000002  -0.000000   0.000153   0.000002   0.000001  -0.000005
    22  H    0.000000   0.000000   0.000001   0.000000   0.000000  -0.000000
    23  H    0.000001  -0.000000  -0.000000  -0.000000  -0.000000  -0.000000
    24  H    0.000215  -0.000039   0.000002  -0.000000   0.000000   0.000000
    25  H   -0.035695  -0.006344  -0.000003   0.000000   0.000000  -0.000000
    26  H   -0.045422  -0.001477   0.000080  -0.000008  -0.000002  -0.000000
    27  H    0.359410  -0.040761   0.002471  -0.000005  -0.000020  -0.000010
    28  H   -0.029932   0.362058  -0.000010  -0.000000   0.000000  -0.000000
    29  H   -0.032718   0.376864  -0.000005  -0.000002  -0.000000  -0.000000
    30  H   -0.028175   0.374400  -0.000020  -0.000000  -0.000000   0.000000
              19         20         21         22         23         24
     1  O   -0.000055   0.001635   0.000000   0.000000   0.000000   0.000000
     2  C    0.003323  -0.005318   0.000004   0.000000   0.000000   0.000004
     3  C   -0.035695  -0.045422   0.000215   0.000001   0.000000  -0.000002
     4  C   -0.006344  -0.001477  -0.000039  -0.000000   0.000000  -0.000000
     5  C    0.363147   0.349859  -0.011194  -0.000184   0.000009  -0.000175
     6  C   -0.034512  -0.024619  -0.039372   0.003583   0.001032   0.005176
     7  C   -0.005489   0.001890   0.350263  -0.038583   0.004363   0.000682
     8  C    0.000320  -0.000243  -0.045799   0.355836  -0.042162   0.004619
     9  C   -0.000004   0.000036   0.004619  -0.042162   0.355836  -0.045799
    10  C   -0.000161  -0.000147   0.000682   0.004363  -0.038583   0.350263
    11  C    0.004636  -0.005810   0.005176   0.001032   0.003583  -0.039372
    12  C    0.000013   0.001749  -0.000175   0.000009  -0.000184  -0.011194
    13  C   -0.000255   0.000268  -0.000002   0.000000   0.000001   0.000215
    14  C    0.000004  -0.000009  -0.000000   0.000000  -0.000000  -0.000039
    15  H   -0.002073   0.006383   0.000153   0.000001  -0.000000   0.000002
    16  H   -0.000390   0.003740   0.000002   0.000000  -0.000000  -0.000000
    17  H    0.000130  -0.000166   0.000001   0.000000  -0.000000   0.000000
    18  H    0.005048  -0.000034  -0.000005  -0.000000  -0.000000   0.000000
    19  H    0.580306  -0.032787   0.008507  -0.000015  -0.000000   0.000003
    20  H   -0.032787   0.588634   0.000197   0.000003  -0.000000  -0.000001
    21  H    0.008507   0.000197   0.608058  -0.005339  -0.000196   0.000020
    22  H   -0.000015   0.000003  -0.005339   0.597679  -0.005234  -0.000196
    23  H   -0.000000  -0.000000  -0.000196  -0.005234   0.597679  -0.005339
    24  H    0.000003  -0.000001   0.000020  -0.000196  -0.005339   0.608058
    25  H   -0.000003   0.000016   0.000003  -0.000000  -0.000015   0.008507
    26  H    0.000016   0.003040  -0.000001  -0.000000   0.000003   0.000197
    27  H   -0.000003   0.000080   0.000002  -0.000000   0.000001   0.000153
    28  H   -0.000000  -0.000000   0.000000  -0.000000  -0.000000  -0.000005
    29  H    0.000000  -0.000008  -0.000000  -0.000000   0.000000   0.000002
    30  H    0.000000  -0.000002   0.000000  -0.000000   0.000000   0.000001
              25         26         27         28         29         30
     1  O   -0.000055   0.001635   0.002401   0.000615   0.005746   0.002597
     2  C    0.003323  -0.005318  -0.036634   0.004677  -0.006293  -0.003066
     3  C   -0.000255   0.000268   0.001926  -0.000054   0.000273   0.000113
     4  C    0.000004  -0.000009  -0.000084   0.000001  -0.000002  -0.000005
     5  C    0.000013   0.001749  -0.000098  -0.000003  -0.000006   0.000004
     6  C    0.004636  -0.005810  -0.000444   0.000006  -0.000012  -0.000004
     7  C   -0.000161  -0.000147  -0.000159   0.000000  -0.000000  -0.000000
     8  C   -0.000004   0.000036  -0.000008  -0.000000   0.000000   0.000000
     9  C    0.000320  -0.000243  -0.000103   0.000000  -0.000000  -0.000000
    10  C   -0.005489   0.001890   0.001992   0.000001   0.000002   0.000000
    11  C   -0.034512  -0.024619   0.002348  -0.000099   0.000278  -0.000121
    12  C    0.363147   0.349859  -0.049249  -0.005409  -0.004434   0.004199
    13  C   -0.035695  -0.045422   0.359410  -0.029932  -0.032718  -0.028175
    14  C   -0.006344  -0.001477  -0.040761   0.362058   0.376864   0.374400
    15  H   -0.000003   0.000080   0.002471  -0.000010  -0.000005  -0.000020
    16  H    0.000000  -0.000008  -0.000005  -0.000000  -0.000002  -0.000000
    17  H    0.000000  -0.000002  -0.000020   0.000000  -0.000000  -0.000000
    18  H   -0.000000  -0.000000  -0.000010  -0.000000  -0.000000   0.000000
    19  H   -0.000003   0.000016  -0.000003  -0.000000   0.000000   0.000000
    20  H    0.000016   0.003040   0.000080  -0.000000  -0.000008  -0.000002
    21  H    0.000003  -0.000001   0.000002   0.000000  -0.000000   0.000000
    22  H   -0.000000  -0.000000  -0.000000  -0.000000  -0.000000  -0.000000
    23  H   -0.000015   0.000003   0.000001  -0.000000   0.000000   0.000000
    24  H    0.008507   0.000197   0.000153  -0.000005   0.000002   0.000001
    25  H    0.580306  -0.032787  -0.002073   0.005048  -0.000390   0.000130
    26  H   -0.032787   0.588634   0.006383  -0.000034   0.003740  -0.000166
    27  H   -0.002073   0.006383   0.608531  -0.002919   0.005208  -0.002548
    28  H    0.005048  -0.000034  -0.002919   0.590994  -0.030937  -0.029934
    29  H   -0.000390   0.003740   0.005208  -0.030937   0.549416  -0.027742
    30  H    0.000130  -0.000166  -0.002548  -0.029934  -0.027742   0.555013
 Mulliken charges:
               1
     1  O   -0.453287
     2  C    0.443924
     3  C   -0.154675
     4  C   -0.439245
     5  C   -0.373288
     6  C    0.131268
     7  C   -0.193671
     8  C   -0.126483
     9  C   -0.126483
    10  C   -0.193671
    11  C    0.131267
    12  C   -0.373288
    13  C   -0.154675
    14  C   -0.439245
    15  H    0.144213
    16  H    0.161021
    17  H    0.155330
    18  H    0.135936
    19  H    0.152336
    20  H    0.158514
    21  H    0.124222
    22  H    0.129204
    23  H    0.129204
    24  H    0.124222
    25  H    0.152336
    26  H    0.158514
    27  H    0.144213
    28  H    0.135936
    29  H    0.161021
    30  H    0.155330
 Sum of Mulliken charges =  -0.00000
 Mulliken charges with hydrogens summed into heavy atoms:
               1
     1  O   -0.453287
     2  C    0.443924
     3  C   -0.010463
     4  C    0.013042
     5  C   -0.062439
     6  C    0.131268
     7  C   -0.069449
     8  C    0.002721
     9  C    0.002721
    10  C   -0.069449
    11  C    0.131267
    12  C   -0.062438
    13  C   -0.010462
    14  C    0.013042
 APT charges:
               1
     1  O   -0.629244
     2  C    0.655311
     3  C   -0.029443
     4  C    0.065028
     5  C    0.125901
     6  C    0.012370
     7  C   -0.038878
     8  C   -0.018207
     9  C   -0.018207
    10  C   -0.038879
    11  C    0.012370
    12  C    0.125901
    13  C   -0.029443
    14  C    0.065028
    15  H   -0.033985
    16  H   -0.000855
    17  H   -0.022066
    18  H   -0.026684
    19  H   -0.029984
    20  H   -0.037082
    21  H    0.010934
    22  H    0.009918
    23  H    0.009918
    24  H    0.010934
    25  H   -0.029984
    26  H   -0.037082
    27  H   -0.033985
    28  H   -0.026684
    29  H   -0.000855
    30  H   -0.022066
 Sum of APT charges =   0.00000
 APT charges with hydrogens summed into heavy atoms:
               1
     1  O   -0.629244
     2  C    0.655311
     3  C   -0.063428
     4  C    0.015423
     5  C    0.058835
     6  C    0.012370
     7  C   -0.027944
     8  C   -0.008288
     9  C   -0.008289
    10  C   -0.027945
    11  C    0.012370
    12  C    0.058835
    13  C   -0.063428
    14  C    0.015423
 Electronic spatial extent (au):  <R**2>=           2936.0778
 Charge=             -0.0000 electrons
 Dipole moment (field-independent basis, Debye):
    X=             -2.2487    Y=              0.0000    Z=             -0.7870  Tot=              2.3824
 Quadrupole moment (field-independent basis, Debye-Ang):
   XX=            -91.6208   YY=            -77.6788   ZZ=            -84.3894
   XY=             -0.0000   XZ=             -1.2287   YZ=              0.0000
 Traceless Quadrupole moment (field-independent basis, Debye-Ang):
   XX=             -7.0578   YY=              6.8842   ZZ=              0.1736
   XY=             -0.0000   XZ=             -1.2287   YZ=              0.0000
 Octapole moment (field-independent basis, Debye-Ang**2):
  XXX=            -48.3484  YYY=              0.0000  ZZZ=              2.3896  XYY=             -1.9090
  XXY=              0.0000  XXZ=            -16.9194  XZZ=             14.5740  YZZ=              0.0000
  YYZ=              0.4370  XYZ=             -0.0000
 Hexadecapole moment (field-independent basis, Debye-Ang**3):
 XXXX=          -2524.0110 YYYY=          -1232.2864 ZZZZ=           -202.6383 XXXY=             -0.0001
 XXXZ=              8.7065 YYYX=             -0.0001 YYYZ=              0.0000 ZZZX=              3.4743
 ZZZY=              0.0000 XXYY=           -600.7858 XXZZ=           -464.5921 YYZZ=           -248.2878
 XXYZ=              0.0000 YYXZ=              5.5991 ZZXY=             -0.0000
 N-N= 8.818766828261D+02 E-N=-3.109204307205D+03  KE= 5.746482220123D+02
  Exact polarizability: 168.700  -0.000 142.826  11.425   0.000  80.875
 Approx polarizability: 241.609  -0.000 217.178  28.472   0.000 131.412
 Calling FoFJK, ICntrl=    100127 FMM=F ISym2X=0 I1Cent= 0 IOpClX= 0 NMat=1 NMatS=1 NMatT=0.
 Full mass-weighted force constant matrix:
 Low frequencies ---   -1.9848   -0.0005   -0.0005    0.0001    4.6940    8.4837
 Low frequencies ---   61.2523   67.4452  105.9774
 Diagonal vibrational polarizability:
        5.0792777       6.4553698      21.3337119
 Harmonic frequencies (cm**-1), IR intensities (KM/Mole), Raman scattering
 activities (A**4/AMU), depolarization ratios for plane and unpolarized
 incident light, reduced masses (AMU), force constants (mDyne/A),
 and normal coordinates:
                      1                      2                      3
                      A                      A                      A
 Frequencies --     61.2523                67.4448               105.9772
 Red. masses --      6.8255                 3.2644                 3.6788
 Frc consts  --      0.0151                 0.0087                 0.0243
 IR Inten    --      2.4708                 0.1332                 0.6531
  Atom  AN      X      Y      Z        X      Y      Z        X      Y      Z
     1   8    -0.17   0.00   0.47     0.00   0.05  -0.00     0.10  -0.00  -0.10
     2   6    -0.01  -0.00   0.09     0.00  -0.01  -0.00     0.06  -0.00  -0.02
     3   6     0.05   0.02  -0.10     0.06  -0.04   0.02     0.07  -0.01  -0.00
     4   6     0.06   0.03  -0.14     0.09  -0.01   0.17     0.06  -0.01   0.17
     5   6     0.02  -0.04  -0.15    -0.02  -0.05  -0.08    -0.03  -0.00  -0.12
     6   6     0.02  -0.00  -0.08    -0.00  -0.01  -0.07    -0.03   0.00  -0.14
     7   6    -0.01   0.00   0.03    -0.00   0.03  -0.17    -0.06   0.00  -0.02
     8   6    -0.04   0.00   0.15     0.00   0.07  -0.09    -0.10   0.00   0.13
     9   6    -0.04  -0.00   0.15    -0.00   0.07   0.09    -0.10  -0.00   0.13
    10   6    -0.01  -0.00   0.03     0.00   0.03   0.17    -0.06  -0.00  -0.02
    11   6     0.02   0.00  -0.08     0.00  -0.01   0.07    -0.03  -0.00  -0.14
    12   6     0.02   0.04  -0.15     0.02  -0.05   0.08    -0.03   0.00  -0.12
    13   6     0.05  -0.02  -0.10    -0.06  -0.04  -0.02     0.07   0.01  -0.00
    14   6     0.06  -0.03  -0.14    -0.09  -0.01  -0.17     0.06   0.01   0.17
    15   1     0.09   0.09  -0.12     0.14  -0.11  -0.02     0.18  -0.06  -0.05
    16   1     0.02  -0.03  -0.13    -0.00   0.05   0.22    -0.09   0.02   0.24
    17   1     0.08   0.08  -0.10     0.15  -0.02   0.25     0.17  -0.02   0.30
    18   1     0.08   0.03  -0.22     0.15  -0.04   0.17     0.11  -0.02   0.12
    19   1    -0.00  -0.04  -0.24    -0.05  -0.05  -0.15    -0.04  -0.00  -0.17
    20   1     0.01  -0.13  -0.13    -0.08  -0.12  -0.04    -0.11  -0.04  -0.08
    21   1    -0.01   0.00   0.03    -0.00   0.03  -0.29    -0.06   0.00  -0.01
    22   1    -0.06  -0.00   0.24     0.00   0.10  -0.17    -0.13  -0.00   0.25
    23   1    -0.06   0.00   0.24    -0.00   0.10   0.17    -0.13   0.00   0.25
    24   1    -0.01  -0.00   0.03     0.00   0.03   0.29    -0.06  -0.00  -0.01
    25   1    -0.00   0.04  -0.24     0.05  -0.05   0.15    -0.04   0.00  -0.17
    26   1     0.01   0.13  -0.13     0.08  -0.12   0.04    -0.11   0.04  -0.08
    27   1     0.09  -0.09  -0.12    -0.14  -0.11   0.02     0.18   0.06  -0.05
    28   1     0.08  -0.03  -0.22    -0.15  -0.04  -0.17     0.11   0.02   0.12
    29   1     0.02   0.03  -0.13     0.00   0.05  -0.22    -0.09  -0.02   0.24
    30   1     0.08  -0.08  -0.10    -0.15  -0.02  -0.25     0.17   0.02   0.30
                      4                      5                      6
                      A                      A                      A
 Frequencies --    162.7120               211.8263               215.9475
 Red. masses --      3.0705                 1.3743                 1.0795
 Frc consts  --      0.0479                 0.0363                 0.0297
 IR Inten    --      0.0225                 0.3126                 0.0688
  Atom  AN      X      Y      Z        X      Y      Z        X      Y      Z
     1   8    -0.00   0.05   0.00    -0.08   0.00   0.00    -0.00  -0.00  -0.00
     2   6    -0.00   0.02  -0.00    -0.05  -0.00  -0.06    -0.00   0.01  -0.00
     3   6     0.02   0.00  -0.01    -0.02  -0.02  -0.03     0.00   0.02  -0.01
     4   6     0.09   0.05   0.01     0.06   0.04   0.05    -0.03  -0.01   0.02
     5   6    -0.03  -0.12  -0.08     0.00  -0.00  -0.00     0.00   0.02  -0.01
     6   6    -0.04  -0.07   0.02     0.01  -0.00  -0.00     0.00   0.01  -0.00
     7   6    -0.11   0.01   0.14     0.01   0.00   0.00     0.01  -0.01   0.01
     8   6    -0.06   0.08   0.11     0.01   0.00   0.00     0.00  -0.02   0.01
     9   6     0.06   0.08  -0.11     0.01  -0.00   0.00    -0.00  -0.02  -0.01
    10   6     0.11   0.01  -0.14     0.01  -0.00   0.00    -0.01  -0.01  -0.01
    11   6     0.04  -0.07  -0.02     0.01   0.00  -0.00    -0.00   0.01   0.00
    12   6     0.03  -0.12   0.08     0.00   0.00  -0.00    -0.00   0.02   0.01
    13   6    -0.02   0.00   0.01    -0.02   0.02  -0.03    -0.00   0.02   0.01
    14   6    -0.09   0.05  -0.01     0.06  -0.04   0.05     0.03  -0.01  -0.02
    15   1     0.07   0.00  -0.03    -0.03  -0.10  -0.03     0.01   0.02  -0.02
    16   1     0.03   0.04   0.03     0.31   0.35  -0.03    -0.36  -0.25   0.13
    17   1     0.13   0.14   0.07    -0.12  -0.10  -0.20     0.19   0.13   0.32
    18   1     0.17   0.03  -0.06     0.05  -0.07   0.43     0.03   0.06  -0.35
    19   1    -0.04  -0.12  -0.25    -0.00  -0.00   0.02     0.01   0.01  -0.01
    20   1    -0.05  -0.27  -0.03     0.02   0.01  -0.02     0.02   0.01  -0.02
    21   1    -0.21   0.01   0.24     0.01   0.00   0.00     0.03  -0.01   0.02
    22   1    -0.12   0.13   0.20     0.01   0.00   0.00     0.01  -0.03   0.01
    23   1     0.12   0.13  -0.20     0.01  -0.00   0.00    -0.01  -0.03  -0.01
    24   1     0.21   0.01  -0.24     0.01  -0.00   0.00    -0.03  -0.01  -0.02
    25   1     0.04  -0.12   0.25    -0.00   0.00   0.02    -0.01   0.01   0.01
    26   1     0.05  -0.27   0.03     0.02  -0.01  -0.02    -0.02   0.01   0.02
    27   1    -0.07   0.00   0.03    -0.03   0.10  -0.03    -0.01   0.02   0.02
    28   1    -0.17   0.03   0.06     0.05   0.07   0.42    -0.03   0.06   0.35
    29   1    -0.03   0.04  -0.03     0.31  -0.35  -0.03     0.36  -0.25  -0.13
    30   1    -0.13   0.14  -0.07    -0.12   0.10  -0.20    -0.19   0.13  -0.32
                      7                      8                      9
                      A                      A                      A
 Frequencies --    234.0344               258.5080               282.9970
 Red. masses --      2.0693                 2.6030                 4.3692
 Frc consts  --      0.0668                 0.1025                 0.2062
 IR Inten    --      0.7012                 0.1702                 0.1128
  Atom  AN      X      Y      Z        X      Y      Z        X      Y      Z
     1   8     0.14   0.00   0.02     0.04  -0.00  -0.07    -0.00   0.06   0.00
     2   6     0.10   0.00   0.10    -0.03  -0.00   0.09    -0.00   0.08  -0.00
     3   6     0.04   0.03   0.07    -0.01   0.01   0.07    -0.11   0.08   0.15
     4   6    -0.03  -0.03  -0.07     0.14   0.12  -0.06    -0.09   0.10  -0.00
     5   6    -0.02   0.03   0.02    -0.05  -0.09   0.00    -0.08  -0.09   0.15
     6   6    -0.03   0.00  -0.06    -0.04  -0.01   0.05    -0.07  -0.14   0.04
     7   6    -0.03  -0.00  -0.04    -0.05   0.01   0.02    -0.08  -0.07  -0.08
     8   6    -0.05  -0.00   0.02    -0.04   0.00  -0.04    -0.03   0.02  -0.10
     9   6    -0.05   0.00   0.02    -0.04  -0.00  -0.04     0.03   0.02   0.10
    10   6    -0.03   0.00  -0.04    -0.05  -0.01   0.02     0.08  -0.07   0.08
    11   6    -0.03  -0.00  -0.06    -0.04   0.01   0.05     0.07  -0.14  -0.04
    12   6    -0.02  -0.03   0.02    -0.05   0.09   0.00     0.08  -0.09  -0.15
    13   6     0.04  -0.03   0.07    -0.01  -0.01   0.07     0.11   0.08  -0.15
    14   6    -0.03   0.03  -0.07     0.14  -0.12  -0.06     0.09   0.10   0.00
    15   1     0.05   0.13   0.07     0.01   0.06   0.07    -0.18   0.11   0.18
    16   1     0.28   0.06  -0.19     0.19   0.07  -0.09    -0.09  -0.03  -0.02
    17   1    -0.24  -0.17  -0.36     0.10   0.34  -0.06    -0.10   0.20   0.01
    18   1    -0.18  -0.02   0.19     0.28   0.07  -0.17    -0.08   0.13  -0.13
    19   1    -0.00   0.02   0.01    -0.09  -0.08  -0.17     0.01  -0.11   0.09
    20   1    -0.10   0.05   0.04    -0.10  -0.25   0.05    -0.16  -0.08   0.17
    21   1    -0.03  -0.00  -0.03    -0.05   0.01   0.02    -0.14  -0.07  -0.14
    22   1    -0.06  -0.00   0.07    -0.02  -0.01  -0.09    -0.05   0.10  -0.19
    23   1    -0.06   0.00   0.07    -0.02   0.01  -0.09     0.05   0.10   0.19
    24   1    -0.03   0.00  -0.03    -0.05  -0.01   0.02     0.14  -0.07   0.14
    25   1    -0.00  -0.02   0.01    -0.09   0.08  -0.17    -0.01  -0.11  -0.09
    26   1    -0.10  -0.05   0.04    -0.10   0.25   0.05     0.16  -0.08  -0.17
    27   1     0.05  -0.13   0.07     0.01  -0.06   0.07     0.18   0.11  -0.18
    28   1    -0.18   0.02   0.19     0.28  -0.07  -0.17     0.08   0.13   0.13
    29   1     0.28  -0.06  -0.19     0.19  -0.07  -0.09     0.09  -0.03   0.02
    30   1    -0.24   0.17  -0.36     0.10  -0.34  -0.06     0.10   0.20  -0.01
                     10                     11                     12
                      A                      A                      A
 Frequencies --    305.7740               315.4691               345.9999
 Red. masses --      2.4954                 2.1539                 3.9683
 Frc consts  --      0.1375                 0.1263                 0.2799
 IR Inten    --      0.2560                 1.2895                 1.5600
  Atom  AN      X      Y      Z        X      Y      Z        X      Y      Z
     1   8    -0.00  -0.02   0.00    -0.04  -0.00   0.00     0.07  -0.00   0.07
     2   6    -0.00  -0.06  -0.00    -0.03   0.00  -0.02     0.13  -0.00  -0.07
     3   6     0.04  -0.09   0.05    -0.02   0.02   0.02     0.07   0.06  -0.09
     4   6     0.15  -0.02  -0.08     0.05   0.08  -0.03     0.04   0.04   0.01
     5   6     0.04   0.01   0.11     0.02   0.11   0.09     0.04   0.14  -0.03
     6   6     0.02  -0.00   0.02    -0.01   0.00  -0.07    -0.09   0.00   0.07
     7   6    -0.00   0.04  -0.01     0.00  -0.01  -0.09    -0.13  -0.01   0.16
     8   6     0.01   0.08  -0.02    -0.03  -0.00   0.05    -0.06  -0.00  -0.12
     9   6    -0.01   0.08   0.02    -0.03   0.00   0.05    -0.06   0.00  -0.12
    10   6     0.00   0.04   0.01     0.00   0.01  -0.09    -0.13   0.01   0.16
    11   6    -0.02  -0.00  -0.02    -0.01  -0.00  -0.07    -0.09  -0.00   0.07
    12   6    -0.04   0.01  -0.11     0.02  -0.11   0.09     0.04  -0.14  -0.03
    13   6    -0.04  -0.09  -0.05    -0.02  -0.02   0.02     0.07  -0.06  -0.09
    14   6    -0.15  -0.02   0.08     0.05  -0.08  -0.03     0.04  -0.04   0.01
    15   1    -0.02  -0.11   0.08    -0.08  -0.01   0.04     0.09   0.05  -0.10
    16   1     0.12  -0.17  -0.09     0.01   0.02  -0.01    -0.01   0.11   0.03
    17   1     0.16   0.23  -0.02     0.08   0.23   0.04     0.08   0.01   0.05
    18   1     0.28  -0.03  -0.30     0.15   0.06  -0.15     0.05   0.03   0.03
    19   1     0.04   0.01   0.26     0.09   0.10   0.35     0.14   0.12   0.11
    20   1     0.04   0.16   0.08     0.01   0.38   0.04     0.11   0.28  -0.09
    21   1    -0.05   0.04  -0.03     0.01  -0.01  -0.10    -0.15  -0.01   0.26
    22   1     0.01   0.08  -0.05    -0.06   0.01   0.16    -0.02  -0.00  -0.29
    23   1    -0.01   0.08   0.05    -0.06  -0.01   0.16    -0.02   0.00  -0.29
    24   1     0.05   0.04   0.03     0.01   0.01  -0.10    -0.15   0.01   0.26
    25   1    -0.04   0.01  -0.26     0.09  -0.10   0.35     0.14  -0.12   0.11
    26   1    -0.04   0.16  -0.08     0.01  -0.38   0.04     0.11  -0.28  -0.09
    27   1     0.02  -0.11  -0.08    -0.08   0.01   0.04     0.09  -0.05  -0.10
    28   1    -0.28  -0.03   0.30     0.15  -0.06  -0.15     0.05  -0.03   0.03
    29   1    -0.12  -0.17   0.09     0.01  -0.02  -0.01    -0.01  -0.11   0.03
    30   1    -0.16   0.23   0.02     0.08  -0.23   0.04     0.08  -0.01   0.05
                     13                     14                     15
                      A                      A                      A
 Frequencies --    349.1871               428.6536               445.9533
 Red. masses --      4.5717                 2.1883                 3.4141
 Frc consts  --      0.3284                 0.2369                 0.4000
 IR Inten    --     11.9466                 0.1619                 0.8567
  Atom  AN      X      Y      Z        X      Y      Z        X      Y      Z
     1   8    -0.00   0.38  -0.00    -0.00   0.01  -0.00     0.06  -0.00  -0.00
     2   6     0.00   0.05  -0.00    -0.00  -0.02  -0.00     0.03  -0.00   0.05
     3   6     0.10  -0.03   0.06    -0.03  -0.02   0.10    -0.05   0.16  -0.03
     4   6    -0.06  -0.19  -0.06     0.02   0.01  -0.02    -0.12   0.20   0.04
     5   6     0.03  -0.02   0.00    -0.09  -0.06   0.00    -0.01   0.04  -0.06
     6   6     0.01  -0.02  -0.01     0.02   0.12   0.03     0.01   0.01   0.04
     7   6    -0.01   0.01   0.00     0.08   0.05   0.02     0.06  -0.02  -0.04
     8   6    -0.00   0.03   0.02     0.04  -0.06  -0.01     0.07  -0.00   0.04
     9   6     0.00   0.03  -0.02    -0.04  -0.06   0.01     0.07   0.00   0.04
    10   6     0.01   0.01  -0.00    -0.08   0.05  -0.02     0.06   0.02  -0.04
    11   6    -0.01  -0.02   0.01    -0.02   0.12  -0.03     0.01  -0.01   0.04
    12   6    -0.03  -0.02  -0.00     0.09  -0.06  -0.00    -0.01  -0.04  -0.06
    13   6    -0.10  -0.03  -0.06     0.03  -0.02  -0.10    -0.05  -0.16  -0.03
    14   6     0.06  -0.19   0.06    -0.02   0.01   0.02    -0.12  -0.20   0.04
    15   1     0.10   0.01   0.05    -0.03  -0.01   0.10    -0.01   0.27  -0.04
    16   1    -0.01  -0.36  -0.10     0.09  -0.07  -0.06    -0.17   0.32   0.07
    17   1    -0.10  -0.31  -0.13    -0.03   0.12  -0.06    -0.08   0.12   0.07
    18   1    -0.26  -0.07  -0.09     0.05   0.01  -0.09    -0.11   0.17   0.13
    19   1     0.02  -0.02  -0.04    -0.25  -0.02  -0.31     0.03   0.03  -0.22
    20   1    -0.02  -0.06   0.03    -0.14  -0.38   0.09     0.01  -0.11  -0.04
    21   1    -0.04   0.01   0.00     0.17   0.05   0.04     0.10  -0.02  -0.13
    22   1    -0.01   0.04   0.03     0.09  -0.13  -0.03     0.06   0.02   0.03
    23   1     0.01   0.04  -0.03    -0.09  -0.13   0.03     0.06  -0.02   0.03
    24   1     0.04   0.01  -0.00    -0.17   0.05  -0.04     0.10   0.02  -0.13
    25   1    -0.02  -0.02   0.04     0.25  -0.02   0.31     0.03  -0.03  -0.22
    26   1     0.02  -0.06  -0.03     0.14  -0.38  -0.09     0.01   0.11  -0.04
    27   1    -0.10   0.01  -0.05     0.03  -0.01  -0.10    -0.01  -0.27  -0.04
    28   1     0.26  -0.07   0.09    -0.05   0.01   0.09    -0.11  -0.17   0.13
    29   1     0.01  -0.36   0.10    -0.09  -0.07   0.06    -0.17  -0.32   0.07
    30   1     0.10  -0.31   0.13     0.03   0.12   0.06    -0.08  -0.12   0.07
                     16                     17                     18
                      A                      A                      A
 Frequencies --    478.5941               526.6912               586.9429
 Red. masses --      3.6586                 3.5595                 4.2420
 Frc consts  --      0.4937                 0.5818                 0.8610
 IR Inten    --      4.5063                 0.1430                 0.5724
  Atom  AN      X      Y      Z        X      Y      Z        X      Y      Z
     1   8     0.03   0.00   0.04     0.00  -0.01   0.00    -0.00  -0.14  -0.00
     2   6     0.08  -0.00  -0.07     0.00   0.02  -0.00    -0.00   0.06   0.00
     3   6     0.04  -0.01  -0.06     0.02   0.02  -0.08     0.07   0.08   0.10
     4   6     0.04  -0.04  -0.00    -0.02  -0.00   0.02    -0.03   0.02   0.02
     5   6     0.03  -0.01   0.02     0.11  -0.07   0.02     0.13  -0.08   0.05
     6   6    -0.07  -0.00   0.23     0.04  -0.04   0.19     0.12  -0.07  -0.05
     7   6    -0.02   0.03  -0.18     0.03   0.03   0.10     0.11   0.03  -0.08
     8   6    -0.10  -0.00   0.05     0.11   0.07  -0.16     0.06   0.10   0.17
     9   6    -0.10   0.00   0.05    -0.11   0.07   0.16    -0.06   0.10  -0.17
    10   6    -0.02  -0.03  -0.18    -0.03   0.03  -0.10    -0.11   0.03   0.08
    11   6    -0.07   0.00   0.23    -0.04  -0.04  -0.19    -0.12  -0.07   0.05
    12   6     0.03   0.01   0.02    -0.11  -0.07  -0.02    -0.13  -0.08  -0.05
    13   6     0.04   0.01  -0.06    -0.02   0.02   0.08    -0.07   0.08  -0.10
    14   6     0.04   0.04  -0.00     0.02  -0.00  -0.02     0.03   0.02  -0.02
    15   1     0.03  -0.04  -0.05    -0.01   0.03  -0.06    -0.00   0.06   0.13
    16   1    -0.00  -0.01   0.02    -0.10   0.07   0.06    -0.01  -0.11  -0.01
    17   1     0.07  -0.08   0.03     0.04  -0.13   0.06    -0.05  -0.10  -0.03
    18   1     0.04  -0.05   0.02    -0.06   0.00   0.09    -0.22   0.13  -0.00
    19   1     0.04  -0.01  -0.04     0.08  -0.07  -0.12     0.14  -0.08  -0.14
    20   1     0.14  -0.10  -0.00     0.25  -0.25   0.01     0.03  -0.21   0.11
    21   1     0.07   0.03  -0.56    -0.05   0.03   0.07    -0.01   0.03  -0.14
    22   1    -0.08  -0.03   0.01     0.19   0.02  -0.36     0.07   0.01   0.34
    23   1    -0.08   0.03   0.01    -0.19   0.02   0.36    -0.07   0.01  -0.34
    24   1     0.07  -0.03  -0.56     0.05   0.03  -0.07     0.01   0.03   0.14
    25   1     0.04   0.01  -0.04    -0.08  -0.07   0.12    -0.14  -0.08   0.14
    26   1     0.14   0.10  -0.00    -0.25  -0.25  -0.01    -0.03  -0.21  -0.11
    27   1     0.03   0.04  -0.05     0.01   0.03   0.06     0.00   0.06  -0.13
    28   1     0.04   0.05   0.02     0.06   0.00  -0.09     0.22   0.13   0.00
    29   1    -0.00   0.01   0.02     0.10   0.07  -0.06     0.01  -0.11   0.01
    30   1     0.07   0.08   0.03    -0.04  -0.13  -0.06     0.05  -0.10   0.03
                     19                     20                     21
                      A                      A                      A
 Frequencies --    629.3032               642.5668               727.3446
 Red. masses --      5.2464                 3.3971                 2.8916
 Frc consts  --      1.2241                 0.8264                 0.9013
 IR Inten    --      2.3653                 2.1300                11.7298
  Atom  AN      X      Y      Z        X      Y      Z        X      Y      Z
     1   8    -0.00  -0.00   0.00     0.00   0.16   0.00    -0.09   0.00  -0.10
     2   6     0.00   0.00  -0.01     0.00  -0.07   0.00    -0.19  -0.00   0.21
     3   6     0.00   0.04  -0.01    -0.15  -0.10  -0.12     0.04   0.03   0.04
     4   6    -0.06   0.07   0.01    -0.06   0.04  -0.01     0.03  -0.03   0.01
     5   6     0.13  -0.08   0.07    -0.01  -0.09   0.04     0.04   0.08  -0.11
     6   6     0.17   0.02  -0.04     0.05  -0.01   0.02     0.02   0.02   0.03
     7   6    -0.02   0.27  -0.00     0.08   0.03  -0.06     0.01   0.06   0.03
     8   6    -0.20   0.02  -0.07     0.05   0.03   0.10    -0.03   0.00   0.03
     9   6    -0.20  -0.02  -0.07    -0.05   0.03  -0.10    -0.03  -0.00   0.03
    10   6    -0.02  -0.27  -0.00    -0.08   0.03   0.06     0.01  -0.06   0.03
    11   6     0.17  -0.02  -0.04    -0.05  -0.01  -0.02     0.02  -0.02   0.03
    12   6     0.13   0.08   0.07     0.01  -0.09  -0.04     0.04  -0.08  -0.11
    13   6     0.00  -0.04  -0.01     0.15  -0.10   0.12     0.04  -0.03   0.04
    14   6    -0.06  -0.07   0.01     0.06   0.04   0.01     0.03   0.03   0.01
    15   1    -0.09   0.06   0.03    -0.21  -0.06  -0.08     0.23   0.10  -0.04
    16   1    -0.13   0.11   0.04    -0.16   0.31   0.06     0.08  -0.15  -0.03
    17   1    -0.01  -0.03   0.05     0.02   0.15   0.11    -0.02  -0.08  -0.06
    18   1    -0.10   0.08   0.06     0.20  -0.12   0.08    -0.11   0.06  -0.02
    19   1     0.13  -0.09   0.05    -0.07  -0.07   0.19     0.06   0.08   0.06
    20   1     0.15  -0.07   0.06     0.13   0.01  -0.03     0.07   0.19  -0.14
    21   1    -0.08   0.27   0.18     0.05   0.03  -0.11     0.11   0.06  -0.29
    22   1    -0.11  -0.21   0.10     0.07  -0.04   0.20     0.10  -0.05  -0.33
    23   1    -0.11   0.21   0.10    -0.07  -0.04  -0.20     0.10   0.05  -0.33
    24   1    -0.08  -0.27   0.18    -0.05   0.03   0.11     0.11  -0.06  -0.29
    25   1     0.13   0.09   0.05     0.07  -0.07  -0.19     0.06  -0.08   0.06
    26   1     0.15   0.07   0.06    -0.13   0.01   0.03     0.07  -0.19  -0.14
    27   1    -0.09  -0.06   0.03     0.21  -0.06   0.08     0.23  -0.10  -0.04
    28   1    -0.10  -0.08   0.06    -0.20  -0.12  -0.08    -0.11  -0.06  -0.02
    29   1    -0.13  -0.11   0.04     0.16   0.31  -0.06     0.08   0.15  -0.03
    30   1    -0.01   0.03   0.05    -0.02   0.15  -0.11    -0.02   0.08  -0.06
                     22                     23                     24
                      A                      A                      A
 Frequencies --    751.8131               759.4511               767.2116
 Red. masses --      4.3120                 2.2755                 2.2356
 Frc consts  --      1.4360                 0.7732                 0.7753
 IR Inten    --      0.0017                 4.7648                12.5575
  Atom  AN      X      Y      Z        X      Y      Z        X      Y      Z
     1   8    -0.00  -0.02  -0.00     0.10  -0.00  -0.00    -0.06   0.00  -0.05
     2   6    -0.00   0.02   0.00    -0.00   0.00   0.21    -0.10  -0.00   0.07
     3   6     0.04   0.04  -0.05    -0.07  -0.07  -0.10     0.06   0.05   0.00
     4   6     0.05  -0.04  -0.01    -0.01  -0.02  -0.02     0.01   0.01   0.00
     5   6     0.01   0.03   0.05    -0.02  -0.08  -0.01     0.11  -0.05   0.01
     6   6    -0.10   0.05   0.26     0.00  -0.02   0.01    -0.03  -0.05   0.02
     7   6    -0.03   0.01  -0.14     0.00  -0.01  -0.00    -0.04  -0.12  -0.05
     8   6    -0.14  -0.06   0.12     0.01   0.00  -0.00    -0.01  -0.01  -0.05
     9   6     0.14  -0.06  -0.12     0.01  -0.00  -0.00    -0.01   0.01  -0.05
    10   6     0.03   0.01   0.14     0.00   0.01  -0.00    -0.04   0.12  -0.05
    11   6     0.10   0.05  -0.26     0.00   0.02   0.01    -0.03   0.05   0.02
    12   6    -0.01   0.03  -0.05    -0.02   0.08  -0.01     0.11   0.05   0.01
    13   6    -0.04   0.04   0.05    -0.07   0.07  -0.10     0.06  -0.05   0.00
    14   6    -0.05  -0.04   0.01    -0.01   0.02  -0.02     0.01  -0.01   0.00
    15   1     0.01   0.03  -0.04     0.03   0.15  -0.13     0.07   0.08   0.00
    16   1    -0.01  -0.02   0.02    -0.11   0.24   0.05    -0.03  -0.05   0.01
    17   1     0.09  -0.14   0.02     0.08   0.00   0.09     0.03  -0.15  -0.00
    18   1    -0.01  -0.02   0.03     0.17  -0.16   0.10    -0.16   0.10   0.02
    19   1    -0.03   0.03  -0.13    -0.01  -0.08   0.38     0.18  -0.07  -0.01
    20   1     0.15  -0.22   0.06     0.15   0.24  -0.14     0.15  -0.06  -0.00
    21   1     0.13   0.01  -0.41    -0.02  -0.01   0.02    -0.17  -0.12   0.25
    22   1    -0.18   0.04   0.06    -0.01   0.01   0.04    -0.18   0.07   0.41
    23   1     0.18   0.04  -0.06    -0.01  -0.01   0.04    -0.18  -0.07   0.41
    24   1    -0.13   0.01   0.41    -0.02   0.01   0.02    -0.17   0.12   0.25
    25   1     0.03   0.03   0.13    -0.01   0.08   0.38     0.18   0.07  -0.01
    26   1    -0.15  -0.22  -0.06     0.15  -0.24  -0.14     0.15   0.06  -0.00
    27   1    -0.01   0.03   0.04     0.03  -0.15  -0.13     0.07  -0.08   0.00
    28   1     0.01  -0.02  -0.03     0.17   0.16   0.10    -0.16  -0.10   0.02
    29   1     0.01  -0.02  -0.02    -0.11  -0.24   0.05    -0.03   0.05   0.01
    30   1    -0.09  -0.14  -0.02     0.08  -0.00   0.09     0.03   0.15  -0.00
                     25                     26                     27
                      A                      A                      A
 Frequencies --    784.4104               855.7011               889.0323
 Red. masses --      1.8659                 2.1301                 2.6392
 Frc consts  --      0.6764                 0.9190                 1.2290
 IR Inten    --     15.8768                 0.0466                 0.6837
  Atom  AN      X      Y      Z        X      Y      Z        X      Y      Z
     1   8     0.00   0.00  -0.01     0.00   0.00   0.00    -0.00   0.02  -0.00
     2   6    -0.01  -0.00   0.03     0.00  -0.01   0.00    -0.00  -0.09   0.00
     3   6    -0.01  -0.01  -0.00    -0.02  -0.01   0.04    -0.01  -0.07   0.06
     4   6     0.02  -0.03   0.00    -0.01   0.00   0.02    -0.08   0.06   0.02
     5   6    -0.07   0.09  -0.05    -0.06   0.05  -0.09     0.15  -0.00  -0.03
     6   6    -0.01   0.05   0.07    -0.03  -0.05   0.07     0.04   0.02  -0.04
     7   6     0.05   0.09  -0.03     0.02  -0.06   0.05    -0.05   0.05   0.06
     8   6     0.03   0.01  -0.06     0.09   0.06   0.08    -0.12  -0.05   0.00
     9   6     0.03  -0.01  -0.06    -0.09   0.06  -0.08     0.12  -0.05  -0.00
    10   6     0.05  -0.09  -0.03    -0.02  -0.06  -0.05     0.05   0.05  -0.06
    11   6    -0.01  -0.05   0.07     0.03  -0.05  -0.07    -0.04   0.02   0.04
    12   6    -0.07  -0.09  -0.05     0.06   0.05   0.09    -0.15  -0.00   0.03
    13   6    -0.01   0.01  -0.00     0.02  -0.01  -0.04     0.01  -0.07  -0.06
    14   6     0.02   0.03   0.00     0.01   0.00  -0.02     0.08   0.06  -0.02
    15   1     0.07   0.00  -0.04     0.15  -0.04  -0.04    -0.02  -0.10   0.06
    16   1     0.07  -0.04  -0.02     0.13  -0.12  -0.05     0.03   0.02  -0.03
    17   1    -0.01   0.04  -0.02    -0.11   0.15  -0.07    -0.16   0.24  -0.04
    18   1     0.07  -0.05  -0.03     0.02   0.02  -0.08     0.01   0.03  -0.05
    19   1    -0.13   0.10  -0.07    -0.00   0.04   0.06     0.10   0.01  -0.10
    20   1    -0.03   0.03  -0.05    -0.05   0.17  -0.12     0.17  -0.11  -0.01
    21   1     0.01   0.09   0.30     0.05  -0.06  -0.46     0.13   0.04  -0.38
    22   1    -0.08  -0.05   0.54     0.20  -0.01  -0.18    -0.10   0.05  -0.29
    23   1    -0.08   0.05   0.54    -0.20  -0.01   0.18     0.10   0.05   0.29
    24   1     0.01  -0.09   0.30    -0.05  -0.06   0.46    -0.13   0.04   0.38
    25   1    -0.13  -0.10  -0.07     0.00   0.04  -0.06    -0.10   0.01   0.10
    26   1    -0.03  -0.03  -0.05     0.05   0.17   0.12    -0.17  -0.11   0.01
    27   1     0.07  -0.00  -0.04    -0.15  -0.04   0.04     0.02  -0.10  -0.06
    28   1     0.07   0.05  -0.03    -0.02   0.02   0.08    -0.01   0.03   0.05
    29   1     0.07   0.04  -0.02    -0.13  -0.12   0.05    -0.03   0.02   0.03
    30   1    -0.01  -0.04  -0.02     0.11   0.15   0.07     0.16   0.24   0.04
                     28                     29                     30
                      A                      A                      A
 Frequencies --    896.6597               914.6175               929.2986
 Red. masses --      1.8249                 1.8426                 1.6664
 Frc consts  --      0.8645                 0.9082                 0.8479
 IR Inten    --      1.0372                 6.1754                 2.3549
  Atom  AN      X      Y      Z        X      Y      Z        X      Y      Z
     1   8    -0.00  -0.02  -0.00     0.02   0.00   0.02    -0.00   0.01  -0.00
     2   6    -0.00   0.07   0.00     0.04   0.00  -0.04    -0.00  -0.04  -0.00
     3   6     0.02   0.04  -0.04    -0.04  -0.07   0.06    -0.02   0.01  -0.01
     4   6     0.04  -0.02  -0.03    -0.07   0.04   0.05     0.01  -0.05  -0.03
     5   6    -0.05  -0.08   0.06     0.06  -0.03  -0.09     0.02   0.11   0.05
     6   6     0.01   0.02  -0.07     0.01  -0.02   0.02     0.01  -0.02  -0.04
     7   6    -0.01   0.04   0.09    -0.01  -0.02   0.02    -0.01  -0.08   0.02
     8   6    -0.02  -0.02   0.03    -0.01  -0.00  -0.03     0.03   0.04   0.02
     9   6     0.02  -0.02  -0.03    -0.01   0.00  -0.03    -0.03   0.04  -0.02
    10   6     0.01   0.04  -0.09    -0.01   0.02   0.02     0.01  -0.08  -0.02
    11   6    -0.01   0.02   0.07     0.01   0.02   0.02    -0.01  -0.02   0.04
    12   6     0.05  -0.08  -0.06     0.06   0.03  -0.09    -0.02   0.11  -0.05
    13   6    -0.02   0.04   0.04    -0.04   0.07   0.06     0.02   0.01   0.01
    14   6    -0.04  -0.02   0.03    -0.07  -0.04   0.05    -0.01  -0.05   0.03
    15   1    -0.05   0.09  -0.00     0.11  -0.23  -0.01    -0.23   0.09   0.09
    16   1    -0.11   0.05   0.05     0.18  -0.14  -0.08    -0.07   0.17   0.03
    17   1     0.15  -0.25   0.06    -0.26   0.34  -0.12     0.10  -0.02   0.09
    18   1    -0.06   0.01   0.08     0.02   0.04  -0.13     0.17  -0.16   0.07
    19   1    -0.04  -0.08   0.18     0.10  -0.04   0.11    -0.03   0.11  -0.36
    20   1    -0.11   0.08   0.04     0.14   0.11  -0.15    -0.13  -0.24   0.18
    21   1     0.16   0.04  -0.41     0.01  -0.02  -0.14    -0.05  -0.08  -0.13
    22   1     0.08  -0.05  -0.27    -0.06   0.01   0.15     0.03   0.07  -0.09
    23   1    -0.08  -0.05   0.27    -0.06  -0.01   0.15    -0.03   0.07   0.09
    24   1    -0.16   0.04   0.41     0.01   0.02  -0.14     0.05  -0.08   0.13
    25   1     0.04  -0.08  -0.18     0.10   0.04   0.11     0.03   0.11   0.36
    26   1     0.11   0.08  -0.04     0.14  -0.11  -0.15     0.13  -0.24  -0.18
    27   1     0.05   0.09   0.00     0.11   0.23  -0.01     0.23   0.09  -0.09
    28   1     0.06   0.01  -0.08     0.02  -0.04  -0.13    -0.17  -0.16  -0.07
    29   1     0.11   0.05  -0.05     0.18   0.14  -0.08     0.07   0.17  -0.03
    30   1    -0.15  -0.25  -0.06    -0.26  -0.34  -0.12    -0.10  -0.02  -0.09
                     31                     32                     33
                      A                      A                      A
 Frequencies --    935.5355               949.2296               984.0229
 Red. masses --      1.8539                 1.3822                 1.2624
 Frc consts  --      0.9560                 0.7338                 0.7202
 IR Inten    --      0.0332                 0.2700                 0.0382
  Atom  AN      X      Y      Z        X      Y      Z        X      Y      Z
     1   8     0.02  -0.00  -0.00     0.00  -0.00   0.00    -0.00  -0.00  -0.00
     2   6    -0.01   0.00   0.07     0.01   0.00  -0.01    -0.00   0.01  -0.00
     3   6    -0.07  -0.03   0.01     0.01  -0.01   0.00    -0.00   0.00   0.00
     4   6    -0.02  -0.06  -0.00    -0.01   0.02   0.02     0.00  -0.01  -0.00
     5   6     0.11   0.09  -0.01    -0.02  -0.02  -0.02     0.00   0.00  -0.00
     6   6     0.01   0.01  -0.01    -0.01  -0.00   0.03    -0.00  -0.00   0.01
     7   6    -0.01  -0.04  -0.04     0.03   0.01  -0.09    -0.01  -0.00   0.05
     8   6    -0.04  -0.02   0.02    -0.01   0.00   0.06     0.02   0.00  -0.09
     9   6    -0.04   0.02   0.02    -0.01  -0.00   0.06    -0.02   0.00   0.09
    10   6    -0.01   0.04  -0.04     0.03  -0.01  -0.09     0.01  -0.00  -0.05
    11   6     0.01  -0.01  -0.01    -0.01   0.00   0.03     0.00  -0.00  -0.01
    12   6     0.11  -0.09  -0.01    -0.02   0.02  -0.02    -0.00   0.00   0.00
    13   6    -0.07   0.03   0.01     0.01   0.01   0.00     0.00   0.00  -0.00
    14   6    -0.02   0.06  -0.00    -0.01  -0.02   0.02    -0.00  -0.01   0.00
    15   1    -0.17   0.03   0.06     0.10  -0.06  -0.04    -0.01   0.01   0.01
    16   1     0.02   0.13   0.00     0.05  -0.09  -0.02     0.00   0.00   0.00
    17   1    -0.02   0.18   0.05    -0.06   0.03  -0.05     0.01  -0.00   0.00
    18   1     0.26  -0.23   0.03    -0.07   0.07  -0.05     0.01  -0.01   0.00
    19   1     0.01   0.11  -0.32     0.01  -0.03   0.09    -0.00   0.00   0.00
    20   1     0.11  -0.25   0.07     0.04   0.07  -0.06    -0.00  -0.01   0.00
    21   1    -0.05  -0.04   0.18    -0.14   0.01   0.53     0.09  -0.00  -0.35
    22   1    -0.01  -0.01  -0.16     0.09   0.00  -0.33    -0.15   0.00   0.58
    23   1    -0.01   0.01  -0.16     0.09  -0.00  -0.33     0.15   0.00  -0.58
    24   1    -0.05   0.04   0.18    -0.14  -0.01   0.53    -0.09  -0.00   0.35
    25   1     0.01  -0.11  -0.32     0.01   0.03   0.09     0.00   0.00  -0.00
    26   1     0.11   0.25   0.07     0.04  -0.07  -0.06     0.00  -0.01  -0.00
    27   1    -0.17  -0.03   0.06     0.10   0.06  -0.04     0.01   0.01  -0.01
    28   1     0.26   0.23   0.03    -0.07  -0.07  -0.05    -0.01  -0.01  -0.00
    29   1     0.02  -0.13   0.00     0.05   0.09  -0.02    -0.00   0.00  -0.00
    30   1    -0.02  -0.18   0.05    -0.06  -0.03  -0.05    -0.01  -0.00  -0.00
                     34                     35                     36
                      A                      A                      A
 Frequencies --   1003.1686              1042.2878              1076.3705
 Red. masses --      3.6495                 1.4941                 2.1733
 Frc consts  --      2.1639                 0.9563                 1.4835
 IR Inten    --     24.8558                 1.1967                 0.3135
  Atom  AN      X      Y      Z        X      Y      Z        X      Y      Z
     1   8    -0.00  -0.03  -0.00     0.00  -0.00   0.00    -0.03  -0.00   0.00
     2   6    -0.00   0.29   0.00    -0.00  -0.08   0.00     0.01   0.00  -0.06
     3   6    -0.18   0.07   0.02     0.02   0.04   0.08    -0.02   0.07   0.06
     4   6     0.04  -0.16   0.04    -0.02  -0.04  -0.04    -0.00  -0.06  -0.01
     5   6     0.06  -0.01  -0.06     0.01  -0.02  -0.05     0.03  -0.03  -0.05
     6   6     0.03  -0.02  -0.01    -0.01  -0.02   0.03    -0.03  -0.04   0.01
     7   6     0.00   0.04  -0.00     0.01   0.05  -0.01    -0.05   0.08  -0.02
     8   6    -0.03  -0.02  -0.00    -0.01  -0.02  -0.00     0.10   0.11   0.02
     9   6     0.03  -0.02   0.00     0.01  -0.02   0.00     0.10  -0.11   0.02
    10   6    -0.00   0.04   0.00    -0.01   0.05   0.01    -0.05  -0.08  -0.02
    11   6    -0.03  -0.02   0.01     0.01  -0.02  -0.03    -0.03   0.04   0.01
    12   6    -0.06  -0.01   0.06    -0.01  -0.02   0.05     0.03   0.03  -0.05
    13   6     0.18   0.07  -0.02    -0.02   0.04  -0.08    -0.02  -0.07   0.06
    14   6    -0.04  -0.16  -0.04     0.02  -0.04   0.04    -0.00   0.06  -0.01
    15   1    -0.23  -0.12   0.02     0.08   0.47   0.08    -0.11   0.18   0.11
    16   1     0.23  -0.15  -0.04    -0.09   0.25   0.03     0.01   0.09   0.01
    17   1    -0.05   0.14  -0.02     0.08   0.06   0.11     0.04   0.05   0.06
    18   1     0.30  -0.28  -0.05     0.20  -0.20   0.10     0.17  -0.16   0.04
    19   1     0.08  -0.02   0.01     0.12  -0.05   0.09     0.26  -0.08   0.03
    20   1     0.13   0.03  -0.09    -0.04   0.14  -0.07    -0.09   0.14  -0.04
    21   1     0.02   0.04   0.04     0.01   0.05   0.04    -0.37   0.09  -0.06
    22   1    -0.02  -0.02  -0.05     0.02  -0.07   0.01     0.03   0.26   0.01
    23   1     0.02  -0.02   0.05    -0.02  -0.07  -0.01     0.03  -0.26   0.01
    24   1    -0.02   0.04  -0.04    -0.01   0.05  -0.04    -0.37  -0.09  -0.06
    25   1    -0.08  -0.02  -0.01    -0.12  -0.05  -0.09     0.26   0.08   0.03
    26   1    -0.13   0.03   0.09     0.04   0.14   0.07    -0.09  -0.14  -0.04
    27   1     0.23  -0.12  -0.02    -0.08   0.47  -0.08    -0.11  -0.18   0.11
    28   1    -0.30  -0.28   0.05    -0.20  -0.20  -0.10     0.17   0.16   0.04
    29   1    -0.23  -0.15   0.04     0.09   0.25  -0.03     0.01  -0.09   0.01
    30   1     0.05   0.14   0.02    -0.08   0.06  -0.11     0.04  -0.05   0.06
                     37                     38                     39
                      A                      A                      A
 Frequencies --   1089.4232              1116.8215              1124.2559
 Red. masses --      2.1044                 1.9725                 1.8820
 Frc consts  --      1.4715                 1.4495                 1.4016
 IR Inten    --      5.0893                 0.2362                15.6384
  Atom  AN      X      Y      Z        X      Y      Z        X      Y      Z
[...]
 .00014435,-0.00005712,0.00010871,-0.00002385,0.00001695,0.00000991,-0.
 00012693,0.00000235,0.00017389,-0.00072966,-0.00002163,-0.00029086,0.0
 0091100,0.00005617,0.00066246,0.35637682,0.00001725,0.00002279,0.00003
 872,-0.00001753,0.00000280,-0.00012765,0.00002118,-0.00003199,0.000020
 65,0.00000168,0.00001347,-0.00001845,-0.00007838,-0.00022136,0.0002534
 4,0.00173009,-0.00019655,0.00620472,0.00016939,-0.00002117,-0.00018086
 ,0.00179092,0.00028043,0.00650112,-0.00031256,0.00458389,0.00232825,0.
 00377599,-0.00026739,-0.03604343,-0.00005696,-0.00426856,0.00319532,-0
 .00094614,-0.00027836,-0.00416989,0.00059574,0.00000498,0.00002419,0.0
 0006644,-0.00010003,-0.00014206,-0.00000780,-0.00000849,-0.00002418,-0
 .00000380,0.00000054,0.00000124,0.00000694,-0.00000443,-0.00000226,-0.
 00000277,0.00000793,0.00000498,0.00005657,-0.00005679,-0.00016846,-0.0
 0001256,0.00001535,0.00002162,-0.00019793,-0.00000235,-0.00105246,0.00
 004564,0.00024400,0.00036377,-0.00072642,-0.00006808,-0.00364779,-0.00
 543100,0.00013202,0.02607389,-0.00084757,0.00050441,-0.00034285,0.0004
 3241,-0.00179309,0.00267101,-0.00001175,0.00002988,-0.00071847,0.00005
 893,0.00004147,-0.00008469,-0.00058579,0.00068241,-0.00006244,-0.00526
 943,-0.00162883,0.00093183,0.00065760,-0.00132554,0.00005862,-0.000026
 75,0.00009211,0.00000203,0.00007768,-0.00002877,-0.00007710,0.00042857
 ,-0.00268540,-0.00005184,0.00409708,-0.02933423,-0.00216901,-0.0607414
 2,0.05832348,0.00198670,-0.00527579,0.01304304,0.00449485,0.00016049,0
 .00126061,0.00033078,-0.00002405,-0.00001678,0.00008070,0.00000281,-0.
 00003829,0.00001715,0.00000797,-0.00002442,-0.00001043,0.00001214,0.00
 005424,0.00000642,0.00025002,-0.00000373,-0.00000814,0.00019798,-0.000
 02803,0.00022197,-0.00039489,-0.00025487,0.00005657,-0.00001242,0.0000
 5747,0.00000539,0.00003190,0.00001807,-0.00001155,-0.00068439,0.000583
 80,0.00013457,0.07202981,0.00013555,0.00008455,-0.00012804,-0.00075177
 ,0.00119523,-0.00074936,0.00002086,0.00014177,0.00020481,-0.00001362,-
 0.00000964,-0.00001903,-0.00034653,0.00027672,0.00015958,-0.00345125,-
 0.00042268,0.00039397,0.00083574,-0.00086391,-0.00009011,-0.00004659,0
 .00043699,0.00000688,-0.00048794,0.00017478,0.00009542,0.00323012,0.00
 059926,-0.00040427,0.00289436,-0.01876434,-0.00088978,0.05466125,-0.29
 479698,-0.02260119,0.00227570,-0.00466946,-0.00123188,-0.00129800,0.00
 079109,0.00183566,0.00000720,0.00000603,-0.00000163,-0.00000090,0.0000
 0516,0.00000138,0.00002190,-0.00001111,-0.00001900,-0.00000349,-0.0000
 1809,0.00000255,0.00000373,-0.00005633,-0.00004071,-0.00005398,0.00009
 470,-0.00007587,-0.00030729,-0.00014435,0.00005679,-0.00004824,0.00008
 433,-0.00000244,-0.00003671,-0.00000979,0.00000019,-0.00079505,0.00120
 374,0.00007217,-0.05831823,0.32009902,0.00238529,-0.00128713,0.0012957
 8,-0.00081292,0.00376116,-0.00597655,-0.00022625,-0.00017177,0.0009359
 0,-0.00007713,-0.00006601,0.00010886,-0.00008747,-0.00026649,-0.000588
 78,0.00091656,0.00020144,0.00120494,-0.00005805,0.00023612,0.00023887,
 0.00002222,-0.00001151,0.00005405,0.00000812,0.00002397,-0.00013112,0.
 00018766,0.00055556,-0.00029323,-0.00082242,0.00361419,0.00010445,0.00
 184209,-0.02377091,-0.04887624,0.01202774,-0.02997261,-0.00828636,-0.0
 0006604,-0.00178627,0.00133103,0.00007082,0.00004392,0.00002587,0.0000
 2495,0.00003029,-0.00002946,-0.00000581,0.00003912,0.00002817,-0.00000
 730,-0.00007342,-0.00000844,-0.00000814,0.00004071,0.00030396,0.000238
 20,-0.00014948,0.00018971,0.00004851,0.00005712,-0.00016846,0.00001042
 ,0.00000288,0.00001353,0.00001175,0.00000507,-0.00004636,0.00005843,-0
 .00003664,0.00036292,-0.00978085,0.02390381,0.05492815,0.00050470,-0.0
 0046954,-0.00039964,0.00127122,0.00040181,0.00068024,0.00002196,-0.000
 30750,0.00019699,0.00005253,0.00009096,-0.00005458,0.00025459,0.000079
 81,-0.00105576,0.00001291,0.00207245,0.00067350,-0.00032114,0.00015199
 ,0.00082076,-0.00018857,-0.00005971,-0.00011380,-0.00039834,0.00002142
 ,0.00150375,-0.00182003,-0.00305765,-0.00031001,-0.02166470,0.00510613
 ,-0.01660762,-0.15997516,0.03767413,-0.12202460,0.00901863,-0.00280620
 ,0.01087468,0.00084855,0.00036789,-0.00019511,-0.00009622,-0.00004511,
 0.00009433,0.00001824,0.00000014,-0.00001038,0.00003035,-0.00001226,-0
 .00000555,-0.00001143,0.00001099,0.00000276,0.00019798,0.00005398,0.00
 023820,0.00055344,-0.00045867,0.00012358,0.00000680,-0.00010871,-0.000
 01256,-0.00003343,-0.00006366,-0.00016019,-0.00028568,-0.00011288,0.00
 009054,-0.00005623,-0.00005757,-0.00069996,-0.00473353,0.00186631,-0.0
 0483802,0.17756022,-0.00035462,0.00027535,0.00018416,-0.00059734,-0.00
 005446,-0.00141374,0.00047453,0.00009700,-0.00005598,0.00006503,0.0000
 2980,-0.00002903,-0.00124986,-0.00005055,-0.00071387,0.00007660,-0.000
 43186,0.00004010,0.00020365,0.00041913,0.00067703,-0.00030946,-0.00003
 922,-0.00007928,-0.00012950,0.00021291,0.00044633,-0.00056636,-0.00130
 282,0.00001015,-0.01244803,0.00539291,-0.01349713,0.03579355,-0.063995
 12,0.04016506,-0.00287963,0.00077524,-0.00624887,0.00057212,-0.0002541
 1,0.00045869,0.00001253,0.00007180,0.00016406,0.00000858,-0.00002867,-
 0.00000265,-0.00000879,-0.00002145,0.00000365,-0.00001246,0.00001670,0
 .00001164,0.00002803,0.00009470,0.00014948,0.00045867,-0.00045680,0.00
 037035,0.00005265,-0.00002386,-0.00001535,0.00001899,0.00001449,-0.000
 00536,-0.00011740,-0.00005308,0.00005895,-0.00016044,0.00035734,0.0000
 8324,0.02193855,-0.00664722,0.02369082,-0.04066617,0.06493239,0.001701
 49,-0.00007712,0.00069117,-0.00367197,0.00150885,-0.00055830,-0.000068
 57,-0.00025425,-0.00079938,-0.00004437,-0.00008176,0.00008842,0.000129
 10,0.00026338,-0.00005995,-0.00047140,0.00039000,0.00065396,-0.0000199
 0,-0.00022528,-0.00027342,0.00010455,0.00000199,-0.00002330,0.00008828
 ,0.00004588,-0.00052032,0.00065942,0.00009434,-0.00038322,0.00408743,-
 0.00176204,0.00558101,-0.12012946,0.04044193,-0.17018024,-0.01722102,0
 .00372480,-0.02486241,-0.00084446,-0.00066570,0.00045885,0.00011206,0.
 00008468,0.00016245,0.00004747,-0.00005664,0.00000078,-0.00001564,0.00
 003173,0.00001941,0.00002754,-0.00002205,-0.00000181,0.00022197,0.0000
 7587,0.00018971,0.00012358,-0.00037035,0.00030647,-0.00003439,-0.00001
 695,0.00002162,0.00001663,0.00000167,0.00005910,0.00005426,0.00000097,
 0.00001238,0.00009102,-0.00000421,0.00023740,0.00223828,-0.00010509,0.
 00257744,0.12851578,-0.04292151,0.19086798,-0.00180716,0.00470854,0.00
 117771,-0.01510065,-0.00295981,-0.01212088,-0.00029481,-0.00050447,0.0
 0073365,0.00017761,0.00012438,0.00039999,0.00022707,-0.00031928,-0.000
 03384,0.00009662,0.00000046,0.00001955,0.00009955,0.00000765,-0.000022
 39,0.00000963,0.00012599,0.00001703,-0.00012505,-0.00012823,-0.0000383
 4,0.00042933,0.00032642,-0.00011831,0.00113151,-0.00039728,0.00096115,
 0.00924496,-0.00033535,0.01215001,-0.18153936,-0.00870526,-0.13058630,
 -0.01384887,-0.00159249,-0.01253814,0.00102571,0.00022739,0.00037414,0
 .00007993,-0.00019008,0.00003195,-0.00006403,-0.00000629,-0.00006278,0
 .00000798,0.00002685,0.00000347,-0.00002405,-0.00000720,0.00007082,-0.
 00009622,-0.00001253,0.00011206,0.00000330,0.00001706,-0.00000780,0.00
 000078,0.00000923,0.00000447,0.00002759,0.00000738,-0.00000326,-0.0000
 0883,0.00002230,0.00004377,0.00027188,-0.00013262,-0.00068332,-0.00070
 124,0.00039189,0.00312380,0.20098545,0.00452550,-0.00520499,-0.0032552
 4,0.02034729,0.00630476,0.02215781,-0.00113026,-0.00040805,-0.00158708
 ,-0.00007498,0.00014780,-0.00036846,0.00038458,0.00020585,-0.00018181,
 0.00011302,0.00009613,0.00002621,-0.00013411,0.00000365,-0.00004049,0.
 00002891,-0.00006028,0.00000501,0.00006258,0.00003144,-0.00004165,-0.0
 0009808,0.00000047,0.00020311,-0.00017773,0.00043129,0.00080547,-0.003
 67643,0.00094373,-0.00288065,-0.00852945,-0.05289524,-0.00567634,-0.02
 097318,-0.00282132,-0.01870885,-0.00022740,-0.00159350,-0.00003507,-0.
 00002310,0.00017995,-0.00000792,0.00000174,-0.00000142,0.00008920,-0.0
 0003981,0.00000988,0.00000446,0.00001678,0.00000603,-0.00004392,0.0000
 4511,0.00007180,-0.00008468,0.00001338,0.00000255,0.00000849,0.0000022
 3,-0.00000720,0.00000530,0.00000324,0.00000073,-0.00002229,0.00002039,
 -0.00007395,-0.00002342,-0.00054703,0.00001290,0.00026064,0.00023593,0
 .00039816,-0.00060724,0.01179211,0.05673212,0.00023047,-0.00000899,-0.
 00057239,0.00152233,-0.00160218,0.00099351,-0.00071312,-0.00009253,-0.
 00039248,0.00018319,0.00017515,0.00016700,0.00015265,0.00012143,-0.000
 20745,-0.00005835,0.00055993,0.00025118,0.00010978,0.00015114,-0.00004
 304,-0.00010129,0.00006920,-0.00000207,0.00003346,-0.00019070,-0.00012
 057,0.00066591,-0.00015600,0.00033440,-0.00222197,-0.00065955,0.001368
 96,-0.01845574,0.00084341,-0.02602161,-0.12715511,-0.00653277,-0.15977
 777,0.00613814,0.00051124,0.00598706,0.00037413,0.00003507,0.00052668,
 0.00007335,-0.00009300,0.00001229,-0.00000717,-0.00004625,-0.00003643,
 -0.00001277,0.00003635,-0.00000025,0.00008070,0.00000163,0.00002587,0.
 00009433,-0.00016406,0.00016245,0.00001093,-0.00001169,-0.00002418,-0.
 00000362,-0.00000624,0.00001689,-0.00000148,0.00001164,-0.00001509,-0.
 00000593,-0.00001816,-0.00006181,-0.00005931,-0.00023683,0.00086734,0.
 00302858,-0.00159822,-0.00484234,0.13525072,0.00852402,0.18002846,0.00
 153888,0.00199920,-0.00032748,-0.00527013,-0.00303587,0.00159922,0.001
 06051,-0.00076200,-0.00030964,-0.00028887,-0.00025120,0.00001248,0.000
 05453,0.00012765,-0.00006104,0.00003887,-0.00000263,0.00000427,-0.0000
 0329,-0.00000800,0.00001343,0.00001913,0.00000797,-0.00000589,-0.00001
 261,0.00000802,0.00000955,0.00000605,0.00006125,-0.00003098,0.00005473
 ,-0.00008597,-0.00021059,0.00090253,-0.00057634,-0.00069009,0.01056566
 ,-0.01985413,0.00217505,-0.12616909,0.12097486,-0.00580653,0.00000798,
 0.00003981,-0.00001277,0.00001023,-0.00001628,0.00002082,0.00000573,-0
 .00000977,-0.00002441,0.00009885,-0.00010624,-0.00003158,0.00001214,0.
 00000349,-0.00000730,-0.00001143,0.00001246,0.00002754,0.00000170,0.00
 000506,-0.00000277,0.00000205,0.00000341,0.00000020,0.00000892,0.00000
 024,0.00000079,-0.00001535,-0.00000097,0.00002011,0.00014252,0.0002411
 9,0.00002024,-0.00000861,-0.00002290,0.00005183,0.00098804,0.00073631,
 -0.00029486,0.13618043,-0.00039920,0.00038588,-0.00002521,-0.00448023,
 -0.00232396,0.00110781,0.00138029,-0.00087012,-0.00016190,-0.00051383,
 -0.00038202,0.00009029,0.00011685,-0.00000108,-0.00021219,0.00030381,-
 0.00003565,-0.00002764,-0.00005269,0.00011120,0.00003364,0.00000648,0.
 00000714,-0.00000427,-0.00005912,0.00004164,-0.00001170,-0.00002058,-0
 .00013721,-0.00002031,-0.00034303,0.00045598,-0.00004902,0.00122985,0.
 00014626,-0.00153464,0.01419314,-0.02252421,0.00151424,0.11987624,-0.2
 3390073,0.00804449,-0.00002685,0.00000988,-0.00003635,0.00002569,0.000
 02636,0.00000658,0.00000365,0.00004279,0.00000043,0.00010624,-0.000204
 98,-0.00004295,-0.00005424,-0.00001809,0.00007342,-0.00001099,0.000016
 70,0.00002205,0.00002763,0.00002374,-0.00000793,-0.00000867,0.00000757
 ,0.00000128,-0.00001063,0.00000162,0.00000533,-0.00004419,0.00005801,0
 .00003840,-0.00050757,0.00089090,0.00092142,0.00000154,0.00021322,-0.0
 0008931,-0.00005074,0.00085503,-0.00056300,-0.13004539,0.25589353,-0.0
 0001337,-0.00001676,0.00061721,0.00114484,0.00089555,0.00005442,-0.000
 28069,0.00018489,0.00014805,0.00012635,0.00009440,-0.00002805,-0.00004
 673,-0.00001272,0.00005100,-0.00013185,-0.00001972,-0.00000897,0.00001
 188,-0.00004368,-0.00000535,-0.00001393,-0.00001376,0.00000384,0.00001
 719,-0.00001310,-0.00002027,-0.00002912,0.00003141,0.00000939,0.000178
 06,-0.00019217,0.00001088,-0.00101606,0.00125578,0.00035852,-0.0038024
 0,0.00489039,-0.00191889,-0.00513510,0.00746094,-0.05126443,0.00000347
 ,-0.00000446,-0.00000025,-0.00000589,-0.00000192,0.00000002,0.00000113
 ,-0.00000019,0.00000514,-0.00003158,0.00004295,0.00001315,0.00000642,-
 0.00000255,-0.00000844,0.00000276,-0.00001164,-0.00000181,-0.00001263,
 -0.00001407,0.00000498,-0.00000234,-0.00000625,0.00000244,-0.00000749,
 0.00000085,0.00000385,0.00003686,-0.00001337,0.00000935,0.00053513,-0.
 00008041,-0.00041900,0.00009829,0.00003566,0.00004082,0.00018139,-0.00
 043874,0.00022076,0.00441401,-0.00937661,0.04923570,0.00123282,0.00107
 496,0.00037511,-0.00133692,0.00128919,0.00018157,-0.00004444,-0.000155
 63,-0.00019074,-0.00002213,-0.00001649,0.00007264,0.00001422,0.0000354
 0,-0.00009074,0.00009841,0.00001540,0.00000351,0.00002123,0.00005638,-
 0.00000343,-0.00001417,0.00002043,0.00000075,0.00001238,-0.00004158,-0
 .00002354,0.00010910,0.00005945,0.00004700,0.00007935,0.00004491,0.000
 20140,0.00102764,0.00057241,-0.00116108,-0.01549791,-0.00327839,-0.013
 66947,-0.18323063,-0.01788082,-0.13295187,0.00007993,0.00002310,0.0000
 7335,0.00003465,-0.00001963,0.00000099,-0.00000079,0.00000215,-0.00000
 048,0.00001023,-0.00002569,-0.00000589,0.00000281,0.00000090,0.0000249
 5,0.00001824,-0.00000858,0.00004747,0.00001270,0.00000951,-0.00000380,
 -0.00000103,0.00000128,0.00000152,0.00000931,0.00000630,-0.00000867,-0
 .00001122,-0.00001006,-0.00001277,-0.00033044,0.00021502,0.00008767,-0
 .00004609,-0.00030899,0.00070708,-0.00139355,-0.00341791,0.00139074,-0
 .01187320,-0.00222151,-0.01159745,0.19891068,0.00172661,-0.00025086,0.
 00062780,-0.00225452,0.00109852,-0.00095824,0.00015834,-0.00008306,-0.
 00013884,0.00007925,-0.00001495,0.00007225,-0.00000695,0.00013965,0.00
 003634,-0.00007934,0.00005864,0.00003458,0.00006295,0.00000634,-0.0000
 0155,-0.00002960,0.00001919,0.00000790,0.00001128,-0.00005021,-0.00001
 766,0.00010285,0.00001490,0.00001219,0.00019491,-0.00013498,0.00002006
 ,0.00061804,0.00093859,-0.00088797,-0.01959219,-0.00278198,-0.01969260
 ,-0.01690236,-0.05067249,-0.01622461,0.00019008,0.00017995,0.00009300,
 0.00001963,-0.00006905,0.00001083,-0.00000489,-0.00001987,-0.00002421,
 0.00001628,0.00002636,0.00000192,0.00003829,0.00000516,-0.00003029,-0.
 00000014,-0.00002867,0.00005664,-0.00000473,-0.00000766,-0.00000054,0.
 00000209,-0.00000045,0.00000007,0.00000336,0.00000216,-0.00000039,0.00
 000046,-0.00000645,0.00000650,0.00018400,0.00006489,0.00028243,0.00001
 300,0.00003287,0.00058955,-0.00291796,-0.00434386,0.00145392,0.0194119
 9,0.00405343,0.02091157,0.02219305,0.05290151,0.00106117,0.00136180,0.
 00019870,-0.00179922,0.00022265,0.00020009,0.00029101,-0.00003639,-0.0
 0016626,-0.00002708,-0.00002701,-0.00002843,-0.00000821,0.00006951,0.0
 0007010,-0.00002001,0.00001598,-0.00004895,-0.00002326,-0.00002333,-0.
 00001127,0.00000728,-0.00002922,0.00000628,0.00001923,0.00002176,-0.00
 001139,-0.00006189,-0.00002520,-0.00000832,0.00010616,0.00001719,0.000
 11236,0.00039541,-0.00025117,0.00116416,0.00635419,-0.00040424,0.00573
 322,-0.13285021,-0.01796724,-0.18084728,0.00003195,0.00000792,0.000012
 29,0.00000099,-0.00001083,0.00002186,-0.00001246,-0.00000516,-0.000011
 29,0.00002082,-0.00000658,0.00000002,0.00001715,-0.00000138,-0.0000294
 6,-0.00001038,0.00000265,0.00000078,-0.00000840,-0.00000990,0.00000124
 ,-0.00000155,-0.00000356,0.00000022,-0.00000851,-0.00000112,-0.0000033
 9,0.00001029,-0.00000325,0.00000180,-0.00010598,-0.00015068,0.00007787
 ,-0.00027900,0.00015252,0.00024653,0.00133363,0.00152807,0.00060813,0.
 00137054,0.00060164,-0.00013789,0.14560594,0.01719306,0.19273482,0.000
 69951,0.00022083,-0.00005647,-0.00036796,0.00082159,-0.00029765,-0.000
 02376,-0.00000878,0.00000449,-0.00001134,0.00000057,-0.00002108,-0.000
 06421,0.00007496,0.00003669,-0.00021991,-0.00005196,0.00000905,0.00003
 961,-0.00001310,-0.00008458,-0.00007895,-0.00002012,0.00002194,-0.0000
 0985,-0.00001821,-0.00008413,-0.00010915,-0.00014846,0.00002424,0.0003
 7450,0.00020084,0.00103081,-0.00216464,-0.00312064,0.00013190,-0.00904
 826,0.00276912,0.01730946,-0.10320905,0.01643007,0.10705099,-0.0000640
 3,-0.00000174,-0.00000717,-0.00000079,0.00000489,-0.00001246,0.0000315
 6,-0.00002214,-0.00001447,0.00000573,-0.00000365,0.00000113,0.00000797
 ,-0.00002190,-0.00000581,0.00003035,0.00000879,-0.00001564,-0.00001704
 ,-0.00003340,0.00000694,-0.00000997,-0.00001033,0.00001278,-0.00003541
 ,-0.00000216,0.00000405,0.00003421,0.00000872,0.00003030,0.00007842,-0
 .00031671,-0.00048696,-0.00001175,-0.00026341,0.00041960,0.00019690,0.
 00072034,-0.00024870,-0.00804693,0.00157805,0.01536885,0.01212882,-0.0
 0323378,-0.02140961,0.10986545,0.00104085,-0.00015098,-0.00028055,-0.0
 0168838,0.00060278,0.00111690,-0.00009661,0.00016013,-0.00008338,0.000
 04956,0.00005194,-0.00002722,-0.00005509,0.00009655,0.00013769,-0.0001
 1627,0.00001868,-0.00001758,0.00004715,0.00001607,-0.00008571,-0.00007
 394,-0.00001763,0.00002800,-0.00004331,0.00003012,-0.00009323,-0.00017
 429,-0.00032416,0.00001083,-0.00017051,0.00075594,0.00132734,-0.002853
 90,-0.00447568,0.00017951,-0.01048349,0.00309855,0.02419129,0.01696037
 ,-0.05411081,-0.03346426,0.00000629,-0.00000142,0.00004625,-0.00000215
 ,-0.00001987,0.00000516,0.00002214,-0.00004818,-0.00003016,0.00000977,
 0.00004279,0.00000019,0.00002442,-0.00001111,-0.00003912,0.00001226,-0
 .00002145,-0.00003173,-0.00001132,-0.00002745,0.00000443,-0.00000126,-
 0.00000491,0.00000941,-0.00003960,-0.00001209,0.00000309,0.00000501,0.
 00003581,0.00004045,-0.00027873,0.00025185,-0.00007843,0.00007715,0.00
 002519,0.00000386,0.00047193,0.00097552,-0.00051393,0.01114480,-0.0028
 4284,-0.02554225,0.00176544,-0.00107763,-0.00223850,-0.01554829,0.0569
 8428,-0.00166333,-0.00091943,0.00096146,0.00243060,-0.00067320,0.00013
 996,-0.00026573,0.00011232,-0.00014828,0.00002297,0.00003082,-0.000003
 82,0.00003080,-0.00006502,-0.00007922,0.00019011,-0.00004397,-0.000021
 56,-0.00002772,0.00005188,0.00002177,0.00002055,0.00001135,-0.00000601
 ,0.00001764,-0.00001939,0.00001649,0.00008892,0.00017860,-0.00002853,-
 0.00025645,-0.00029281,-0.00027188,0.00147569,0.00121684,0.00101555,0.
 00116304,-0.00004369,-0.00459528,0.10683743,-0.03161603,-0.25843955,-0
 .00006278,-0.00008920,-0.00003643,-0.00000048,0.00002421,-0.00001129,-
 0.00001447,0.00003016,0.00003329,-0.00002441,-0.00000043,0.00000514,-0
 .00001043,0.00001900,0.00002817,-0.00000555,-0.00000365,0.00001941,0.0
 0002184,0.00003113,-0.00000226,0.00000836,0.00001010,-0.00000580,0.000
 03155,0.00000774,-0.00000439,-0.00002525,-0.00000554,-0.00000407,-0.00
 028937,0.00009311,0.00017516,-0.00017521,-0.00012090,0.00028922,0.0002
 2606,0.00038606,0.00054649,-0.00192415,-0.00029803,0.00302382,0.010898
 23,-0.00343371,-0.01988651,-0.11871848,0.03542167,0.27726893\\0.000072
 25,-0.00000001,0.00001122,-0.00004826,0.00000031,-0.00003134,0.0000037
 0,0.00004218,-0.00001171,-0.00001807,0.00000901,-0.00001313,-0.0000123
 9,-0.00001705,0.00002043,0.00000849,-0.00001037,0.00001619,-0.00000531
 ,-0.00000880,-0.00000217,-0.00000493,0.00000505,0.00000188,-0.00000577
 ,-0.00000543,0.00000192,-0.00000433,0.00000981,-0.00000251,0.00000767,
 0.00001013,0.00001676,-0.00001174,0.00001732,0.00002021,0.00000328,-0.
 00004308,-0.00001187,-0.00001769,-0.00000908,-0.00001345,0.00000349,-0
 .00000006,-0.00000880,0.00000507,-0.00000388,0.00000591,-0.00000143,-0
 .00000185,0.00001097,0.00000368,0.00000390,0.00000834,0.00000429,0.000
 00408,-0.00000729,-0.00000041,-0.00000063,-0.00000166,-0.00000293,0.00
 000478,-0.00000382,0.00000486,-0.00000048,-0.00000517,0.00000503,0.000
 00051,-0.00000513,-0.00000300,-0.00000543,-0.00000377,0.00000421,-0.00
 000403,-0.00000719,-0.00000069,0.00000063,-0.00000180,0.00000379,0.000
 00019,-0.00000848,0.00000351,-0.00000354,0.00000831,0.00000515,0.00000
 392,0.00000601,-0.00000151,0.00000188,0.00001112\\\@


 YE HAVE SOWN MUCH, AND BRING IN LITTLE.
 YE EAT, BUT YE HAVE NOT ENOUGH.
 YE DRINK, BUT YE ARE NOT FILLED WITH DRINK.
 YE CLOTHE YOU, BUT THERE IS NONE WARM.
 AND HE THAT EARNETH WAGES EARNETH WAGES TO PUT
 IT INTO A BAG WITH HOLES.
                                     HAGGAI I,6
 Job cpu time:       0 days  0 hours  3 minutes 28.9 seconds.
 Elapsed time:       0 days  0 hours  3 minutes 34.2 seconds.
 File lengths (MBytes):  RWF=    206 Int=      0 D2E=      0 Chk=     16 Scr=      1
 Normal termination of Gaussian 16 at Sat Feb 24 02:34:04 2024.
