 Entering Gaussian System, Link 0=g16
 Input=/Volumes/SSD-PMU3/b3lyp_6-31gd_freq/SWHAFHUBBJGWQA-SEGRVHHLSA-N_calculating/gaussianinput0.gjf
 Output=/Volumes/SSD-PMU3/b3lyp_6-31gd_freq/SWHAFHUBBJGWQA-SEGRVHHLSA-N_calculating/gaussianinput0.log
 Initial command:
 /Applications/g16/l1.exe "/Users/macmini_m1_2022/PycharmProjects/sphere_model/sphere_model_lib/Gau-90861.inp" -scrdir="/Users/macmini_m1_2022/PycharmProjects/sphere_model/sphere_model_lib/"
 Entering Link 1 = /Applications/g16/l1.exe PID=     90862.
  
 Copyright (c) 1988,1990,1992,1993,1995,1998,2003,2009,2016,
            Gaussian, Inc.  All Rights Reserved.
  
 This is part of the Gaussian(R) 16 program.  It is based on
 the Gaussian(R) 09 system (copyright 2009, Gaussian, Inc.),
 the Gaussian(R) 03 system (copyright 2003, Gaussian, Inc.),
 the Gaussian(R) 98 system (copyright 1998, Gaussian, Inc.),
 the Gaussian(R) 94 system (copyright 1995, Gaussian, Inc.),
 the Gaussian 92(TM) system (copyright 1992, Gaussian, Inc.),
 the Gaussian 90(TM) system (copyright 1990, Gaussian, Inc.),
 the Gaussian 88(TM) system (copyright 1988, Gaussian, Inc.),
 the Gaussian 86(TM) system (copyright 1986, Carnegie Mellon
 University), and the Gaussian 82(TM) system (copyright 1983,
 Carnegie Mellon University). Gaussian is a federally registered
 trademark of Gaussian, Inc.
  
 This software contains proprietary and confidential information,
 including trade secrets, belonging to Gaussian, Inc.
  
 This software is provided under written license and may be
 used, copied, transmitted, or stored only in accord with that
 written license.
  
 The following legend is applicable only to US Government
 contracts under FAR:
  
                    RESTRICTED RIGHTS LEGEND
  
 Use, reproduction and disclosure by the US Government is
 subject to restrictions as set forth in subparagraphs (a)
 and (c) of the Commercial Computer Software - Restricted
 Rights clause in FAR 52.227-19.
  
 Gaussian, Inc.
 340 Quinnipiac St., Bldg. 40, Wallingford CT 06492
  
  
 ---------------------------------------------------------------
 Warning -- This program may not be used in any manner that
 competes with the business of Gaussian, Inc. or will provide
 assistance to any competitor of Gaussian, Inc.  The licensee
 of this program is prohibited from giving any competitor of
 Gaussian, Inc. access to this program.  By using this program,
 the user acknowledges that Gaussian, Inc. is engaged in the
 business of creating and licensing software in the field of
 computational chemistry and represents and warrants to the
 licensee that it is not a competitor of Gaussian, Inc. and that
 it will not use this program in any manner prohibited above.
 ---------------------------------------------------------------
  

 Cite this work as:
 Gaussian 16, Revision A.03,
 M. J. Frisch, G. W. Trucks, H. B. Schlegel, G. E. Scuseria, 
 M. A. Robb, J. R. Cheeseman, G. Scalmani, V. Barone, 
 G. A. Petersson, H. Nakatsuji, X. Li, M. Caricato, A. V. Marenich, 
 J. Bloino, B. G. Janesko, R. Gomperts, B. Mennucci, H. P. Hratchian, 
 J. V. Ortiz, A. F. Izmaylov, J. L. Sonnenberg, D. Williams-Young, 
 F. Ding, F. Lipparini, F. Egidi, J. Goings, B. Peng, A. Petrone, 
 T. Henderson, D. Ranasinghe, V. G. Zakrzewski, J. Gao, N. Rega, 
 G. Zheng, W. Liang, M. Hada, M. Ehara, K. Toyota, R. Fukuda, 
 J. Hasegawa, M. Ishida, T. Nakajima, Y. Honda, O. Kitao, H. Nakai, 
 T. Vreven, K. Throssell, J. A. Montgomery, Jr., J. E. Peralta, 
 F. Ogliaro, M. J. Bearpark, J. J. Heyd, E. N. Brothers, K. N. Kudin, 
 V. N. Staroverov, T. A. Keith, R. Kobayashi, J. Normand, 
 K. Raghavachari, A. P. Rendell, J. C. Burant, S. S. Iyengar, 
 J. Tomasi, M. Cossi, J. M. Millam, M. Klene, C. Adamo, R. Cammi, 
 J. W. Ochterski, R. L. Martin, K. Morokuma, O. Farkas, 
 J. B. Foresman, and D. J. Fox, Gaussian, Inc., Wallingford CT, 2016.
 
 ******************************************
 Gaussian 16:  EM64M-G16RevA.03 25-Dec-2016
                24-Feb-2024 
 ******************************************
 %nprocshared=10
 Will use up to   10 processors via shared memory.
 %mem=12GB
 %chk= 0.chk
 ---------------------
 # freq b3lyp/6-31g(d)
 ---------------------
 1/10=4,30=1,38=1/1,3;
 2/12=2,17=6,18=5,40=1/2;
 3/5=1,6=6,7=1,11=2,25=1,30=1,71=2,74=-5,140=1/1,2,3;
 4//1;
 5/5=2,38=5,98=1/2;
 8/6=4,10=90,11=11/1;
 11/6=1,8=1,9=11,15=111,16=1/1,2,10;
 10/6=1/2;
 6/7=2,8=2,9=2,10=2,28=1/1;
 7/8=1,10=1,25=1/1,2,3,16;
 1/10=4,30=1/3;
 99//99;
 ---------
 good luck
 ---------
 Symbolic Z-matrix:
 Charge =  0 Multiplicity = 1
 O                     1.21485   0.        0. 
 C                     0.        0.        0. 
 C                    -0.84989  -1.26901  -0.00974 
 C                    -1.76333  -1.26586   1.23954 
 C                    -1.72108  -1.25939  -1.29139 
 C                    -2.61069  0.        -1.30453 
 C                    -1.72108   1.25939  -1.29139 
 C                    -0.8499    1.26901  -0.00974 
 C                    -1.76333   1.26586   1.23954 
 C                    -2.66645  0.         1.22603 
 C                    -3.53874  -0.00001   2.4089 
 N                    -4.23124  -0.00001   3.34138 
 C                    -3.53008  0.        -0.0673 
 H                    -0.182    -2.13561   0.00875 
 H                    -2.38734  -2.16789   1.2459 
 H                    -1.16185  -1.28224   2.15602 
 H                    -1.07916  -1.28146  -2.18107 
 H                    -2.33894  -2.16685  -1.31859 
 H                    -3.23176  0.        -2.20885 
 H                    -1.07916   1.28146  -2.18107 
 H                    -2.33894   2.16684  -1.31859 
 H                    -0.182     2.13561   0.00875 
 H                    -1.16186   1.28224   2.15602 
 H                    -2.38734   2.16789   1.2459 
 H                    -4.18156   0.88237  -0.07208 
 H                    -4.18156  -0.88238  -0.07208 
 

 GradGradGradGradGradGradGradGradGradGradGradGradGradGradGradGradGradGrad
 Berny optimization.
 Initialization pass.
 Trust Radius=3.00D-01 FncErr=1.00D-07 GrdErr=1.00D-07 EigMax=2.50D+02 EigMin=1.00D-04
 Number of steps in this run=      2 maximum allowed number of steps=      2.
 GradGradGradGradGradGradGradGradGradGradGradGradGradGradGradGradGradGrad

                          Input orientation:                          
 ---------------------------------------------------------------------
 Center     Atomic      Atomic             Coordinates (Angstroms)
 Number     Number       Type             X           Y           Z
 ---------------------------------------------------------------------
      1          8           0        1.214851    0.000000    0.000000
      2          6           0        0.000000    0.000000    0.000000
      3          6           0       -0.849894   -1.269008   -0.009742
      4          6           0       -1.763327   -1.265860    1.239541
      5          6           0       -1.721075   -1.259390   -1.291389
      6          6           0       -2.610692   -0.000002   -1.304529
      7          6           0       -1.721076    1.259386   -1.291390
      8          6           0       -0.849897    1.269007   -0.009742
      9          6           0       -1.763330    1.265858    1.239542
     10          6           0       -2.666448   -0.000002    1.226033
     11          6           0       -3.538738   -0.000006    2.408900
     12          7           0       -4.231237   -0.000010    3.341376
     13          6           0       -3.530078   -0.000002   -0.067303
     14          1           0       -0.181997   -2.135610    0.008748
     15          1           0       -2.387340   -2.167891    1.245902
     16          1           0       -1.161853   -1.282240    2.156017
     17          1           0       -1.079164   -1.281460   -2.181070
     18          1           0       -2.338937   -2.166849   -1.318585
     19          1           0       -3.231764   -0.000003   -2.208848
     20          1           0       -1.079165    1.281456   -2.181070
     21          1           0       -2.338939    2.166845   -1.318588
     22          1           0       -0.182000    2.135609    0.008747
     23          1           0       -1.161855    1.282239    2.156017
     24          1           0       -2.387344    2.167888    1.245902
     25          1           0       -4.181565    0.882371   -0.072083
     26          1           0       -4.181564   -0.882376   -0.072083
 ---------------------------------------------------------------------
                    Distance matrix (angstroms):
                    1          2          3          4          5
     1  O    0.000000
     2  C    1.214851   0.000000
     3  C    2.423561   1.527349   0.000000
     4  C    3.465315   2.499637   1.547604   0.000000
     5  C    3.445782   2.493160   1.549732   2.531291   0.000000
     6  C    4.041853   2.918477   2.527303   2.965251   1.541963
     7  C    3.445781   2.493159   2.965528   3.575509   2.518776
     8  C    2.423563   1.527350   2.538015   2.969952   2.965529
     9  C    3.465317   2.499639   2.969953   2.531718   3.575510
    10  C    4.070336   2.934809   2.537200   1.555058   2.969377
    11  C    5.329109   4.280825   3.832764   2.474242   4.310694
    12  N    6.389418   5.391490   4.926848   3.480038   5.417514
    13  C    4.745406   3.530720   2.965986   2.536069   2.521297
    14  H    2.551880   2.143369   1.094270   2.184473   2.197016
    15  H    4.384952   3.457082   2.179076   1.096856   2.776172
    16  H    3.455614   2.764498   2.188151   1.096343   3.492543
    17  H    3.414925   2.750237   2.183434   3.488395   1.097301
    18  H    4.366155   3.450294   2.176336   2.772565   1.098169
    19  H    4.965017   3.914500   3.481342   3.956019   2.170246
    20  H    3.414924   2.750235   3.357394   4.319430   2.767576
    21  H    4.366156   3.450294   3.966789   4.319585   3.481606
    22  H    2.551881   2.143368   3.469559   3.947840   3.947800
    23  H    3.455615   2.764499   3.361055   2.773897   4.319400
    24  H    4.384954   3.457083   3.968961   3.489995   4.316016
    25  H    5.468554   4.274256   3.966403   3.490434   3.482507
    26  H    5.468554   4.274256   3.354608   2.777641   2.771796
                    6          7          8          9         10
     6  C    0.000000
     7  C    1.541962   0.000000
     8  C    2.527302   1.549731   0.000000
     9  C    2.965252   2.531293   1.547605   0.000000
    10  C    2.531176   2.969378   2.537199   1.555058   0.000000
    11  C    3.827640   4.310697   3.832765   2.474244   1.469716
    12  N    4.920427   5.417519   4.926851   3.480042   2.631205
    13  C    1.541428   2.521296   2.965985   2.536069   1.555177
    14  H    3.490570   3.947799   3.469560   3.947841   3.495011
    15  H    3.354747   4.316015   3.968960   3.489994   2.185873
    16  H    3.964675   4.319399   3.361055   2.773897   2.184676
    17  H    2.180834   2.767577   3.357396   4.319433   3.971140
    18  H    2.183867   3.481606   3.966789   4.319585   3.358209
    19  H    1.097052   2.170246   3.481342   3.956020   3.481090
    20  H    2.180833   1.097300   2.183434   3.488397   3.971140
    21  H    2.183867   1.098170   2.176336   2.772568   3.358211
    22  H    3.490569   2.197016   1.094270   2.184474   3.495011
    23  H    3.964675   3.492544   2.188151   1.096343   2.184677
    24  H    3.354747   2.776174   2.179076   1.096856   2.185873
    25  H    2.182922   2.771797   3.354607   2.777640   2.181574
    26  H    2.182921   3.482507   3.966401   3.490433   2.181574
                   11         12         13         14         15
    11  C    0.000000
    12  N    1.161493   0.000000
    13  C    2.476218   3.480045   0.000000
    14  H    4.646423   5.662468   3.971933   0.000000
    15  H    2.716249   3.534215   2.780306   2.528859   0.000000
    16  H    2.712500   3.531332   3.492245   2.509805   1.764796
    17  H    5.362784   6.486531   3.480966   2.515906   3.773754
    18  H    4.475363   5.476425   2.771236   2.532820   2.564944
    19  H    4.627940   5.639498   2.162223   4.333547   4.165104
    20  H    5.362786   6.486534   3.480965   4.156507   5.035221
    21  H    4.475369   5.476433   2.771237   4.992528   5.036754
    22  H    4.646426   5.662473   3.971932   4.271219   4.991412
    23  H    2.712503   3.531337   3.492245   4.153622   3.772734
    24  H    2.716254   3.534223   2.780305   4.991413   4.335779
    25  H    2.710552   3.526013   1.096832   5.011116   3.776298
    26  H    2.710550   3.526009   1.096832   4.192096   2.570773
                   16         17         18         19         20
    16  H    0.000000
    17  H    4.337875   0.000000
    18  H    3.773714   1.764886   0.000000
    19  H    4.998071   2.505312   2.506976   0.000000
    20  H    5.038819   2.562916   3.771169   2.505313   0.000000
    21  H    5.035335   3.771169   4.333694   2.506976   1.764885
    22  H    4.153622   4.156508   4.992528   4.333547   2.515906
    23  H    2.564479   5.038821   5.035334   4.998071   4.337875
    24  H    3.772734   5.035223   5.036753   4.165104   3.773756
    25  H    4.332278   4.330691   3.774492   2.499294   3.772530
    26  H    3.773987   3.772530   2.568835   2.499293   4.330690
                   21         22         23         24         25
    21  H    0.000000
    22  H    2.532821   0.000000
    23  H    3.773716   2.509806   0.000000
    24  H    2.564947   2.528861   1.764797   0.000000
    25  H    2.568836   4.192095   3.773986   2.570772   0.000000
    26  H    3.774492   5.011116   4.332278   3.776297   1.764747
                   26
    26  H    0.000000
 Stoichiometry    C11H13NO
 Framework group  C1[X(C11H13NO)]
 Deg. of freedom    72
 Full point group                 C1      NOp   1
 Largest Abelian subgroup         C1      NOp   1
 Largest concise Abelian subgroup C1      NOp   1
                         Standard orientation:                         
 ---------------------------------------------------------------------
 Center     Atomic      Atomic             Coordinates (Angstroms)
 Number     Number       Type             X           Y           Z
 ---------------------------------------------------------------------
      1          8           0        2.531281   -1.727202    0.000001
      2          6           0        1.614777   -0.929779    0.000001
      3          6           0        0.979995   -0.364565   -1.269007
      4          6           0       -0.529138   -0.707472   -1.265856
      5          6           0        1.164028    1.174171   -1.259391
      6          6           0        0.501513    1.768026   -0.000003
      7          6           0        1.164032    1.174176    1.259385
      8          6           0        0.979997   -0.364559    1.269008
      9          6           0       -0.529137   -0.707467    1.265862
     10          6           0       -1.201599   -0.104475    0.000002
     11          6           0       -2.636098   -0.424283    0.000001
     12          7           0       -3.770604   -0.673205   -0.000001
     13          6           0       -1.004197    1.438123   -0.000000
     14          1           0        1.471730   -0.816920   -2.135609
     15          1           0       -1.004081   -0.302673   -2.167887
     16          1           0       -0.676947   -1.793682   -1.282234
     17          1           0        2.232279    1.424014   -1.281463
     18          1           0        0.715753    1.600249   -2.166850
     19          1           0        0.626557    2.857929   -0.000006
     20          1           0        2.232283    1.424018    1.281453
     21          1           0        0.715760    1.600258    2.166844
     22          1           0        1.471735   -0.816911    2.135610
     23          1           0       -0.676944   -1.793677    1.282245
     24          1           0       -1.004077   -0.302664    2.167892
     25          1           0       -1.492551    1.869363    0.882373
     26          1           0       -1.492553    1.869360   -0.882374
 ---------------------------------------------------------------------
 Rotational constants (GHZ):           1.3998379           0.7369145           0.6794189
 Standard basis: 6-31G(d) (6D, 7F)
 There are   221 symmetry adapted cartesian basis functions of A   symmetry.
 There are   221 symmetry adapted basis functions of A   symmetry.
   221 basis functions,   416 primitive gaussians,   221 cartesian basis functions
    47 alpha electrons       47 beta electrons
       nuclear repulsion energy       823.2407084245 Hartrees.
 NAtoms=   26 NActive=   26 NUniq=   26 SFac= 1.00D+00 NAtFMM=   60 NAOKFM=F Big=F
 Integral buffers will be    131072 words long.
 Raffenetti 2 integral format.
 Two-electron integral symmetry is turned on.
 One-electron integrals computed using PRISM.
 NBasis=   221 RedAO= T EigKep=  8.76D-04  NBF=   221
 NBsUse=   221 1.00D-06 EigRej= -1.00D+00 NBFU=   221
 ExpMin= 1.61D-01 ExpMax= 5.48D+03 ExpMxC= 8.25D+02 IAcc=3 IRadAn=         5 AccDes= 0.00D+00
 Harris functional with IExCor=  402 and IRadAn=       5 diagonalized for initial guess.
 HarFok:  IExCor=  402 AccDes= 0.00D+00 IRadAn=         5 IDoV= 1 UseB2=F ITyADJ=14
 ICtDFT=  3500011 ScaDFX=  1.000000  1.000000  1.000000  1.000000
 FoFCou: FMM=F IPFlag=           0 FMFlag=      100000 FMFlg1=           0
         NFxFlg=           0 DoJE=T BraDBF=F KetDBF=T FulRan=T
         wScrn=  0.000000 ICntrl=       500 IOpCl=  0 I1Cent=   200000004 NGrid=           0
         NMat0=    1 NMatS0=      1 NMatT0=    0 NMatD0=    1 NMtDS0=    0 NMtDT0=    0
 Petite list used in FoFCou.
 Requested convergence on RMS density matrix=1.00D-08 within 128 cycles.
 Requested convergence on MAX density matrix=1.00D-06.
 Requested convergence on             energy=1.00D-06.
 No special actions if energy rises.
 Integral accuracy reduced to 1.0D-05 until final iterations.
 Initial convergence to 1.0D-05 achieved.  Increase integral accuracy.
 SCF Done:  E(RB3LYP) =  -556.975076061     A.U. after   15 cycles
            NFock= 15  Conv=0.34D-08     -V/T= 2.0095
 DoSCS=F DFT=T ScalE2(SS,OS)=  1.000000  1.000000
 Range of M.O.s used for correlation:     1   221
 NBasis=   221 NAE=    47 NBE=    47 NFC=     0 NFV=     0
 NROrb=    221 NOA=    47 NOB=    47 NVA=   174 NVB=   174
 Symmetrizing basis deriv contribution to polar:
 IMax=3 JMax=2 DiffMx= 0.00D+00
 G2DrvN: will do    27 centers at a time, making    1 passes.
 Calling FoFCou, ICntrl=  3107 FMM=F I1Cent=   0 AccDes= 0.00D+00.
 End of G2Drv F.D. properties file   721 does not exist.
 End of G2Drv F.D. properties file   722 does not exist.
 End of G2Drv F.D. properties file   788 does not exist.
          IDoAtm=11111111111111111111111111
          Differentiating once with respect to electric field.
                with respect to dipole field.
          Differentiating once with respect to nuclear coordinates.
 Keep R1 ints in memory in canonical form, NReq=311395455.
          There are    81 degrees of freedom in the 1st order CPHF.  IDoFFX=6 NUNeed=     3.
     78 vectors produced by pass  0 Test12= 1.01D-14 1.23D-09 XBig12= 9.92D+01 3.69D+00.
 AX will form    78 AO Fock derivatives at one time.
     78 vectors produced by pass  1 Test12= 1.01D-14 1.23D-09 XBig12= 2.73D+01 1.13D+00.
     78 vectors produced by pass  2 Test12= 1.01D-14 1.23D-09 XBig12= 4.86D-01 7.80D-02.
     78 vectors produced by pass  3 Test12= 1.01D-14 1.23D-09 XBig12= 2.16D-03 5.62D-03.
     78 vectors produced by pass  4 Test12= 1.01D-14 1.23D-09 XBig12= 1.99D-06 1.76D-04.
     47 vectors produced by pass  5 Test12= 1.01D-14 1.23D-09 XBig12= 1.35D-09 4.07D-06.
      6 vectors produced by pass  6 Test12= 1.01D-14 1.23D-09 XBig12= 9.46D-13 1.48D-07.
      2 vectors produced by pass  7 Test12= 1.01D-14 1.23D-09 XBig12= 8.71D-16 5.21D-09.
 InvSVY:  IOpt=1 It=  1 EMax= 1.42D-14
 Solved reduced A of dimension   445 with    81 vectors.
 Isotropic polarizability for W=    0.000000      107.55 Bohr**3.
 End of Minotr F.D. properties file   721 does not exist.
 End of Minotr F.D. properties file   722 does not exist.
 End of Minotr F.D. properties file   788 does not exist.

 **********************************************************************

            Population analysis using the SCF density.

 **********************************************************************

 Orbital symmetries:
       Occupied  (A) (A) (A) (A) (A) (A) (A) (A) (A) (A) (A) (A)
                 (A) (A) (A) (A) (A) (A) (A) (A) (A) (A) (A) (A)
                 (A) (A) (A) (A) (A) (A) (A) (A) (A) (A) (A) (A)
                 (A) (A) (A) (A) (A) (A) (A) (A) (A) (A) (A)
       Virtual   (A) (A) (A) (A) (A) (A) (A) (A) (A) (A) (A) (A)
                 (A) (A) (A) (A) (A) (A) (A) (A) (A) (A) (A) (A)
                 (A) (A) (A) (A) (A) (A) (A) (A) (A) (A) (A) (A)
                 (A) (A) (A) (A) (A) (A) (A) (A) (A) (A) (A) (A)
                 (A) (A) (A) (A) (A) (A) (A) (A) (A) (A) (A) (A)
                 (A) (A) (A) (A) (A) (A) (A) (A) (A) (A) (A) (A)
                 (A) (A) (A) (A) (A) (A) (A) (A) (A) (A) (A) (A)
                 (A) (A) (A) (A) (A) (A) (A) (A) (A) (A) (A) (A)
                 (A) (A) (A) (A) (A) (A) (A) (A) (A) (A) (A) (A)
                 (A) (A) (A) (A) (A) (A) (A) (A) (A) (A) (A) (A)
                 (A) (A) (A) (A) (A) (A) (A) (A) (A) (A) (A) (A)
                 (A) (A) (A) (A) (A) (A) (A) (A) (A) (A) (A) (A)
                 (A) (A) (A) (A) (A) (A) (A) (A) (A) (A) (A) (A)
                 (A) (A) (A) (A) (A) (A) (A) (A) (A) (A) (A) (A)
                 (A) (A) (A) (A) (A) (A)
 The electronic state is 1-A.
 Alpha  occ. eigenvalues --  -19.14667 -14.33424 -10.27817 -10.25179 -10.22519
 Alpha  occ. eigenvalues --  -10.21552 -10.21551 -10.21311 -10.21077 -10.21075
 Alpha  occ. eigenvalues --  -10.21059 -10.20665 -10.20663  -1.04528  -0.91181
 Alpha  occ. eigenvalues --   -0.88904  -0.80814  -0.79871  -0.78282  -0.69701
 Alpha  occ. eigenvalues --   -0.67086  -0.63800  -0.62151  -0.59318  -0.54548
 Alpha  occ. eigenvalues --   -0.50286  -0.47986  -0.47381  -0.46035  -0.45963
 Alpha  occ. eigenvalues --   -0.44383  -0.43874  -0.43352  -0.42068  -0.41626
 Alpha  occ. eigenvalues --   -0.38297  -0.38272  -0.36969  -0.36581  -0.36239
 Alpha  occ. eigenvalues --   -0.35863  -0.33636  -0.33134  -0.32552  -0.31250
 Alpha  occ. eigenvalues --   -0.30906  -0.24434
 Alpha virt. eigenvalues --   -0.02400   0.03293   0.03320   0.05037   0.10304
 Alpha virt. eigenvalues --    0.10337   0.11129   0.11987   0.12011   0.12640
 Alpha virt. eigenvalues --    0.13396   0.15351   0.17134   0.17625   0.17655
 Alpha virt. eigenvalues --    0.17911   0.18168   0.19004   0.19380   0.20862
 Alpha virt. eigenvalues --    0.21180   0.22964   0.23070   0.24525   0.26831
 Alpha virt. eigenvalues --    0.26965   0.27188   0.28075   0.32558   0.35005
 Alpha virt. eigenvalues --    0.40630   0.48966   0.49337   0.51177   0.51380
 Alpha virt. eigenvalues --    0.52833   0.54172   0.56556   0.57586   0.58577
 Alpha virt. eigenvalues --    0.60644   0.61512   0.62535   0.63416   0.63868
 Alpha virt. eigenvalues --    0.65754   0.66125   0.68128   0.68774   0.69301
 Alpha virt. eigenvalues --    0.72442   0.72554   0.73165   0.74777   0.76300
 Alpha virt. eigenvalues --    0.76750   0.78423   0.79667   0.81329   0.83147
 Alpha virt. eigenvalues --    0.84923   0.85002   0.85064   0.85871   0.86552
 Alpha virt. eigenvalues --    0.87835   0.89232   0.90305   0.90861   0.91693
 Alpha virt. eigenvalues --    0.92632   0.94405   0.94974   0.95895   0.96583
 Alpha virt. eigenvalues --    0.98634   1.01129   1.07964   1.09530   1.13880
 Alpha virt. eigenvalues --    1.14114   1.17443   1.17869   1.20278   1.22159
 Alpha virt. eigenvalues --    1.27090   1.28601   1.36580   1.38331   1.38739
 Alpha virt. eigenvalues --    1.44108   1.47630   1.52263   1.54721   1.55791
 Alpha virt. eigenvalues --    1.56585   1.59013   1.60499   1.63536   1.66210
 Alpha virt. eigenvalues --    1.67921   1.69731   1.71869   1.74809   1.75285
 Alpha virt. eigenvalues --    1.75953   1.77377   1.78452   1.80088   1.81713
 Alpha virt. eigenvalues --    1.83726   1.85106   1.87406   1.87832   1.91742
 Alpha virt. eigenvalues --    1.94204   1.98231   1.99018   1.99105   2.03046
 Alpha virt. eigenvalues --    2.04913   2.06183   2.06972   2.07942   2.08070
 Alpha virt. eigenvalues --    2.09027   2.11872   2.13971   2.18750   2.21698
 Alpha virt. eigenvalues --    2.24499   2.25676   2.28922   2.30366   2.31940
 Alpha virt. eigenvalues --    2.32999   2.35611   2.36685   2.39058   2.39799
 Alpha virt. eigenvalues --    2.41067   2.46431   2.48439   2.50272   2.58382
 Alpha virt. eigenvalues --    2.58889   2.64280   2.65985   2.67615   2.68481
 Alpha virt. eigenvalues --    2.69483   2.72603   2.73588   2.74816   2.75819
 Alpha virt. eigenvalues --    2.82561   2.89858   2.89971   3.00026   3.01860
 Alpha virt. eigenvalues --    3.35158   4.07360   4.09924   4.19087   4.23953
 Alpha virt. eigenvalues --    4.26614   4.28299   4.41441   4.47287   4.54283
 Alpha virt. eigenvalues --    4.71238   4.78509   4.80816   4.92120
          Condensed to atoms (all electrons):
               1          2          3          4          5          6
     1  O    8.000438   0.581067  -0.073336   0.001067   0.000877   0.000013
     2  C    0.581067   4.514508   0.328647  -0.026711  -0.031497  -0.020065
     3  C   -0.073336   0.328647   5.236569   0.320006   0.340295  -0.027646
     4  C    0.001067  -0.026711   0.320006   5.131293  -0.038111  -0.015934
     5  C    0.000877  -0.031497   0.340295  -0.038111   5.092964   0.374524
     6  C    0.000013  -0.020065  -0.027646  -0.015934   0.374524   4.942948
     7  C    0.000877  -0.031497  -0.007499  -0.002288  -0.050455   0.374524
     8  C   -0.073336   0.328647  -0.125845  -0.007602  -0.007499  -0.027646
     9  C    0.001067  -0.026711  -0.007602  -0.051502  -0.002288  -0.015934
    10  C    0.000141  -0.019795  -0.023399   0.374230  -0.017074  -0.024372
    11  C    0.000001  -0.000062   0.003836  -0.047869  -0.000252   0.003929
    12  N    0.000000  -0.000001  -0.000027  -0.002283  -0.000002  -0.000024
    13  C   -0.000030  -0.002358  -0.014313  -0.049491  -0.045122   0.360909
    14  H    0.004229  -0.030199   0.347658  -0.031108  -0.029931   0.004121
    15  H   -0.000079   0.003305  -0.028696   0.361921  -0.005751  -0.000734
    16  H    0.000665  -0.001199  -0.036512   0.368754   0.004813   0.000044
    17  H    0.000763  -0.000545  -0.039516   0.005078   0.369883  -0.035094
    18  H   -0.000079   0.003498  -0.031255  -0.005621   0.362366  -0.033283
    19  H   -0.000001   0.000263   0.004563   0.000077  -0.036581   0.372107
    20  H    0.000763  -0.000545  -0.000162   0.000034  -0.003966  -0.035094
    21  H   -0.000079   0.003498  -0.000284   0.000103   0.005090  -0.033283
    22  H    0.004229  -0.030200   0.006920  -0.000085  -0.000064   0.004121
    23  H    0.000665  -0.001199   0.000510  -0.004762  -0.000015   0.000044
    24  H   -0.000079   0.003305  -0.000323   0.005025   0.000106  -0.000734
    25  H    0.000000   0.000134  -0.000065   0.004959   0.004913  -0.033049
    26  H    0.000000   0.000134  -0.001093  -0.004073  -0.003615  -0.033049
               7          8          9         10         11         12
     1  O    0.000877  -0.073336   0.001067   0.000141   0.000001   0.000000
     2  C   -0.031497   0.328647  -0.026711  -0.019795  -0.000062  -0.000001
     3  C   -0.007499  -0.125845  -0.007602  -0.023399   0.003836  -0.000027
     4  C   -0.002288  -0.007602  -0.051502   0.374230  -0.047869  -0.002283
     5  C   -0.050455  -0.007499  -0.002288  -0.017074  -0.000252  -0.000002
     6  C    0.374524  -0.027646  -0.015934  -0.024372   0.003929  -0.000024
     7  C    5.092964   0.340295  -0.038111  -0.017073  -0.000252  -0.000002
     8  C    0.340295   5.236569   0.320006  -0.023399   0.003836  -0.000027
     9  C   -0.038111   0.320006   5.131292   0.374230  -0.047868  -0.002283
    10  C   -0.017073  -0.023399   0.374230   5.039641   0.234097  -0.092743
    11  C   -0.000252   0.003836  -0.047868   0.234097   4.717176   0.882999
    12  N   -0.000002  -0.000027  -0.002283  -0.092743   0.882999   6.698275
    13  C   -0.045122  -0.014313  -0.049491   0.380742  -0.051989  -0.002375
    14  H   -0.000064   0.006920  -0.000085   0.003789  -0.000138  -0.000000
    15  H    0.000106  -0.000323   0.005025  -0.031336  -0.004595   0.000218
    16  H   -0.000015   0.000510  -0.004762  -0.032351  -0.005147   0.000218
    17  H   -0.003966  -0.000162   0.000034   0.000280   0.000023   0.000000
    18  H    0.005090  -0.000284   0.000103  -0.001225  -0.000132  -0.000001
    19  H   -0.036581   0.004563   0.000077   0.004442  -0.000123  -0.000000
    20  H    0.369883  -0.039516   0.005078   0.000280   0.000023   0.000000
    21  H    0.362366  -0.031255  -0.005621  -0.001225  -0.000132  -0.000001
    22  H   -0.029931   0.347657  -0.031108   0.003789  -0.000138  -0.000000
    23  H    0.004813  -0.036512   0.368754  -0.032351  -0.005147   0.000218
    24  H   -0.005751  -0.028696   0.361921  -0.031336  -0.004595   0.000218
    25  H   -0.003615  -0.001093  -0.004073  -0.033932  -0.004468   0.000275
    26  H    0.004913  -0.000065   0.004959  -0.033932  -0.004468   0.000275
              13         14         15         16         17         18
     1  O   -0.000030   0.004229  -0.000079   0.000665   0.000763  -0.000079
     2  C   -0.002358  -0.030199   0.003305  -0.001199  -0.000545   0.003498
     3  C   -0.014313   0.347658  -0.028696  -0.036512  -0.039516  -0.031255
     4  C   -0.049491  -0.031108   0.361921   0.368754   0.005078  -0.005621
     5  C   -0.045122  -0.029931  -0.005751   0.004813   0.369883   0.362366
     6  C    0.360909   0.004121  -0.000734   0.000044  -0.035094  -0.033283
     7  C   -0.045122  -0.000064   0.000106  -0.000015  -0.003966   0.005090
     8  C   -0.014313   0.006920  -0.000323   0.000510  -0.000162  -0.000284
     9  C   -0.049491  -0.000085   0.005025  -0.004762   0.000034   0.000103
    10  C    0.380742   0.003789  -0.031336  -0.032351   0.000280  -0.001225
    11  C   -0.051989  -0.000138  -0.004595  -0.005147   0.000023  -0.000132
    12  N   -0.002375  -0.000000   0.000218   0.000218   0.000000  -0.000001
    13  C    5.105173   0.000133  -0.003882   0.004827   0.004932  -0.003478
    14  H    0.000133   0.584058  -0.003891  -0.002565  -0.002564  -0.003910
    15  H   -0.003882  -0.003891   0.571870  -0.032043  -0.000050   0.005440
    16  H    0.004827  -0.002565  -0.032043   0.564685  -0.000147  -0.000061
    17  H    0.004932  -0.002564  -0.000050  -0.000147   0.582096  -0.033753
    18  H   -0.003478  -0.003910   0.005440  -0.000061  -0.033753   0.590414
    19  H   -0.038761  -0.000133  -0.000080   0.000016  -0.003437  -0.003095
    20  H    0.004932  -0.000086   0.000001  -0.000005   0.004134   0.000015
    21  H   -0.003478   0.000022  -0.000005   0.000001   0.000015  -0.000194
    22  H    0.000133  -0.000170   0.000022  -0.000073  -0.000086   0.000022
    23  H    0.004827  -0.000073  -0.000011   0.004173  -0.000005   0.000001
    24  H   -0.003882   0.000022  -0.000185  -0.000011   0.000001  -0.000005
    25  H    0.366361   0.000016  -0.000075  -0.000151  -0.000150  -0.000058
    26  H    0.366361  -0.000063   0.004602  -0.000060  -0.000033   0.004434
              19         20         21         22         23         24
     1  O   -0.000001   0.000763  -0.000079   0.004229   0.000665  -0.000079
     2  C    0.000263  -0.000545   0.003498  -0.030200  -0.001199   0.003305
     3  C    0.004563  -0.000162  -0.000284   0.006920   0.000510  -0.000323
     4  C    0.000077   0.000034   0.000103  -0.000085  -0.004762   0.005025
     5  C   -0.036581  -0.003966   0.005090  -0.000064  -0.000015   0.000106
     6  C    0.372107  -0.035094  -0.033283   0.004121   0.000044  -0.000734
     7  C   -0.036581   0.369883   0.362366  -0.029931   0.004813  -0.005751
     8  C    0.004563  -0.039516  -0.031255   0.347657  -0.036512  -0.028696
     9  C    0.000077   0.005078  -0.005621  -0.031108   0.368754   0.361921
    10  C    0.004442   0.000280  -0.001225   0.003789  -0.032351  -0.031336
    11  C   -0.000123   0.000023  -0.000132  -0.000138  -0.005147  -0.004595
    12  N   -0.000000   0.000000  -0.000001  -0.000000   0.000218   0.000218
    13  C   -0.038761   0.004932  -0.003478   0.000133   0.004827  -0.003882
    14  H   -0.000133  -0.000086   0.000022  -0.000170  -0.000073   0.000022
    15  H   -0.000080   0.000001  -0.000005   0.000022  -0.000011  -0.000185
    16  H    0.000016  -0.000005   0.000001  -0.000073   0.004173  -0.000011
    17  H   -0.003437   0.004134   0.000015  -0.000086  -0.000005   0.000001
    18  H   -0.003095   0.000015  -0.000194   0.000022   0.000001  -0.000005
    19  H    0.608310  -0.003437  -0.003095  -0.000133   0.000016  -0.000080
    20  H   -0.003437   0.582095  -0.033753  -0.002564  -0.000147  -0.000050
    21  H   -0.003095  -0.033753   0.590414  -0.003910  -0.000061   0.005440
    22  H   -0.000133  -0.002564  -0.003910   0.584058  -0.002565  -0.003891
    23  H    0.000016  -0.000147  -0.000061  -0.002565   0.564685  -0.032043
    24  H   -0.000080  -0.000050   0.005440  -0.003891  -0.032043   0.571870
    25  H   -0.003552  -0.000033   0.004434  -0.000063  -0.000060   0.004602
    26  H   -0.003552  -0.000150  -0.000058   0.000016  -0.000151  -0.000075
              25         26
     1  O    0.000000   0.000000
     2  C    0.000134   0.000134
     3  C   -0.000065  -0.001093
     4  C    0.004959  -0.004073
     5  C    0.004913  -0.003615
     6  C   -0.033049  -0.033049
     7  C   -0.003615   0.004913
     8  C   -0.001093  -0.000065
     9  C   -0.004073   0.004959
    10  C   -0.033932  -0.033932
    11  C   -0.004468  -0.004468
    12  N    0.000275   0.000275
    13  C    0.366361   0.366361
    14  H    0.000016  -0.000063
    15  H   -0.000075   0.004602
    16  H   -0.000151  -0.000060
    17  H   -0.000150  -0.000033
    18  H   -0.000058   0.004434
    19  H   -0.003552  -0.003552
    20  H   -0.000033  -0.000150
    21  H    0.004434  -0.000058
    22  H   -0.000063   0.000016
    23  H   -0.000060  -0.000151
    24  H    0.004602  -0.000075
    25  H    0.577414  -0.031974
    26  H   -0.031974   0.577414
 Mulliken charges:
               1
     1  O   -0.449843
     2  C    0.455581
     3  C   -0.171428
     4  C   -0.285106
     5  C   -0.283608
     6  C   -0.101344
     7  C   -0.283608
     8  C   -0.171429
     9  C   -0.285106
    10  C   -0.000118
    11  C    0.331453
    12  N   -0.482929
    13  C   -0.271243
    14  H    0.154013
    15  H    0.159227
    16  H    0.166395
    17  H    0.152269
    18  H    0.145051
    19  H    0.138209
    20  H    0.152270
    21  H    0.145051
    22  H    0.154013
    23  H    0.166395
    24  H    0.159227
    25  H    0.153305
    26  H    0.153305
 Sum of Mulliken charges =  -0.00000
 Mulliken charges with hydrogens summed into heavy atoms:
               1
     1  O   -0.449843
     2  C    0.455581
     3  C   -0.017415
     4  C    0.040515
     5  C    0.013713
     6  C    0.036866
     7  C    0.013713
     8  C   -0.017416
     9  C    0.040516
    10  C   -0.000118
    11  C    0.331453
    12  N   -0.482929
    13  C    0.035366
 APT charges:
               1
     1  O   -0.630751
     2  C    0.697073
     3  C   -0.049352
     4  C    0.103663
     5  C    0.114814
     6  C    0.097207
     7  C    0.114813
     8  C   -0.049352
     9  C    0.103663
    10  C    0.109572
    11  C    0.078076
    12  N   -0.315241
    13  C    0.082925
    14  H   -0.042260
    15  H   -0.027000
    16  H   -0.020968
    17  H   -0.035745
    18  H   -0.041563
    19  H   -0.063233
    20  H   -0.035744
    21  H   -0.041563
    22  H   -0.042260
    23  H   -0.020968
    24  H   -0.027000
    25  H   -0.029404
    26  H   -0.029404
 Sum of APT charges =   0.00000
 APT charges with hydrogens summed into heavy atoms:
               1
     1  O   -0.630751
     2  C    0.697073
     3  C   -0.091612
     4  C    0.055695
     5  C    0.037506
     6  C    0.033973
     7  C    0.037506
     8  C   -0.091612
     9  C    0.055696
    10  C    0.109572
    11  C    0.078076
    12  N   -0.315241
    13  C    0.024117
 Electronic spatial extent (au):  <R**2>=           1948.7004
 Charge=             -0.0000 electrons
 Dipole moment (field-independent basis, Debye):
    X=              1.8851    Y=              3.0560    Z=              0.0000  Tot=              3.5906
 Quadrupole moment (field-independent basis, Debye-Ang):
   XX=           -102.6975   YY=            -77.7454   ZZ=            -71.7561
   XY=              2.9176   XZ=             -0.0000   YZ=              0.0000
 Traceless Quadrupole moment (field-independent basis, Debye-Ang):
   XX=            -18.6312   YY=              6.3209   ZZ=             12.3103
   XY=              2.9176   XZ=             -0.0000   YZ=              0.0000
 Octapole moment (field-independent basis, Debye-Ang**2):
  XXX=             78.7205  YYY=              3.3651  ZZZ=              0.0000  XYY=             -6.9968
  XXY=             35.1932  XXZ=              0.0000  XZZ=              3.4919  YZZ=             -2.0464
  YYZ=              0.0000  XYZ=              0.0000
 Hexadecapole moment (field-independent basis, Debye-Ang**3):
 XXXX=          -1835.0482 YYYY=           -639.7008 ZZZZ=           -507.1202 XXXY=            -31.1160
 XXXZ=             -0.0001 YYYX=              7.2289 YYYZ=             -0.0000 ZZZX=              0.0000
 ZZZY=              0.0000 XXYY=           -384.9113 XXZZ=           -314.9833 YYZZ=           -189.9103
 XXYZ=             -0.0000 YYXZ=             -0.0000 ZZXY=             -8.8429
 N-N= 8.232407084245D+02 E-N=-2.938539454051D+03  KE= 5.517424888476D+02
  Exact polarizability: 124.738   0.264 100.138   0.000   0.000  97.779
 Approx polarizability: 187.515  -4.158 151.394   0.000   0.000 144.336
 Calling FoFJK, ICntrl=    100127 FMM=F ISym2X=0 I1Cent= 0 IOpClX= 0 NMat=1 NMatS=1 NMatT=0.
 Full mass-weighted force constant matrix:
 Low frequencies ---  -10.9435   -3.5689   -0.0009   -0.0004   -0.0002    8.3314
 Low frequencies ---   89.6413  136.6933  152.9445
 Diagonal vibrational polarizability:
        5.3978625      23.5707669      13.1958986
 Harmonic frequencies (cm**-1), IR intensities (KM/Mole), Raman scattering
 activities (A**4/AMU), depolarization ratios for plane and unpolarized
 incident light, reduced masses (AMU), force constants (mDyne/A),
 and normal coordinates:
                      1                      2                      3
                      A                      A                      A
 Frequencies --     89.6400               136.6930               152.9409
 Red. masses --     10.9950                 5.6782                 5.5011
 Frc consts  --      0.0521                 0.0625                 0.0758
 IR Inten    --      6.5504                 6.4057                 2.8133
  Atom  AN      X      Y      Z        X      Y      Z        X      Y      Z
     1   8     0.46   0.46  -0.00     0.00   0.00   0.07    -0.07  -0.12   0.00
     2   6     0.07   0.01  -0.00    -0.00  -0.00   0.02     0.07   0.04   0.00
     3   6    -0.07  -0.14   0.00     0.08   0.03  -0.02     0.08   0.06   0.00
     4   6    -0.08  -0.10   0.02     0.07   0.05  -0.15     0.11  -0.11   0.00
     5   6    -0.03  -0.14  -0.01     0.13   0.02   0.05    -0.08   0.08   0.00
     6   6     0.02  -0.12   0.00     0.00  -0.00  -0.00    -0.14   0.02  -0.00
     7   6    -0.03  -0.14   0.01    -0.13  -0.02   0.05    -0.08   0.08  -0.00
     8   6    -0.07  -0.14  -0.00    -0.08  -0.03  -0.02     0.08   0.06  -0.00
     9   6    -0.08  -0.10  -0.02    -0.07  -0.05  -0.15     0.11  -0.11  -0.00
    10   6    -0.06  -0.05   0.00    -0.00   0.00  -0.17     0.06  -0.17  -0.00
    11   6    -0.09   0.10  -0.00    -0.00   0.00  -0.01     0.04  -0.06  -0.00
    12   7    -0.15   0.34  -0.00    -0.00  -0.00   0.46    -0.06   0.39   0.00
    13   6     0.01  -0.06   0.00     0.00   0.00  -0.15    -0.09  -0.15  -0.00
    14   1    -0.08  -0.15   0.00     0.14   0.04   0.01     0.13   0.11   0.00
    15   1    -0.06  -0.12   0.00     0.15   0.10  -0.17     0.07  -0.18  -0.00
    16   1    -0.11  -0.10   0.05     0.06   0.05  -0.22     0.25  -0.13   0.02
    17   1    -0.02  -0.18  -0.04     0.14  -0.01   0.18    -0.11   0.20  -0.01
    18   1    -0.04  -0.13  -0.00     0.25   0.07   0.01    -0.14   0.03   0.00
    19   1     0.06  -0.12  -0.00     0.00  -0.00   0.03    -0.25   0.03   0.00
    20   1    -0.02  -0.18   0.04    -0.14   0.01   0.18    -0.11   0.20   0.01
    21   1    -0.04  -0.13   0.00    -0.25  -0.07   0.01    -0.14   0.03  -0.00
    22   1    -0.08  -0.15  -0.00    -0.14  -0.04   0.01     0.13   0.11  -0.00
    23   1    -0.11  -0.10  -0.05    -0.06  -0.05  -0.22     0.25  -0.13  -0.02
    24   1    -0.06  -0.12  -0.00    -0.15  -0.10  -0.17     0.07  -0.18   0.00
    25   1     0.03  -0.04  -0.00    -0.08   0.01  -0.20    -0.14  -0.21  -0.00
    26   1     0.03  -0.04   0.00     0.08  -0.01  -0.20    -0.14  -0.21   0.00
                      4                      5                      6
                      A                      A                      A
 Frequencies --    274.8975               285.0773               350.0858
 Red. masses --      2.4066                 2.2601                 2.3633
 Frc consts  --      0.1072                 0.1082                 0.1707
 IR Inten    --      1.3158                 0.2742                 0.3388
  Atom  AN      X      Y      Z        X      Y      Z        X      Y      Z
     1   8    -0.00   0.00   0.16    -0.00  -0.00  -0.01     0.01  -0.03   0.00
     2   6    -0.00   0.00   0.06    -0.00   0.00  -0.00     0.04   0.01  -0.00
     3   6     0.02  -0.03   0.00    -0.06  -0.07   0.00    -0.01  -0.03   0.01
     4   6    -0.01   0.09  -0.08    -0.10   0.10  -0.03     0.01  -0.08   0.08
     5   6    -0.08  -0.01  -0.08     0.10  -0.09   0.03    -0.12  -0.01  -0.07
     6   6     0.00   0.00  -0.03     0.00  -0.00  -0.05     0.02   0.03  -0.00
     7   6     0.08   0.01  -0.08    -0.10   0.09   0.03    -0.12  -0.01   0.07
     8   6    -0.02   0.03   0.00     0.06   0.07   0.00    -0.01  -0.03  -0.01
     9   6     0.01  -0.09  -0.08     0.10  -0.10  -0.03     0.01  -0.08  -0.08
    10   6    -0.00  -0.00  -0.03     0.00   0.00   0.06     0.03   0.10  -0.00
    11   6    -0.00   0.00  -0.04     0.00   0.00   0.09     0.05   0.13  -0.00
    12   7    -0.00  -0.00   0.02     0.00  -0.00  -0.06     0.09  -0.03   0.00
    13   6     0.00   0.00   0.16     0.00   0.00  -0.00     0.03   0.10   0.00
    14   1     0.04  -0.05   0.02    -0.10  -0.11   0.00    -0.02  -0.02  -0.00
    15   1     0.08   0.25  -0.06    -0.06   0.31   0.04    -0.01  -0.28  -0.00
    16   1    -0.13   0.11  -0.22    -0.23   0.12  -0.21     0.04  -0.09   0.31
    17   1    -0.11   0.10  -0.20     0.14  -0.21   0.20    -0.15   0.08  -0.29
    18   1    -0.22  -0.11  -0.06     0.30  -0.03  -0.04    -0.34  -0.08   0.01
    19   1    -0.00  -0.00  -0.06    -0.00  -0.00  -0.13     0.11   0.02  -0.00
    20   1     0.11  -0.10  -0.20    -0.14   0.21   0.20    -0.15   0.08   0.29
    21   1     0.22   0.11  -0.06    -0.30   0.03  -0.04    -0.34  -0.08  -0.01
    22   1    -0.04   0.05   0.02     0.10   0.11   0.00    -0.02  -0.02   0.00
    23   1     0.13  -0.11  -0.22     0.23  -0.12  -0.21     0.04  -0.09  -0.31
    24   1    -0.08  -0.25  -0.06     0.06  -0.31   0.04    -0.01  -0.28   0.00
    25   1     0.17  -0.15   0.33     0.05   0.06  -0.00     0.03   0.10   0.00
    26   1    -0.17   0.15   0.33    -0.05  -0.06  -0.00     0.03   0.10  -0.00
                      7                      8                      9
                      A                      A                      A
 Frequencies --    367.3761               389.5180               403.6753
 Red. masses --      6.2008                 5.0640                 2.9990
 Frc consts  --      0.4931                 0.4527                 0.2879
 IR Inten    --      1.5377                 0.0722                 0.3779
  Atom  AN      X      Y      Z        X      Y      Z        X      Y      Z
     1   8     0.23  -0.20   0.00     0.00   0.00   0.05     0.00   0.02   0.00
     2   6     0.23  -0.18   0.00    -0.00  -0.00   0.00    -0.06  -0.05  -0.00
     3   6     0.11  -0.06   0.09     0.12   0.15  -0.01    -0.02  -0.06  -0.03
     4   6     0.04   0.12   0.05     0.09   0.15   0.14    -0.01   0.10  -0.10
     5   6    -0.05  -0.03   0.10     0.11   0.14  -0.17    -0.10  -0.05  -0.03
     6   6    -0.19   0.03   0.00    -0.00  -0.00  -0.17    -0.06  -0.04   0.00
     7   6    -0.05  -0.03  -0.10    -0.11  -0.14  -0.17    -0.10  -0.05   0.03
     8   6     0.11  -0.06  -0.09    -0.12  -0.15  -0.01    -0.02  -0.06   0.03
     9   6     0.04   0.12  -0.05    -0.09  -0.15   0.14    -0.01   0.10   0.10
    10   6    -0.09   0.14  -0.00     0.00   0.00   0.18     0.10  -0.01  -0.00
    11   6    -0.09   0.03  -0.00     0.00  -0.00   0.11     0.19  -0.04  -0.00
    12   7    -0.09  -0.02   0.00     0.00   0.00  -0.03     0.18   0.07   0.00
    13   6    -0.21   0.14   0.00    -0.00  -0.00  -0.05    -0.04  -0.01   0.00
    14   1     0.00   0.04  -0.03     0.02   0.04  -0.01     0.03  -0.05  -0.01
    15   1     0.21   0.21   0.01     0.02   0.21   0.20     0.02   0.38   0.01
    16   1    -0.13   0.14   0.00     0.14   0.15   0.02    -0.20   0.13  -0.34
    17   1    -0.09   0.13   0.20     0.09   0.21  -0.11    -0.13   0.04  -0.12
    18   1    -0.00  -0.16   0.01     0.12   0.06  -0.21    -0.21  -0.10   0.00
    19   1    -0.10   0.02  -0.00    -0.00  -0.00  -0.01    -0.01  -0.05   0.00
    20   1    -0.09   0.13  -0.20    -0.09  -0.21  -0.11    -0.13   0.04   0.12
    21   1    -0.00  -0.16  -0.01    -0.12  -0.06  -0.21    -0.21  -0.10  -0.00
    22   1     0.00   0.04   0.03    -0.02  -0.04  -0.01     0.03  -0.05   0.01
    23   1    -0.13   0.14  -0.00    -0.14  -0.15   0.02    -0.20   0.13   0.34
    24   1     0.21   0.21  -0.01    -0.02  -0.21   0.20     0.02   0.38  -0.01
    25   1    -0.21   0.14   0.00     0.08   0.20  -0.11    -0.06  -0.04   0.00
    26   1    -0.21   0.14  -0.00    -0.08  -0.20  -0.11    -0.06  -0.04  -0.00
                     10                     11                     12
                      A                      A                      A
 Frequencies --    427.3890               460.0712               464.6026
 Red. masses --      1.9988                 4.2691                 2.4899
 Frc consts  --      0.2151                 0.5324                 0.3167
 IR Inten    --      0.0110                10.1813                 0.4907
  Atom  AN      X      Y      Z        X      Y      Z        X      Y      Z
     1   8    -0.00  -0.00  -0.07     0.00  -0.00   0.30    -0.01   0.04   0.00
     2   6     0.00   0.00  -0.03     0.00   0.00  -0.18    -0.08  -0.04  -0.00
     3   6     0.04  -0.02  -0.02    -0.02   0.01  -0.22    -0.06  -0.02   0.02
     4   6     0.06  -0.04   0.04    -0.05  -0.06  -0.02    -0.02  -0.06   0.04
     5   6     0.09  -0.04  -0.01     0.03   0.05   0.02     0.02  -0.01   0.12
     6   6     0.00  -0.00  -0.07     0.00  -0.00   0.06    -0.12   0.06   0.00
     7   6    -0.09   0.04  -0.01    -0.03  -0.05   0.02     0.02  -0.01  -0.12
     8   6    -0.04   0.02  -0.02     0.02  -0.01  -0.22    -0.06  -0.02  -0.02
     9   6    -0.06   0.04   0.04     0.05   0.06  -0.02    -0.02  -0.06  -0.04
    10   6    -0.00  -0.00  -0.01    -0.00  -0.00   0.02     0.05   0.04  -0.00
    11   6    -0.00  -0.00  -0.09    -0.00  -0.00   0.12     0.13   0.05   0.00
    12   7    -0.00  -0.00   0.03    -0.00  -0.00  -0.04     0.15   0.03  -0.00
    13   6     0.00  -0.00   0.17     0.00  -0.00   0.04    -0.08   0.04   0.00
    14   1     0.04  -0.05  -0.01    -0.11   0.13  -0.34    -0.03   0.04   0.01
    15   1     0.03  -0.16  -0.00    -0.20  -0.22  -0.01    -0.07  -0.20   0.00
    16   1     0.11  -0.05   0.15     0.04  -0.08   0.13     0.02  -0.07   0.20
    17   1     0.10  -0.09   0.14     0.06  -0.02   0.15     0.06  -0.14   0.42
    18   1     0.24  -0.01  -0.08     0.15   0.23   0.05     0.34   0.05  -0.01
    19   1     0.00  -0.00  -0.11     0.00  -0.00   0.08    -0.08   0.05   0.00
    20   1    -0.10   0.09   0.14    -0.06   0.02   0.15     0.06  -0.14  -0.42
    21   1    -0.24   0.01  -0.08    -0.15  -0.23   0.05     0.34   0.05   0.01
    22   1    -0.04   0.05  -0.01     0.11  -0.13  -0.34    -0.03   0.04  -0.01
    23   1    -0.11   0.05   0.15    -0.04   0.08   0.13     0.02  -0.07  -0.20
    24   1    -0.03   0.16  -0.00     0.20   0.22  -0.01    -0.07  -0.20  -0.00
    25   1     0.26  -0.19   0.41     0.02  -0.04   0.07    -0.12  -0.01   0.00
    26   1    -0.26   0.19   0.41    -0.02   0.04   0.07    -0.12  -0.01  -0.00
                     13                     14                     15
                      A                      A                      A
 Frequencies --    549.0022               555.3226               618.1753
 Red. masses --      6.0035                 5.1876                 5.6995
 Frc consts  --      1.0661                 0.9426                 1.2833
 IR Inten    --      0.0256                 1.2228                 0.1802
  Atom  AN      X      Y      Z        X      Y      Z        X      Y      Z
     1   8     0.04  -0.03   0.00     0.00  -0.00  -0.07     0.18  -0.11   0.00
     2   6     0.03  -0.03  -0.00     0.00  -0.00   0.09     0.03  -0.24  -0.00
     3   6     0.02   0.01  -0.01     0.06   0.03   0.06    -0.13   0.02   0.05
     4   6    -0.01  -0.05  -0.11     0.03  -0.09  -0.15    -0.13  -0.07  -0.03
     5   6    -0.02   0.05   0.04     0.03   0.03  -0.02    -0.03   0.15   0.06
     6   6    -0.08  -0.01   0.00    -0.00   0.00  -0.04     0.12   0.31   0.00
     7   6    -0.02   0.05  -0.04    -0.03  -0.03  -0.02    -0.03   0.15  -0.06
     8   6     0.02   0.01   0.01    -0.06  -0.03   0.06    -0.13   0.02  -0.05
     9   6    -0.01  -0.05   0.11    -0.03   0.09  -0.15    -0.13  -0.07   0.03
    10   6     0.03  -0.12   0.00    -0.00  -0.00  -0.12     0.02  -0.11   0.00
    11   6    -0.11   0.54  -0.00    -0.00   0.00   0.49     0.04  -0.13   0.00
    12   7     0.05  -0.14   0.00     0.00  -0.00  -0.13     0.01   0.03  -0.00
    13   6     0.06  -0.22   0.00     0.00  -0.00   0.02     0.17  -0.01  -0.00
    14   1     0.08   0.09  -0.02     0.21   0.01   0.16    -0.18   0.24  -0.09
    15   1     0.02   0.16  -0.03     0.11  -0.20  -0.24    -0.16   0.06   0.05
    16   1    -0.03  -0.04  -0.33     0.13  -0.10  -0.05    -0.13  -0.07  -0.17
    17   1    -0.03   0.08   0.11     0.02   0.06  -0.00    -0.00   0.02  -0.15
    18   1     0.02   0.05   0.02     0.03  -0.02  -0.04    -0.11   0.08   0.06
    19   1    -0.25   0.01   0.00    -0.00   0.00   0.02    -0.00   0.33  -0.00
    20   1    -0.03   0.08  -0.11    -0.02  -0.06  -0.00    -0.00   0.02   0.15
    21   1     0.02   0.05  -0.02    -0.03   0.02  -0.04    -0.11   0.08  -0.06
    22   1     0.08   0.09   0.02    -0.21  -0.01   0.16    -0.18   0.24   0.09
    23   1    -0.03  -0.04   0.33    -0.13   0.10  -0.05    -0.13  -0.07   0.17
    24   1     0.02   0.16   0.03    -0.11   0.20  -0.24    -0.16   0.06  -0.05
    25   1    -0.00  -0.27  -0.01     0.15  -0.19   0.20     0.12  -0.06  -0.01
    26   1    -0.00  -0.27   0.01    -0.15   0.19   0.20     0.12  -0.06   0.01
                     16                     17                     18
                      A                      A                      A
 Frequencies --    639.2943               692.5261               713.6905
 Red. masses --      3.7242                 4.1829                 4.0282
 Frc consts  --      0.8968                 1.1820                 1.2089
 IR Inten    --      1.1379                 0.6969                 2.2342
  Atom  AN      X      Y      Z        X      Y      Z        X      Y      Z
     1   8    -0.00  -0.00  -0.05    -0.05   0.09  -0.00     0.08  -0.07   0.00
     2   6     0.00   0.00  -0.14    -0.16  -0.06  -0.00     0.08  -0.05   0.00
     3   6     0.17  -0.12  -0.10     0.07  -0.06   0.02     0.01  -0.00  -0.25
     4   6     0.14   0.03   0.03     0.12  -0.10  -0.17    -0.06  -0.05  -0.14
     5   6    -0.03  -0.13   0.07    -0.04  -0.03   0.07     0.04   0.05  -0.13
     6   6    -0.00  -0.00   0.08     0.02   0.17   0.00    -0.04  -0.03  -0.00
     7   6     0.03   0.13   0.07    -0.04  -0.03  -0.07     0.04   0.05   0.13
     8   6    -0.17   0.12  -0.10     0.07  -0.06  -0.02     0.01  -0.00   0.25
     9   6    -0.14  -0.03   0.03     0.12  -0.10   0.17    -0.06  -0.05   0.14
    10   6    -0.00   0.00   0.08     0.04  -0.01   0.00    -0.01   0.05  -0.00
    11   6    -0.00   0.00   0.11    -0.09  -0.00   0.00     0.00  -0.00  -0.00
    12   7     0.00  -0.00  -0.02    -0.11  -0.03  -0.00     0.00   0.00   0.00
    13   6    -0.00  -0.00   0.02     0.01   0.22  -0.00    -0.11   0.12  -0.00
    14   1     0.13  -0.04  -0.17     0.33   0.04   0.11     0.05  -0.02  -0.23
    15   1     0.20   0.20   0.08     0.18  -0.04  -0.18    -0.25  -0.24  -0.13
    16   1    -0.00   0.05  -0.12     0.09  -0.10  -0.22     0.01  -0.07   0.06
    17   1    -0.08   0.07  -0.10    -0.05  -0.01   0.03     0.06   0.00   0.08
    18   1    -0.24  -0.20   0.15    -0.05  -0.15   0.02     0.20   0.28  -0.10
    19   1    -0.00  -0.00  -0.18     0.26   0.14  -0.00     0.04  -0.04   0.00
    20   1     0.08  -0.07  -0.10    -0.05  -0.01  -0.03     0.06   0.00  -0.08
    21   1     0.24   0.20   0.15    -0.05  -0.15  -0.02     0.20   0.28   0.10
    22   1    -0.13   0.04  -0.17     0.33   0.04  -0.11     0.05  -0.02   0.23
    23   1     0.00  -0.05  -0.12     0.09  -0.10   0.22     0.01  -0.07  -0.06
    24   1    -0.20  -0.20   0.08     0.18  -0.04   0.18    -0.25  -0.24   0.13
    25   1    -0.17   0.15  -0.15    -0.02   0.19   0.00    -0.10   0.12   0.00
    26   1     0.17  -0.15  -0.15    -0.02   0.19  -0.00    -0.10   0.12  -0.00
                     19                     20                     21
                      A                      A                      A
 Frequencies --    786.5343               801.7626               856.1340
 Red. masses --      3.7960                 2.8833                 2.6731
 Frc consts  --      1.3836                 1.0920                 1.1544
 IR Inten    --      0.2646                 0.6230                 0.8967
  Atom  AN      X      Y      Z        X      Y      Z        X      Y      Z
     1   8    -0.04  -0.07   0.00    -0.03   0.00  -0.00     0.00  -0.00  -0.04
     2   6     0.27   0.30  -0.00     0.03   0.08   0.00     0.00   0.00   0.05
     3   6    -0.03   0.01   0.02     0.01  -0.08   0.06     0.08  -0.13  -0.02
     4   6    -0.07  -0.08  -0.04    -0.02  -0.04   0.04    -0.08  -0.09  -0.01
     5   6    -0.08  -0.07   0.06     0.09   0.01  -0.15     0.09   0.12  -0.06
     6   6     0.02  -0.00  -0.00    -0.01   0.22   0.00     0.00   0.00   0.10
     7   6    -0.08  -0.07  -0.06     0.09   0.01   0.15    -0.09  -0.12  -0.06
     8   6    -0.03   0.01  -0.02     0.01  -0.08  -0.06    -0.08   0.13  -0.02
     9   6    -0.07  -0.08   0.04    -0.02  -0.04  -0.04     0.08   0.09  -0.01
    10   6    -0.01  -0.04   0.00    -0.00  -0.06   0.00     0.00  -0.00   0.05
    11   6     0.02  -0.03   0.00     0.01   0.04  -0.00    -0.00   0.00  -0.04
    12   7     0.01   0.01   0.00     0.02  -0.00   0.00    -0.00  -0.00   0.01
    13   6     0.07   0.11  -0.00    -0.15   0.01   0.00     0.00   0.00   0.04
    14   1     0.00   0.10  -0.01    -0.02  -0.25   0.13     0.17  -0.29   0.11
    15   1     0.06   0.19   0.02     0.10   0.15   0.06    -0.06   0.11   0.08
    16   1    -0.21  -0.06  -0.27    -0.15  -0.02  -0.14    -0.31  -0.06  -0.11
    17   1    -0.04  -0.25   0.24     0.11  -0.09  -0.17     0.07   0.22  -0.12
    18   1     0.14   0.10   0.04     0.15  -0.13  -0.25    -0.03   0.12   0.00
    19   1     0.24  -0.03  -0.00    -0.05   0.22   0.00     0.00   0.00   0.39
    20   1    -0.04  -0.25  -0.24     0.11  -0.09   0.17    -0.07  -0.22  -0.12
    21   1     0.14   0.10  -0.04     0.15  -0.13   0.25     0.03  -0.12   0.00
    22   1     0.00   0.10   0.01    -0.02  -0.25  -0.13    -0.17   0.29   0.11
    23   1    -0.21  -0.06   0.27    -0.15  -0.02   0.14     0.31   0.06  -0.11
    24   1     0.06   0.19  -0.02     0.10   0.15  -0.06     0.06  -0.11   0.08
    25   1     0.09   0.12   0.00    -0.26  -0.11  -0.00    -0.09   0.03  -0.02
    26   1     0.09   0.12  -0.00    -0.26  -0.11   0.00     0.09  -0.03  -0.02
                     22                     23                     24
                      A                      A                      A
 Frequencies --    897.7744               904.8944               905.8076
 Red. masses --      1.5985                 1.5774                 2.9471
 Frc consts  --      0.7591                 0.7610                 1.4247
 IR Inten    --      2.5224                 0.8803                 6.1270
  Atom  AN      X      Y      Z        X      Y      Z        X      Y      Z
     1   8    -0.00   0.00  -0.01     0.00  -0.00  -0.01     0.02  -0.01   0.00
     2   6     0.00   0.00   0.06    -0.00  -0.00   0.03     0.00  -0.04  -0.00
     3   6    -0.00   0.01  -0.02     0.01  -0.00  -0.01    -0.09   0.02  -0.10
     4   6     0.04  -0.01  -0.05    -0.04   0.10  -0.04     0.14   0.07   0.08
     5   6    -0.08  -0.00  -0.06     0.08  -0.04  -0.02    -0.09  -0.07  -0.05
     6   6     0.00  -0.00   0.01    -0.00   0.00   0.05    -0.01   0.11  -0.00
     7   6     0.08   0.00  -0.06    -0.08   0.04  -0.02    -0.09  -0.07   0.05
     8   6     0.00  -0.01  -0.02    -0.01   0.00  -0.01    -0.09   0.02   0.10
     9   6    -0.04   0.01  -0.05     0.04  -0.10  -0.04     0.14   0.07  -0.08
    10   6    -0.00   0.00   0.06     0.00  -0.00  -0.02     0.14  -0.05   0.00
    11   6     0.00  -0.00  -0.01    -0.00   0.00  -0.00    -0.06   0.02  -0.00
    12   7     0.00   0.00   0.00    -0.00  -0.00  -0.00    -0.08  -0.02   0.00
    13   6    -0.00   0.00   0.14     0.00  -0.00   0.07     0.05  -0.01  -0.00
    14   1     0.12  -0.02   0.07    -0.02  -0.13   0.04    -0.23   0.07  -0.20
    15   1     0.00  -0.04  -0.04    -0.16  -0.32  -0.17     0.05   0.11   0.14
    16   1     0.03  -0.01   0.00     0.16   0.06   0.35     0.19   0.06  -0.02
    17   1    -0.03  -0.15   0.30     0.04   0.09  -0.21    -0.02  -0.36   0.14
    18   1     0.28   0.13  -0.17    -0.15  -0.11   0.06     0.20   0.07  -0.13
    19   1    -0.00  -0.00  -0.02     0.00   0.00   0.00     0.14   0.09  -0.00
    20   1     0.03   0.15   0.30    -0.04  -0.09  -0.21    -0.02  -0.36  -0.14
    21   1    -0.28  -0.13  -0.17     0.15   0.11   0.06     0.20   0.07   0.13
    22   1    -0.12   0.02   0.07     0.02   0.13   0.04    -0.23   0.07   0.20
    23   1    -0.03   0.01   0.00    -0.16  -0.06   0.35     0.19   0.06   0.02
    24   1    -0.00   0.04  -0.04     0.16   0.32  -0.17     0.05   0.11  -0.14
    25   1    -0.33   0.28  -0.18    -0.16   0.15  -0.09    -0.05  -0.11  -0.00
    26   1     0.33  -0.28  -0.18     0.16  -0.15  -0.09    -0.05  -0.11   0.00
                     25                     26                     27
                      A                      A                      A
 Frequencies --    915.3136               951.0675               979.9649
 Red. masses --      2.6805                 2.2475                 2.3631
 Frc consts  --      1.3232                 1.1978                 1.3371
 IR Inten    --      1.7788                 0.6240                 1.5825
  Atom  AN      X      Y      Z        X      Y      Z        X      Y      Z
     1   8    -0.04   0.03  -0.00    -0.00  -0.00  -0.01    -0.00   0.02  -0.00
     2   6    -0.02   0.03  -0.00    -0.00   0.00   0.03    -0.06  -0.06   0.00
     3   6     0.07  -0.13  -0.06     0.10   0.07  -0.01    -0.00  -0.01  -0.02
     4   6    -0.02  -0.01   0.06    -0.11  -0.05  -0.06     0.03  -0.07   0.11
     5   6    -0.04   0.08  -0.01    -0.01  -0.03   0.07     0.01   0.08   0.00
     6   6    -0.11   0.04   0.00    -0.00  -0.00  -0.12     0.03  -0.13  -0.00
     7   6    -0.04   0.08   0.01     0.01   0.03   0.07     0.01   0.08  -0.00
     8   6     0.07  -0.13   0.06    -0.10  -0.07  -0.01    -0.00  -0.01   0.02
     9   6    -0.02  -0.01  -0.06     0.11   0.05  -0.06     0.03  -0.07  -0.11
    10   6     0.08   0.09  -0.00    -0.00   0.00   0.13    -0.01  -0.14   0.00
    11   6    -0.03  -0.05   0.00     0.00  -0.00  -0.05     0.00   0.04  -0.00
    12   7    -0.06  -0.00  -0.00     0.00   0.00   0.01     0.02  -0.01   0.00
    13   6     0.18  -0.04  -0.00     0.00  -0.00   0.00    -0.07   0.15  -0.00
    14   1     0.15  -0.23   0.03     0.34   0.24   0.04    -0.13  -0.08  -0.05
    15   1     0.01   0.12   0.11    -0.29  -0.05   0.04     0.07   0.27   0.24
    16   1    -0.34   0.03   0.08    -0.09  -0.05  -0.01    -0.05  -0.05  -0.28
    17   1    -0.06   0.17   0.24    -0.06   0.15   0.05    -0.01   0.16   0.06
    18   1     0.11   0.14  -0.05    -0.08  -0.11   0.07    -0.05   0.26   0.12
    19   1    -0.28   0.06   0.00    -0.00  -0.00  -0.36     0.26  -0.15  -0.00
    20   1    -0.06   0.17  -0.24     0.06  -0.15   0.05    -0.01   0.16  -0.06
    21   1     0.11   0.14   0.05     0.08   0.11   0.07    -0.05   0.26  -0.12
    22   1     0.15  -0.23  -0.03    -0.34  -0.24   0.04    -0.13  -0.08   0.05
    23   1    -0.34   0.03  -0.08     0.09   0.05  -0.01    -0.05  -0.05   0.28
    24   1     0.01   0.12  -0.11     0.29   0.05   0.04     0.07   0.27  -0.24
    25   1     0.20  -0.01  -0.00     0.15   0.17   0.00    -0.02   0.17   0.01
    26   1     0.20  -0.01   0.00    -0.15  -0.17   0.00    -0.02   0.17  -0.01
                     28                     29                     30
                      A                      A                      A
 Frequencies --    985.0971              1018.7776              1046.2806
 Red. masses --      2.3806                 2.0708                 2.2569
 Frc consts  --      1.3611                 1.2663                 1.4557
 IR Inten    --      1.0577                 2.7675                 0.0308
  Atom  AN      X      Y      Z        X      Y      Z        X      Y      Z
     1   8    -0.03   0.02  -0.00    -0.00  -0.00  -0.02    -0.01  -0.01   0.00
     2   6     0.02   0.04   0.00     0.00   0.00   0.02     0.04   0.04  -0.00
     3   6     0.07  -0.03  -0.11     0.07  -0.08  -0.02    -0.09  -0.09  -0.00
     4   6    -0.05   0.02   0.05    -0.04   0.10   0.05     0.08  -0.00  -0.04
     5   6     0.03  -0.04   0.12    -0.10   0.05   0.03    -0.01   0.08   0.05
     6   6     0.10   0.09  -0.00     0.00  -0.00  -0.05     0.11  -0.01   0.00
     7   6     0.03  -0.04  -0.12     0.10  -0.05   0.03    -0.01   0.08  -0.05
     8   6     0.07  -0.03   0.11    -0.07   0.08  -0.02    -0.09  -0.09   0.00
     9   6    -0.05   0.02  -0.05     0.04  -0.10   0.05     0.08  -0.00   0.04
    10   6     0.09  -0.02   0.00    -0.00   0.00  -0.10    -0.03   0.12   0.00
    11   6    -0.02   0.01  -0.00     0.00  -0.00   0.02     0.00  -0.01   0.00
    12   7    -0.03  -0.01   0.00     0.00   0.00  -0.01    -0.00   0.00  -0.00
    13   6    -0.10  -0.04   0.00    -0.00  -0.00  -0.07    -0.08  -0.09   0.00
    14   1     0.11   0.08  -0.14     0.05  -0.17   0.02    -0.14  -0.15  -0.00
    15   1    -0.25   0.03   0.16    -0.02  -0.12  -0.06     0.35  -0.03  -0.20
    16   1    -0.14   0.03   0.11    -0.14   0.11   0.32    -0.09   0.02   0.05
    17   1    -0.01   0.08  -0.15    -0.12   0.19   0.37     0.03  -0.10  -0.06
    18   1    -0.21  -0.06   0.23     0.12   0.14  -0.03    -0.09   0.36   0.22
    19   1     0.32   0.07  -0.00    -0.00  -0.00  -0.17     0.05  -0.00   0.00
    20   1    -0.01   0.08   0.15     0.12  -0.19   0.37     0.03  -0.10   0.06
    21   1    -0.21  -0.06  -0.23    -0.12  -0.14  -0.03    -0.09   0.36  -0.22
    22   1     0.11   0.08   0.14    -0.05   0.17   0.02    -0.14  -0.15   0.00
    23   1    -0.14   0.03  -0.11     0.14  -0.11   0.32    -0.09   0.02  -0.05
    24   1    -0.25   0.03  -0.16     0.02   0.12  -0.06     0.35  -0.03   0.20
    25   1    -0.24  -0.20   0.00     0.08  -0.14   0.04    -0.10  -0.11  -0.00
    26   1    -0.24  -0.20  -0.00    -0.08   0.14   0.04    -0.10  -0.11   0.00
                     31                     32                     33
                      A                      A                      A
 Frequencies --   1066.5304              1078.3592              1091.8432
 Red. masses --      2.0131                 1.8981                 1.7909
 Frc consts  --      1.3491                 1.3005                 1.2579
 IR Inten    --      7.9174                24.4679                 1.2566
  Atom  AN      X      Y      Z        X      Y      Z        X      Y      Z
     1   8     0.00   0.00  -0.01     0.00  -0.00  -0.02     0.02   0.00  -0.00
     2   6    -0.00  -0.00   0.09     0.00   0.00   0.14    -0.06  -0.07   0.00
     3   6    -0.09  -0.07  -0.04     0.03   0.05  -0.08     0.05   0.07   0.04
     4   6     0.09   0.02  -0.06     0.00   0.02   0.02    -0.02  -0.05   0.02
     5   6    -0.01   0.05   0.04    -0.02  -0.08  -0.05    -0.06   0.01  -0.06
     6   6     0.00   0.00  -0.05    -0.00   0.00   0.12     0.09  -0.04   0.00
     7   6     0.01  -0.05   0.04     0.02   0.08  -0.05    -0.06   0.01   0.06
     8   6     0.09   0.07  -0.04    -0.03  -0.05  -0.08     0.05   0.07  -0.04
     9   6    -0.09  -0.02  -0.06    -0.00  -0.02   0.02    -0.02  -0.05  -0.02
    10   6    -0.00   0.00   0.13     0.00  -0.00   0.00     0.02   0.09  -0.00
    11   6    -0.00   0.00  -0.01    -0.00   0.00   0.00    -0.00  -0.01   0.00
    12   7    -0.00  -0.00   0.00    -0.00  -0.00  -0.00    -0.01   0.00  -0.00
    13   6    -0.00  -0.00  -0.05     0.00   0.00  -0.09    -0.05  -0.06   0.00
    14   1    -0.03  -0.23   0.07     0.22  -0.08   0.10     0.32   0.27   0.09
    15   1    -0.04  -0.06  -0.03    -0.31   0.06   0.20     0.07   0.10   0.04
    16   1     0.21  -0.00  -0.03     0.09   0.01  -0.04    -0.30  -0.01   0.03
    17   1    -0.01   0.03  -0.03     0.03  -0.27  -0.06     0.01  -0.26   0.07
    18   1    -0.13   0.32   0.23     0.02   0.21   0.06     0.15   0.16  -0.09
    19   1     0.00   0.00  -0.14     0.00   0.00   0.09     0.21  -0.06  -0.00
    20   1     0.01  -0.03  -0.03    -0.03   0.27  -0.06     0.01  -0.26  -0.07
    21   1     0.13  -0.32   0.23    -0.02  -0.21   0.06     0.15   0.16   0.09
    22   1     0.03   0.23   0.07    -0.22   0.08   0.10     0.32   0.27  -0.09
    23   1    -0.21   0.00  -0.03    -0.09  -0.01  -0.04    -0.30  -0.01  -0.03
    24   1     0.04   0.06  -0.03     0.31  -0.06   0.20     0.07   0.10  -0.04
    25   1     0.34   0.20   0.05     0.02  -0.32   0.08    -0.10  -0.12  -0.00
    26   1    -0.34  -0.20   0.05    -0.02   0.32   0.08    -0.10  -0.12   0.00
                     34                     35                     36
                      A                      A                      A
 Frequencies --   1116.1544              1135.2819              1145.1778
 Red. masses --      1.5760                 1.2735                 4.6611
 Frc consts  --      1.1568                 0.9671                 3.6015
 IR Inten    --      0.0236                 0.0670                 2.0890
  Atom  AN      X      Y      Z        X      Y      Z        X      Y      Z
     1   8     0.02  -0.02  -0.00     0.00   0.00   0.00     0.01  -0.02   0.00
     2   6     0.01   0.01   0.00    -0.00  -0.00  -0.04     0.04   0.03  -0.00
     3   6    -0.01  -0.02   0.07     0.01  -0.04   0.02    -0.12   0.04   0.07
     4   6    -0.03   0.06  -0.04     0.01   0.03  -0.03     0.01  -0.08  -0.04
     5   6    -0.04   0.03  -0.02    -0.03   0.01  -0.01     0.11   0.02  -0.00
     6   6     0.04  -0.03  -0.00     0.00   0.00   0.04    -0.11  -0.14   0.00
     7   6    -0.04   0.03   0.02     0.03  -0.01  -0.01     0.11   0.02   0.00
     8   6    -0.01  -0.02  -0.07    -0.01   0.04   0.02    -0.12   0.04  -0.07
     9   6    -0.03   0.06   0.04    -0.01  -0.03  -0.03     0.01  -0.08   0.04
    10   6     0.11  -0.07  -0.00    -0.00   0.00   0.08     0.41   0.13   0.00
    11   6    -0.02   0.01   0.00     0.00  -0.00  -0.01    -0.06  -0.01   0.00
    12   7    -0.03  -0.01  -0.00     0.00   0.00   0.00    -0.12  -0.03  -0.00
    13   6    -0.00   0.02   0.00    -0.00  -0.00  -0.07    -0.04   0.07  -0.00
    14   1     0.08  -0.28   0.26     0.14   0.17  -0.02    -0.06   0.18   0.04
    15   1    -0.22  -0.13  -0.02     0.03  -0.09  -0.10    -0.13   0.10   0.11
    16   1     0.16   0.03   0.13    -0.06   0.04   0.16    -0.23  -0.04  -0.00
    17   1    -0.05   0.11   0.19     0.02  -0.24  -0.05     0.10   0.06  -0.25
    18   1     0.06   0.15  -0.01     0.09  -0.18  -0.15    -0.14  -0.17   0.04
    19   1     0.46  -0.08  -0.00     0.00   0.00   0.61    -0.37  -0.11   0.00
    20   1    -0.05   0.11  -0.19    -0.02   0.24  -0.05     0.10   0.06   0.25
    21   1     0.06   0.15   0.01    -0.09   0.18  -0.15    -0.14  -0.17  -0.04
    22   1     0.08  -0.28  -0.26    -0.14  -0.17  -0.02    -0.06   0.18  -0.04
    23   1     0.16   0.03  -0.13     0.06  -0.04   0.16    -0.23  -0.04   0.00
    24   1    -0.22  -0.13   0.02    -0.03   0.09  -0.10    -0.13   0.10  -0.11
    25   1    -0.11  -0.12   0.01     0.27   0.09   0.04    -0.07  -0.00   0.02
    26   1    -0.11  -0.12  -0.01    -0.27  -0.09   0.04    -0.07  -0.00  -0.02
                     37                     38                     39
                      A                      A                      A
 Frequencies --   1161.7072              1211.3577              1240.0013
 Red. masses --      1.0890                 1.1329                 1.9419
 Frc consts  --      0.8659                 0.9794                 1.7592
 IR Inten    --      0.0109                 0.1626                 8.0685
  Atom  AN      X      Y      Z        X      Y      Z        X      Y      Z
     1   8     0.00  -0.00   0.00    -0.01   0.01  -0.00    -0.00   0.00  -0.03
     2   6     0.00   0.00  -0.01    -0.01  -0.01   0.00     0.00   0.00   0.18
     3   6    -0.02  -0.03   0.01     0.01   0.02   0.00    -0.04  -0.06  -0.05
     4   6     0.01   0.01  -0.02    -0.02  -0.03  -0.01     0.06   0.00   0.02
     5   6    -0.01   0.01   0.01     0.01  -0.01  -0.02     0.02   0.03   0.04
     6   6    -0.00  -0.00   0.01    -0.01   0.00  -0.00     0.00  -0.00  -0.10
     7   6     0.01  -0.01   0.01     0.01  -0.01   0.02    -0.02  -0.03   0.04
     8   6     0.02   0.03   0.01     0.01   0.02  -0.00     0.04   0.06  -0.05
     9   6    -0.01  -0.01  -0.02    -0.02  -0.03   0.01    -0.06  -0.00   0.02
    10   6     0.00  -0.00   0.05     0.00   0.07  -0.00     0.00  -0.00  -0.11
    11   6    -0.00   0.00  -0.01     0.00  -0.01   0.00    -0.00   0.00   0.02
    12   7    -0.00  -0.00   0.00    -0.00   0.00  -0.00     0.00  -0.00  -0.00
    13   6     0.00   0.00  -0.03     0.04  -0.02   0.00    -0.00   0.00   0.05
    14   1    -0.08  -0.09   0.00    -0.27   0.04  -0.17    -0.02   0.40  -0.27
    15   1    -0.25  -0.01   0.10     0.19   0.00  -0.10    -0.27   0.06   0.21
    16   1     0.33  -0.04  -0.16    -0.03  -0.03  -0.06    -0.15   0.03   0.06
    17   1    -0.07   0.26   0.17    -0.06   0.33   0.16     0.02   0.01  -0.09
    18   1     0.06  -0.30  -0.17     0.04  -0.18  -0.11    -0.02  -0.15  -0.03
    19   1     0.00  -0.00   0.15     0.45  -0.06  -0.00    -0.00   0.00   0.24
    20   1     0.07  -0.26   0.17    -0.06   0.33  -0.16    -0.02  -0.01  -0.09
    21   1    -0.06   0.30  -0.17     0.04  -0.18   0.11     0.02   0.15  -0.03
    22   1     0.08   0.09   0.00    -0.27   0.04   0.17     0.02  -0.40  -0.27
    23   1    -0.33   0.04  -0.16    -0.03  -0.03   0.06     0.15  -0.03   0.06
    24   1     0.25   0.01   0.10     0.19   0.00   0.10     0.27  -0.06   0.21
    25   1    -0.08  -0.18   0.02    -0.12  -0.20  -0.00    -0.08   0.09  -0.04
    26   1     0.08   0.18   0.02    -0.12  -0.20   0.00     0.08  -0.09  -0.04
                     40                     41                     42
                      A                      A                      A
 Frequencies --   1269.2012              1274.9856              1297.2512
 Red. masses --      1.5182                 1.6410                 1.3720
 Frc consts  --      1.4409                 1.5717                 1.3604
 IR Inten    --      5.8653                 0.4033                 0.0003
  Atom  AN      X      Y      Z        X      Y      Z        X      Y      Z
     1   8    -0.00   0.00   0.03     0.03  -0.02  -0.00    -0.00   0.00  -0.01
     2   6    -0.00  -0.00  -0.14    -0.01  -0.02   0.00     0.00   0.00   0.03
     3   6    -0.07  -0.02   0.01    -0.02   0.07  -0.03    -0.02  -0.04   0.02
     4   6     0.04   0.02   0.01     0.00  -0.05   0.02     0.01   0.01  -0.03
     5   6     0.01   0.05   0.03     0.02  -0.06   0.01     0.02   0.02  -0.02
     6   6     0.00  -0.00  -0.05    -0.04   0.05  -0.00     0.00  -0.00  -0.00
     7   6    -0.01  -0.05   0.03     0.02  -0.06  -0.01    -0.02  -0.02  -0.02
     8   6     0.07   0.02   0.01    -0.02   0.07   0.03     0.02   0.04   0.02
     9   6    -0.04  -0.02   0.01     0.00  -0.05  -0.02    -0.01  -0.01  -0.03
    10   6     0.00  -0.00  -0.04    -0.04   0.14   0.00    -0.00   0.00   0.14
    11   6    -0.00   0.00   0.01     0.00  -0.02   0.00     0.00   0.00  -0.01
    12   7    -0.00  -0.00  -0.00     0.00   0.00  -0.00    -0.00  -0.00   0.00
    13   6    -0.00   0.00   0.02     0.04  -0.02  -0.00    -0.00   0.00  -0.04
    14   1     0.48  -0.05   0.34     0.09  -0.37   0.26     0.03   0.30  -0.13
    15   1    -0.18   0.04   0.14    -0.09   0.12   0.14     0.14  -0.06  -0.13
    16   1    -0.05   0.03   0.08     0.23  -0.07  -0.27    -0.07   0.02   0.11
    17   1     0.04  -0.11  -0.11    -0.01   0.04  -0.02     0.02   0.01  -0.05
    18   1    -0.03  -0.06  -0.00    -0.09   0.15   0.16     0.00   0.08   0.01
    19   1    -0.00  -0.00  -0.13    -0.01   0.04  -0.00    -0.00  -0.00  -0.29
    20   1    -0.04   0.11  -0.11    -0.01   0.04   0.02    -0.02  -0.01  -0.05
    21   1     0.03   0.06  -0.00    -0.09   0.15  -0.16    -0.00  -0.08   0.01
    22   1    -0.48   0.05   0.34     0.09  -0.37  -0.26    -0.03  -0.30  -0.13
    23   1     0.05  -0.03   0.08     0.23  -0.07   0.27     0.07  -0.02   0.11
    24   1     0.18  -0.04   0.14    -0.09   0.12  -0.14    -0.14   0.06  -0.13
    25   1    -0.15  -0.09  -0.02    -0.10  -0.13  -0.02    -0.28  -0.43   0.02
    26   1     0.15   0.09  -0.02    -0.10  -0.13   0.02     0.28   0.43   0.02
                     43                     44                     45
                      A                      A                      A
 Frequencies --   1304.9007              1328.3260              1339.7233
 Red. masses --      1.5956                 1.5749                 1.6840
 Frc consts  --      1.6007                 1.6372                 1.7808
 IR Inten    --      0.2645                 4.8998                 2.1384
  Atom  AN      X      Y      Z        X      Y      Z        X      Y      Z
     1   8     0.00   0.01  -0.00    -0.00   0.00   0.00     0.02  -0.03   0.00
     2   6    -0.03  -0.03  -0.00    -0.00   0.00   0.04     0.01   0.01   0.00
     3   6     0.07   0.07   0.00    -0.07   0.07  -0.06    -0.09   0.03  -0.04
     4   6    -0.06   0.01  -0.00     0.06  -0.02  -0.01     0.06   0.01   0.01
     5   6     0.01  -0.05  -0.00     0.03  -0.04  -0.01     0.05  -0.01   0.00
     6   6    -0.08   0.03   0.00     0.00  -0.00   0.07    -0.11   0.02   0.00
     7   6     0.01  -0.05   0.00    -0.03   0.04  -0.01     0.05  -0.01  -0.00
     8   6     0.07   0.07  -0.00     0.07  -0.07  -0.06    -0.09   0.03   0.04
     9   6    -0.06   0.01   0.00    -0.06   0.02  -0.01     0.06   0.01  -0.01
    10   6     0.06  -0.09   0.00     0.00   0.00   0.03    -0.07  -0.07   0.00
    11   6    -0.00   0.00  -0.00    -0.00  -0.00   0.00     0.00   0.01   0.00
    12   7    -0.01  -0.00   0.00    -0.00  -0.00   0.00     0.01   0.00   0.00
    13   6     0.04   0.05  -0.00    -0.00   0.00  -0.04     0.04  -0.01  -0.00
    14   1    -0.20  -0.17  -0.02     0.06  -0.11   0.11     0.32  -0.00   0.21
    15   1     0.33  -0.08  -0.25     0.13   0.03  -0.03     0.10  -0.00  -0.02
    16   1    -0.18   0.02   0.14    -0.42   0.04   0.19    -0.35   0.06   0.20
    17   1     0.03  -0.15  -0.11    -0.06   0.35   0.15     0.02   0.11  -0.07
    18   1    -0.09   0.29   0.20     0.01  -0.22  -0.09    -0.05  -0.08   0.01
    19   1    -0.08   0.03  -0.00    -0.00   0.00  -0.02     0.48  -0.05  -0.00
    20   1     0.03  -0.15   0.11     0.06  -0.35   0.15     0.02   0.11   0.07
    21   1    -0.09   0.29  -0.20    -0.01   0.22  -0.09    -0.05  -0.08  -0.01
    22   1    -0.20  -0.17   0.02    -0.06   0.11   0.11     0.32  -0.00  -0.21
    23   1    -0.18   0.02  -0.14     0.42  -0.04   0.19    -0.35   0.06  -0.20
    24   1     0.33  -0.08   0.25    -0.13  -0.03  -0.03     0.10  -0.00   0.02
    25   1    -0.04  -0.05   0.00     0.09  -0.01   0.02     0.06   0.02  -0.00
    26   1    -0.04  -0.05  -0.00    -0.09   0.01   0.02     0.06   0.02   0.00
                     46                     47                     48
                      A                      A                      A
 Frequencies --   1352.6671              1358.3508              1379.5912
 Red. masses --      1.4613                 1.4221                 1.6424
 Frc consts  --      1.5753                 1.5460                 1.8418
 IR Inten    --      0.9126                 1.6909                 2.4679
  Atom  AN      X      Y      Z        X      Y      Z        X      Y      Z
     1   8     0.01  -0.00  -0.00    -0.00   0.00  -0.00    -0.00   0.00   0.01
     2   6    -0.01  -0.01   0.00     0.00   0.00   0.03    -0.00   0.00  -0.06
     3   6     0.03   0.07  -0.01    -0.04  -0.00  -0.06    -0.02  -0.05   0.07
     4   6     0.03  -0.03  -0.03    -0.05   0.01   0.06     0.01   0.01  -0.00
     5   6    -0.03  -0.00   0.02     0.01  -0.05   0.01     0.03  -0.06  -0.09
     6   6     0.05   0.04  -0.00    -0.00  -0.00  -0.10    -0.00  -0.00   0.09
     7   6    -0.03  -0.00  -0.02    -0.01   0.05   0.01    -0.03   0.06  -0.09
     8   6     0.03   0.07   0.01     0.04   0.00  -0.06     0.02   0.05   0.07
     9   6     0.03  -0.03   0.03     0.05  -0.01   0.06    -0.01  -0.01  -0.00
    10   6     0.04   0.01   0.00    -0.00   0.00  -0.00     0.00   0.00  -0.05
    11   6    -0.00   0.00  -0.00     0.00  -0.00  -0.00    -0.00  -0.00   0.01
    12   7    -0.01  -0.00  -0.00     0.00   0.00  -0.00    -0.00   0.00  -0.00
    13   6    -0.10  -0.10   0.00     0.00   0.00   0.02    -0.00  -0.00  -0.01
    14   1    -0.25  -0.32   0.04     0.29   0.09   0.09     0.13   0.37  -0.05
    15   1    -0.10   0.03   0.06     0.32  -0.01  -0.15    -0.16   0.03   0.10
    16   1    -0.21   0.00   0.08     0.21  -0.02  -0.13     0.06   0.00   0.01
    17   1    -0.03   0.02   0.05    -0.04   0.18   0.07    -0.05   0.30   0.21
    18   1     0.05  -0.13  -0.07    -0.06   0.09   0.11    -0.04   0.27   0.10
    19   1     0.09   0.03   0.00     0.00   0.00   0.50     0.00  -0.00  -0.08
    20   1    -0.03   0.02  -0.05     0.04  -0.18   0.07     0.05  -0.30   0.21
    21   1     0.05  -0.13   0.07     0.06  -0.09   0.11     0.04  -0.27   0.10
    22   1    -0.25  -0.32  -0.04    -0.29  -0.09   0.09    -0.13  -0.37  -0.05
    23   1    -0.21   0.00  -0.08    -0.21   0.02  -0.13    -0.06  -0.00   0.01
[...]
 00044870,0.,0.00001599,0.00106169,0.,0.00047254,-0.00150231,0.00364347
 ,0.00115729,-0.00031133,0.00022570,0.00034305,-0.01115229,0.00030998,-
 0.01580671,-0.13113370,-0.00000015,-0.12035931,-0.01115227,-0.00030999
 ,-0.01580670,-0.00150231,-0.00364346,0.00115730,-0.00031133,-0.0002257
 0,0.00034305,-0.00248646,0.,0.00369931,0.00117216,0.,0.00074250,-0.000
 50829,0.,0.00017123,0.01192517,0.00000001,0.01853814,-0.00055942,-0.00
 006407,-0.00111245,0.00007967,-0.00002950,-0.00006237,0.00012473,-0.00
 012298,-0.00010498,0.00015661,-0.00062028,0.00021130,0.00080326,0.0000
 0296,0.00030318,0.14341913,0.,0.00088916,0.,0.,-0.00239168,0.,0.003293
 97,-0.00436858,-0.00116405,0.00000797,-0.00003888,-0.00058017,0.016479
 02,-0.00060744,0.02381941,-0.00000014,-0.04821106,-0.00000018,-0.01647
 901,-0.00060748,-0.02381944,-0.00329397,-0.00436858,0.00116406,-0.0000
 0797,-0.00003888,0.00058017,0.,0.00053915,0.,0.,0.00013391,0.,0.,-0.00
 001342,0.,0.,-0.00013197,0.,0.00097549,0.00015524,0.00148119,-0.000047
 90,0.00000660,0.00004842,-0.00010388,0.00006020,0.00006810,-0.00060002
 ,0.00108398,-0.00046002,-0.00082669,0.00082120,0.00016262,0.00000014,0
 .05474187,0.00001155,0.,-0.00007461,0.00016308,0.,0.00016993,0.0004779
 6,0.00021761,0.00128018,0.00040937,-0.00037674,0.00038002,0.00053214,0
 .00044043,0.00094124,-0.12033709,-0.00000018,-0.22407121,0.00053215,-0
 .00044042,0.00094127,0.00047797,-0.00021761,0.00128018,0.00040937,0.00
 037674,0.00038002,0.00488311,0.,-0.00245839,-0.00123644,0.,-0.00106197
 ,0.00049937,0.,-0.00019142,-0.01434733,-0.00000001,-0.02350537,0.00001
 360,-0.00011613,0.00004802,-0.00005866,0.00007120,-0.00001775,-0.00010
 502,0.00002911,0.00005449,-0.00021673,0.00037364,0.00063299,-0.0000301
 5,0.00044995,0.00008163,0.12846521,0.00000019,0.24260006,0.00013349,-0
 .00042759,0.00029012,0.00133933,-0.00002952,-0.00040992,0.00001107,-0.
 00003280,-0.00010211,-0.00003858,0.00004757,0.00007235,0.00039348,0.00
 126349,-0.00005437,-0.01224196,0.00037782,0.01611642,-0.13941595,-0.00
 026032,0.12352096,0.01222235,0.00080997,-0.01669970,-0.00258772,0.0003
 7834,-0.00349009,-0.00032871,-0.00014452,-0.00039637,0.00016519,0.0000
 9232,0.00007732,-0.00001992,-0.00000495,0.00003458,-0.00173033,-0.0042
 0508,-0.00133387,0.00004527,0.00001557,0.00002869,-0.00000962,0.000068
 21,-0.00000132,0.00007816,-0.00007410,0.00001425,0.00067406,-0.0004289
 7,-0.00025767,-0.00000070,0.00008150,-0.00035814,0.00015660,0.00060001
 ,-0.00021673,0.15053795,-0.00007518,0.00007011,-0.00012812,-0.00031372
 ,-0.00010346,0.00078861,0.00023766,-0.00017234,-0.00007206,-0.00009507
 ,0.00017449,-0.00002337,-0.00075845,0.00153963,0.00110458,-0.01607766,
 -0.00112813,0.02317564,0.00050374,-0.05155859,0.00211293,0.00065793,-0
 .00064807,0.00039957,-0.00003955,0.00049360,-0.00065495,-0.00015090,-0
 .00000969,-0.00043501,0.00013874,0.00005553,0.00001885,-0.00001646,0.0
 0001033,0.00001507,-0.00253576,-0.00496645,-0.00119865,0.00003859,-0.0
 0000822,0.00002323,0.00000332,0.00003857,-0.00003975,0.00007465,-0.000
 06639,-0.00003903,0.00042897,-0.00043877,-0.00048464,0.00003321,0.0003
 5375,-0.00031919,0.00062028,0.00108398,-0.00037365,0.00285235,0.053252
 86,-0.00139510,0.00009415,0.00050473,0.00264056,-0.00104400,-0.0006100
 4,-0.00019515,0.00024513,-0.00039322,0.00019561,-0.00008912,-0.0000039
 9,-0.00008890,-0.00034213,-0.00005630,-0.00073788,0.00016766,0.0015748
 7,0.12284326,0.00272416,-0.21680878,0.01452999,0.00123070,-0.02144498,
 -0.00497327,0.00022412,-0.00382989,-0.00041962,-0.00045085,0.00030315,
 0.00003261,0.00008111,0.00016436,0.00004075,-0.00000178,-0.00005316,-0
 .00040660,-0.00023280,0.00129372,0.00001866,0.00009523,-0.00000134,-0.
 00004737,0.00009750,0.00001315,-0.00001809,-0.00003581,0.00006138,-0.0
 0025767,0.00048463,0.00030974,-0.00018829,0.00005294,0.00022722,0.0002
 1130,0.00046002,0.00063299,-0.13247011,-0.00262232,0.23694420,-0.00136
 994,0.00131809,0.00059650,-0.00001725,-0.00402103,-0.00359936,-0.00013
 472,0.00009269,0.00053489,-0.00016891,-0.00006879,0.00011537,-0.002344
 57,-0.00294536,0.00027687,0.01202537,-0.01690472,0.00113339,-0.1313686
 4,0.12036611,0.00019726,-0.01244126,0.01722611,-0.00327606,0.00076529,
 -0.00048835,0.00164310,-0.00007265,-0.00003786,-0.00016678,0.00007059,
 0.00004851,0.00005953,0.00001704,-0.00001494,-0.00004083,0.00123826,-0
 .00035757,-0.00032757,0.00008039,0.00012753,0.00013990,0.00007152,0.00
 001405,-0.00006432,-0.00001682,-0.00000180,0.00004614,-0.00000070,-0.0
 0003321,-0.00018829,0.00088717,-0.00113636,0.00002203,0.00080326,0.000
 82669,-0.00003015,-0.01093568,0.01582719,-0.00036977,0.14198232,0.0000
 3347,-0.00005186,0.00022375,-0.00025653,0.00084173,-0.00048836,-0.0002
 5865,0.00063906,-0.00024520,0.00013586,0.00000792,-0.00019297,-0.00552
 119,-0.00343628,-0.00019741,0.01603727,-0.02251061,0.00051231,0.118832
 80,-0.22188897,0.00395952,-0.00024807,0.00150820,-0.00033811,-0.000187
 84,0.00013228,-0.00014838,-0.00019624,-0.00009449,0.00015233,0.0000173
 7,0.00000514,0.00008140,-0.00004810,0.00002680,0.00002258,0.00170629,0
 .00060133,-0.00061738,0.00009280,0.00002787,0.00011728,-0.00001269,0.0
 0003354,-0.00003148,-0.00007596,0.00004610,0.00010269,-0.00008150,0.00
 035375,-0.00005294,0.00113637,-0.00168215,0.00019098,-0.00000296,0.000
 82120,-0.00044995,-0.00033523,0.00102043,-0.00067727,-0.12936617,0.241
 90554,-0.00221990,0.00174570,0.00128070,-0.00079309,-0.00409631,-0.005
 52344,0.00034670,-0.00015129,0.00066266,-0.00022786,-0.00006133,0.0002
 9281,-0.00011699,0.00002453,0.00028112,0.00116787,-0.00059502,-0.00103
 386,0.00035195,0.00356505,-0.04934748,-0.01753067,0.02522334,-0.004611
 33,-0.00063755,0.00119555,0.00208829,0.00007698,-0.00009879,-0.0002271
 2,0.00007911,0.00005966,-0.00002185,0.00000470,-0.00002564,-0.00000615
 ,-0.00044336,0.00078975,0.00013153,0.00008681,0.00009843,0.00009266,0.
 00007028,-0.00002191,-0.00007673,-0.00000147,-0.00004225,0.00001974,-0
 .00035814,0.00031919,0.00022722,0.00002203,-0.00019098,0.00065923,0.00
 030318,-0.00016262,0.00008163,0.01489022,-0.02256933,0.00119230,0.0035
 4084,-0.00343008,0.05276011,0.00206733,-0.00176460,-0.00003592,0.01164
 879,0.01665713,0.00032046,-0.00218230,0.00297264,-0.00000505,-0.000253
 00,0.00022050,0.00016614,-0.00029665,0.00014561,-0.00020723,-0.0009010
 6,0.00149680,-0.00355297,-0.01031463,-0.01400923,-0.00039502,-0.147717
 03,-0.13060795,-0.00236158,-0.01131963,-0.01494962,0.00017833,-0.00096
 645,0.00139041,0.00334261,-0.00046653,-0.00097943,-0.00020542,-0.00009
 532,0.00016560,0.00028045,0.00061289,0.00037520,-0.00005010,0.00066632
 ,0.00093314,-0.00000980,0.00007170,-0.00007970,-0.00007159,0.00004148,
 -0.00005096,-0.00001590,0.00004527,-0.00003859,0.00001866,0.00008039,-
 0.00009280,0.00008681,-0.00055942,-0.00097549,0.00001360,0.00083992,0.
 00030858,0.00008869,0.00012749,0.00022118,0.00057936,0.15788427,0.0003
 1869,0.00580646,0.00007740,-0.02110830,-0.02636467,-0.00047575,0.00480
 398,-0.00313691,0.00008879,0.00051561,0.00019270,-0.00046100,0.0004585
 5,0.00028529,0.00050013,0.00056320,0.00098499,0.00039326,0.00182575,0.
 00261477,-0.00047853,-0.12634622,-0.21716241,-0.00329880,0.00157745,0.
 00219694,0.00050319,0.00090784,0.00119752,-0.00062917,-0.00005239,0.00
 027974,0.00015292,0.00005787,-0.00009286,-0.00013107,0.00008177,0.0000
 3659,-0.00001278,-0.00093313,-0.00139981,-0.00001435,-0.00013202,0.000
 03461,0.00009163,-0.00002076,-0.00000975,0.00008879,-0.00001557,-0.000
 00822,-0.00009523,-0.00012753,0.00002787,-0.00009843,0.00006407,0.0001
 5524,0.00011613,-0.00010889,0.00007131,-0.00045777,-0.00019394,0.00054
 272,-0.00044381,0.13819943,0.23314716,0.00012946,-0.00006746,-0.001183
 28,-0.00000085,0.00044014,-0.00006816,0.00000804,0.00007164,0.00138526
 ,0.00005143,-0.00069624,-0.00004359,-0.00014695,0.00068754,-0.00006197
 ,-0.00258047,0.00162147,-0.00509060,-0.01672662,-0.02317077,-0.0000320
 2,-0.00241196,-0.00358285,-0.04939947,0.01645914,0.02228879,0.00017757
 ,0.00294728,-0.00103255,-0.00453981,0.00076664,0.00150937,0.00053775,0
 .00015576,-0.00030374,-0.00050876,-0.00006249,-0.00006915,-0.00066138,
 -0.00000980,0.00001435,0.00018899,-0.00013648,0.00008298,0.00006402,-0
 .00003195,0.00003905,0.00000171,0.00002869,-0.00002323,-0.00000134,0.0
 0013990,-0.00011728,0.00009266,-0.00111245,-0.00148119,0.00004802,0.00
 089942,-0.00025232,0.00091344,0.00048955,0.00045079,0.00099363,0.00250
 239,0.00369473,0.05498477,-0.00002252,-0.00040744,-0.00031305,0.001541
 49,-0.00012769,0.00041305,0.00000858,-0.00004941,0.00011563,0.00030538
 ,0.00130755,0.00017379,0.00000820,0.00004299,-0.00007321,-0.00032468,-
 0.00014587,0.00040703,-0.00297021,0.00038660,0.00338600,0.01231232,0.0
 0090903,0.01799289,-0.12973573,0.00052715,-0.12032438,-0.01221253,-0.0
 0037752,-0.01555783,0.00024197,0.00019444,-0.00172310,0.00002746,0.000
 15680,0.00068404,-0.00188470,-0.00393540,0.00126784,0.00004148,0.00002
 076,-0.00003195,-0.00000908,0.00004931,0.00029656,0.00061677,-0.000347
 61,0.00022867,0.00007816,-0.00007465,-0.00001809,-0.00001682,0.0000759
 6,-0.00000147,0.00012473,0.00010388,-0.00010502,0.00087592,-0.00002508
 ,0.00121799,-0.00004397,-0.00016651,0.00000732,0.00085719,-0.00010568,
 -0.00088105,0.14044536,-0.00010368,0.00010246,0.00012176,-0.00033655,-
 0.00013920,-0.00074033,0.00024413,-0.00021588,0.00012826,-0.00076935,0
 .00170702,-0.00110280,-0.00007031,0.00017674,0.00000760,-0.00015058,0.
 00000161,0.00045047,-0.00002788,0.00053837,0.00060194,0.00055118,-0.00
 053252,-0.00057393,0.00181602,-0.05154496,-0.00036820,-0.01600245,-0.0
 0212983,-0.02273127,0.00059682,0.00067165,-0.00118935,-0.00004494,-0.0
 0004266,0.00037760,-0.00255570,-0.00469184,0.00125172,0.00005096,-0.00
 000975,-0.00003905,0.00005121,0.00028348,0.00031720,0.00034762,-0.0004
 6719,0.00048938,0.00007410,-0.00006639,0.00003581,0.00000180,0.0000461
 0,0.00004225,0.00012298,0.00006020,-0.00002911,-0.00003127,0.00041345,
 0.00025093,-0.00037693,0.00020061,-0.00043598,0.00026992,0.00010838,0.
 00030035,0.00257237,0.05397128,0.00131249,-0.00011056,0.00039874,-0.00
 241038,0.00098465,-0.00049708,0.00021744,-0.00025174,-0.00035953,0.000
 14750,0.00032104,-0.00010719,-0.00020304,0.00007245,-0.00002540,0.0004
 1724,0.00046987,0.00033535,0.00499576,-0.00022910,-0.00330771,-0.01293
 983,-0.00113062,-0.02074931,-0.12144303,-0.00159716,-0.23010323,0.0005
 1468,-0.00006707,0.00103270,0.00057596,-0.00017747,0.00062580,-0.00027
 330,0.00007659,0.00026109,0.00036350,0.00019283,0.00101593,-0.00001590
 ,-0.00008879,0.00000171,0.00016440,-0.00001981,0.00023584,0.00022866,-
 0.00048937,0.00031358,0.00001425,0.00003902,0.00006138,0.00004614,-0.0
 0010269,0.00001974,-0.00010498,-0.00006810,0.00005449,-0.00110537,-0.0
 0023947,-0.00136309,0.00015953,0.00005198,0.00038031,-0.00007272,0.000
 44068,0.00087359,0.12925125,0.00122863,0.25010281,-0.00140639,0.001391
 87,-0.00062909,-0.00017218,-0.00415889,0.00365009,-0.00011602,0.000188
 64,-0.00049222,-0.00248907,-0.00289212,-0.00016617,-0.00019327,-0.0000
 7117,-0.00017801,-0.00006555,-0.00002502,0.00026111,0.00074924,-0.0005
 1189,-0.00174680,-0.01263973,0.01764961,0.00290611,-0.13471633,0.12407
 725,-0.00324501,0.01099468,-0.01746660,-0.00012871,0.00125054,-0.00035
 872,-0.00027968,-0.00009780,0.00009697,-0.00012219,0.00127035,-0.00024
 961,0.00048574,0.00007170,0.00013203,-0.00013648,0.00099916,-0.0011290
 9,-0.00004998,-0.00000908,-0.00005121,0.00016440,-0.00000962,-0.000003
 32,-0.00004737,0.00007152,0.00001269,0.00007028,0.00007967,0.00004790,
 -0.00005866,-0.00003304,-0.00038900,-0.00018413,0.00082113,-0.00024202
 ,0.00061392,0.00016702,-0.00021185,-0.00047325,-0.01018441,0.01496614,
 0.00010244,0.14568546,0.00004835,-0.00003416,-0.00024303,-0.00028096,0
 .00078101,0.00058441,-0.00026237,0.00067217,0.00020149,-0.00506247,-0.
 00341247,0.00017333,0.00010820,0.00002420,0.00020525,-0.00027848,-0.00
 014954,-0.00028520,-0.00021385,0.00017162,0.00017094,-0.00026039,0.001
 79503,0.00025249,0.12089927,-0.22278059,0.00048281,0.01429297,-0.02273
 892,0.00059701,0.00126941,-0.00010751,-0.00105188,-0.00046238,0.000387
 36,0.00052348,0.00169336,0.00063516,0.00081960,0.00007970,0.00003461,-
 0.00008298,0.00112909,-0.00151510,-0.00013598,-0.00004931,0.00028348,0
 .00001981,-0.00006821,0.00003857,-0.00009750,-0.00001405,0.00003354,0.
 00002191,0.00002950,0.00000660,-0.00007120,-0.00015891,0.00019424,-0.0
 0003630,-0.00020261,0.00006024,-0.00064691,0.00021992,0.00051726,-0.00
 039450,-0.00028599,0.00120450,0.00052684,-0.13107245,0.24303574,0.0021
 0907,-0.00171239,0.00118450,0.00107718,0.00386751,-0.00517020,-0.00035
 927,0.00009217,0.00057838,0.00013545,-0.00004612,0.00009955,0.00020992
 ,0.00006249,0.00028468,-0.00013408,0.00010141,-0.00026630,0.00063615,-
 0.00123585,0.00209562,0.01684262,-0.02435250,-0.00349015,-0.00279289,0
 .00032067,-0.04956428,-0.00044029,-0.00007071,-0.00115553,-0.00051820,
 0.00077618,0.00023051,0.00005393,-0.00024226,-0.00002922,0.00051458,-0
 .00081346,0.00007563,-0.00007159,-0.00009163,0.00006402,-0.00004998,0.
 00013598,0.00065778,0.00029656,-0.00031720,0.00023584,-0.00000132,0.00
 003975,0.00001315,-0.00006432,0.00003148,-0.00007673,-0.00006237,-0.00
 004842,-0.00001775,-0.00003302,0.00041282,0.00037680,-0.00057669,0.000
 61312,-0.00038435,-0.00059841,0.00044098,0.00094236,-0.01535149,0.0231
 1760,0.00064337,-0.00057514,-0.00113496,0.05256260,0.00000952,-0.00036
 087,-0.00000381,0.00018610,0.00092987,0.00001312,0.00047255,-0.0004427
 1,0.00003080,-0.00094668,-0.00132876,-0.00343416,-0.00122967,-0.001581
 72,0.00380192,-0.01197613,0.01541228,-0.00005275,0.00031014,0.00139089
 ,-0.00076578,-0.00014567,-0.00051725,-0.00002481,0.00031138,0.00140387
 ,0.00076333,-0.01146845,0.01426578,-0.00128800,-0.00005214,-0.00022295
 ,0.00092128,0.00034867,-0.00006348,-0.00035389,-0.13880698,0.12088539,
 -0.00107984,0.00001853,-0.00001451,-0.00000946,0.00006047,0.00023921,0
 .00001839,-0.00045600,0.00097828,0.00006331,-0.00055593,0.00106174,-0.
 00009049,0.00011074,0.00023658,-0.00002429,0.00086057,-0.00032437,-0.0
 0007324,0.00042537,-0.00018662,0.00002302,-0.00008545,-0.00097717,0.00
 021207,-0.00005657,-0.00003242,0.00000609,0.00037565,-0.00021731,-0.00
 000604,-0.00008845,-0.00085812,-0.00026478,0.14963451,0.00017361,0.000
 13326,-0.00000065,-0.00024028,-0.00033099,0.00000101,-0.00013039,0.000
 11808,-0.00002036,-0.00034557,0.00076518,0.00048167,-0.00041994,0.0009
 9435,-0.00055101,-0.00111342,-0.00005180,-0.00046219,-0.00065888,0.000
 67116,0.00029266,0.00013945,0.00000946,-0.00001654,-0.00062458,0.00062
 792,-0.00026497,-0.00114614,-0.00017268,0.00024637,0.00044296,0.000122
 90,-0.00014877,-0.00045088,0.00007134,0.00019433,0.12215377,-0.2214177
 9,0.00148579,0.00002289,-0.00004020,0.00001391,-0.00011004,0.00039823,
 -0.00014432,0.00027217,0.00019776,-0.00008444,0.00031002,0.00014653,0.
 00012061,-0.00012477,0.00041118,0.00012658,0.00006342,0.00010972,-0.00
 050026,-0.00003498,0.00018131,-0.00009753,0.00017793,0.00047870,0.0000
 7763,-0.00000479,0.00001529,0.00000399,-0.00002582,0.00015661,0.000082
 93,0.00015983,0.00046472,-0.00009099,-0.13408062,0.23694975,-0.0000104
 1,0.00001846,-0.00002065,0.00001016,-0.00005854,-0.00005421,0.00006921
 ,-0.00005073,-0.00044650,-0.00291642,-0.00123607,-0.00535538,0.0033189
 3,0.00142334,-0.00495714,0.01662518,-0.02312113,0.00064611,-0.00067654
 ,-0.00099913,0.00102316,-0.00003569,0.,-0.00027882,0.00082916,0.001140
 40,0.00103166,-0.01713930,0.02342319,-0.00207410,-0.00116092,0.0012511
 5,0.00141890,0.00042503,-0.00034655,-0.00012741,-0.00002623,-0.0002231
 4,-0.04816346,0.00001363,-0.00000383,0.00028962,0.00019761,-0.00024319
 ,0.00000847,-0.00140822,0.00148695,0.00022792,0.00138575,-0.00142243,0
 .00013851,-0.00024839,0.00031328,-0.00000648,-0.00080113,-0.00019502,0
 .00089565,-0.00040131,-0.00002187,-0.00008576,-0.00006668,0.00070408,0
 .00009487,-0.00000943,0.00000423,0.00009700,0.00034681,-0.00002452,-0.
 00007179,0.00006119,-0.00064211,0.00010126,0.00124536,-0.00096113,0.05
 578832,0.00000952,0.00036087,-0.00000381,0.00018610,-0.00092987,0.0000
 1312,-0.00014567,0.00051725,-0.00002482,0.00031138,-0.00140387,0.00076
 333,0.00031013,-0.00139089,-0.00076578,-0.01197613,-0.01541230,-0.0000
 5274,-0.00122967,0.00158172,0.00380192,0.00047255,0.00044271,0.0000308
 0,-0.00094669,0.00132876,-0.00343416,-0.01146845,-0.01426580,-0.001288
 00,-0.00005213,0.00022295,0.00092128,0.00034867,0.00006349,-0.00035389
 ,-0.13880656,-0.12088503,-0.00107985,-0.00005657,0.00003242,0.00000609
 ,-0.00008845,0.00085811,-0.00026478,0.00037564,0.00021732,-0.00000604,
 0.00042537,0.00018662,0.00002302,-0.00008546,0.00097717,0.00021207,0.0
 0086058,0.00032437,-0.00007325,-0.00055593,-0.00106174,-0.00009049,0.0
 0011074,-0.00023658,-0.00002429,0.00001853,0.00001451,-0.00000946,-0.0
 0045600,-0.00097828,0.00006331,0.00006047,-0.00023921,0.00001839,0.012
 74394,0.01559504,0.00037266,0.14963409,-0.00017361,0.00013326,0.000000
 65,0.00024028,-0.00033099,-0.00000101,-0.00013945,0.00000946,0.0000165
 4,0.00062458,0.00062792,0.00026497,0.00065889,0.00067116,-0.00029267,0
 .00111340,-0.00005181,0.00046219,0.00041994,0.00099435,0.00055102,0.00
 013040,0.00011808,0.00002036,0.00034556,0.00076518,-0.00048167,0.00114
 612,-0.00017270,-0.00024638,-0.00044296,0.00012290,0.00014877,0.000450
 89,0.00007134,-0.00019433,-0.12215342,-0.22141783,-0.00148579,0.000004
 79,0.00001529,-0.00000399,-0.00015984,0.00046472,0.00009099,0.00002582
 ,0.00015661,-0.00008293,0.00003498,0.00018131,0.00009753,-0.00017793,0
 .00047871,-0.00007763,-0.00006342,0.00010972,0.00050026,-0.00031002,0.
 00014653,-0.00012061,0.00012477,0.00041118,-0.00012658,-0.00002289,-0.
 00004020,-0.00001391,-0.00027217,0.00019776,0.00008444,0.00011004,0.00
 039823,0.00014432,-0.01559501,-0.02101002,-0.00021568,0.13408028,0.236
 94982,-0.00001041,-0.00001846,-0.00002065,0.00001016,0.00005854,-0.000
 05421,-0.00003569,0.,-0.00027881,0.00082916,-0.00114039,0.00103166,-0.
 00067654,0.00099913,0.00102316,0.01662517,0.02312114,0.00064609,0.0033
 1894,-0.00142335,-0.00495714,0.00006921,0.00005073,-0.00044651,-0.0029
 1643,0.00123607,-0.00535538,-0.01713928,-0.02342322,-0.00207412,-0.001
 16092,-0.00125117,0.00141888,0.00042503,0.00034656,-0.00012740,-0.0000
 2624,0.00022315,-0.04816349,-0.00000943,-0.00000423,0.00009700,0.00006
 119,0.00064212,0.00010125,0.00034681,0.00002452,-0.00007179,-0.0004013
 1,0.00002187,-0.00008576,-0.00006668,-0.00070408,0.00009486,-0.0008011
 3,0.00019503,0.00089565,0.00138575,0.00142243,0.00013851,-0.00024839,-
 0.00031328,-0.00000648,0.00001363,0.00000383,0.00028962,-0.00140821,-0
 .00148695,0.00022792,0.00019761,0.00024319,0.00000847,0.00037266,0.000
 21568,-0.00011974,0.00124536,0.00096114,0.05578841\\0.00005825,-0.0000
 0023,-0.00002166,-0.00004403,0.00000008,0.00003802,-0.00000500,-0.0000
 3241,-0.00010770,-0.00001464,0.00000850,0.00002630,0.00001701,-0.00001
 197,0.00002657,0.00001071,0.00000023,-0.00003233,0.00001769,0.00001130
 ,0.00002615,-0.00000565,0.00003280,-0.00010784,-0.00001489,-0.00000833
 ,0.00002688,0.00001809,0.00000004,-0.00002977,-0.00000645,-0.00000017,
 0.00000534,0.00001363,0.,-0.00000510,-0.00000819,0.00000023,0.00012240
 ,-0.00001163,0.00000048,0.00000528,0.00000016,0.00000807,-0.00000514,-
 0.00000691,-0.00000363,0.00000171,-0.00000164,-0.00000525,0.00000057,-
 0.00000081,-0.00000393,0.00001064,0.00000324,-0.00000003,0.00000227,-0
 .00000201,0.00000530,0.00000092,-0.00000097,0.00000423,0.00001062,-0.0
 0001149,-0.00000062,0.00000519,-0.00000691,0.00000360,0.00000155,0.000
 00029,-0.00000815,-0.00000525,0.00000110,0.00000205,0.00000218,0.00000
 106,-0.00000218,0.00000220\\\@


 ERROR IS THE FORCE THAT WELDS MEN TOGETHER....
 TRUTH IS COMMUNICATED TO MEN ONLY BY DEEDS OF TRUTH.
           TOLSTOI,MY RELIGION
 Job cpu time:       0 days  0 hours  3 minutes  4.3 seconds.
 Elapsed time:       0 days  0 hours  3 minutes 10.0 seconds.
 File lengths (MBytes):  RWF=    155 Int=      0 D2E=      0 Chk=     16 Scr=      1
 Normal termination of Gaussian 16 at Sat Feb 24 04:01:31 2024.
