 Entering Gaussian System, Link 0=g16
 Input=/Volumes/SSD-PMU3/b3lyp_6-31gd_freq/QAOXJQGZIOPYSG-AGIRLMLNSA-N_calculating/gaussianinput1.gjf
 Output=/Volumes/SSD-PMU3/b3lyp_6-31gd_freq/QAOXJQGZIOPYSG-AGIRLMLNSA-N_calculating/gaussianinput1.log
 Initial command:
 /Applications/g16/l1.exe "/Users/macmini_m1_2022/PycharmProjects/sphere_model/sphere_model_lib/Gau-79560.inp" -scrdir="/Users/macmini_m1_2022/PycharmProjects/sphere_model/sphere_model_lib/"
 Entering Link 1 = /Applications/g16/l1.exe PID=     79561.
  
 Copyright (c) 1988,1990,1992,1993,1995,1998,2003,2009,2016,
            Gaussian, Inc.  All Rights Reserved.
  
 This is part of the Gaussian(R) 16 program.  It is based on
 the Gaussian(R) 09 system (copyright 2009, Gaussian, Inc.),
 the Gaussian(R) 03 system (copyright 2003, Gaussian, Inc.),
 the Gaussian(R) 98 system (copyright 1998, Gaussian, Inc.),
 the Gaussian(R) 94 system (copyright 1995, Gaussian, Inc.),
 the Gaussian 92(TM) system (copyright 1992, Gaussian, Inc.),
 the Gaussian 90(TM) system (copyright 1990, Gaussian, Inc.),
 the Gaussian 88(TM) system (copyright 1988, Gaussian, Inc.),
 the Gaussian 86(TM) system (copyright 1986, Carnegie Mellon
 University), and the Gaussian 82(TM) system (copyright 1983,
 Carnegie Mellon University). Gaussian is a federally registered
 trademark of Gaussian, Inc.
  
 This software contains proprietary and confidential information,
 including trade secrets, belonging to Gaussian, Inc.
  
 This software is provided under written license and may be
 used, copied, transmitted, or stored only in accord with that
 written license.
  
 The following legend is applicable only to US Government
 contracts under FAR:
  
                    RESTRICTED RIGHTS LEGEND
  
 Use, reproduction and disclosure by the US Government is
 subject to restrictions as set forth in subparagraphs (a)
 and (c) of the Commercial Computer Software - Restricted
 Rights clause in FAR 52.227-19.
  
 Gaussian, Inc.
 340 Quinnipiac St., Bldg. 40, Wallingford CT 06492
  
  
 ---------------------------------------------------------------
 Warning -- This program may not be used in any manner that
 competes with the business of Gaussian, Inc. or will provide
 assistance to any competitor of Gaussian, Inc.  The licensee
 of this program is prohibited from giving any competitor of
 Gaussian, Inc. access to this program.  By using this program,
 the user acknowledges that Gaussian, Inc. is engaged in the
 business of creating and licensing software in the field of
 computational chemistry and represents and warrants to the
 licensee that it is not a competitor of Gaussian, Inc. and that
 it will not use this program in any manner prohibited above.
 ---------------------------------------------------------------
  

 Cite this work as:
 Gaussian 16, Revision A.03,
 M. J. Frisch, G. W. Trucks, H. B. Schlegel, G. E. Scuseria, 
 M. A. Robb, J. R. Cheeseman, G. Scalmani, V. Barone, 
 G. A. Petersson, H. Nakatsuji, X. Li, M. Caricato, A. V. Marenich, 
 J. Bloino, B. G. Janesko, R. Gomperts, B. Mennucci, H. P. Hratchian, 
 J. V. Ortiz, A. F. Izmaylov, J. L. Sonnenberg, D. Williams-Young, 
 F. Ding, F. Lipparini, F. Egidi, J. Goings, B. Peng, A. Petrone, 
 T. Henderson, D. Ranasinghe, V. G. Zakrzewski, J. Gao, N. Rega, 
 G. Zheng, W. Liang, M. Hada, M. Ehara, K. Toyota, R. Fukuda, 
 J. Hasegawa, M. Ishida, T. Nakajima, Y. Honda, O. Kitao, H. Nakai, 
 T. Vreven, K. Throssell, J. A. Montgomery, Jr., J. E. Peralta, 
 F. Ogliaro, M. J. Bearpark, J. J. Heyd, E. N. Brothers, K. N. Kudin, 
 V. N. Staroverov, T. A. Keith, R. Kobayashi, J. Normand, 
 K. Raghavachari, A. P. Rendell, J. C. Burant, S. S. Iyengar, 
 J. Tomasi, M. Cossi, J. M. Millam, M. Klene, C. Adamo, R. Cammi, 
 J. W. Ochterski, R. L. Martin, K. Morokuma, O. Farkas, 
 J. B. Foresman, and D. J. Fox, Gaussian, Inc., Wallingford CT, 2016.
 
 ******************************************
 Gaussian 16:  EM64M-G16RevA.03 25-Dec-2016
                23-Feb-2024 
 ******************************************
 %nprocshared=10
 Will use up to   10 processors via shared memory.
 %mem=12GB
 %chk= 1.chk
 ---------------------
 # freq b3lyp/6-31g(d)
 ---------------------
 1/10=4,30=1,38=1/1,3;
 2/12=2,17=6,18=5,40=1/2;
 3/5=1,6=6,7=1,11=2,25=1,30=1,71=2,74=-5,140=1/1,2,3;
 4//1;
 5/5=2,38=5,98=1/2;
 8/6=4,10=90,11=11/1;
 11/6=1,8=1,9=11,15=111,16=1/1,2,10;
 10/6=1/2;
 6/7=2,8=2,9=2,10=2,28=1/1;
 7/8=1,10=1,25=1/1,2,3,16;
 1/10=4,30=1/3;
 99//99;
 ---------
 good luck
 ---------
 Symbolic Z-matrix:
 Charge =  0 Multiplicity = 1
 O                     1.21626   0.        0. 
 C                     0.        0.        0. 
 C                    -0.85014  -1.26598  -0.00156 
 C                    -1.75723  -1.25661   1.25354 
 C                    -1.72659  -1.26202  -1.27782 
 C                    -2.6227   -0.0094   -1.27713 
 C                    -1.73823   1.25321  -1.2724 
 C                    -0.85203   1.26371  -0.00156 
 C                    -1.75297   1.24942   1.25782 
 C                    -2.67287  -0.00641   1.27769 
 C                    -3.58885   0.03426   2.50854 
 C                    -4.48164   1.10701   2.68037 
 C                    -5.3296    1.18106   3.7835 
 C                    -5.30952   0.17745   4.75401 
 C                    -4.4322   -0.89389   4.60256 
 C                    -3.58384  -0.96311   3.49399 
 C                    -3.52325  -0.01623  -0.02588 
 H                    -0.18175  -2.13279   0.01568 
 H                    -1.13179  -1.28469   2.15494 
 H                    -2.36464  -2.17138   1.2551 
 H                    -1.09078  -1.27991  -2.1726 
 H                    -2.33996  -2.17298  -1.30102 
 H                    -3.25326  -0.00986  -2.17577 
 H                    -2.36133   2.15789  -1.28809 
 H                    -1.10848   1.28241  -2.17113 
 H                    -0.18666   2.13308   0.00896 
 H                    -1.13657   1.26576   2.16586 
 H                    -2.35756   2.16447   1.27191 
 H                    -4.51909   1.90256   1.94101 
 H                    -6.00698   2.02524   3.88459 
 H                    -5.96913   0.2321    5.61582 
 H                    -4.40205  -1.68449   5.34803 
 H                    -2.91406  -1.8118    3.41007 
 H                    -4.17037  -0.90358  -0.02826 
 H                    -4.18792   0.85614  -0.04619 
 

 GradGradGradGradGradGradGradGradGradGradGradGradGradGradGradGradGradGrad
 Berny optimization.
 Initialization pass.
 Trust Radius=3.00D-01 FncErr=1.00D-07 GrdErr=1.00D-07 EigMax=2.50D+02 EigMin=1.00D-04
 Number of steps in this run=      2 maximum allowed number of steps=      2.
 GradGradGradGradGradGradGradGradGradGradGradGradGradGradGradGradGradGrad

                          Input orientation:                          
 ---------------------------------------------------------------------
 Center     Atomic      Atomic             Coordinates (Angstroms)
 Number     Number       Type             X           Y           Z
 ---------------------------------------------------------------------
      1          8           0        1.216259    0.000000    0.000000
      2          6           0        0.000000    0.000000    0.000000
      3          6           0       -0.850141   -1.265980   -0.001556
      4          6           0       -1.757229   -1.256614    1.253543
      5          6           0       -1.726592   -1.262024   -1.277816
      6          6           0       -2.622696   -0.009399   -1.277134
      7          6           0       -1.738233    1.253207   -1.272403
      8          6           0       -0.852033    1.263712   -0.001556
      9          6           0       -1.752968    1.249419    1.257815
     10          6           0       -2.672871   -0.006408    1.277688
     11          6           0       -3.588848    0.034255    2.508540
     12          6           0       -4.481642    1.107009    2.680369
     13          6           0       -5.329605    1.181063    3.783495
     14          6           0       -5.309524    0.177451    4.754006
     15          6           0       -4.432198   -0.893889    4.602564
     16          6           0       -3.583835   -0.963113    3.493990
     17          6           0       -3.523252   -0.016231   -0.025884
     18          1           0       -0.181752   -2.132789    0.015680
     19          1           0       -1.131786   -1.284688    2.154943
     20          1           0       -2.364635   -2.171379    1.255103
     21          1           0       -1.090780   -1.279914   -2.172595
     22          1           0       -2.339955   -2.172980   -1.301016
     23          1           0       -3.253261   -0.009862   -2.175774
     24          1           0       -2.361335    2.157894   -1.288092
     25          1           0       -1.108480    1.282413   -2.171126
     26          1           0       -0.186658    2.133083    0.008955
     27          1           0       -1.136568    1.265764    2.165855
     28          1           0       -2.357556    2.164474    1.271911
     29          1           0       -4.519092    1.902555    1.941014
     30          1           0       -6.006981    2.025240    3.884590
     31          1           0       -5.969134    0.232096    5.615815
     32          1           0       -4.402049   -1.684487    5.348030
     33          1           0       -2.914063   -1.811803    3.410073
     34          1           0       -4.170366   -0.903581   -0.028257
     35          1           0       -4.187915    0.856140   -0.046191
 ---------------------------------------------------------------------
                    Distance matrix (angstroms):
                    1          2          3          4          5
     1  O    0.000000
     2  C    1.216259   0.000000
     3  C    2.423369   1.524942   0.000000
     4  C    3.462958   2.497659   1.548603   0.000000
     5  C    3.447592   2.491313   1.548232   2.531550   0.000000
     6  C    4.045829   2.917138   2.519533   2.951085   1.540153
     7  C    3.452327   2.492186   2.958050   3.560894   2.515264
     8  C    2.423799   1.524116   2.529693   2.957481   2.961931
     9  C    3.458245   2.493199   2.954377   2.506040   3.568959
    10  C    4.093637   2.962561   2.558385   1.549838   3.000436
    11  C    5.420609   4.378787   3.935951   2.568305   4.414162
    12  C    6.393428   5.338067   5.100157   3.878785   5.373067
    13  C    7.652325   6.641870   6.354544   5.010469   6.675870
    14  C    8.075760   7.129033   6.677197   5.189276   7.161869
    15  C    7.340824   6.451900   5.845298   4.301508   6.483417
    16  C    6.014687   5.097002   4.447882   2.905552   5.129214
    17  C    4.739609   3.523384   2.950930   2.508848   2.519389
    18  H    2.550190   2.140577   1.094714   2.186805   2.194970
    19  H    3.436207   2.752298   2.174894   1.097492   3.483984
    20  H    4.371839   3.446980   2.166248   1.098062   2.765810
    21  H    3.417715   2.747390   2.184379   3.490432   1.097819
    22  H    4.365907   3.448170   2.175038   2.775800   1.098450
    23  H    4.970986   3.913796   3.475635   3.943693   2.169091
    24  H    4.372055   3.448419   3.957499   4.299269   3.478339
    25  H    3.429691   2.754469   3.356796   4.312295   2.766627
    26  H    2.553096   2.141253   3.463228   3.937733   3.943847
    27  H    3.439314   2.754065   3.345062   2.753166   4.312390
    28  H    4.367477   3.443948   3.957529   3.473409   4.317420
    29  H    6.346771   5.273466   5.222489   4.252159   5.307870
    30  H    8.447889   7.434747   7.247569   5.979412   7.468485
    31  H    9.122561   8.198891   7.746172   6.243862   8.231264
    32  H    7.937525   7.128601   6.435003   4.893156   7.158099
    33  H    5.654272   4.837664   4.024538   2.509407   4.867098
    34  H    5.461958   4.267225   3.340051   2.755154   2.768016
    35  H    5.471764   4.274780   3.955518   3.472934   3.472986
                    6          7          8          9         10
     6  C    0.000000
     7  C    1.541581   0.000000
     8  C    2.526491   1.549359   0.000000
     9  C    2.960915   2.530264   1.548517   0.000000
    10  C    2.555316   2.993851   2.562249   1.556829   0.000000
    11  C    3.907260   4.382482   3.911816   2.532073   1.534817
    12  C    4.512635   4.813738   4.515677   3.080520   2.545361
    13  C    5.861273   6.202037   5.863625   4.379048   3.840233
    14  C    6.605195   7.087240   6.607916   5.101133   4.366982
    15  C    6.215100   6.810485   6.218581   4.791596   3.864926
    16  C    4.959535   5.571070   4.963903   3.639760   2.580142
    17  C    1.541647   2.520233   2.962137   2.526590   1.556452
    18  H    3.484015   3.942938   3.462050   3.930770   3.509962
    19  H    3.953268   4.307597   3.350088   2.759059   2.185982
    20  H    3.339607   4.302145   3.958157   3.475054   2.186920
    21  H    2.182390   2.765184   3.352677   4.313204   4.003659
    22  H    2.182108   3.478742   3.964008   4.313350   3.384462
    23  H    1.097801   2.169500   3.480677   3.952999   3.501894
    24  H    2.183023   1.098618   2.175484   2.770754   3.371125
    25  H    2.181937   1.097791   2.184754   3.489139   4.000337
    26  H    3.489776   2.196234   1.094824   2.189484   3.516868
    27  H    3.960908   3.490527   2.186009   1.097612   2.183458
    28  H    3.360603   2.772635   2.167877   1.096837   2.193669
    29  H    4.196232   4.298939   4.198693   2.923147   2.737275
    30  H    6.498964   6.738904   6.500426   5.059493   4.694659
    31  H    7.666141   8.148051   7.668364   6.148428   5.453584
    32  H    7.061502   7.717260   7.064882   5.688171   4.730083
    33  H    5.030255   5.718605   5.034876   3.918091   2.804406
    34  H    2.180490   3.480647   3.963484   3.483275   2.180115
    35  H    2.171241   2.768068   3.360984   2.789994   2.189064
                   11         12         13         14         15
    11  C    0.000000
    12  C    1.406203   0.000000
    13  C    2.443545   1.393346   0.000000
    14  C    2.832552   2.418561   1.396256   0.000000
    15  C    2.440825   2.775044   2.404504   1.392984   0.000000
    16  C    1.402098   2.398633   2.780111   2.422092   1.397658
    17  C    2.535775   3.082853   4.382670   5.106430   4.797812
    18  H    4.745391   6.007155   7.188771   7.354114   6.375003
    19  H    2.811013   4.149436   5.133595   5.132882   4.127504
    20  H    2.816846   4.154628   5.140300   5.141176   4.136701
    21  H    5.466298   6.383307   7.713563   8.240116   7.564183
    22  H    4.576498   5.585390   6.785268   7.141860   6.392637
    23  H    4.696527   5.132100   6.422024   7.230847   6.936661
    24  H    4.520071   4.620470   5.956998   7.008632   6.949941
    25  H    5.441452   5.911514   7.299704   8.174788   7.852787
    26  H    4.714647   5.161024   6.450070   7.251466   6.948986
    27  H    2.765452   3.388133   4.495052   5.029564   4.632799
    28  H    2.753755   2.759298   4.013506   4.978691   4.975035
    29  H    2.162865   1.086711   2.138275   3.393183   3.861541
    30  H    3.421243   2.149408   1.087057   2.157928   3.393633
    31  H    3.919191   3.405136   2.160308   1.086640   2.157937
    32  H    3.417320   3.862020   3.394040   2.154806   1.087048
    33  H    2.162412   3.392526   3.864134   3.391389   2.137600
    34  H    2.766413   3.387627   4.496557   5.033523   4.638227
    35  H    2.749732   2.753787   4.009430   4.975994   4.973248
                   16         17         18         19         20
    16  C    0.000000
    17  C    3.645514   0.000000
    18  H    5.004093   3.955650   0.000000
    19  H    2.812295   3.476219   2.489636   0.000000
    20  H    2.821165   2.761881   2.510505   1.765177   0.000000
    21  H    6.198861   3.481693   2.518387   4.327735   3.763845
    22  H    5.099323   2.770870   2.528467   3.767279   2.556239
    23  H    5.758836   2.166786   4.329371   4.988081   4.151232
    24  H    5.839820   2.769484   4.986017   5.021718   5.021002
    25  H    6.577485   3.481331   4.159874   5.030450   5.024505
    26  H    5.768250   3.969084   4.265880   4.144839   4.982455
    27  H    3.566644   3.484751   4.133411   2.550480   3.761857
    28  H    4.027803   2.792596   4.977822   3.765498   4.335891
    29  H    3.390943   2.922691   6.229240   4.655977   4.659302
    30  H    3.867100   5.062442   8.135783   6.141240   6.147560
    31  H    3.408859   6.154086   8.393330   6.138257   6.146943
    32  H    2.151120   5.695113   6.815118   4.588057   4.597844
    33  H    1.084394   3.924410   4.369263   2.242702   2.252790
    34  H    3.571244   1.098250   4.173958   3.760927   2.552448
    35  H    4.025851   1.096914   4.998686   4.332212   3.766110
                   21         22         23         24         25
    21  H    0.000000
    22  H    1.765688   0.000000
    23  H    2.507861   2.505675   0.000000
    24  H    3.770302   4.330946   2.506527   0.000000
    25  H    2.562389   3.770061   2.504013   1.765180   0.000000
    26  H    4.150319   4.989478   4.332356   2.532226   2.515184
    27  H    5.030380   5.029145   4.995734   3.771697   4.337104
    28  H    5.033205   5.043190   4.173315   2.560014   3.767323
    29  H    6.229222   5.645297   4.712495   3.892074   5.378340
    30  H    8.472459   7.613320   6.960792   6.329690   7.824244
    31  H    9.313637   8.172997   8.254900   8.024266   9.239349
    32  H    8.227271   6.978587   7.793055   7.935145   8.728562
    33  H    5.896902   4.759665   5.879093   6.175496   6.632050
    34  H    3.771427   2.565481   2.500329   3.772586   4.329619
    35  H    4.321639   3.763656   2.481665   2.563840   3.765631
                   26         27         28         29         30
    26  H    0.000000
    27  H    2.511332   0.000000
    28  H    2.511741   1.760008   0.000000
    29  H    4.749314   3.449279   2.277836   0.000000
    30  H    6.993450   5.220323   4.490410   2.450786   0.000000
    31  H    8.275727   6.026972   5.970518   4.289198   2.492777
    32  H    7.800582   5.430800   5.967344   4.948568   4.298783
    33  H    5.879495   3.765499   4.548870   4.304731   4.951182
    34  H    5.009256   4.327137   3.793373   3.445873   5.221256
    35  H    4.200438   3.790997   2.607555   2.270164   4.486294
                   31         32         33         34         35
    31  H    0.000000
    32  H    2.490131   0.000000
    33  H    4.286756   2.446628   0.000000
    34  H    6.031656   5.437642   3.771641   0.000000
    35  H    5.968290   5.966428   4.548228   1.759900   0.000000
 Stoichiometry    C16H18O
 Framework group  C1[X(C16H18O)]
 Deg. of freedom    99
 Full point group                 C1      NOp   1
 Largest Abelian subgroup         C1      NOp   1
 Largest concise Abelian subgroup C1      NOp   1
                         Standard orientation:                         
 ---------------------------------------------------------------------
 Center     Atomic      Atomic             Coordinates (Angstroms)
 Number     Number       Type             X           Y           Z
 ---------------------------------------------------------------------
      1          8           0       -3.361368   -1.461938   -1.368553
      2          6           0       -2.561936   -0.790182   -0.744904
      3          6           0       -2.037309   -1.159597    0.638478
      4          6           0       -0.495520   -1.286133    0.567444
      5          6           0       -2.422391   -0.028467    1.622997
      6          6           0       -1.800239    1.297006    1.145376
      7          6           0       -2.345123    1.643624   -0.254420
      8          6           0       -1.970149    0.519434   -1.252471
      9          6           0       -0.429803    0.371649   -1.310766
     10          6           0        0.157083    0.036679    0.091759
     11          6           0        1.687267   -0.051945    0.012100
     12          6           0        2.431462    1.065970   -0.404851
     13          6           0        3.821610    1.026424   -0.490509
     14          6           0        4.513238   -0.140426   -0.159385
     15          6           0        3.794602   -1.259154    0.255845
     16          6           0        2.400214   -1.213874    0.339982
     17          6           0       -0.266065    1.158061    1.084730
     18          1           0       -2.486237   -2.112429    0.936762
     19          1           0       -0.228423   -2.105346   -0.112290
     20          1           0       -0.118941   -1.558221    1.562380
     21          1           0       -3.514706    0.060306    1.687595
     22          1           0       -2.060446   -0.282236    2.628577
     23          1           0       -2.062635    2.098725    1.847916
     24          1           0       -1.923809    2.595787   -0.604906
     25          1           0       -3.435199    1.768974   -0.220275
     26          1           0       -2.376921    0.723299   -2.248270
     27          1           0       -0.150603   -0.416457   -2.021884
     28          1           0        0.002046    1.305425   -1.691057
     29          1           0        1.919933    1.987681   -0.668915
     30          1           0        4.364981    1.909458   -0.817146
     31          1           0        5.597321   -0.175026   -0.225368
     32          1           0        4.315662   -2.176635    0.517375
     33          1           0        1.874661   -2.104375    0.666652
     34          1           0        0.134366    0.928075    2.081181
     35          1           0        0.178246    2.114075    0.781671
 ---------------------------------------------------------------------
 Rotational constants (GHZ):           1.1101491           0.3120492           0.2980539
 Standard basis: 6-31G(d) (6D, 7F)
 There are   291 symmetry adapted cartesian basis functions of A   symmetry.
 There are   291 symmetry adapted basis functions of A   symmetry.
   291 basis functions,   548 primitive gaussians,   291 cartesian basis functions
    61 alpha electrons       61 beta electrons
       nuclear repulsion energy      1225.0566585085 Hartrees.
 NAtoms=   35 NActive=   35 NUniq=   35 SFac= 1.00D+00 NAtFMM=   60 NAOKFM=F Big=F
 Integral buffers will be    131072 words long.
 Raffenetti 2 integral format.
 Two-electron integral symmetry is turned on.
 One-electron integrals computed using PRISM.
 NBasis=   291 RedAO= T EigKep=  4.44D-04  NBF=   291
 NBsUse=   291 1.00D-06 EigRej= -1.00D+00 NBFU=   291
 ExpMin= 1.61D-01 ExpMax= 5.48D+03 ExpMxC= 8.25D+02 IAcc=3 IRadAn=         5 AccDes= 0.00D+00
 Harris functional with IExCor=  402 and IRadAn=       5 diagonalized for initial guess.
 HarFok:  IExCor=  402 AccDes= 0.00D+00 IRadAn=         5 IDoV= 1 UseB2=F ITyADJ=14
 ICtDFT=  3500011 ScaDFX=  1.000000  1.000000  1.000000  1.000000
 FoFCou: FMM=F IPFlag=           0 FMFlag=      100000 FMFlg1=           0
         NFxFlg=           0 DoJE=T BraDBF=F KetDBF=T FulRan=T
         wScrn=  0.000000 ICntrl=       500 IOpCl=  0 I1Cent=   200000004 NGrid=           0
         NMat0=    1 NMatS0=      1 NMatT0=    0 NMatD0=    1 NMtDS0=    0 NMtDT0=    0
 Petite list used in FoFCou.
 Requested convergence on RMS density matrix=1.00D-08 within 128 cycles.
 Requested convergence on MAX density matrix=1.00D-06.
 Requested convergence on             energy=1.00D-06.
 No special actions if energy rises.
 Integral accuracy reduced to 1.0D-05 until final iterations.
 Initial convergence to 1.0D-05 achieved.  Increase integral accuracy.
 SCF Done:  E(RB3LYP) =  -695.783092100     A.U. after   14 cycles
            NFock= 14  Conv=0.65D-08     -V/T= 2.0097
 DoSCS=F DFT=T ScalE2(SS,OS)=  1.000000  1.000000
 Range of M.O.s used for correlation:     1   291
 NBasis=   291 NAE=    61 NBE=    61 NFC=     0 NFV=     0
 NROrb=    291 NOA=    61 NOB=    61 NVA=   230 NVB=   230
 Symmetrizing basis deriv contribution to polar:
 IMax=3 JMax=2 DiffMx= 0.00D+00
 G2DrvN: will do    36 centers at a time, making    1 passes.
 Calling FoFCou, ICntrl=  3107 FMM=F I1Cent=   0 AccDes= 0.00D+00.
 End of G2Drv F.D. properties file   721 does not exist.
 End of G2Drv F.D. properties file   722 does not exist.
 End of G2Drv F.D. properties file   788 does not exist.
          IDoAtm=11111111111111111111111111111111111
          Differentiating once with respect to electric field.
                with respect to dipole field.
          Differentiating once with respect to nuclear coordinates.
 Keep R1 ints in memory in canonical form, NReq=915016047.
          There are   108 degrees of freedom in the 1st order CPHF.  IDoFFX=6 NUNeed=     3.
    105 vectors produced by pass  0 Test12= 1.40D-14 1.00D-09 XBig12= 1.69D+02 5.20D+00.
 AX will form   105 AO Fock derivatives at one time.
    105 vectors produced by pass  1 Test12= 1.40D-14 1.00D-09 XBig12= 2.13D+01 9.11D-01.
    105 vectors produced by pass  2 Test12= 1.40D-14 1.00D-09 XBig12= 1.55D-01 4.43D-02.
    105 vectors produced by pass  3 Test12= 1.40D-14 1.00D-09 XBig12= 4.72D-04 3.43D-03.
    105 vectors produced by pass  4 Test12= 1.40D-14 1.00D-09 XBig12= 5.44D-07 5.37D-05.
     68 vectors produced by pass  5 Test12= 1.40D-14 1.00D-09 XBig12= 4.43D-10 1.93D-06.
      5 vectors produced by pass  6 Test12= 1.40D-14 1.00D-09 XBig12= 3.36D-13 5.52D-08.
      2 vectors produced by pass  7 Test12= 1.40D-14 1.00D-09 XBig12= 2.85D-16 1.78D-09.
 InvSVY:  IOpt=1 It=  1 EMax= 7.11D-15
 Solved reduced A of dimension   600 with   108 vectors.
 Isotropic polarizability for W=    0.000000      154.20 Bohr**3.
 End of Minotr F.D. properties file   721 does not exist.
 End of Minotr F.D. properties file   722 does not exist.
 End of Minotr F.D. properties file   788 does not exist.

 **********************************************************************

            Population analysis using the SCF density.

 **********************************************************************

 Orbital symmetries:
       Occupied  (A) (A) (A) (A) (A) (A) (A) (A) (A) (A) (A) (A)
                 (A) (A) (A) (A) (A) (A) (A) (A) (A) (A) (A) (A)
                 (A) (A) (A) (A) (A) (A) (A) (A) (A) (A) (A) (A)
                 (A) (A) (A) (A) (A) (A) (A) (A) (A) (A) (A) (A)
                 (A) (A) (A) (A) (A) (A) (A) (A) (A) (A) (A) (A)
                 (A)
       Virtual   (A) (A) (A) (A) (A) (A) (A) (A) (A) (A) (A) (A)
                 (A) (A) (A) (A) (A) (A) (A) (A) (A) (A) (A) (A)
                 (A) (A) (A) (A) (A) (A) (A) (A) (A) (A) (A) (A)
                 (A) (A) (A) (A) (A) (A) (A) (A) (A) (A) (A) (A)
                 (A) (A) (A) (A) (A) (A) (A) (A) (A) (A) (A) (A)
                 (A) (A) (A) (A) (A) (A) (A) (A) (A) (A) (A) (A)
                 (A) (A) (A) (A) (A) (A) (A) (A) (A) (A) (A) (A)
                 (A) (A) (A) (A) (A) (A) (A) (A) (A) (A) (A) (A)
                 (A) (A) (A) (A) (A) (A) (A) (A) (A) (A) (A) (A)
                 (A) (A) (A) (A) (A) (A) (A) (A) (A) (A) (A) (A)
                 (A) (A) (A) (A) (A) (A) (A) (A) (A) (A) (A) (A)
                 (A) (A) (A) (A) (A) (A) (A) (A) (A) (A) (A) (A)
                 (A) (A) (A) (A) (A) (A) (A) (A) (A) (A) (A) (A)
                 (A) (A) (A) (A) (A) (A) (A) (A) (A) (A) (A) (A)
                 (A) (A) (A) (A) (A) (A) (A) (A) (A) (A) (A) (A)
                 (A) (A) (A) (A) (A) (A) (A) (A) (A) (A) (A) (A)
                 (A) (A) (A) (A) (A) (A) (A) (A) (A) (A) (A) (A)
                 (A) (A) (A) (A) (A) (A) (A) (A) (A) (A) (A) (A)
                 (A) (A) (A) (A) (A) (A) (A) (A) (A) (A) (A) (A)
                 (A) (A)
 The electronic state is 1-A.
 Alpha  occ. eigenvalues --  -19.13124 -10.26214 -10.20853 -10.19714 -10.19545
 Alpha  occ. eigenvalues --  -10.19353 -10.19302 -10.19192 -10.19159 -10.19154
 Alpha  occ. eigenvalues --  -10.19117 -10.19037 -10.18974 -10.18870 -10.18861
 Alpha  occ. eigenvalues --  -10.18793 -10.18654  -1.02941  -0.88015  -0.85048
 Alpha  occ. eigenvalues --   -0.79100  -0.78066  -0.76510  -0.74330  -0.72644
 Alpha  occ. eigenvalues --   -0.67870  -0.64939  -0.61627  -0.61090  -0.59211
 Alpha  occ. eigenvalues --   -0.57718  -0.56438  -0.52322  -0.49573  -0.47381
 Alpha  occ. eigenvalues --   -0.46041  -0.45441  -0.45067  -0.44534  -0.43991
 Alpha  occ. eigenvalues --   -0.43328  -0.42064  -0.41905  -0.40839  -0.40650
 Alpha  occ. eigenvalues --   -0.39872  -0.39510  -0.36582  -0.36221  -0.36151
 Alpha  occ. eigenvalues --   -0.35062  -0.35042  -0.33784  -0.33698  -0.33115
 Alpha  occ. eigenvalues --   -0.30328  -0.29952  -0.29473  -0.24944  -0.24189
 Alpha  occ. eigenvalues --   -0.22862
 Alpha virt. eigenvalues --   -0.00938  -0.00223   0.00110   0.06724   0.09208
 Alpha virt. eigenvalues --    0.10995   0.11723   0.12613   0.12957   0.13255
 Alpha virt. eigenvalues --    0.14305   0.14663   0.15140   0.15349   0.15673
 Alpha virt. eigenvalues --    0.16802   0.17610   0.18425   0.19069   0.19244
 Alpha virt. eigenvalues --    0.19524   0.19956   0.21190   0.21819   0.21972
 Alpha virt. eigenvalues --    0.23201   0.23975   0.24112   0.25441   0.26608
 Alpha virt. eigenvalues --    0.28166   0.28421   0.29018   0.29460   0.30700
 Alpha virt. eigenvalues --    0.33843   0.34328   0.35275   0.36317   0.38171
 Alpha virt. eigenvalues --    0.47134   0.50007   0.51292   0.51673   0.53177
 Alpha virt. eigenvalues --    0.54102   0.54973   0.55053   0.55940   0.56464
 Alpha virt. eigenvalues --    0.57201   0.57857   0.59551   0.59614   0.60660
 Alpha virt. eigenvalues --    0.60784   0.60987   0.62215   0.63566   0.64049
 Alpha virt. eigenvalues --    0.64411   0.65915   0.66301   0.67237   0.67556
 Alpha virt. eigenvalues --    0.68298   0.69503   0.71607   0.71883   0.75062
 Alpha virt. eigenvalues --    0.75531   0.76682   0.77353   0.78445   0.79347
 Alpha virt. eigenvalues --    0.81000   0.82116   0.82601   0.83392   0.84029
 Alpha virt. eigenvalues --    0.84100   0.85417   0.86318   0.86847   0.87196
 Alpha virt. eigenvalues --    0.87988   0.88540   0.89565   0.91070   0.91750
 Alpha virt. eigenvalues --    0.92745   0.93988   0.94251   0.94836   0.95222
 Alpha virt. eigenvalues --    0.96063   0.98031   0.98511   0.99718   1.01522
 Alpha virt. eigenvalues --    1.04386   1.05516   1.09257   1.09749   1.10836
 Alpha virt. eigenvalues --    1.13388   1.14194   1.16741   1.17148   1.17636
 Alpha virt. eigenvalues --    1.18967   1.20383   1.22580   1.24398   1.26774
 Alpha virt. eigenvalues --    1.28071   1.29505   1.34136   1.40965   1.41280
 Alpha virt. eigenvalues --    1.43433   1.44578   1.45704   1.48448   1.48815
 Alpha virt. eigenvalues --    1.49314   1.51523   1.52232   1.52975   1.60563
 Alpha virt. eigenvalues --    1.61129   1.65318   1.65599   1.68989   1.69288
 Alpha virt. eigenvalues --    1.71597   1.74175   1.75834   1.76620   1.77150
 Alpha virt. eigenvalues --    1.78895   1.79114   1.81202   1.82497   1.83963
 Alpha virt. eigenvalues --    1.84977   1.85567   1.86609   1.88540   1.90376
 Alpha virt. eigenvalues --    1.91122   1.92517   1.94924   1.97078   1.98273
 Alpha virt. eigenvalues --    2.00987   2.02872   2.03835   2.05679   2.07680
 Alpha virt. eigenvalues --    2.07975   2.08806   2.11404   2.13212   2.14059
 Alpha virt. eigenvalues --    2.14689   2.15107   2.15889   2.18066   2.19691
 Alpha virt. eigenvalues --    2.21057   2.22199   2.24224   2.26512   2.29380
 Alpha virt. eigenvalues --    2.29797   2.30834   2.32380   2.33926   2.35302
 Alpha virt. eigenvalues --    2.36079   2.38531   2.40348   2.42377   2.44147
 Alpha virt. eigenvalues --    2.46674   2.47285   2.51760   2.52690   2.56494
 Alpha virt. eigenvalues --    2.58317   2.58887   2.62204   2.63402   2.64746
 Alpha virt. eigenvalues --    2.68662   2.69385   2.70963   2.72051   2.73426
 Alpha virt. eigenvalues --    2.74081   2.74206   2.76149   2.77281   2.78028
 Alpha virt. eigenvalues --    2.81269   2.81495   2.85973   3.00706   3.01704
 Alpha virt. eigenvalues --    3.03688   3.11436   3.41232   4.09027   4.10095
 Alpha virt. eigenvalues --    4.11717   4.14217   4.17964   4.27233   4.29229
 Alpha virt. eigenvalues --    4.31045   4.33258   4.39968   4.50342   4.56328
 Alpha virt. eigenvalues --    4.67746   4.71695   4.79984   4.84446   4.85137
          Condensed to atoms (all electrons):
               1          2          3          4          5          6
     1  O    8.012860   0.579812  -0.073994   0.000997   0.000901   0.000045
     2  C    0.579812   4.513508   0.330759  -0.027880  -0.029238  -0.020517
     3  C   -0.073994   0.330759   5.231351   0.321225   0.338730  -0.027677
     4  C    0.000997  -0.027880   0.321225   5.182191  -0.038006  -0.014254
     5  C    0.000901  -0.029238   0.338730  -0.038006   5.095236   0.374902
     6  C    0.000045  -0.020517  -0.027677  -0.014254   0.374902   4.945240
     7  C    0.000958  -0.029572  -0.008110  -0.003057  -0.049307   0.374941
     8  C   -0.073736   0.331268  -0.125175  -0.006215  -0.008471  -0.028543
     9  C    0.000914  -0.027865  -0.007110  -0.058784  -0.002515  -0.014280
    10  C    0.000110  -0.019297  -0.017752   0.360979  -0.016257  -0.021311
    11  C    0.000001   0.000015   0.003383  -0.037304  -0.000048   0.004110
    12  C   -0.000000  -0.000007  -0.000102   0.005484  -0.000002   0.000352
    13  C   -0.000000   0.000000   0.000001  -0.000157   0.000000  -0.000000
    14  C   -0.000000  -0.000000   0.000000  -0.000003  -0.000000  -0.000000
    15  C   -0.000000   0.000000  -0.000007   0.000184   0.000000   0.000001
    16  C   -0.000000  -0.000014   0.000570  -0.009963  -0.000012  -0.000071
    17  C   -0.000031  -0.002821  -0.013279  -0.057466  -0.045996   0.352751
    18  H    0.004280  -0.031911   0.345553  -0.031238  -0.031506   0.004220
    19  H    0.000744  -0.001039  -0.039637   0.361431   0.005103  -0.000046
    20  H   -0.000083   0.003544  -0.031156   0.353974  -0.006051  -0.000749
    21  H    0.000768  -0.000909  -0.039725   0.005123   0.367718  -0.034962
    22  H   -0.000082   0.003548  -0.030917  -0.006103   0.360859  -0.033396
    23  H   -0.000000   0.000300   0.004666   0.000107  -0.038149   0.368463
    24  H   -0.000083   0.003565  -0.000320   0.000120   0.005282  -0.033812
    25  H    0.000731  -0.000854  -0.000065   0.000058  -0.004271  -0.034814
    26  H    0.004190  -0.031712   0.007139  -0.000060  -0.000053   0.004166
    27  H    0.000711  -0.001334   0.000443  -0.006711  -0.000009  -0.000045
    28  H   -0.000082   0.003554  -0.000313   0.005879   0.000099  -0.000716
    29  H   -0.000000  -0.000005  -0.000002   0.000093  -0.000001  -0.000135
    30  H    0.000000  -0.000000  -0.000000   0.000002  -0.000000  -0.000000
    31  H    0.000000   0.000000  -0.000000  -0.000000   0.000000   0.000000
    32  H    0.000000  -0.000000  -0.000000   0.000004  -0.000000  -0.000000
    33  H   -0.000000  -0.000016   0.000078   0.007831  -0.000005  -0.000007
    34  H    0.000000   0.000141  -0.001136  -0.005967  -0.003956  -0.034163
    35  H    0.000000   0.000146  -0.000075   0.005840   0.005139  -0.034000
               7          8          9         10         11         12
     1  O    0.000958  -0.073736   0.000914   0.000110   0.000001  -0.000000
     2  C   -0.029572   0.331268  -0.027865  -0.019297   0.000015  -0.000007
     3  C   -0.008110  -0.125175  -0.007110  -0.017752   0.003383  -0.000102
     4  C   -0.003057  -0.006215  -0.058784   0.360979  -0.037304   0.005484
     5  C   -0.049307  -0.008471  -0.002515  -0.016257  -0.000048  -0.000002
     6  C    0.374941  -0.028543  -0.014280  -0.021311   0.004110   0.000352
     7  C    5.098451   0.338798  -0.038949  -0.016343   0.000031  -0.000048
     8  C    0.338798   5.237796   0.312934  -0.020347   0.004079   0.000343
     9  C   -0.038949   0.312934   5.177191   0.364735  -0.044430  -0.008855
    10  C   -0.016343  -0.020347   0.364735   4.962273   0.353339  -0.052746
    11  C    0.000031   0.004079  -0.044430   0.353339   4.706915   0.522633
    12  C   -0.000048   0.000343  -0.008855  -0.052746   0.522633   5.003940
    13  C   -0.000000  -0.000001   0.000303   0.005218  -0.014923   0.525537
    14  C   -0.000000  -0.000000   0.000002   0.000331  -0.034275  -0.036150
    15  C    0.000000   0.000001  -0.000159   0.006810  -0.016327  -0.045724
    16  C   -0.000002  -0.000060   0.001045  -0.052663   0.549718  -0.056747
    17  C   -0.046462  -0.012423  -0.053754   0.371117  -0.047659  -0.008705
    18  H   -0.000043   0.007147  -0.000074   0.003461  -0.000101   0.000002
    19  H    0.000008   0.000481  -0.006678  -0.029757  -0.006314  -0.000072
    20  H    0.000132  -0.000402   0.006059  -0.028186  -0.006243  -0.000115
    21  H   -0.004353  -0.000024   0.000043   0.000176   0.000012  -0.000000
    22  H    0.005247  -0.000298   0.000106  -0.001141  -0.000095   0.000000
    23  H   -0.037907   0.004622   0.000078   0.004130  -0.000094  -0.000008
    24  H    0.360311  -0.031686  -0.005622  -0.001290  -0.000078  -0.000034
    25  H    0.367131  -0.039251   0.005104   0.000179   0.000012   0.000001
    26  H   -0.031250   0.344733  -0.030405   0.003522  -0.000103  -0.000006
    27  H    0.005060  -0.037764   0.363202  -0.034159  -0.002094  -0.000206
    28  H   -0.005937  -0.029724   0.354910  -0.030624  -0.008754   0.005043
    29  H   -0.000014  -0.000118   0.000106  -0.008178  -0.048421   0.352539
    30  H   -0.000000  -0.000000  -0.000000  -0.000170   0.003460  -0.039511
    31  H    0.000000   0.000000   0.000000   0.000009   0.000759   0.004682
    32  H   -0.000000  -0.000000   0.000002  -0.000165   0.003598   0.000854
    33  H   -0.000001  -0.000006   0.000250  -0.016322  -0.040347   0.006302
    34  H    0.005130  -0.000142   0.005851  -0.035596  -0.001641  -0.000182
    35  H   -0.003660  -0.001119  -0.004959  -0.033482  -0.008535   0.005005
              13         14         15         16         17         18
     1  O   -0.000000  -0.000000  -0.000000  -0.000000  -0.000031   0.004280
     2  C    0.000000  -0.000000   0.000000  -0.000014  -0.002821  -0.031911
     3  C    0.000001   0.000000  -0.000007   0.000570  -0.013279   0.345553
     4  C   -0.000157  -0.000003   0.000184  -0.009963  -0.057466  -0.031238
     5  C    0.000000  -0.000000   0.000000  -0.000012  -0.045996  -0.031506
     6  C   -0.000000  -0.000000   0.000001  -0.000071   0.352751   0.004220
     7  C   -0.000000  -0.000000   0.000000  -0.000002  -0.046462  -0.000043
     8  C   -0.000001  -0.000000   0.000001  -0.000060  -0.012423   0.007147
     9  C    0.000303   0.000002  -0.000159   0.001045  -0.053754  -0.000074
    10  C    0.005218   0.000331   0.006810  -0.052663   0.371117   0.003461
    11  C   -0.014923  -0.034275  -0.016327   0.549718  -0.047659  -0.000101
    12  C    0.525537  -0.036150  -0.045724  -0.056747  -0.008705   0.000002
    13  C    4.866109   0.547649  -0.026961  -0.043726   0.000290  -0.000000
    14  C    0.547649   4.848994   0.553647  -0.035000   0.000002  -0.000000
    15  C   -0.026961   0.553647   4.885239   0.508725  -0.000159   0.000000
    16  C   -0.043726  -0.035000   0.508725   4.995240   0.001061   0.000004
    17  C    0.000290   0.000002  -0.000159   0.001061   5.151271   0.000145
    18  H   -0.000000  -0.000000   0.000000   0.000004   0.000145   0.601390
    19  H   -0.000001  -0.000007   0.000049   0.001716   0.005879  -0.002675
    20  H   -0.000000  -0.000006   0.000045   0.001868  -0.005761  -0.003975
    21  H    0.000000   0.000000  -0.000000   0.000000   0.005019  -0.002449
    22  H    0.000000  -0.000000  -0.000000  -0.000003  -0.003612  -0.004132
    23  H   -0.000000   0.000000  -0.000000   0.000001  -0.037857  -0.000146
    24  H   -0.000000  -0.000000  -0.000000   0.000001  -0.003457   0.000023
    25  H    0.000000   0.000000   0.000000  -0.000000   0.005007  -0.000081
    26  H   -0.000000   0.000000  -0.000000   0.000000   0.000127  -0.000185
    27  H   -0.000042  -0.000012  -0.000022   0.001289   0.005715  -0.000090
    28  H   -0.000009  -0.000002   0.000004  -0.000246  -0.004842   0.000023
    29  H   -0.043500   0.004867   0.000408   0.005956   0.000124   0.000000
    30  H    0.356527  -0.043196   0.004641   0.000850   0.000000   0.000000
    31  H   -0.043145   0.358575  -0.042792   0.004579   0.000000  -0.000000
    32  H    0.004626  -0.043561   0.356219  -0.038599   0.000002   0.000000
    33  H    0.000381   0.004884  -0.049352   0.354204   0.000240   0.000005
    34  H   -0.000051  -0.000011  -0.000026   0.001310   0.360323  -0.000076
    35  H   -0.000029  -0.000002   0.000003  -0.000214   0.358780   0.000017
              19         20         21         22         23         24
     1  O    0.000744  -0.000083   0.000768  -0.000082  -0.000000  -0.000083
     2  C   -0.001039   0.003544  -0.000909   0.003548   0.000300   0.003565
     3  C   -0.039637  -0.031156  -0.039725  -0.030917   0.004666  -0.000320
     4  C    0.361431   0.353974   0.005123  -0.006103   0.000107   0.000120
     5  C    0.005103  -0.006051   0.367718   0.360859  -0.038149   0.005282
     6  C   -0.000046  -0.000749  -0.034962  -0.033396   0.368463  -0.033812
     7  C    0.000008   0.000132  -0.004353   0.005247  -0.037907   0.360311
     8  C    0.000481  -0.000402  -0.000024  -0.000298   0.004622  -0.031686
     9  C   -0.006678   0.006059   0.000043   0.000106   0.000078  -0.005622
    10  C   -0.029757  -0.028186   0.000176  -0.001141   0.004130  -0.001290
    11  C   -0.006314  -0.006243   0.000012  -0.000095  -0.000094  -0.000078
    12  C   -0.000072  -0.000115  -0.000000   0.000000  -0.000008  -0.000034
    13  C   -0.000001  -0.000000   0.000000   0.000000  -0.000000  -0.000000
    14  C   -0.000007  -0.000006   0.000000  -0.000000   0.000000  -0.000000
    15  C    0.000049   0.000045  -0.000000  -0.000000  -0.000000  -0.000000
    16  C    0.001716   0.001868   0.000000  -0.000003   0.000001   0.000001
    17  C    0.005879  -0.005761   0.005019  -0.003612  -0.037857  -0.003457
    18  H   -0.002675  -0.003975  -0.002449  -0.004132  -0.000146   0.000023
    19  H    0.593596  -0.039130  -0.000158  -0.000059   0.000018   0.000000
    20  H   -0.039130   0.601030  -0.000046   0.005767  -0.000099  -0.000005
    21  H   -0.000158  -0.000046   0.593735  -0.035257  -0.003323   0.000005
    22  H   -0.000059   0.005767  -0.035257   0.600193  -0.003219  -0.000202
    23  H    0.000018  -0.000099  -0.003323  -0.003219   0.625672  -0.003235
    24  H    0.000000  -0.000005   0.000005  -0.000202  -0.003235   0.603055
    25  H   -0.000005   0.000000   0.004239   0.000004  -0.003417  -0.035327
    26  H   -0.000091   0.000024  -0.000085   0.000023  -0.000142  -0.004026
    27  H    0.004939  -0.000017  -0.000005   0.000001   0.000018  -0.000064
    28  H    0.000006  -0.000203   0.000001  -0.000004  -0.000079   0.005808
    29  H    0.000002   0.000000  -0.000000  -0.000000   0.000005   0.000043
    30  H    0.000000   0.000000  -0.000000   0.000000   0.000000   0.000000
    31  H    0.000000  -0.000000  -0.000000   0.000000  -0.000000   0.000000
    32  H    0.000004   0.000003  -0.000000   0.000000   0.000000   0.000000
    33  H    0.002015   0.001954  -0.000000  -0.000002   0.000000   0.000000
    34  H   -0.000068   0.005390  -0.000032   0.004609  -0.003456  -0.000059
    35  H   -0.000170  -0.000052  -0.000163  -0.000049  -0.003822   0.004744
              25         26         27         28         29         30
     1  O    0.000731   0.004190   0.000711  -0.000082  -0.000000   0.000000
     2  C   -0.000854  -0.031712  -0.001334   0.003554  -0.000005  -0.000000
     3  C   -0.000065   0.007139   0.000443  -0.000313  -0.000002  -0.000000
     4  C    0.000058  -0.000060  -0.006711   0.005879   0.000093   0.000002
     5  C   -0.004271  -0.000053  -0.000009   0.000099  -0.000001  -0.000000
     6  C   -0.034814   0.004166  -0.000045  -0.000716  -0.000135  -0.000000
     7  C    0.367131  -0.031250   0.005060  -0.005937  -0.000014  -0.000000
     8  C   -0.039251   0.344733  -0.037764  -0.029724  -0.000118  -0.000000
     9  C    0.005104  -0.030405   0.363202   0.354910   0.000106  -0.000000
    10  C    0.000179   0.003522  -0.034159  -0.030624  -0.008178  -0.000170
    11  C    0.000012  -0.000103  -0.002094  -0.008754  -0.048421   0.003460
    12  C    0.000001  -0.000006  -0.000206   0.005043   0.352539  -0.039511
    13  C    0.000000  -0.000000  -0.000042  -0.000009  -0.043500   0.356527
    14  C    0.000000   0.000000  -0.000012  -0.000002   0.004867  -0.043196
    15  C    0.000000  -0.000000  -0.000022   0.000004   0.000408   0.004641
    16  C   -0.000000   0.000000   0.001289  -0.000246   0.005956   0.000850
    17  C    0.005007   0.000127   0.005715  -0.004842   0.000124   0.000000
    18  H   -0.000081  -0.000185  -0.000090   0.000023   0.000000   0.000000
    19  H   -0.000005  -0.000091   0.004939   0.000006   0.000002   0.000000
    20  H    0.000000   0.000024  -0.000017  -0.000203   0.000000   0.000000
    21  H    0.004239  -0.000085  -0.000005   0.000001  -0.000000  -0.000000
    22  H    0.000004   0.000023   0.000001  -0.000004  -0.000000   0.000000
    23  H   -0.003417  -0.000142   0.000018  -0.000079   0.000005   0.000000
    24  H   -0.035327  -0.004026  -0.000064   0.005808   0.000043   0.000000
    25  H    0.593724  -0.002538  -0.000158  -0.000060  -0.000000  -0.000000
    26  H   -0.002538   0.600228  -0.002518  -0.004109   0.000003   0.000000
    27  H   -0.000158  -0.002518   0.587857  -0.034433   0.000058   0.000000
    28  H   -0.000060  -0.004109  -0.034433   0.597561   0.003857   0.000005
    29  H   -0.000000   0.000003   0.000058   0.003857   0.609746  -0.005819
    30  H   -0.000000   0.000000   0.000000   0.000005  -0.005819   0.600039
    31  H   -0.000000  -0.000000  -0.000000  -0.000000  -0.000189  -0.005425
    32  H   -0.000000   0.000000   0.000001   0.000000   0.000018  -0.000194
    33  H   -0.000000   0.000000  -0.000030  -0.000008  -0.000178   0.000018
    34  H   -0.000162   0.000018  -0.000163  -0.000069   0.000079   0.000000
    35  H   -0.000044  -0.000059  -0.000056   0.003452   0.004031   0.000006
              31         32         33         34         35
     1  O    0.000000   0.000000  -0.000000   0.000000   0.000000
     2  C    0.000000  -0.000000  -0.000016   0.000141   0.000146
     3  C   -0.000000  -0.000000   0.000078  -0.001136  -0.000075
     4  C   -0.000000   0.000004   0.007831  -0.005967   0.005840
     5  C    0.000000  -0.000000  -0.000005  -0.003956   0.005139
     6  C    0.000000  -0.000000  -0.000007  -0.034163  -0.034000
     7  C    0.000000  -0.000000  -0.000001   0.005130  -0.003660
     8  C    0.000000  -0.000000  -0.000006  -0.000142  -0.001119
     9  C    0.000000   0.000002   0.000250   0.005851  -0.004959
    10  C    0.000009  -0.000165  -0.016322  -0.035596  -0.033482
    11  C    0.000759   0.003598  -0.040347  -0.001641  -0.008535
    12  C    0.004682   0.000854   0.006302  -0.000182   0.005005
    13  C   -0.043145   0.004626   0.000381  -0.000051  -0.000029
    14  C    0.358575  -0.043561   0.004884  -0.000011  -0.000002
    15  C   -0.042792   0.356219  -0.049352  -0.000026   0.000003
    16  C    0.004579  -0.038599   0.354204   0.001310  -0.000214
    17  C    0.000000   0.000002   0.000240   0.360323   0.358780
    18  H   -0.000000   0.000000   0.000005  -0.000076   0.000017
    19  H    0.000000   0.000004   0.002015  -0.000068  -0.000170
    20  H   -0.000000   0.000003   0.001954   0.005390  -0.000052
    21  H   -0.000000  -0.000000  -0.000000  -0.000032  -0.000163
    22  H    0.000000   0.000000  -0.000002   0.004609  -0.000049
    23  H   -0.000000   0.000000   0.000000  -0.003456  -0.003822
    24  H    0.000000   0.000000   0.000000  -0.000059   0.004744
    25  H   -0.000000  -0.000000  -0.000000  -0.000162  -0.000044
    26  H   -0.000000   0.000000   0.000000   0.000018  -0.000059
    27  H   -0.000000   0.000001  -0.000030  -0.000163  -0.000056
    28  H   -0.000000   0.000000  -0.000008  -0.000069   0.003452
    29  H   -0.000189   0.000018  -0.000178   0.000079   0.004031
    30  H   -0.005425  -0.000194   0.000018   0.000000   0.000006
    31  H    0.599844  -0.005505  -0.000184  -0.000000  -0.000000
    32  H   -0.005505   0.599327  -0.005761   0.000001   0.000000
    33  H   -0.000184  -0.005761   0.604665  -0.000015  -0.000005
    34  H   -0.000000   0.000001  -0.000015   0.601358  -0.034376
    35  H   -0.000000   0.000000  -0.000005  -0.034376   0.604204
 Mulliken charges:
               1
     1  O   -0.459930
     2  C    0.454829
     3  C   -0.167345
     4  C   -0.308351
     5  C   -0.280118
     6  C   -0.095697
     7  C   -0.281184
     8  C   -0.166697
     9  C   -0.288395
    10  C   -0.000606
    11  C    0.165724
    12  C   -0.183499
    13  C   -0.134094
    14  C   -0.126725
    15  C   -0.134446
    16  C   -0.190821
    17  C   -0.273568
    18  H    0.142411
    19  H    0.149911
    20  H    0.142489
    21  H    0.144651
    22  H    0.138213
    23  H    0.126872
    24  H    0.136341
    25  H    0.144855
    26  H    0.143166
    27  H    0.150637
    28  H    0.140012
    29  H    0.124625
    30  H    0.128767
    31  H    0.128791
    32  H    0.129127
    33  H    0.129414
    34  H    0.137136
    35  H    0.133503
 Sum of Mulliken charges =  -0.00000
 Mulliken charges with hydrogens summed into heavy atoms:
               1
     1  O   -0.459930
     2  C    0.454829
     3  C   -0.024934
     4  C   -0.015951
     5  C    0.002746
     6  C    0.031175
     7  C    0.000013
     8  C   -0.023530
     9  C    0.002253
    10  C   -0.000606
    11  C    0.165724
    12  C   -0.058874
    13  C   -0.005327
    14  C    0.002066
    15  C   -0.005319
    16  C   -0.061406
    17  C   -0.002929
 APT charges:
               1
     1  O   -0.646161
     2  C    0.695752
     3  C   -0.036583
     4  C    0.084139
     5  C    0.112875
     6  C    0.104403
     7  C    0.116611
     8  C   -0.051111
     9  C    0.084524
    10  C    0.090929
    11  C    0.068076
    12  C   -0.086481
    13  C    0.017744
    14  C   -0.044151
    15  C    0.012762
    16  C   -0.080732
    17  C    0.054953
    18  H   -0.054824
    19  H   -0.031054
    20  H   -0.037785
    21  H   -0.045208
    22  H   -0.044319
    23  H   -0.080625
    24  H   -0.044127
    25  H   -0.046446
    26  H   -0.059125
    27  H   -0.030812
    28  H   -0.031763
    29  H    0.024685
    30  H    0.005579
    31  H    0.011112
    32  H    0.005163
    33  H    0.035161
    34  H   -0.039441
    35  H   -0.033719
 Sum of APT charges =   0.00000
 APT charges with hydrogens summed into heavy atoms:
               1
     1  O   -0.646161
     2  C    0.695752
     3  C   -0.091407
     4  C    0.015300
     5  C    0.023348
     6  C    0.023778
     7  C    0.026039
     8  C   -0.110236
     9  C    0.021949
    10  C    0.090929
    11  C    0.068076
    12  C   -0.061795
    13  C    0.023323
    14  C   -0.033039
    15  C    0.017924
    16  C   -0.045571
    17  C   -0.018207
 Electronic spatial extent (au):  <R**2>=           3968.4885
 Charge=             -0.0000 electrons
 Dipole moment (field-independent basis, Debye):
    X=              1.9099    Y=              1.7994    Z=              1.6617  Tot=              3.1059
 Quadrupole moment (field-independent basis, Debye-Ang):
   XX=           -106.5411   YY=            -98.4569   ZZ=           -103.1726
   XY=             -7.3913   XZ=             -7.2217   YZ=             -5.4017
 Traceless Quadrupole moment (field-independent basis, Debye-Ang):
   XX=             -3.8176   YY=              4.2666   ZZ=             -0.4490
   XY=             -7.3913   XZ=             -7.2217   YZ=             -5.4017
 Octapole moment (field-independent basis, Debye-Ang**2):
  XXX=             55.3562  YYY=             -0.8138  ZZZ=              0.4062  XYY=             13.1541
  XXY=             24.1906  XXZ=             20.4817  XZZ=             -6.0429  YZZ=              3.3234
  YYZ=              3.2495  XYZ=              5.8483
 Hexadecapole moment (field-independent basis, Debye-Ang**3):
 XXXX=          -3783.0207 YYYY=           -835.5814 ZZZZ=           -640.2899 XXXY=            -89.1430
 XXXZ=            -93.9159 YYYX=             -2.5472 YYYZ=            -12.1357 ZZZX=              5.9687
 ZZZY=              0.1214 XXYY=           -791.8616 XXZZ=           -816.2147 YYZZ=           -253.4055
 XXYZ=            -64.3786 YYXZ=            -14.6284 ZZXY=             -9.8591
 N-N= 1.225056658508D+03 E-N=-4.062998664311D+03  KE= 6.891196024159D+02
  Exact polarizability: 199.265  -0.240 147.793  -1.251 -10.241 115.554
 Approx polarizability: 271.329   4.773 249.418   2.312 -20.410 180.953
 Calling FoFJK, ICntrl=    100127 FMM=F ISym2X=0 I1Cent= 0 IOpClX= 0 NMat=1 NMatS=1 NMatT=0.
 Full mass-weighted force constant matrix:
 Low frequencies ---   -9.3633   -0.0006    0.0006    0.0006    6.3516    7.8515
 Low frequencies ---   50.7538   75.0700  107.7303
 Diagonal vibrational polarizability:
       10.8559103       7.1099596       9.0936728
 Harmonic frequencies (cm**-1), IR intensities (KM/Mole), Raman scattering
 activities (A**4/AMU), depolarization ratios for plane and unpolarized
 incident light, reduced masses (AMU), force constants (mDyne/A),
 and normal coordinates:
                      1                      2                      3
                      A                      A                      A
 Frequencies --     50.7468                75.0687               107.7281
 Red. masses --      3.8443                 6.7937                 4.6775
 Frc consts  --      0.0058                 0.0226                 0.0320
 IR Inten    --      0.2141                 1.8781                 1.4951
  Atom  AN      X      Y      Z        X      Y      Z        X      Y      Z
     1   8    -0.06   0.09  -0.03     0.36  -0.16  -0.22     0.19  -0.17  -0.04
     2   6    -0.03   0.04  -0.03     0.10  -0.01  -0.05    -0.01  -0.01   0.04
     3   6     0.01  -0.03  -0.06    -0.03   0.03   0.02     0.00   0.04   0.05
     4   6     0.00  -0.04  -0.08    -0.03   0.05   0.08    -0.01   0.03  -0.08
     5   6     0.03  -0.08   0.00    -0.08   0.02   0.01     0.10   0.03   0.09
     6   6     0.03  -0.06   0.05    -0.07   0.03   0.06     0.07   0.03   0.04
     7   6     0.01   0.01   0.08    -0.03   0.04   0.05    -0.06   0.03   0.09
     8   6    -0.02   0.05   0.02     0.01   0.06   0.05    -0.13   0.05   0.05
     9   6    -0.02   0.04  -0.01     0.02   0.09   0.10    -0.12   0.06  -0.08
    10   6     0.00  -0.02  -0.04    -0.02   0.06   0.11    -0.03   0.02  -0.13
    11   6     0.00  -0.01  -0.04    -0.03   0.03   0.09    -0.03  -0.02  -0.15
    12   6    -0.02  -0.07  -0.21    -0.02  -0.02  -0.04     0.02  -0.02  -0.08
    13   6    -0.01  -0.05  -0.18    -0.03  -0.10  -0.20     0.03  -0.02   0.11
    14   6     0.01   0.03   0.05    -0.05  -0.11  -0.21    -0.01  -0.01   0.21
    15   6     0.03   0.09   0.24    -0.06  -0.04  -0.03    -0.06  -0.03   0.07
    16   6     0.02   0.06   0.19    -0.04   0.03   0.12    -0.07  -0.03  -0.11
    17   6     0.03  -0.06   0.02    -0.06   0.04   0.11     0.06   0.03  -0.09
    18   1     0.00  -0.04  -0.09    -0.03   0.02  -0.02     0.02   0.04   0.07
    19   1     0.01  -0.01  -0.11     0.01   0.05   0.10    -0.08   0.03  -0.11
    20   1     0.00  -0.07  -0.09    -0.07   0.06   0.10     0.07   0.02  -0.11
    21   1     0.03  -0.07   0.03    -0.09   0.02  -0.04     0.11   0.05   0.19
    22   1     0.05  -0.13  -0.02    -0.13  -0.00   0.02     0.19   0.02   0.05
    23   1     0.04  -0.09   0.10    -0.10   0.01   0.06     0.13   0.03   0.07
    24   1     0.01   0.02   0.11    -0.04   0.05   0.07    -0.12   0.04   0.06
    25   1     0.01   0.01   0.10    -0.04   0.02   0.03    -0.06   0.01   0.19
    26   1    -0.03   0.10   0.04     0.05   0.07   0.03    -0.20   0.06   0.08
    27   1    -0.04   0.06  -0.05     0.05   0.11   0.09    -0.18   0.09  -0.13
    28   1    -0.03   0.05   0.01     0.02   0.10   0.14    -0.15   0.08  -0.08
    29   1    -0.03  -0.12  -0.38    -0.00  -0.01  -0.04     0.05  -0.02  -0.13
    30   1    -0.03  -0.09  -0.32    -0.02  -0.15  -0.32     0.07  -0.01   0.19
    31   1     0.01   0.05   0.09    -0.06  -0.18  -0.35     0.00  -0.00   0.37
    32   1     0.05   0.15   0.42    -0.07  -0.05  -0.02    -0.10  -0.04   0.12
    33   1     0.04   0.11   0.33    -0.05   0.08   0.23    -0.11  -0.04  -0.19
    34   1     0.05  -0.10  -0.00    -0.09   0.03   0.12     0.15   0.03  -0.13
    35   1     0.03  -0.05   0.04    -0.05   0.05   0.14     0.04   0.02  -0.14
                      4                      5                      6
                      A                      A                      A
 Frequencies --    141.7934               259.4587               273.5272
 Red. masses --      3.7485                 2.9955                 3.9387
 Frc consts  --      0.0444                 0.1188                 0.1736
 IR Inten    --      0.4095                 0.1956                 0.2815
  Atom  AN      X      Y      Z        X      Y      Z        X      Y      Z
     1   8     0.09  -0.01  -0.08     0.01   0.03  -0.04     0.02  -0.04   0.11
     2   6    -0.02   0.04   0.00    -0.00   0.03  -0.02     0.07  -0.03   0.03
     3   6    -0.10   0.05   0.04    -0.00   0.01  -0.01     0.10  -0.03  -0.00
     4   6    -0.09  -0.08   0.05    -0.02  -0.04  -0.09     0.07  -0.01  -0.07
     5   6    -0.04   0.10   0.00     0.19  -0.01   0.08     0.04  -0.02  -0.04
     6   6     0.09   0.04   0.01     0.06   0.02  -0.02     0.07  -0.02  -0.00
     7   6     0.15   0.09   0.00    -0.03  -0.04   0.01     0.20   0.03  -0.05
     8   6     0.02   0.03   0.02     0.02   0.00  -0.02     0.07  -0.04  -0.03
     9   6    -0.00  -0.13   0.01     0.02  -0.03  -0.04     0.05   0.02  -0.03
    10   6    -0.02  -0.13   0.01    -0.01  -0.03  -0.03    -0.00   0.04  -0.02
    11   6    -0.03  -0.11  -0.02    -0.03  -0.02   0.10    -0.08   0.08  -0.02
    12   6    -0.12  -0.05  -0.02    -0.08   0.01   0.15    -0.08   0.08  -0.02
    13   6    -0.12   0.09  -0.00    -0.09   0.02   0.03    -0.09   0.01  -0.00
    14   6    -0.03   0.15   0.01    -0.08  -0.01  -0.11    -0.17  -0.03   0.02
    15   6     0.07   0.08  -0.02    -0.03   0.01   0.02    -0.19  -0.01   0.02
    16   6     0.06  -0.06  -0.04    -0.02  -0.00   0.14    -0.17   0.05  -0.00
    17   6     0.07  -0.11   0.03     0.04   0.06  -0.12     0.04  -0.07   0.10
    18   1    -0.17   0.09   0.05    -0.03   0.03  -0.00     0.11  -0.03   0.00
    19   1    -0.15  -0.12   0.08    -0.04   0.01  -0.16     0.05   0.05  -0.14
    20   1    -0.11  -0.08   0.06     0.00  -0.12  -0.12     0.13  -0.06  -0.11
    21   1    -0.03   0.19  -0.04     0.21  -0.03   0.35     0.04  -0.04  -0.12
    22   1    -0.10   0.08   0.02     0.45  -0.02  -0.01    -0.02   0.00  -0.01
    23   1     0.16   0.07   0.01     0.08   0.03  -0.02     0.02  -0.02  -0.01
    24   1     0.28   0.03  -0.01    -0.14   0.01   0.00     0.41  -0.06  -0.04
    25   1     0.17   0.23  -0.01    -0.04  -0.15   0.05     0.23   0.24  -0.11
    26   1     0.03   0.05   0.02     0.01   0.01  -0.02     0.03  -0.05  -0.02
    27   1    -0.09  -0.19   0.04    -0.01  -0.05  -0.04     0.13   0.03  -0.01
    28   1     0.08  -0.19  -0.04     0.05  -0.05  -0.05     0.02   0.04  -0.02
    29   1    -0.20  -0.09  -0.02    -0.11   0.01   0.21    -0.07   0.09  -0.02
    30   1    -0.20   0.14   0.01    -0.12   0.03   0.01    -0.03  -0.03   0.00
    31   1    -0.02   0.25   0.04    -0.09  -0.03  -0.27    -0.17  -0.08   0.03
    32   1     0.15   0.12  -0.03     0.01   0.01  -0.02    -0.22  -0.02   0.03
    33   1     0.12  -0.10  -0.05     0.00   0.00   0.19    -0.23   0.09  -0.01
    34   1     0.04  -0.17   0.02     0.13   0.18  -0.12    -0.03  -0.26   0.08
    35   1     0.16  -0.14   0.05    -0.00   0.02  -0.27     0.13  -0.06   0.27
                      7                      8                      9
                      A                      A                      A
 Frequencies --    282.5017               291.5078               347.7281
 Red. masses --      2.6450                 3.0797                 3.6641
 Frc consts  --      0.1244                 0.1542                 0.2610
 IR Inten    --      0.8301                 0.0117                 0.7513
  Atom  AN      X      Y      Z        X      Y      Z        X      Y      Z
     1   8     0.02   0.11  -0.07     0.02   0.07   0.04    -0.04   0.02  -0.13
     2   6     0.05   0.03  -0.03     0.10   0.01  -0.00    -0.08  -0.02  -0.03
     3   6     0.05  -0.05  -0.02     0.03   0.02   0.03    -0.16   0.05   0.05
     4   6     0.06   0.04   0.17     0.01  -0.00   0.02    -0.12  -0.01  -0.03
     5   6     0.02  -0.09   0.01     0.04   0.02   0.03     0.05   0.04   0.16
     6   6    -0.01  -0.05   0.04    -0.03   0.02  -0.04     0.02  -0.00   0.03
     7   6     0.01  -0.01   0.05    -0.09  -0.08  -0.05     0.04  -0.15  -0.02
     8   6     0.04   0.02   0.02     0.11  -0.02  -0.04     0.08  -0.12  -0.03
     9   6     0.01  -0.14  -0.00     0.11   0.15   0.07     0.07  -0.07   0.04
    10   6     0.00   0.01   0.02     0.01  -0.00   0.06    -0.00   0.02   0.06
    11   6    -0.03   0.02  -0.04    -0.03  -0.10  -0.01     0.01   0.12  -0.02
    12   6    -0.03   0.01  -0.07    -0.10  -0.10  -0.09     0.07   0.08  -0.08
    13   6    -0.03   0.00  -0.00    -0.11  -0.00  -0.03     0.08   0.00  -0.04
    14   6    -0.05   0.00   0.06    -0.05   0.06   0.09     0.03  -0.01   0.05
    15   6    -0.07  -0.01  -0.01    -0.00  -0.01  -0.02    -0.05   0.02  -0.02
    16   6    -0.06  -0.00  -0.06    -0.01  -0.11  -0.09    -0.04   0.09  -0.08
    17   6     0.00   0.09  -0.07    -0.01   0.03   0.02     0.01  -0.01   0.10
    18   1     0.05  -0.07  -0.08     0.00   0.03   0.01    -0.15   0.06   0.08
    19   1     0.20  -0.05   0.35    -0.00   0.02  -0.02    -0.20   0.05  -0.13
    20   1    -0.04   0.25   0.27     0.04  -0.03  -0.00    -0.13  -0.16  -0.07
    21   1     0.03  -0.09   0.02     0.04  -0.02   0.10     0.07   0.08   0.42
    22   1     0.04  -0.12  -0.01     0.12   0.05   0.01     0.29  -0.01   0.06
    23   1    -0.04  -0.08   0.07    -0.06   0.05  -0.08    -0.01   0.08  -0.07
    24   1     0.00   0.01   0.11    -0.28   0.00  -0.06    -0.04  -0.12  -0.04
    25   1     0.01  -0.05   0.01    -0.11  -0.30  -0.04     0.03  -0.22  -0.03
    26   1     0.04   0.05   0.03     0.14  -0.07  -0.06     0.13  -0.08  -0.04
    27   1    -0.12  -0.31   0.13     0.27   0.32  -0.05     0.15  -0.12   0.12
    28   1     0.13  -0.28  -0.19     0.03   0.28   0.29     0.05  -0.08  -0.01
    29   1    -0.03   0.00  -0.09    -0.16  -0.14  -0.13     0.13   0.10  -0.13
    30   1    -0.01  -0.01   0.01    -0.15   0.02  -0.04     0.14  -0.04  -0.05
    31   1    -0.05   0.01   0.13    -0.04   0.15   0.21     0.03  -0.05   0.14
    32   1    -0.08  -0.02  -0.01     0.06   0.02  -0.02    -0.11  -0.02  -0.01
    33   1    -0.08   0.01  -0.07     0.02  -0.15  -0.13    -0.11   0.11  -0.12
    34   1     0.14   0.26  -0.09    -0.07   0.07   0.06    -0.03  -0.09   0.10
    35   1    -0.15   0.11  -0.23     0.01   0.02   0.01     0.07  -0.02   0.16
                     10                     11                     12
                      A                      A                      A
 Frequencies --    376.0918               391.0435               415.2534
 Red. masses --      4.7991                 2.5813                 3.0366
 Frc consts  --      0.3999                 0.2326                 0.3085
 IR Inten    --      0.9947                 0.0364                 0.2121
  Atom  AN      X      Y      Z        X      Y      Z        X      Y      Z
     1   8     0.16   0.14   0.10     0.01  -0.03   0.00    -0.01  -0.06   0.03
     2   6     0.12   0.14   0.13    -0.04   0.02   0.01    -0.03  -0.01   0.00
     3   6     0.02   0.04   0.13     0.05  -0.03  -0.04    -0.07   0.02   0.01
     4   6    -0.00  -0.09  -0.08     0.04  -0.06  -0.08    -0.07   0.13  -0.07
     5   6    -0.10  -0.02   0.13     0.11  -0.04  -0.02    -0.08  -0.07   0.08
     6   6    -0.18  -0.04  -0.01    -0.09   0.06  -0.04    -0.05  -0.07   0.09
     7   6    -0.06   0.02  -0.04     0.01   0.13  -0.07     0.14  -0.02   0.03
     8   6     0.10   0.07  -0.01    -0.05   0.04   0.03     0.06  -0.03  -0.03
     9   6     0.06  -0.09  -0.12    -0.05  -0.08   0.10     0.06   0.03  -0.09
    10   6    -0.02  -0.08  -0.10    -0.02   0.02   0.11    -0.01   0.10  -0.04
    11   6     0.00   0.03  -0.02     0.00   0.00   0.06     0.00  -0.05   0.04
    12   6     0.03   0.03   0.00     0.00  -0.04  -0.03    -0.01  -0.04   0.09
    13   6     0.04  -0.01  -0.01     0.00  -0.03  -0.04    -0.03  -0.03  -0.09
    14   6     0.02  -0.02  -0.01     0.03   0.02   0.06     0.02   0.03   0.01
    15   6    -0.00   0.01   0.02     0.03  -0.01  -0.03     0.05   0.02   0.07
    16   6    -0.00   0.04  -0.01     0.02  -0.03  -0.05     0.03  -0.09  -0.07
    17   6    -0.18  -0.13  -0.07    -0.08   0.09   0.06    -0.03   0.12  -0.03
    18   1    -0.03   0.02  -0.01     0.04  -0.03  -0.03     0.02  -0.04  -0.05
    19   1    -0.20  -0.07  -0.19     0.03   0.10  -0.29    -0.08   0.17  -0.13
    20   1     0.16  -0.19  -0.17     0.05  -0.30  -0.15    -0.01   0.07  -0.11
    21   1    -0.11  -0.17   0.13     0.11  -0.19   0.18    -0.08  -0.04   0.08
    22   1    -0.04   0.11   0.14     0.32   0.03  -0.08    -0.08  -0.13   0.07
    23   1    -0.08   0.01  -0.03    -0.17   0.01  -0.01    -0.09  -0.06   0.07
    24   1    -0.08   0.08   0.11     0.20   0.05  -0.05     0.38  -0.10   0.13
    25   1    -0.08  -0.07  -0.20     0.03   0.31  -0.16     0.16   0.20  -0.12
    26   1     0.02  -0.05  -0.00     0.02  -0.00  -0.01     0.01   0.03   0.01
    27   1    -0.11  -0.21  -0.06    -0.11  -0.20   0.21     0.11   0.01  -0.04
    28   1     0.21  -0.20  -0.21     0.02  -0.17  -0.05     0.01   0.04  -0.12
    29   1     0.06   0.05   0.01    -0.00  -0.05  -0.08    -0.04  -0.03   0.17
    30   1     0.05  -0.02  -0.02    -0.01  -0.03  -0.08    -0.08  -0.04  -0.20
    31   1     0.02  -0.04  -0.02     0.04   0.06   0.14     0.02   0.07   0.02
    32   1    -0.03   0.00   0.04     0.03  -0.02  -0.05     0.09   0.06   0.13
    33   1    -0.02   0.04  -0.04     0.04  -0.06  -0.10     0.05  -0.14  -0.18
    34   1    -0.20  -0.19  -0.08    -0.16   0.16   0.11     0.17   0.25  -0.08
    35   1    -0.16  -0.12   0.01    -0.05   0.06   0.02    -0.26   0.18  -0.17
                     13                     14                     15
                      A                      A                      A
 Frequencies --    417.8648               445.0196               445.8205
 Red. masses --      3.0145                 2.1244                 1.8981
 Frc consts  --      0.3101                 0.2479                 0.2223
 IR Inten    --      0.0408                 3.2297                 1.0779
  Atom  AN      X      Y      Z        X      Y      Z        X      Y      Z
     1   8     0.00  -0.02   0.02     0.01   0.05  -0.05    -0.00  -0.02   0.01
     2   6    -0.01   0.00   0.01    -0.01  -0.03   0.06    -0.01   0.04  -0.04
     3   6    -0.03   0.01   0.01    -0.04  -0.10   0.07     0.01   0.03  -0.03
     4   6    -0.03   0.05  -0.04    -0.02  -0.09   0.08     0.01   0.08   0.10
     5   6    -0.03  -0.03   0.04     0.02  -0.04   0.03     0.08  -0.04   0.07
     6   6    -0.03  -0.03   0.04    -0.02  -0.03  -0.05    -0.04  -0.02  -0.03
     7   6     0.06  -0.00   0.00     0.07   0.06  -0.06     0.01   0.01  -0.06
     8   6     0.03  -0.01  -0.01    -0.02  -0.03   0.04    -0.04   0.03  -0.09
     9   6     0.03   0.02  -0.03    -0.02   0.11   0.04    -0.04   0.03  -0.07
    10   6    -0.01   0.04  -0.01    -0.03  -0.07  -0.01    -0.02   0.02  -0.04
    11   6    -0.00  -0.02   0.01    -0.01   0.02  -0.03    -0.01  -0.03  -0.02
    12   6    -0.02  -0.09  -0.19     0.02   0.03  -0.00    -0.00  -0.03   0.02
    13   6     0.01   0.06   0.18     0.03  -0.00   0.01    -0.00  -0.01   0.01
    14   6     0.01   0.01   0.00     0.02  -0.01  -0.01     0.02  -0.00  -0.02
    15   6     0.01  -0.06  -0.19    -0.01   0.01   0.01     0.03   0.00   0.01
    16   6     0.03   0.04   0.19    -0.01   0.04  -0.01     0.02  -0.02   0.01
    17   6    -0.03   0.04  -0.01    -0.03  -0.00  -0.10    -0.04  -0.07   0.07
    18   1     0.01  -0.02  -0.02    -0.07  -0.08   0.09     0.01   0.01  -0.08
    19   1    -0.03   0.07  -0.07    -0.01  -0.14   0.15     0.12  -0.06   0.32
    20   1    -0.01   0.01  -0.06    -0.02   0.01   0.10    -0.07   0.34   0.20
    21   1    -0.03  -0.04   0.07     0.02  -0.05   0.14     0.09  -0.13   0.36
    22   1    -0.01  -0.05   0.03     0.13   0.04   0.01     0.38  -0.04  -0.03
    23   1    -0.06  -0.02   0.02     0.00  -0.04  -0.03    -0.06  -0.01  -0.05
    24   1     0.18  -0.04   0.05     0.34  -0.05  -0.05     0.10  -0.01  -0.01
    25   1     0.07   0.10  -0.08     0.10   0.32  -0.15     0.02   0.11  -0.09
    26   1     0.01   0.01  -0.00    -0.03  -0.12   0.03    -0.05   0.03  -0.09
    27   1     0.05   0.01  -0.02     0.12   0.35  -0.16    -0.02   0.03  -0.06
    28   1    -0.00   0.02  -0.05    -0.13   0.28   0.33    -0.03   0.03  -0.06
    29   1    -0.05  -0.17  -0.40     0.06   0.05   0.01    -0.01  -0.02   0.06
    30   1     0.00   0.13   0.38     0.04  -0.00   0.02    -0.02   0.01   0.03
    31   1     0.01   0.02  -0.00     0.02  -0.04  -0.02     0.02   0.01  -0.04
    32   1     0.01  -0.12  -0.40    -0.04   0.00   0.03     0.04   0.02   0.04
    33   1     0.06   0.09   0.40    -0.01   0.05   0.00     0.04  -0.02   0.03
    34   1     0.04   0.09  -0.02     0.05   0.18  -0.09    -0.18  -0.32   0.08
    35   1    -0.10   0.06  -0.06    -0.10  -0.03  -0.28     0.08  -0.04   0.33
                     16                     17                     18
                      A                      A                      A
 Frequencies --    479.4987               544.7414               614.5491
 Red. masses --      3.6344                 3.1414                 5.2096
 Frc consts  --      0.4923                 0.5492                 1.1592
 IR Inten    --      7.2435                 5.9709                 1.4749
  Atom  AN      X      Y      Z        X      Y      Z        X      Y      Z
     1   8    -0.00  -0.16   0.19    -0.01   0.01  -0.02     0.15   0.11   0.11
     2   6     0.00   0.10  -0.10    -0.01  -0.02   0.01     0.07   0.13   0.13
     3   6    -0.07   0.07  -0.13     0.01  -0.01   0.02    -0.10  -0.09   0.00
     4   6    -0.09  -0.10   0.06     0.01   0.01   0.01    -0.15   0.02   0.01
     5   6     0.01  -0.05  -0.02     0.01   0.02   0.00     0.02  -0.12  -0.09
     6   6     0.02  -0.05   0.02     0.03  -0.01  -0.01     0.15  -0.14  -0.13
     7   6    -0.01   0.04   0.04    -0.00   0.01   0.02     0.02  -0.10  -0.11
     8   6     0.05   0.13  -0.10    -0.04   0.00   0.01    -0.09  -0.00  -0.08
     9   6     0.07   0.01   0.06    -0.01   0.02  -0.09    -0.14   0.02  -0.00
    10   6    -0.01  -0.10   0.06     0.00  -0.01  -0.05    -0.09   0.09   0.07
    11   6     0.00   0.05   0.02     0.02   0.09   0.27    -0.09  -0.01   0.03
    12   6     0.02   0.05  -0.03     0.00   0.01   0.04     0.03  -0.08   0.04
    13   6     0.03   0.00  -0.02    -0.01  -0.04  -0.13     0.05  -0.03  -0.01
    14   6     0.01  -0.00   0.03     0.01   0.06   0.19     0.10   0.03   0.01
    15   6    -0.03   0.01  -0.02    -0.01  -0.05  -0.14    -0.02   0.08  -0.05
    16   6    -0.02   0.05  -0.02     0.00   0.01   0.05    -0.04   0.04   0.01
    17   6     0.00  -0.02  -0.07    -0.01  -0.08  -0.06     0.14   0.08   0.08
    18   1    -0.22   0.10  -0.30     0.02  -0.01   0.05    -0.19  -0.11  -0.21
    19   1    -0.08  -0.16   0.13     0.03  -0.07   0.11    -0.10   0.14  -0.11
    20   1    -0.25  -0.08   0.13     0.02   0.14   0.05    -0.13  -0.11  -0.03
    21   1     0.02  -0.02   0.08     0.01   0.04  -0.01     0.03   0.09  -0.18
    22   1     0.10  -0.15  -0.08    -0.00   0.03   0.01    -0.10  -0.11  -0.04
    23   1     0.05  -0.07   0.05     0.10  -0.00   0.01    -0.05  -0.18  -0.16
    24   1    -0.06   0.10   0.15    -0.01   0.01   0.01    -0.11  -0.04  -0.11
    25   1    -0.01  -0.02   0.04     0.00   0.02   0.06     0.02  -0.18   0.11
    26   1     0.17   0.28  -0.13    -0.10  -0.01   0.03    -0.19  -0.23  -0.08
    27   1     0.09   0.07  -0.01    -0.02   0.07  -0.15    -0.13  -0.10   0.14
    28   1     0.18   0.02   0.21    -0.06   0.06  -0.06    -0.11  -0.05  -0.13
    29   1     0.07   0.06  -0.06    -0.02  -0.08  -0.24     0.07  -0.06   0.00
    30   1     0.06  -0.02  -0.04    -0.03  -0.15  -0.46    -0.05   0.01  -0.07
    31   1     0.01  -0.02   0.06     0.01   0.08   0.23     0.10  -0.03   0.02
    32   1    -0.06  -0.02  -0.04    -0.03  -0.15  -0.47    -0.08   0.04  -0.08
    33   1    -0.06   0.07  -0.04    -0.01  -0.07  -0.21     0.04  -0.02  -0.00
    34   1     0.11   0.20  -0.06    -0.01  -0.16  -0.08     0.11   0.07   0.09
    35   1    -0.08  -0.06  -0.30     0.05  -0.08   0.01     0.12   0.09   0.09
                     19                     20                     21
                      A                      A                      A
 Frequencies --    626.3713               631.5238               642.7780
 Red. masses --      6.8661                 4.6651                 4.4876
 Frc consts  --      1.5872                 1.0962                 1.0924
 IR Inten    --      1.7394                 0.7481                 1.0850
  Atom  AN      X      Y      Z        X      Y      Z        X      Y      Z
     1   8    -0.04   0.02   0.01    -0.03  -0.04   0.02     0.01  -0.02   0.04
     2   6     0.18  -0.11  -0.11     0.01  -0.11   0.05    -0.01  -0.06   0.10
     3   6     0.07  -0.02  -0.03    -0.09  -0.13  -0.01    -0.14  -0.14  -0.01
     4   6    -0.02  -0.16   0.03    -0.10   0.01  -0.01    -0.13   0.06  -0.02
     5   6     0.08   0.11  -0.04     0.05  -0.01  -0.10     0.04  -0.05  -0.12
     6   6    -0.02   0.19   0.18    -0.02   0.08  -0.01     0.02   0.02  -0.07
     7   6     0.08  -0.06   0.11    -0.03   0.13   0.05    -0.03   0.11   0.01
     8   6     0.05  -0.04  -0.05     0.13   0.02   0.14     0.11   0.03   0.13
     9   6    -0.03   0.01  -0.16     0.13   0.01  -0.05     0.11   0.02  -0.04
    10   6    -0.23  -0.03  -0.03    -0.02   0.03  -0.06     0.00   0.05  -0.04
    11   6    -0.23   0.03   0.01    -0.02  -0.08   0.02     0.01   0.07  -0.03
    12   6    -0.06  -0.11   0.04     0.14  -0.14   0.02    -0.13   0.12  -0.04
    13   6    -0.03  -0.17   0.06     0.16   0.13  -0.04    -0.15  -0.12   0.05
    14   6     0.23  -0.03  -0.01     0.02   0.08  -0.04    -0.00  -0.07   0.02
    15   6     0.06   0.10  -0.03    -0.15   0.16  -0.03     0.15  -0.13   0.04
    16   6     0.02   0.17  -0.06    -0.15  -0.10   0.03     0.13   0.11  -0.05
    17   6    -0.11   0.09   0.08    -0.03   0.01  -0.02     0.02   0.02  -0.01
    18   1    -0.13   0.11   0.08    -0.08  -0.10   0.11    -0.10  -0.14   0.05
    19   1     0.05  -0.16   0.06     0.01  -0.06   0.12    -0.01   0.01   0.09
    20   1     0.05  -0.05   0.03    -0.13   0.18   0.05    -0.16   0.19   0.03
    21   1     0.07   0.04  -0.13     0.06  -0.02   0.10     0.05   0.01   0.09
    22   1    -0.01  -0.00  -0.03     0.22  -0.01  -0.16     0.21  -0.04  -0.17
    23   1    -0.15   0.19   0.14    -0.02  -0.05   0.14    -0.01  -0.12   0.09
    24   1     0.02  -0.07   0.01    -0.18   0.18   0.01    -0.22   0.18  -0.01
    25   1     0.08  -0.11   0.05    -0.06  -0.07   0.01    -0.06  -0.11   0.02
    26   1    -0.15   0.11   0.07     0.08  -0.02   0.15     0.07  -0.08   0.13
    27   1     0.06   0.05  -0.18     0.01  -0.07  -0.00    -0.01  -0.09   0.04
    28   1     0.02   0.04  -0.03     0.19  -0.05  -0.15     0.15  -0.06  -0.19
    29   1     0.14  -0.02  -0.01     0.07  -0.17   0.06    -0.05   0.17  -0.04
    30   1    -0.19  -0.08   0.04     0.06   0.19  -0.03    -0.06  -0.16   0.08
    31   1     0.23   0.03  -0.03     0.02  -0.17   0.05    -0.00   0.17  -0.05
    32   1    -0.15  -0.00   0.02    -0.08   0.20  -0.02     0.07  -0.17   0.08
    33   1     0.17   0.09  -0.05    -0.05  -0.15   0.06     0.03   0.17  -0.05
    34   1     0.02   0.03   0.02    -0.14  -0.20  -0.02    -0.12  -0.18  -0.00
    35   1     0.00   0.01  -0.00     0.12   0.00   0.18     0.12   0.04   0.21
                     22                     23                     24
                      A                      A                      A
 Frequencies --    705.0478               715.9363               719.3274
 Red. masses --      4.4880                 1.8111                 3.7859
 Frc consts  --      1.3144                 0.5469                 1.1542
 IR Inten    --      0.2185                25.2405                 2.2457
  Atom  AN      X      Y      Z        X      Y      Z        X      Y      Z
     1   8    -0.03  -0.05  -0.04     0.01   0.00   0.01    -0.07  -0.06  -0.06
     2   6    -0.11   0.02   0.01     0.01   0.00   0.00    -0.08  -0.04  -0.04
     3   6     0.06   0.04   0.03     0.00   0.02  -0.02    -0.00  -0.16   0.18
     4   6     0.08   0.18  -0.05    -0.00   0.01  -0.01     0.07  -0.11   0.07
     5   6    -0.03  -0.01   0.04     0.00   0.01  -0.01    -0.05  -0.04   0.13
     6   6     0.04  -0.09  -0.08    -0.01   0.01   0.00     0.05  -0.03  -0.02
     7   6    -0.02   0.04  -0.02     0.00  -0.01   0.00    -0.04   0.12  -0.06
     8   6     0.06   0.04   0.04     0.01  -0.02   0.02     0.00   0.16  -0.18
     9   6     0.07  -0.03   0.18    -0.01  -0.01   0.02     0.07   0.06  -0.11
    10   6    -0.02   0.01   0.01    -0.00  -0.00  -0.01     0.01   0.03   0.04
    11   6    -0.15   0.01   0.02    -0.01  -0.04  -0.11    -0.02  -0.00  -0.02
    12   6    -0.05  -0.13   0.03     0.00   0.02   0.07    -0.01  -0.01   0.01
    13   6    -0.05  -0.14   0.06    -0.01  -0.05  -0.13    -0.01  -0.02  -0.02
    14   6     0.17  -0.01  -0.02     0.01   0.02   0.07     0.01   0.00   0.01
    15   6    -0.04   0.14  -0.03    -0.01  -0.04  -0.14    -0.01   0.00  -0.03
    16   6    -0.05   0.13  -0.05     0.00   0.02   0.07    -0.00   0.02   0.01
    17   6     0.01  -0.15  -0.13    -0.01  -0.01  -0.01     0.09   0.07   0.07
    18   1     0.27  -0.05   0.06     0.01   0.02  -0.01    -0.00  -0.17   0.16
    19   1     0.08   0.20  -0.08     0.02   0.00   0.00     0.02   0.01  -0.10
    20   1     0.14   0.17  -0.07    -0.04   0.02   0.00     0.26  -0.23  -0.04
    21   1    -0.03  -0.00   0.01     0.00  -0.01   0.01    -0.06   0.05  -0.07
    22   1    -0.04   0.07   0.07     0.02  -0.01  -0.02    -0.24   0.14   0.25
    23   1     0.24  -0.06  -0.05    -0.00   0.01   0.00     0.00  -0.03  -0.03
    24   1    -0.04   0.07   0.06     0.02  -0.02  -0.01    -0.22   0.26   0.09
    25   1    -0.03   0.00  -0.00     0.00   0.00  -0.02    -0.06  -0.05   0.05
    26   1     0.28   0.05  -0.04     0.02  -0.01   0.02    -0.01   0.13  -0.19
    27   1     0.06  -0.05   0.21    -0.00   0.00   0.01     0.01  -0.08   0.02
    28   1     0.12  -0.06   0.17    -0.00  -0.00   0.04     0.28  -0.07  -0.20
    29   1     0.08  -0.07   0.00     0.03   0.16   0.48     0.01   0.03   0.12
    30   1    -0.23  -0.03   0.05     0.01   0.06   0.19    -0.02   0.02   0.08
    31   1     0.17  -0.00  -0.03     0.04   0.17   0.53     0.02   0.04   0.13
    32   1    -0.22   0.05   0.02     0.01   0.06   0.19    -0.02   0.03   0.07
    33   1     0.08   0.06  -0.04     0.03   0.16   0.49     0.02   0.04   0.10
    34   1    -0.00  -0.14  -0.13    -0.00  -0.01  -0.01     0.09   0.09   0.08
    35   1    -0.00  -0.14  -0.12    -0.02   0.00  -0.00     0.07   0.08   0.06
                     25                     26                     27
[...]
 9628,-0.02126774,0.00131036,0.02470071,-0.01340334,-0.05652436,-0.0154
 0687,0.01746294,0.00645154,0.00264188,0.00456525,-0.00142893,0.0002915
 1,0.00041625,-0.00102753,0.00005311,0.00001250,0.00003029,0.00003684,0
 .00000158,-0.00005541,-0.00000003,0.00002061,0.00001588,-0.00000365,-0
 .00002997,-0.00000218,-0.00000144,0.00000051,-0.00001149,-0.00000495,-
 0.00000073,0.00000047,0.00000467,0.00000066,-0.00002795,-0.00000692,0.
 00001121,-0.00000047,0.00000037,0.00000300,-0.00000662,0.00001282,0.00
 000565,-0.00001439,-0.00000368,0.00001583,-0.00000289,-0.00001288,0.00
 005625,0.00000677,-0.00198093,-0.00111802,-0.00020799,-0.02928073,0.01
 285119,0.05333407,-0.00006516,-0.00001719,-0.00000841,0.00007450,0.000
 04017,0.00001797,0.00000127,-0.00005084,-0.00001186,-0.00002709,-0.000
 01009,0.00002731,-0.00001860,-0.00000231,0.00000870,-0.00001261,0.0000
 2877,-0.00003126,-0.00000435,0.00000882,-0.00000354,-0.00000194,-0.000
 05855,-0.00001401,-0.00000088,0.00001991,0.00008790,-0.00047199,-0.000
 37218,-0.00036693,-0.00026161,0.00020215,-0.00072005,0.00422558,0.0022
 9524,0.00169674,0.00328804,0.00031830,-0.00214425,-0.15055378,0.017535
 65,0.14301074,-0.00856013,-0.00147381,0.01628655,0.00212265,0.00578820
 ,0.00154830,0.00002194,-0.00001076,-0.00002962,-0.00000829,0.00000445,
 0.00000834,0.00003682,0.00001369,0.00001466,-0.00001936,-0.00004426,-0
 .00003224,-0.00000334,0.00000268,0.00001259,0.00000299,-0.00000193,-0.
 00000492,0.00000515,-0.00000146,0.00000422,0.00000390,-0.00000179,-0.0
 0000254,-0.00000503,-0.00000058,0.00000768,-0.00001731,-0.00000597,0.0
 0002166,0.00000321,0.00002092,0.00001436,0.00000314,-0.00003585,0.0000
 0694,0.00017927,0.00015660,-0.00004885,-0.00142598,-0.00180801,-0.0013
 9026,0.15327163,0.00000102,0.00001941,0.00000058,0.00000301,-0.0000531
 1,-0.00000772,-0.00003206,0.00004692,-0.00001158,0.00001590,-0.0000244
 0,0.00000712,0.00000766,0.00000068,0.00000694,-0.00002963,0.00003081,-
 0.00003788,0.00000397,-0.00000659,0.00000511,-0.00000536,-0.00000150,0
 .00000003,-0.00000888,-0.00002838,0.00003958,-0.00037745,-0.00017376,-
 0.00030128,0.00022886,-0.00118449,0.00022969,0.00296006,-0.00147217,0.
 00440994,-0.01574464,0.00544398,0.01841200,0.01753830,-0.05495612,-0.0
 0452184,0.01459856,0.00322052,-0.02137835,0.00508386,-0.00182341,0.002
 11089,0.00006404,-0.00001528,-0.00000057,-0.00000224,0.00000061,0.0000
 0224,-0.00006045,-0.00000720,-0.00002558,0.00002357,0.00003552,0.00002
 700,-0.00000914,0.00000550,-0.00000911,-0.00000094,0.00000017,0.000001
 55,0.00000537,0.00000214,-0.00001164,-0.00000131,0.00000642,-0.0000039
 8,-0.00000227,0.00000078,0.00000156,-0.00000408,0.00000076,0.00000557,
 -0.00001209,0.00001301,0.00000863,0.00001370,0.00003589,-0.00000558,-0
 .00069294,0.00012740,0.00108662,-0.00139487,-0.00017638,-0.00159126,-0
 .02101328,0.05102687,0.00007261,-0.00000717,0.00000715,-0.00007592,0.0
 0001757,-0.00002433,-0.00000586,-0.00000981,0.00000750,0.00001238,0.00
 002833,-0.00004523,0.00001160,0.00002269,-0.00000556,-0.00003152,-0.00
 000489,0.00000259,-0.00000059,-0.00000497,0.00000408,0.00001858,-0.000
 06563,0.00000749,-0.00004684,0.00003002,0.00002095,-0.00036031,-0.0003
 0558,-0.00020023,-0.00074442,0.00027287,0.00012668,0.00102671,0.005337
 09,0.00035706,0.01383818,-0.00389743,-0.01337338,0.14303503,-0.0045156
 5,-0.22918652,0.00028197,0.00093780,0.00077924,0.00223957,0.00113580,0
 .00314084,0.00004044,0.00006167,-0.00003362,0.00001449,-0.00000491,-0.
 00001282,-0.00001825,-0.00000278,-0.00000371,0.00000458,-0.00000356,0.
 00000606,0.00000810,-0.00000400,-0.00001317,-0.00000545,-0.00000352,0.
 00000416,0.00000615,0.00000133,-0.00002921,-0.00000369,-0.00000394,0.0
 0000734,0.00000918,-0.00000017,-0.00001219,0.00000704,0.00000590,-0.00
 000380,0.00001222,-0.00000291,0.00001322,-0.00000533,-0.00007416,0.000
 01656,0.00079611,-0.00009115,-0.00075605,-0.00180227,-0.00101448,-0.00
 020804,-0.15697225,0.00347601,0.23976144,-0.00003888,0.00000815,-0.000
 00687,0.00006088,-0.00001771,-0.00000817,-0.00000156,0.00003285,-0.000
 00418,0.00002070,-0.00011266,-0.00004112,0.00000127,-0.00001054,0.0000
 0417,0.00007224,0.00001768,0.00003942,0.00000538,0.00001684,-0.0000062
 6,-0.00001669,-0.00005295,-0.00002051,0.00003966,0.00009386,0.00013429
 ,0.00036503,-0.00069407,0.00031465,0.00118250,0.00307131,0.00518509,-0
 .00084493,0.00029623,0.00036757,0.00090722,0.00515772,0.00338769,0.003
 34200,0.01446200,-0.01546719,-0.04843930,0.01460121,0.00343373,0.00366
 635,-0.01548882,0.01340458,-0.00019827,0.00003018,0.00015946,-0.000013
 59,0.00000455,0.00001308,-0.00002870,0.00001498,0.00001808,0.00003939,
 0.00003113,-0.00000465,-0.00000554,0.00000512,0.00000289,0.00000104,0.
 00000053,-0.00000076,-0.00001628,0.00000186,0.00003250,0.00000142,-0.0
 0000208,-0.00000150,-0.00000332,-0.00000264,0.00000368,-0.00001566,-0.
 00000031,0.00002041,-0.00001496,-0.00001207,-0.00001267,-0.00001124,-0
 .00001888,-0.00000276,-0.00051091,-0.00050863,-0.00051086,0.00020803,0
 .00092100,-0.00071313,-0.00139758,-0.00201342,-0.00149287,0.04300651,-
 0.00006582,-0.00000019,-0.00000801,0.00008145,0.00000275,0.00001043,0.
 00001144,0.00000068,-0.00000836,-0.00004694,-0.00005067,0.00002217,-0.
 00001138,-0.00001314,0.00000897,0.00003291,0.00001397,0.00000130,0.000
 00053,0.00000889,0.00000247,0.00000603,-0.00001049,-0.00001416,0.00006
 861,0.00003115,0.00003027,0.00014575,0.00009721,-0.00019948,0.00246317
 ,0.00290741,0.00078564,0.00027922,0.00005437,-0.00080900,0.00586768,-0
 .00081353,-0.00032036,-0.00159423,-0.01353286,0.01824748,0.01456426,-0
 .20098211,0.14456842,0.00049544,0.00435927,-0.00281895,-0.00007011,0.0
 0000646,0.00006762,-0.00001247,0.00000519,0.00001094,0.00001358,0.0000
 1096,0.00002498,0.00001947,-0.00000552,-0.00002109,-0.00000623,0.00000
 416,0.00001060,0.00000261,0.00000038,-0.00000397,-0.00000744,-0.000000
 38,0.00002065,0.00000108,0.00000209,-0.00000460,-0.00000681,-0.0000012
 7,0.00000869,-0.00000788,-0.00000215,0.00001104,-0.00000379,0.00000197
 ,-0.00000536,-0.00001133,0.00000334,-0.00001324,-0.00051302,-0.0003130
 6,-0.00021522,0.00001903,-0.00074300,0.00106622,-0.00161004,-0.0002055
 1,-0.00146135,-0.01821365,0.20940753,0.00009866,-0.00002585,0.00001603
 ,-0.00012145,0.00005774,-0.00001872,0.00002801,-0.00002781,0.00003084,
 -0.00011064,0.00012831,-0.00005307,0.00000168,0.00003440,0.00001289,-0
 .00011669,0.00000676,-0.00003312,0.00000245,-0.00002382,0.00001972,0.0
 0008296,0.00006579,0.00003884,0.00009782,-0.00014598,-0.00028197,-0.00
 050128,0.00095447,-0.00015504,0.00578323,-0.00006644,-0.00083230,0.000
 39509,-0.00083024,-0.00008846,0.00267467,0.00065295,0.00267692,0.00051
 266,-0.00404095,0.00587724,0.00348633,0.14454899,-0.18426675,-0.002524
 54,0.01937224,-0.01357679,0.00029267,0.00006389,-0.00004923,0.00003068
 ,-0.00001092,-0.00002843,0.00001170,0.00000278,0.00004374,0.00001149,-
 0.00002201,-0.00001009,0.00001039,-0.00000595,-0.00001051,-0.00001064,
 -0.00000987,0.00000148,0.00002454,-0.00000099,-0.00005284,-0.00000617,
 -0.00000073,0.00000469,0.00000795,0.00000360,-0.00001491,0.00003924,0.
 00000382,-0.00004762,0.00000576,-0.00000096,0.00001754,-0.00001915,-0.
 00000143,-0.00000553,-0.00050793,-0.00022139,-0.00031828,0.00018431,-0
 .00018650,0.00028310,-0.00189571,-0.00089887,-0.00038680,-0.00629235,-
 0.15793408,0.19142612,-0.00003119,-0.00002602,-0.00003398,-0.00002009,
 0.00007987,0.00012972,-0.00018957,-0.00057936,0.00009901,-0.00059097,-
 0.00009776,0.00253375,0.00006427,0.00005292,-0.00001447,-0.00019431,-0
 .00001776,-0.00011009,-0.00001329,-0.00000579,-0.00000280,-0.00002385,
 -0.00014299,-0.00006727,-0.00020404,-0.00004506,0.00040553,-0.00244683
 ,-0.00100702,-0.00106349,0.00316259,0.00031830,-0.00056363,0.00373586,
 0.00151385,0.00194261,0.00002390,-0.00062552,0.00021632,0.00215652,0.0
 0128756,0.00561875,-0.00908558,0.01590129,0.00021476,-0.15470009,0.144
 77361,0.02136274,0.00052902,0.00028158,-0.00040275,0.00004285,0.000012
 75,-0.00004231,-0.00117082,-0.00015790,0.00139221,-0.00038908,-0.00041
 147,0.00014933,-0.00000425,-0.00000469,-0.00001703,-0.00000756,-0.0000
 2107,-0.00001313,0.00004202,0.00000330,-0.00006771,-0.00000061,-0.0000
 0322,0.00000365,0.00000476,0.00000270,-0.00000709,-0.00000914,0.000007
 69,0.00002501,-0.00001184,-0.00001918,0.00000722,0.00000023,-0.0000025
 3,-0.00001380,0.00031009,0.00004631,0.00024609,-0.00063198,-0.00037297
 ,-0.00048137,-0.00038693,0.00088989,0.00009413,-0.00136179,-0.00187645
 ,-0.00163913,0.16145236,0.00007132,0.00016815,0.00001391,-0.00003592,-
 0.00045602,-0.00010738,-0.00040192,0.00059862,-0.00035153,0.00106972,0
 .00025601,-0.00047562,0.00020120,0.00001849,-0.00007983,-0.00002375,-0
 .00003563,-0.00006293,0.00001186,-0.00001345,0.00002639,-0.00013982,-0
 .00006787,0.00000038,-0.00014308,0.00008277,0.00054948,-0.00019192,-0.
 00125458,-0.00244846,0.01438133,-0.01409864,-0.00288714,0.00098294,-0.
 00043751,0.00528320,-0.00061072,0.00015739,0.00041799,0.00191785,0.003
 14808,0.00133565,-0.00022856,0.00184597,0.00098672,0.14428557,-0.22621
 096,-0.01022224,0.00011465,0.00009278,-0.00012293,-0.00001459,-0.00000
 749,0.00003423,-0.00096116,0.00000666,-0.00032711,0.00057522,0.0004589
 3,-0.00048919,-0.00006628,0.00001887,-0.00009461,-0.00001350,0.0000018
 6,0.00001079,-0.00001061,0.00002094,-0.00001714,-0.00001041,0.00002724
 ,-0.00001133,-0.00000294,-0.00000706,0.00000489,-0.00003627,0.00002246
 ,0.00005049,-0.00004461,-0.00004838,-0.00002452,0.00000847,0.00013016,
 -0.00005887,0.00098425,-0.00072701,-0.00013236,-0.00037197,-0.00033080
 ,-0.00040116,0.00005759,0.00005344,0.00017876,-0.00160247,-0.00024792,
 -0.00141977,-0.15970237,0.23675001,-0.00022343,-0.00016508,-0.00005990
 ,0.00020057,0.00042639,0.00014868,-0.00004642,-0.00034178,-0.00017502,
 0.00136700,0.00099732,-0.00183951,-0.00008333,0.00005326,-0.00003361,-
 0.00009545,0.00001947,-0.00008040,-0.00000595,0.00000788,-0.00003559,-
 0.00004291,-0.00014005,-0.00007643,0.00002065,-0.00002516,0.00045603,-
 0.00194197,-0.00127705,-0.00000168,-0.01443827,0.01659460,0.00648202,0
 .00245885,0.00454961,-0.00169293,0.00019772,0.00045187,-0.00099997,0.0
 0502916,0.00217525,-0.00199178,0.01630650,-0.02142985,0.00123375,0.021
 73126,-0.01080388,-0.05487060,0.00026695,-0.00001024,-0.00029996,-0.00
 002978,0.00001422,0.00004242,0.00070786,0.00001764,-0.00045811,0.00063
 570,-0.00052797,-0.00168617,0.00002562,-0.00001617,0.00006261,0.000010
 87,-0.00001957,-0.00002490,0.00003891,-0.00001666,-0.00001015,0.000013
 54,-0.00002349,0.00000636,-0.00000151,0.00000232,0.00000434,-0.0000236
 0,-0.00002687,0.00003517,-0.00001941,0.00002534,0.00000995,-0.00004284
 ,-0.00016207,0.00002624,-0.00069193,0.00116709,0.00031127,-0.00048691,
 -0.00039558,-0.00018298,0.00092067,-0.00097660,0.00000657,-0.00192286,
 -0.00103216,-0.00021133,-0.02985350,0.01096423,0.05582557,-0.00001041,
 0.00037458,-0.00000241,0.00020838,-0.00096549,0.00000269,-0.00010938,0
 .00049853,-0.00000681,0.00027102,-0.00149836,0.00069807,0.00032289,-0.
 00144112,-0.00074222,-0.01192199,-0.01554540,0.00000634,-0.00116682,0.
 00158653,0.00386478,0.00047693,0.00044408,-0.00001397,-0.00115020,0.00
 133448,-0.00357017,-0.01140204,-0.01471598,-0.00128753,0.00006769,0.00
 048067,0.00099868,0.00030934,0.00017426,-0.00025089,-0.00016546,-0.000
 21205,0.00014102,-0.00004735,0.00012216,-0.00005895,0.00002083,-0.0000
 1408,-0.00013572,0.00023962,0.00005260,-0.00006079,-0.13530791,-0.1185
 7187,-0.00013897,-0.00005776,0.00003900,-0.00000241,0.00038826,0.00023
 122,0.00002517,-0.00010768,0.00093127,-0.00026951,0.00041508,0.0002050
 4,0.00001205,-0.00007854,0.00096205,0.00022284,0.00081715,0.00033803,-
 0.00000353,0.00012536,-0.00023832,-0.00003096,-0.00058407,-0.00109040,
 -0.00006328,0.00000634,0.00001610,0.00000046,-0.00056364,-0.00101984,-
 0.00000604,0.00005979,-0.00020780,0.00003621,0.00008455,-0.00001539,0.
 00001170,0.00000555,0.00000210,-0.00001025,0.00001631,0.00001360,0.000
 02067,0.00000815,-0.00000418,-0.00002158,-0.00001981,0.00003201,-0.000
 04215,0.14641442,-0.00018188,0.00015764,0.00000210,0.00027042,-0.00039
 591,-0.00000537,-0.00013432,0.00004428,0.00001241,0.00072137,0.0005509
 4,0.00028871,0.00063446,0.00060239,-0.00031310,0.00103766,-0.00030908,
 0.00028866,0.00042710,0.00103672,0.00062771,0.00012284,0.00010472,-0.0
 0002271,0.00024619,0.00107159,-0.00056480,0.00025287,-0.00105500,-0.00
 034215,-0.00021518,0.00053736,0.00039692,0.00042249,-0.00049285,0.0001
 0036,0.00000204,0.00013776,-0.00009543,0.00006840,-0.00002920,-0.00005
 885,-0.00003137,0.00006577,-0.00002549,0.00020405,0.00012013,-0.000294
 53,-0.11924656,-0.21965538,-0.00060784,-0.00000535,0.00001967,-0.00000
 080,0.00002837,0.00019022,-0.00010390,-0.00012785,0.00052712,0.0000815
 6,0.00003441,0.00020921,0.00010321,-0.00019355,0.00055070,-0.00006936,
 -0.00004094,0.00010164,0.00055410,0.00012214,0.00043055,-0.00012396,-0
 .00033951,0.00012954,-0.00010322,-0.00004246,-0.00003798,0.00000795,-0
 .00032257,0.00011048,0.00003554,0.00014001,0.00034531,0.00013914,-0.00
 014704,0.00016602,-0.00003769,-0.00000855,-0.00002255,-0.00001257,0.00
 000419,0.00001325,-0.00001604,0.00000617,0.00000295,-0.00002110,-0.000
 03295,0.00000568,0.00000253,0.13170467,0.23626297,-0.00001627,-0.00001
 654,-0.00002443,0.00002013,0.00004758,-0.00005065,-0.00002060,-0.00000
 239,-0.00026607,0.00073607,-0.00112571,0.00102037,-0.00065767,0.001034
 40,0.00103844,0.01657005,0.02331294,0.00024297,0.00325187,-0.00135075,
 -0.00498103,0.00008343,0.00004946,-0.00043395,-0.00312906,0.00109054,-
 0.00537534,-0.01636290,-0.02320575,-0.00178447,-0.00096438,-0.00076549
 ,0.00169032,0.00035208,-0.00010695,0.00001688,0.00002491,-0.00005691,0
 .00005474,-0.00004726,0.00005113,-0.00001281,0.00004488,0.00003621,-0.
 00011411,0.00012394,0.00031704,0.00004405,0.00015051,-0.00001526,-0.04
 778684,-0.00000576,-0.00000236,0.00010069,0.00036332,0.00000591,-0.000
 03001,0.00005284,0.00068709,0.00010431,-0.00040682,0.00001863,-0.00007
 404,-0.00006518,-0.00070715,0.00006475,-0.00082531,0.00018266,0.000905
 66,-0.00024689,-0.00030769,-0.00001706,0.00140309,0.00143873,0.0001065
 4,0.00001829,-0.00000077,0.00029827,-0.00145927,-0.00150807,0.00020519
 ,0.00022947,0.00020444,0.00001228,-0.00009553,0.00006605,0.00001134,-0
 .00000197,0.00000016,-0.00001635,-0.00000292,0.00000769,0.00000009,-0.
 00000267,-0.00001008,-0.00000479,-0.00003205,-0.00000023,-0.00003361,0
 .00043648,0.00019992,0.05526855,-0.00002896,-0.00036635,-0.00000572,0.
 00022278,0.00094186,0.00001759,0.00044380,-0.00039307,-0.00004081,-0.0
 0108940,-0.00157693,-0.00358644,-0.00115566,-0.00164048,0.00383639,-0.
 01248390,0.01550046,0.00004424,0.00027005,0.00142561,-0.00076553,-0.00
 009852,-0.00046594,-0.00000386,0.00044409,0.00134982,0.00065419,-0.011
 79650,0.01479603,-0.00111139,-0.00021587,-0.00068378,0.00103255,-0.000
 01703,0.00083434,0.00059196,0.00029724,-0.00021475,-0.00002578,0.00001
 856,-0.00020836,0.00009201,-0.00015474,0.00005593,0.00020276,0.0002073
 9,0.00026919,-0.00027300,-0.14093501,0.12140494,-0.00350753,-0.0000038
 5,-0.00002150,0.00002001,-0.00058072,0.00109173,0.00000223,0.00010640,
 0.00027677,0.00003346,-0.00059086,0.00107306,-0.00005677,0.00012096,0.
 00023262,-0.00002743,0.00088692,-0.00034353,-0.00001985,-0.00007197,-0
 .00097233,0.00016472,0.00043033,-0.00020528,0.00001924,-0.00005494,-0.
 00003895,0.00000127,0.00032894,-0.00018587,0.00000475,-0.00007955,-0.0
 0082169,-0.00018548,0.00030143,-0.00040033,0.00045977,0.00004131,0.000
 02730,-0.00000917,-0.00001447,-0.00004632,0.00001582,-0.00000857,-0.00
 001050,-0.00001501,-0.00003082,-0.00008111,0.00006037,0.01243541,-0.01
 537975,0.00048115,0.15285572,0.00018695,0.00016060,0.00000063,-0.00025
 802,-0.00040533,0.00000414,-0.00011748,0.00008494,0.00003702,-0.000204
 01,0.00105767,0.00055269,-0.00040403,0.00102631,-0.00068159,-0.0009252
 0,-0.00051607,-0.00026401,-0.00065509,0.00060903,0.00031811,0.00007494
 ,0.00000870,-0.00001519,-0.00052636,0.00059135,0.00001273,-0.00089781,
 -0.00065293,0.00041273,0.00083083,0.00000747,-0.00048782,-0.00022839,-
 0.00065881,-0.00085492,-0.00039563,0.00006514,0.00007903,-0.00003768,0
 .00023021,0.00000346,0.00014248,-0.00002848,-0.00020879,-0.00010167,-0
 .00009272,0.00036114,0.12173308,-0.21538189,0.00424411,0.00004583,-0.0
 0003337,-0.00001414,0.00037504,0.00014589,-0.00006336,-0.00014012,0.00
 041844,-0.00014307,0.00036851,0.00011733,0.00010012,-0.00012698,0.0004
 4141,0.00012754,0.00001264,0.00012155,-0.00054304,0.00018143,0.0005594
 9,0.00003903,-0.00002568,0.00021191,-0.00010255,-0.00000151,0.00001990
 ,0.00001212,0.00004054,0.00015241,0.00007673,0.00013402,0.00044086,-0.
 00006114,0.00020097,0.00048284,-0.00101783,-0.00003566,-0.00001231,0.0
 0000904,0.00002158,0.00004424,-0.00001172,-0.00002247,0.00000109,-0.00
 000008,-0.00001955,0.00007883,-0.00007880,0.01599733,-0.02149665,0.000
 43150,-0.13522284,0.23220095,-0.00004247,0.00002412,-0.00002143,0.0000
 5455,-0.00007786,-0.00005458,0.00007917,-0.00004594,-0.00046068,-0.002
 97119,-0.00110521,-0.00542678,0.00328632,0.00136382,-0.00489709,0.0174
 3347,-0.02301686,0.00005111,-0.00062491,-0.00099922,0.00097015,-0.0000
 7566,0.00000392,-0.00027037,0.00096271,0.00088141,0.00123168,-0.016442
 05,0.02281515,-0.00147840,-0.00064981,0.00050141,0.00163202,-0.0000677
 7,0.00050111,-0.00092671,0.00046593,-0.00013786,-0.00022890,0.00010836
 ,-0.00030374,0.00018422,-0.00029338,0.00006650,0.00025296,0.00026064,0
 .00026874,-0.00031577,-0.00261796,0.00296713,-0.04698707,0.00001478,0.
 00000491,0.00028619,-0.00149402,0.00148776,0.00008273,0.00021813,-0.00
 021749,0.00002231,0.00140033,-0.00140432,0.00009389,-0.00024426,0.0003
 0441,-0.00002172,-0.00077774,-0.00022198,0.00094022,-0.00008748,0.0006
 6420,0.00011411,-0.00041299,-0.00003275,-0.00006768,-0.00001669,0.0000
 0172,0.00009841,0.00033924,-0.00001642,-0.00007148,-0.00000448,-0.0006
 2207,0.00013692,0.00011083,-0.00116942,-0.00136375,-0.00001101,0.00000
 866,-0.00003583,-0.00001569,-0.00005690,0.00002565,-0.00000993,-0.0000
 1844,-0.00000258,-0.00001524,-0.00012277,0.00011361,0.00024097,-0.0000
 2189,-0.00017988,0.00189931,-0.00227381,0.05657454\\0.00004442,0.00000
 539,0.00000596,-0.00006146,-0.00003787,0.00003426,-0.00003241,0.000019
 61,-0.00003055,0.00000277,-0.00005812,0.00003865,0.00000122,-0.0000269
 2,-0.00000636,0.00000216,0.00006706,-0.00003799,0.00001673,-0.00000652
 ,-0.00001314,0.00002673,0.00003913,-0.00001123,0.00002866,-0.00000969,
 0.00004358,0.00001985,-0.00000311,-0.00004150,-0.00001622,-0.00000442,
 0.00000643,0.00001653,-0.00001069,-0.00000730,0.00000195,-0.00000137,0
 .00001223,-0.00002611,0.00000086,-0.00001415,0.00000775,0.00000948,0.0
 0000805,0.00001189,0.00001325,0.00000213,-0.00000506,0.00000146,0.0000
 2431,-0.00001261,0.00000408,0.00000734,0.00000290,-0.00002070,-0.00000
 724,0.00000792,0.00000716,-0.00001172,-0.00000089,0.00000444,0.0000013
 8,0.00000908,0.00000280,0.00000457,-0.00000735,0.00000190,0.00000559,-
 0.00001437,-0.00000393,0.00000424,-0.00000934,0.00000191,0.00000457,-0
 .00001354,0.00000244,0.00000038,-0.00000104,-0.00000407,-0.00000813,0.
 00000146,-0.00002594,-0.00000672,-0.00001026,0.00001682,0.00000550,0.0
 0000658,-0.00000115,-0.00000874,0.00000966,0.00000261,-0.00000324,0.00
 000695,0.00000375,-0.00000742,-0.00001567,0.00000885,0.00001511,-0.000
 00381,0.00000522,-0.00000751,0.00000491,-0.00000370,-0.00000133\\\@


      THE ONE-EYED VIEW OF OUR UNIVERSE SAYS YOU MUST NOT LOOK
      FAR AFIELD FOR PROBLEMS.  SUCH PROBLEMS MAY NEVER ARRIVE. 
      INSTEAD, TEND TO THE WOLF WITHIN YOUR FENCES.
      THE PACKS RANGING OUTSIDE MAY NOT EVEN EXIST.

                              -- THE AZHAR BOOK SHAMRA I:4
                                 CHILDREN OF DUNE, BY FRANK HERBERT
 Job cpu time:       0 days  0 hours  5 minutes 41.2 seconds.
 Elapsed time:       0 days  0 hours  6 minutes  9.0 seconds.
 File lengths (MBytes):  RWF=    348 Int=      0 D2E=      0 Chk=     16 Scr=      1
 Normal termination of Gaussian 16 at Fri Feb 23 23:43:46 2024.
