 Entering Gaussian System, Link 0=g16
 Input=/Volumes/SSD-PMU3/b3lyp_6-31gd_freq/QAOXJQGZIOPYSG-AGIRLMLNSA-N_calculating/gaussianinput0.gjf
 Output=/Volumes/SSD-PMU3/b3lyp_6-31gd_freq/QAOXJQGZIOPYSG-AGIRLMLNSA-N_calculating/gaussianinput0.log
 Initial command:
 /Applications/g16/l1.exe "/Users/macmini_m1_2022/PycharmProjects/sphere_model/sphere_model_lib/Gau-79368.inp" -scrdir="/Users/macmini_m1_2022/PycharmProjects/sphere_model/sphere_model_lib/"
 Entering Link 1 = /Applications/g16/l1.exe PID=     79369.
  
 Copyright (c) 1988,1990,1992,1993,1995,1998,2003,2009,2016,
            Gaussian, Inc.  All Rights Reserved.
  
 This is part of the Gaussian(R) 16 program.  It is based on
 the Gaussian(R) 09 system (copyright 2009, Gaussian, Inc.),
 the Gaussian(R) 03 system (copyright 2003, Gaussian, Inc.),
 the Gaussian(R) 98 system (copyright 1998, Gaussian, Inc.),
 the Gaussian(R) 94 system (copyright 1995, Gaussian, Inc.),
 the Gaussian 92(TM) system (copyright 1992, Gaussian, Inc.),
 the Gaussian 90(TM) system (copyright 1990, Gaussian, Inc.),
 the Gaussian 88(TM) system (copyright 1988, Gaussian, Inc.),
 the Gaussian 86(TM) system (copyright 1986, Carnegie Mellon
 University), and the Gaussian 82(TM) system (copyright 1983,
 Carnegie Mellon University). Gaussian is a federally registered
 trademark of Gaussian, Inc.
  
 This software contains proprietary and confidential information,
 including trade secrets, belonging to Gaussian, Inc.
  
 This software is provided under written license and may be
 used, copied, transmitted, or stored only in accord with that
 written license.
  
 The following legend is applicable only to US Government
 contracts under FAR:
  
                    RESTRICTED RIGHTS LEGEND
  
 Use, reproduction and disclosure by the US Government is
 subject to restrictions as set forth in subparagraphs (a)
 and (c) of the Commercial Computer Software - Restricted
 Rights clause in FAR 52.227-19.
  
 Gaussian, Inc.
 340 Quinnipiac St., Bldg. 40, Wallingford CT 06492
  
  
 ---------------------------------------------------------------
 Warning -- This program may not be used in any manner that
 competes with the business of Gaussian, Inc. or will provide
 assistance to any competitor of Gaussian, Inc.  The licensee
 of this program is prohibited from giving any competitor of
 Gaussian, Inc. access to this program.  By using this program,
 the user acknowledges that Gaussian, Inc. is engaged in the
 business of creating and licensing software in the field of
 computational chemistry and represents and warrants to the
 licensee that it is not a competitor of Gaussian, Inc. and that
 it will not use this program in any manner prohibited above.
 ---------------------------------------------------------------
  

 Cite this work as:
 Gaussian 16, Revision A.03,
 M. J. Frisch, G. W. Trucks, H. B. Schlegel, G. E. Scuseria, 
 M. A. Robb, J. R. Cheeseman, G. Scalmani, V. Barone, 
 G. A. Petersson, H. Nakatsuji, X. Li, M. Caricato, A. V. Marenich, 
 J. Bloino, B. G. Janesko, R. Gomperts, B. Mennucci, H. P. Hratchian, 
 J. V. Ortiz, A. F. Izmaylov, J. L. Sonnenberg, D. Williams-Young, 
 F. Ding, F. Lipparini, F. Egidi, J. Goings, B. Peng, A. Petrone, 
 T. Henderson, D. Ranasinghe, V. G. Zakrzewski, J. Gao, N. Rega, 
 G. Zheng, W. Liang, M. Hada, M. Ehara, K. Toyota, R. Fukuda, 
 J. Hasegawa, M. Ishida, T. Nakajima, Y. Honda, O. Kitao, H. Nakai, 
 T. Vreven, K. Throssell, J. A. Montgomery, Jr., J. E. Peralta, 
 F. Ogliaro, M. J. Bearpark, J. J. Heyd, E. N. Brothers, K. N. Kudin, 
 V. N. Staroverov, T. A. Keith, R. Kobayashi, J. Normand, 
 K. Raghavachari, A. P. Rendell, J. C. Burant, S. S. Iyengar, 
 J. Tomasi, M. Cossi, J. M. Millam, M. Klene, C. Adamo, R. Cammi, 
 J. W. Ochterski, R. L. Martin, K. Morokuma, O. Farkas, 
 J. B. Foresman, and D. J. Fox, Gaussian, Inc., Wallingford CT, 2016.
 
 ******************************************
 Gaussian 16:  EM64M-G16RevA.03 25-Dec-2016
                23-Feb-2024 
 ******************************************
 %nprocshared=10
 Will use up to   10 processors via shared memory.
 %mem=12GB
 %chk= 0.chk
 ---------------------
 # freq b3lyp/6-31g(d)
 ---------------------
 1/10=4,30=1,38=1/1,3;
 2/12=2,17=6,18=5,40=1/2;
 3/5=1,6=6,7=1,11=2,25=1,30=1,71=2,74=-5,140=1/1,2,3;
 4//1;
 5/5=2,38=5,98=1/2;
 8/6=4,10=90,11=11/1;
 11/6=1,8=1,9=11,15=111,16=1/1,2,10;
 10/6=1/2;
 6/7=2,8=2,9=2,10=2,28=1/1;
 7/8=1,10=1,25=1/1,2,3,16;
 1/10=4,30=1/3;
 99//99;
 ---------
 good luck
 ---------
 Symbolic Z-matrix:
 Charge =  0 Multiplicity = 1
 O                     1.21626   0.        0. 
 C                     0.        0.        0. 
 C                    -0.85203  -1.26371  -0.00156 
 C                    -1.75297  -1.24942   1.25781 
 C                    -1.73823  -1.25321  -1.27241 
 C                    -2.62269   0.0094   -1.27714 
 C                    -1.72659   1.26202  -1.27782 
 C                    -0.85014   1.26598  -0.00156 
 C                    -1.75723   1.25661   1.25354 
 C                    -2.67287   0.00641   1.27768 
 C                    -3.58885  -0.03426   2.50853 
 C                    -4.48165  -1.10701   2.68036 
 C                    -5.32962  -1.18106   3.78348 
 C                    -5.30954  -0.17745   4.75399 
 C                    -4.43221   0.89388   4.60256 
 C                    -3.58384   0.96311   3.49399 
 C                    -3.52325   0.01623  -0.02589 
 H                    -0.18666  -2.13308   0.00896 
 H                    -2.35756  -2.16447   1.27191 
 H                    -1.13657  -1.26576   2.16585 
 H                    -1.10847  -1.28241  -2.17113 
 H                    -2.36133  -2.15789  -1.2881 
 H                    -3.25326   0.00986  -2.17578 
 H                    -2.33995   2.17298  -1.30102 
 H                    -1.09078   1.27991  -2.1726 
 H                    -0.18175   2.13279   0.01568 
 H                    -2.36464   2.17138   1.2551 
 H                    -1.13179   1.28469   2.15494 
 H                    -4.5191   -1.90255   1.941 
 H                    -6.007    -2.02524   3.88457 
 H                    -5.96915  -0.2321    5.6158 
 H                    -4.40206   1.68448   5.34802 
 H                    -2.91407   1.8118    3.41007 
 H                    -4.17037   0.90358  -0.02827 
 H                    -4.18792  -0.85614  -0.0462 
 

 GradGradGradGradGradGradGradGradGradGradGradGradGradGradGradGradGradGrad
 Berny optimization.
 Initialization pass.
 Trust Radius=3.00D-01 FncErr=1.00D-07 GrdErr=1.00D-07 EigMax=2.50D+02 EigMin=1.00D-04
 Number of steps in this run=      2 maximum allowed number of steps=      2.
 GradGradGradGradGradGradGradGradGradGradGradGradGradGradGradGradGradGrad

                          Input orientation:                          
 ---------------------------------------------------------------------
 Center     Atomic      Atomic             Coordinates (Angstroms)
 Number     Number       Type             X           Y           Z
 ---------------------------------------------------------------------
      1          8           0        1.216259    0.000000    0.000000
      2          6           0        0.000000    0.000000    0.000000
      3          6           0       -0.852034   -1.263712   -0.001557
      4          6           0       -1.752971   -1.249419    1.257813
      5          6           0       -1.738231   -1.253207   -1.272406
      6          6           0       -2.622693    0.009399   -1.277139
      7          6           0       -1.726590    1.262024   -1.277818
      8          6           0       -0.850141    1.265980   -0.001557
      9          6           0       -1.757231    1.256614    1.253541
     10          6           0       -2.672874    0.006408    1.277683
     11          6           0       -3.588854   -0.034257    2.508534
     12          6           0       -4.481652   -1.107008    2.680356
     13          6           0       -5.329619   -1.181063    3.783479
     14          6           0       -5.309539   -0.177453    4.753992
     15          6           0       -4.432209    0.893884    4.602556
     16          6           0       -3.583842    0.963109    3.493986
     17          6           0       -3.523252    0.016230   -0.025891
     18          1           0       -0.186657   -2.133082    0.008955
     19          1           0       -2.357558   -2.164474    1.271909
     20          1           0       -1.136572   -1.265763    2.165853
     21          1           0       -1.108474   -1.282413   -2.171126
     22          1           0       -2.361331   -2.157894   -1.288097
     23          1           0       -3.253255    0.009862   -2.175781
     24          1           0       -2.339952    2.172981   -1.301021
     25          1           0       -1.090776    1.279914   -2.172596
     26          1           0       -0.181752    2.132789    0.015681
     27          1           0       -2.364638    2.171379    1.255102
     28          1           0       -1.131789    1.284686    2.154942
     29          1           0       -4.519101   -1.902551    1.940999
     30          1           0       -6.006998   -2.025238    3.884569
     31          1           0       -5.969153   -0.232098    5.615798
     32          1           0       -4.402062    1.684481    5.348023
     33          1           0       -2.914068    1.811798    3.410073
     34          1           0       -4.170366    0.903581   -0.028265
     35          1           0       -4.187915   -0.856140   -0.046201
 ---------------------------------------------------------------------
                    Distance matrix (angstroms):
                    1          2          3          4          5
     1  O    0.000000
     2  C    1.216259   0.000000
     3  C    2.423800   1.524117   0.000000
     4  C    3.458246   2.493200   1.548517   0.000000
     5  C    3.452326   2.492186   1.549359   2.530265   0.000000
     6  C    4.045828   2.917137   2.526491   2.960916   1.541580
     7  C    3.447591   2.491312   2.961931   3.568959   2.515264
     8  C    2.423369   1.524942   2.529693   2.954378   2.958051
     9  C    3.462959   2.497660   2.957481   2.506040   3.560895
    10  C    4.093638   2.962561   2.562249   1.556829   2.993851
    11  C    5.420611   4.378789   3.911815   2.532072   4.382482
    12  C    6.393431   5.338069   4.515677   3.080521   4.813737
    13  C    7.652329   6.641872   5.863625   4.379049   6.202036
    14  C    8.075764   7.129035   6.607916   5.101133   7.087239
    15  C    7.340827   6.451901   6.218579   4.791594   6.810484
    16  C    6.014689   5.097003   4.963902   3.639758   5.571071
    17  C    4.739610   3.523385   2.962136   2.526590   2.520232
    18  H    2.553095   2.141252   1.094825   2.189485   2.196235
    19  H    4.367478   3.443948   2.167877   1.096836   2.772636
    20  H    3.439315   2.754064   2.186008   1.097612   3.490527
    21  H    3.429687   2.754467   2.184752   3.489139   1.097791
    22  H    4.372053   3.448418   2.175482   2.770756   1.098617
    23  H    4.970983   3.913795   3.480676   3.953000   2.169499
    24  H    4.365906   3.448170   3.964009   4.313351   3.478743
    25  H    3.417713   2.747389   3.352677   4.313205   2.765184
    26  H    2.550190   2.140577   3.462051   3.930770   3.942938
    27  H    4.371841   3.446981   3.958158   3.475054   4.302147
    28  H    3.436208   2.752297   3.350087   2.759057   4.307596
    29  H    6.346773   5.273467   4.198693   2.923149   4.298937
    30  H    8.447894   7.434749   6.500427   5.059495   6.738902
    31  H    9.122566   8.198893   7.668364   6.148428   8.148050
    32  H    7.937528   7.128603   7.064881   5.688169   7.717259
    33  H    5.654274   4.837665   5.034875   3.918089   5.718606
    34  H    5.461958   4.267225   3.963483   3.483275   3.480647
    35  H    5.471765   4.274780   3.360983   2.789995   2.768067
                    6          7          8          9         10
     6  C    0.000000
     7  C    1.540153   0.000000
     8  C    2.519533   1.548231   0.000000
     9  C    2.951086   2.531550   1.548603   0.000000
    10  C    2.555317   3.000435   2.558385   1.549839   0.000000
    11  C    3.907262   4.414163   3.935952   2.568306   1.534818
    12  C    4.512633   5.373064   5.100157   3.878786   2.545361
    13  C    5.861271   6.675868   6.354545   5.010470   3.840234
    14  C    6.605195   7.161868   6.677198   5.189277   4.366982
    15  C    6.215101   6.483417   5.845299   4.301509   3.864926
    16  C    4.959537   5.129215   4.447884   2.905554   2.580143
    17  C    1.541647   2.519388   2.950930   2.508850   1.556453
    18  H    3.489776   3.943846   3.463227   3.937732   3.516868
    19  H    3.360605   4.317420   3.957529   3.473409   2.193670
    20  H    3.960907   4.312389   3.345061   2.753165   2.183458
    21  H    2.181937   2.766627   3.356795   4.312295   4.000336
    22  H    2.183023   3.478339   3.957498   4.299270   3.371126
    23  H    1.097801   2.169090   3.475635   3.943695   3.501895
    24  H    2.182109   1.098451   2.175039   2.775802   3.384463
    25  H    2.182389   1.097819   2.184379   3.490433   4.003658
    26  H    3.484015   2.194971   1.094714   2.186805   3.509962
    27  H    3.339610   2.765812   2.166250   1.098062   2.186920
    28  H    3.953268   3.483984   2.174894   1.097492   2.185983
    29  H    4.196228   5.307865   5.222488   4.252158   2.737274
    30  H    6.498961   7.468482   7.247570   5.979413   4.694659
    31  H    7.666140   8.231263   7.746173   6.243864   5.453584
    32  H    7.061503   7.158100   6.435005   4.893157   4.730083
    33  H    5.030258   4.867102   4.024541   2.509409   2.804406
    34  H    2.180491   2.768015   3.340051   2.755155   2.180115
    35  H    2.171241   3.472984   3.955518   3.472936   2.189065
                   11         12         13         14         15
    11  C    0.000000
    12  C    1.406203   0.000000
    13  C    2.443545   1.393346   0.000000
    14  C    2.832551   2.418561   1.396256   0.000000
    15  C    2.440824   2.775043   2.404503   1.392984   0.000000
    16  C    1.402098   2.398633   2.780111   2.422091   1.397657
    17  C    2.535777   3.082850   4.382667   5.106429   4.797812
    18  H    4.714648   5.161026   6.450072   7.251467   6.948986
    19  H    2.753753   2.759299   4.013506   4.978689   4.975032
    20  H    2.765452   3.388138   4.495056   5.029566   4.632798
    21  H    5.441452   5.911512   7.299703   8.174787   7.852786
    22  H    4.520072   4.620470   5.956997   7.008632   6.949941
    23  H    4.696529   5.132097   6.422022   7.230847   6.936662
    24  H    4.576501   5.585389   6.785268   7.141860   6.392640
    25  H    5.466298   6.383305   7.713561   8.240115   7.564184
    26  H    4.745392   6.007156   7.188773   7.354115   6.375005
    27  H    2.816847   4.154626   5.140299   5.141175   4.136701
    28  H    2.811015   4.149439   5.133598   5.132885   4.127507
    29  H    2.162863   1.086711   2.138274   3.393182   3.861539
    30  H    3.421242   2.149408   1.087057   2.157928   3.393632
    31  H    3.919190   3.405135   2.160308   1.086640   2.157937
    32  H    3.417318   3.862019   3.394039   2.154805   1.087048
    33  H    2.162412   3.392526   3.864135   3.391389   2.137600
    34  H    2.766414   3.387624   4.496554   5.033521   4.638228
    35  H    2.749734   2.753785   4.009428   4.975993   4.973249
                   16         17         18         19         20
    16  C    0.000000
    17  C    3.645516   0.000000
    18  H    5.768250   3.969083   0.000000
    19  H    4.027800   2.792597   2.511742   0.000000
    20  H    3.566642   3.484751   2.511332   1.760007   0.000000
    21  H    6.577485   3.481330   2.515181   3.767324   4.337102
    22  H    5.839821   2.769484   2.532226   2.560017   3.771698
    23  H    5.758839   2.166787   4.332355   4.173317   4.995733
    24  H    5.099328   2.770872   4.989478   5.043193   5.029145
    25  H    6.198862   3.481692   4.150318   5.033206   5.030379
    26  H    5.004096   3.955651   4.265879   4.977822   4.133410
    27  H    2.821166   2.761883   4.982456   4.335891   3.761856
    28  H    2.812297   3.476220   4.144837   3.765496   2.550477
    29  H    3.390942   2.922686   4.749317   2.277840   3.449284
    30  H    3.867099   5.062438   6.993453   4.490411   5.220329
    31  H    3.408858   6.154084   8.275729   5.970516   6.026975
    32  H    2.151119   5.695114   7.800582   5.967341   5.430798
    33  H    1.084395   3.924413   5.879494   4.548867   3.765496
    34  H    3.571247   1.098250   5.009256   3.793374   4.327137
    35  H    4.025853   1.096913   4.200439   2.607558   3.790998
                   21         22         23         24         25
    21  H    0.000000
    22  H    1.765179   0.000000
    23  H    2.504013   2.506527   0.000000
    24  H    3.770062   4.330947   2.505676   0.000000
    25  H    2.562389   3.770301   2.507859   1.765687   0.000000
    26  H    4.159873   4.986017   4.329371   2.528467   2.518388
    27  H    5.024506   5.021004   4.151235   2.556243   3.763847
    28  H    5.030448   5.021718   4.988081   3.767281   4.327735
    29  H    5.378338   3.892073   4.712491   5.645294   6.229218
    30  H    7.824242   6.329689   6.960788   7.613318   8.472456
    31  H    9.239348   8.024265   8.254899   8.172998   9.313636
    32  H    8.728561   7.935144   7.793057   6.978590   8.227272
    33  H    6.632050   6.175498   5.879097   4.759671   5.896905
    34  H    4.329620   3.772587   2.500330   2.565482   3.771426
    35  H    3.765630   2.563841   2.481665   3.763657   4.321638
                   26         27         28         29         30
    26  H    0.000000
    27  H    2.510507   0.000000
    28  H    2.489636   1.765178   0.000000
    29  H    6.229239   4.659299   4.655978   0.000000
    30  H    8.135784   6.147559   6.141243   2.450786   0.000000
    31  H    8.393331   6.146942   6.138261   4.289197   2.492777
    32  H    6.815121   4.597844   4.588059   4.948566   4.298783
    33  H    4.369266   2.252792   2.242704   4.304730   4.951182
    34  H    4.173958   2.552449   3.760929   3.445866   5.221252
    35  H    4.998687   3.766112   4.332213   2.270159   4.486291
                   31         32         33         34         35
    31  H    0.000000
    32  H    2.490131   0.000000
    33  H    4.286756   2.446627   0.000000
    34  H    6.031654   5.437643   3.771646   0.000000
    35  H    5.968289   5.966428   4.548231   1.759900   0.000000
 Stoichiometry    C16H18O
 Framework group  C1[X(C16H18O)]
 Deg. of freedom    99
 Full point group                 C1      NOp   1
 Largest Abelian subgroup         C1      NOp   1
 Largest concise Abelian subgroup C1      NOp   1
                         Standard orientation:                         
 ---------------------------------------------------------------------
 Center     Atomic      Atomic             Coordinates (Angstroms)
 Number     Number       Type             X           Y           Z
 ---------------------------------------------------------------------
      1          8           0        3.361372   -1.461939   -1.368547
      2          6           0        2.561938   -0.790183   -0.744901
      3          6           0        1.970148    0.519432   -1.252472
      4          6           0        0.429802    0.371645   -1.310768
      5          6           0        2.345121    1.643624   -0.254424
      6          6           0        1.800239    1.297009    1.145373
      7          6           0        2.422389   -0.028462    1.622997
      8          6           0        2.037310   -1.159595    0.638481
      9          6           0        0.495521   -1.286133    0.567447
     10          6           0       -0.157083    0.036678    0.091759
     11          6           0       -1.687268   -0.051946    0.012098
     12          6           0       -2.431462    1.065970   -0.404850
     13          6           0       -3.821610    1.026424   -0.490507
     14          6           0       -4.513238   -0.140425   -0.159383
     15          6           0       -3.794602   -1.259154    0.255844
     16          6           0       -2.400215   -1.213875    0.339980
     17          6           0        0.266064    1.158064    1.084726
     18          1           0        2.376922    0.723293   -2.248271
     19          1           0       -0.002047    1.305418   -1.691062
     20          1           0        0.150605   -0.416465   -2.021882
     21          1           0        3.435197    1.768973   -0.220281
     22          1           0        1.923808    2.595785   -0.604913
     23          1           0        2.062635    2.098730    1.847910
     24          1           0        2.060446   -0.282229    2.628578
     25          1           0        3.514705    0.060312    1.687595
     26          1           0        2.486238   -2.112426    0.936767
     27          1           0        0.118939   -1.558220    1.562382
     28          1           0        0.228425   -2.105347   -0.112287
     29          1           0       -1.919933    1.987679   -0.668912
     30          1           0       -4.364981    1.909459   -0.817143
     31          1           0       -5.597321   -0.175025   -0.225365
     32          1           0       -4.315662   -2.176635    0.517375
     33          1           0       -1.874662   -2.104377    0.666649
     34          1           0       -0.134367    0.928080    2.081178
     35          1           0       -0.178247    2.114077    0.781666
 ---------------------------------------------------------------------
 Rotational constants (GHZ):           1.1101497           0.3120492           0.2980538
 Standard basis: 6-31G(d) (6D, 7F)
 There are   291 symmetry adapted cartesian basis functions of A   symmetry.
 There are   291 symmetry adapted basis functions of A   symmetry.
   291 basis functions,   548 primitive gaussians,   291 cartesian basis functions
    61 alpha electrons       61 beta electrons
       nuclear repulsion energy      1225.0566341199 Hartrees.
 NAtoms=   35 NActive=   35 NUniq=   35 SFac= 1.00D+00 NAtFMM=   60 NAOKFM=F Big=F
 Integral buffers will be    131072 words long.
 Raffenetti 2 integral format.
 Two-electron integral symmetry is turned on.
 One-electron integrals computed using PRISM.
 NBasis=   291 RedAO= T EigKep=  4.44D-04  NBF=   291
 NBsUse=   291 1.00D-06 EigRej= -1.00D+00 NBFU=   291
 ExpMin= 1.61D-01 ExpMax= 5.48D+03 ExpMxC= 8.25D+02 IAcc=3 IRadAn=         5 AccDes= 0.00D+00
 Harris functional with IExCor=  402 and IRadAn=       5 diagonalized for initial guess.
 HarFok:  IExCor=  402 AccDes= 0.00D+00 IRadAn=         5 IDoV= 1 UseB2=F ITyADJ=14
 ICtDFT=  3500011 ScaDFX=  1.000000  1.000000  1.000000  1.000000
 FoFCou: FMM=F IPFlag=           0 FMFlag=      100000 FMFlg1=           0
         NFxFlg=           0 DoJE=T BraDBF=F KetDBF=T FulRan=T
         wScrn=  0.000000 ICntrl=       500 IOpCl=  0 I1Cent=   200000004 NGrid=           0
         NMat0=    1 NMatS0=      1 NMatT0=    0 NMatD0=    1 NMtDS0=    0 NMtDT0=    0
 Petite list used in FoFCou.
 Requested convergence on RMS density matrix=1.00D-08 within 128 cycles.
 Requested convergence on MAX density matrix=1.00D-06.
 Requested convergence on             energy=1.00D-06.
 No special actions if energy rises.
 Integral accuracy reduced to 1.0D-05 until final iterations.
 Initial convergence to 1.0D-05 achieved.  Increase integral accuracy.
 SCF Done:  E(RB3LYP) =  -695.783092099     A.U. after   14 cycles
            NFock= 14  Conv=0.65D-08     -V/T= 2.0097
 DoSCS=F DFT=T ScalE2(SS,OS)=  1.000000  1.000000
 Range of M.O.s used for correlation:     1   291
 NBasis=   291 NAE=    61 NBE=    61 NFC=     0 NFV=     0
 NROrb=    291 NOA=    61 NOB=    61 NVA=   230 NVB=   230
 Symmetrizing basis deriv contribution to polar:
 IMax=3 JMax=2 DiffMx= 0.00D+00
 G2DrvN: will do    36 centers at a time, making    1 passes.
 Calling FoFCou, ICntrl=  3107 FMM=F I1Cent=   0 AccDes= 0.00D+00.
 End of G2Drv F.D. properties file   721 does not exist.
 End of G2Drv F.D. properties file   722 does not exist.
 End of G2Drv F.D. properties file   788 does not exist.
          IDoAtm=11111111111111111111111111111111111
          Differentiating once with respect to electric field.
                with respect to dipole field.
          Differentiating once with respect to nuclear coordinates.
 Keep R1 ints in memory in canonical form, NReq=915016047.
          There are   108 degrees of freedom in the 1st order CPHF.  IDoFFX=6 NUNeed=     3.
    105 vectors produced by pass  0 Test12= 1.40D-14 1.00D-09 XBig12= 1.69D+02 5.20D+00.
 AX will form   105 AO Fock derivatives at one time.
    105 vectors produced by pass  1 Test12= 1.40D-14 1.00D-09 XBig12= 2.13D+01 9.11D-01.
    105 vectors produced by pass  2 Test12= 1.40D-14 1.00D-09 XBig12= 1.55D-01 4.43D-02.
    105 vectors produced by pass  3 Test12= 1.40D-14 1.00D-09 XBig12= 4.72D-04 3.43D-03.
    105 vectors produced by pass  4 Test12= 1.40D-14 1.00D-09 XBig12= 5.44D-07 5.37D-05.
     66 vectors produced by pass  5 Test12= 1.40D-14 1.00D-09 XBig12= 4.43D-10 1.93D-06.
      5 vectors produced by pass  6 Test12= 1.40D-14 1.00D-09 XBig12= 3.40D-13 5.45D-08.
      2 vectors produced by pass  7 Test12= 1.40D-14 1.00D-09 XBig12= 3.06D-16 1.73D-09.
 InvSVY:  IOpt=1 It=  1 EMax= 7.11D-15
 Solved reduced A of dimension   598 with   108 vectors.
 Isotropic polarizability for W=    0.000000      154.20 Bohr**3.
 End of Minotr F.D. properties file   721 does not exist.
 End of Minotr F.D. properties file   722 does not exist.
 End of Minotr F.D. properties file   788 does not exist.

 **********************************************************************

            Population analysis using the SCF density.

 **********************************************************************

 Orbital symmetries:
       Occupied  (A) (A) (A) (A) (A) (A) (A) (A) (A) (A) (A) (A)
                 (A) (A) (A) (A) (A) (A) (A) (A) (A) (A) (A) (A)
                 (A) (A) (A) (A) (A) (A) (A) (A) (A) (A) (A) (A)
                 (A) (A) (A) (A) (A) (A) (A) (A) (A) (A) (A) (A)
                 (A) (A) (A) (A) (A) (A) (A) (A) (A) (A) (A) (A)
                 (A)
       Virtual   (A) (A) (A) (A) (A) (A) (A) (A) (A) (A) (A) (A)
                 (A) (A) (A) (A) (A) (A) (A) (A) (A) (A) (A) (A)
                 (A) (A) (A) (A) (A) (A) (A) (A) (A) (A) (A) (A)
                 (A) (A) (A) (A) (A) (A) (A) (A) (A) (A) (A) (A)
                 (A) (A) (A) (A) (A) (A) (A) (A) (A) (A) (A) (A)
                 (A) (A) (A) (A) (A) (A) (A) (A) (A) (A) (A) (A)
                 (A) (A) (A) (A) (A) (A) (A) (A) (A) (A) (A) (A)
                 (A) (A) (A) (A) (A) (A) (A) (A) (A) (A) (A) (A)
                 (A) (A) (A) (A) (A) (A) (A) (A) (A) (A) (A) (A)
                 (A) (A) (A) (A) (A) (A) (A) (A) (A) (A) (A) (A)
                 (A) (A) (A) (A) (A) (A) (A) (A) (A) (A) (A) (A)
                 (A) (A) (A) (A) (A) (A) (A) (A) (A) (A) (A) (A)
                 (A) (A) (A) (A) (A) (A) (A) (A) (A) (A) (A) (A)
                 (A) (A) (A) (A) (A) (A) (A) (A) (A) (A) (A) (A)
                 (A) (A) (A) (A) (A) (A) (A) (A) (A) (A) (A) (A)
                 (A) (A) (A) (A) (A) (A) (A) (A) (A) (A) (A) (A)
                 (A) (A) (A) (A) (A) (A) (A) (A) (A) (A) (A) (A)
                 (A) (A) (A) (A) (A) (A) (A) (A) (A) (A) (A) (A)
                 (A) (A) (A) (A) (A) (A) (A) (A) (A) (A) (A) (A)
                 (A) (A)
 The electronic state is 1-A.
 Alpha  occ. eigenvalues --  -19.13124 -10.26214 -10.20853 -10.19714 -10.19545
 Alpha  occ. eigenvalues --  -10.19353 -10.19302 -10.19192 -10.19159 -10.19154
 Alpha  occ. eigenvalues --  -10.19117 -10.19037 -10.18974 -10.18870 -10.18861
 Alpha  occ. eigenvalues --  -10.18793 -10.18654  -1.02941  -0.88015  -0.85048
 Alpha  occ. eigenvalues --   -0.79100  -0.78066  -0.76510  -0.74330  -0.72644
 Alpha  occ. eigenvalues --   -0.67870  -0.64939  -0.61627  -0.61090  -0.59211
 Alpha  occ. eigenvalues --   -0.57718  -0.56438  -0.52322  -0.49573  -0.47381
 Alpha  occ. eigenvalues --   -0.46041  -0.45441  -0.45067  -0.44534  -0.43991
 Alpha  occ. eigenvalues --   -0.43328  -0.42064  -0.41905  -0.40839  -0.40650
 Alpha  occ. eigenvalues --   -0.39872  -0.39510  -0.36582  -0.36221  -0.36151
 Alpha  occ. eigenvalues --   -0.35062  -0.35042  -0.33784  -0.33698  -0.33115
 Alpha  occ. eigenvalues --   -0.30328  -0.29952  -0.29473  -0.24944  -0.24189
 Alpha  occ. eigenvalues --   -0.22862
 Alpha virt. eigenvalues --   -0.00938  -0.00223   0.00110   0.06724   0.09208
 Alpha virt. eigenvalues --    0.10995   0.11723   0.12613   0.12957   0.13255
 Alpha virt. eigenvalues --    0.14305   0.14663   0.15140   0.15349   0.15673
 Alpha virt. eigenvalues --    0.16802   0.17610   0.18425   0.19069   0.19244
 Alpha virt. eigenvalues --    0.19524   0.19956   0.21190   0.21819   0.21972
 Alpha virt. eigenvalues --    0.23201   0.23975   0.24112   0.25441   0.26608
 Alpha virt. eigenvalues --    0.28166   0.28421   0.29018   0.29460   0.30700
 Alpha virt. eigenvalues --    0.33843   0.34328   0.35275   0.36317   0.38171
 Alpha virt. eigenvalues --    0.47134   0.50007   0.51292   0.51673   0.53177
 Alpha virt. eigenvalues --    0.54102   0.54973   0.55053   0.55940   0.56464
 Alpha virt. eigenvalues --    0.57201   0.57857   0.59551   0.59614   0.60660
 Alpha virt. eigenvalues --    0.60784   0.60987   0.62215   0.63566   0.64049
 Alpha virt. eigenvalues --    0.64411   0.65915   0.66301   0.67237   0.67556
 Alpha virt. eigenvalues --    0.68298   0.69503   0.71607   0.71883   0.75062
 Alpha virt. eigenvalues --    0.75531   0.76682   0.77353   0.78445   0.79347
 Alpha virt. eigenvalues --    0.81000   0.82116   0.82601   0.83392   0.84029
 Alpha virt. eigenvalues --    0.84100   0.85417   0.86318   0.86847   0.87196
 Alpha virt. eigenvalues --    0.87988   0.88540   0.89565   0.91070   0.91750
 Alpha virt. eigenvalues --    0.92745   0.93988   0.94251   0.94836   0.95222
 Alpha virt. eigenvalues --    0.96063   0.98031   0.98511   0.99718   1.01522
 Alpha virt. eigenvalues --    1.04386   1.05516   1.09257   1.09749   1.10836
 Alpha virt. eigenvalues --    1.13388   1.14194   1.16741   1.17148   1.17636
 Alpha virt. eigenvalues --    1.18967   1.20383   1.22580   1.24398   1.26774
 Alpha virt. eigenvalues --    1.28071   1.29505   1.34136   1.40965   1.41280
 Alpha virt. eigenvalues --    1.43433   1.44578   1.45704   1.48448   1.48815
 Alpha virt. eigenvalues --    1.49314   1.51523   1.52232   1.52975   1.60563
 Alpha virt. eigenvalues --    1.61129   1.65318   1.65599   1.68989   1.69288
 Alpha virt. eigenvalues --    1.71597   1.74175   1.75834   1.76620   1.77150
 Alpha virt. eigenvalues --    1.78895   1.79114   1.81202   1.82497   1.83963
 Alpha virt. eigenvalues --    1.84977   1.85567   1.86609   1.88540   1.90376
 Alpha virt. eigenvalues --    1.91122   1.92517   1.94924   1.97078   1.98273
 Alpha virt. eigenvalues --    2.00987   2.02872   2.03835   2.05679   2.07680
 Alpha virt. eigenvalues --    2.07975   2.08806   2.11404   2.13212   2.14059
 Alpha virt. eigenvalues --    2.14689   2.15107   2.15889   2.18066   2.19691
 Alpha virt. eigenvalues --    2.21057   2.22199   2.24224   2.26512   2.29380
 Alpha virt. eigenvalues --    2.29797   2.30834   2.32380   2.33926   2.35302
 Alpha virt. eigenvalues --    2.36079   2.38531   2.40348   2.42377   2.44147
 Alpha virt. eigenvalues --    2.46674   2.47285   2.51760   2.52690   2.56494
 Alpha virt. eigenvalues --    2.58317   2.58887   2.62204   2.63402   2.64746
 Alpha virt. eigenvalues --    2.68662   2.69385   2.70963   2.72051   2.73426
 Alpha virt. eigenvalues --    2.74081   2.74206   2.76149   2.77281   2.78028
 Alpha virt. eigenvalues --    2.81269   2.81495   2.85973   3.00706   3.01704
 Alpha virt. eigenvalues --    3.03688   3.11436   3.41232   4.09027   4.10095
 Alpha virt. eigenvalues --    4.11717   4.14217   4.17964   4.27233   4.29229
 Alpha virt. eigenvalues --    4.31045   4.33258   4.39968   4.50342   4.56328
 Alpha virt. eigenvalues --    4.67746   4.71695   4.79984   4.84446   4.85137
          Condensed to atoms (all electrons):
               1          2          3          4          5          6
     1  O    8.012860   0.579812  -0.073736   0.000914   0.000958   0.000045
     2  C    0.579812   4.513508   0.331268  -0.027865  -0.029572  -0.020517
     3  C   -0.073736   0.331268   5.237797   0.312934   0.338798  -0.028543
     4  C    0.000914  -0.027865   0.312934   5.177191  -0.038949  -0.014280
     5  C    0.000958  -0.029572   0.338798  -0.038949   5.098450   0.374941
     6  C    0.000045  -0.020517  -0.028543  -0.014280   0.374941   4.945239
     7  C    0.000901  -0.029238  -0.008471  -0.002515  -0.049307   0.374903
     8  C   -0.073994   0.330759  -0.125175  -0.007110  -0.008110  -0.027677
     9  C    0.000997  -0.027880  -0.006215  -0.058784  -0.003057  -0.014254
    10  C    0.000110  -0.019297  -0.020347   0.364735  -0.016343  -0.021311
    11  C    0.000001   0.000015   0.004079  -0.044430   0.000031   0.004110
    12  C   -0.000000  -0.000007   0.000343  -0.008855  -0.000048   0.000352
    13  C   -0.000000   0.000000  -0.000001   0.000303  -0.000000  -0.000000
    14  C   -0.000000  -0.000000  -0.000000   0.000002  -0.000000  -0.000000
    15  C   -0.000000   0.000000   0.000001  -0.000159   0.000000   0.000001
    16  C   -0.000000  -0.000014  -0.000060   0.001045  -0.000002  -0.000071
    17  C   -0.000031  -0.002821  -0.012423  -0.053754  -0.046463   0.352751
    18  H    0.004190  -0.031712   0.344733  -0.030405  -0.031250   0.004166
    19  H   -0.000082   0.003554  -0.029724   0.354910  -0.005937  -0.000716
    20  H    0.000711  -0.001334  -0.037764   0.363202   0.005060  -0.000045
    21  H    0.000731  -0.000854  -0.039251   0.005104   0.367131  -0.034814
    22  H   -0.000083   0.003565  -0.031686  -0.005622   0.360311  -0.033812
    23  H   -0.000000   0.000300   0.004622   0.000078  -0.037907   0.368463
    24  H   -0.000082   0.003548  -0.000298   0.000106   0.005247  -0.033396
    25  H    0.000768  -0.000909  -0.000024   0.000043  -0.004353  -0.034962
    26  H    0.004280  -0.031911   0.007147  -0.000074  -0.000043   0.004220
    27  H   -0.000083   0.003544  -0.000402   0.006059   0.000132  -0.000749
    28  H    0.000744  -0.001039   0.000481  -0.006678   0.000008  -0.000046
    29  H   -0.000000  -0.000005  -0.000118   0.000106  -0.000014  -0.000135
    30  H    0.000000  -0.000000  -0.000000  -0.000000  -0.000000  -0.000000
    31  H    0.000000   0.000000   0.000000   0.000000   0.000000   0.000000
    32  H    0.000000  -0.000000  -0.000000   0.000002  -0.000000  -0.000000
    33  H   -0.000000  -0.000016  -0.000006   0.000250  -0.000001  -0.000007
    34  H    0.000000   0.000141  -0.000142   0.005851   0.005130  -0.034163
    35  H    0.000000   0.000146  -0.001119  -0.004959  -0.003660  -0.034000
               7          8          9         10         11         12
     1  O    0.000901  -0.073994   0.000997   0.000110   0.000001  -0.000000
     2  C   -0.029238   0.330759  -0.027880  -0.019297   0.000015  -0.000007
     3  C   -0.008471  -0.125175  -0.006215  -0.020347   0.004079   0.000343
     4  C   -0.002515  -0.007110  -0.058784   0.364735  -0.044430  -0.008855
     5  C   -0.049307  -0.008110  -0.003057  -0.016343   0.000031  -0.000048
     6  C    0.374903  -0.027677  -0.014254  -0.021311   0.004110   0.000352
     7  C    5.095236   0.338730  -0.038006  -0.016257  -0.000048  -0.000002
     8  C    0.338730   5.231351   0.321225  -0.017752   0.003383  -0.000102
     9  C   -0.038006   0.321225   5.182191   0.360979  -0.037304   0.005484
    10  C   -0.016257  -0.017752   0.360979   4.962273   0.353339  -0.052746
    11  C   -0.000048   0.003383  -0.037304   0.353339   4.706914   0.522633
    12  C   -0.000002  -0.000102   0.005484  -0.052746   0.522633   5.003940
    13  C    0.000000   0.000001  -0.000157   0.005218  -0.014923   0.525537
    14  C   -0.000000   0.000000  -0.000003   0.000331  -0.034275  -0.036150
    15  C    0.000000  -0.000007   0.000184   0.006810  -0.016327  -0.045724
    16  C   -0.000012   0.000570  -0.009963  -0.052663   0.549718  -0.056747
    17  C   -0.045996  -0.013279  -0.057466   0.371118  -0.047659  -0.008705
    18  H   -0.000053   0.007139  -0.000060   0.003522  -0.000103  -0.000006
    19  H    0.000099  -0.000313   0.005879  -0.030624  -0.008754   0.005043
    20  H   -0.000009   0.000443  -0.006711  -0.034159  -0.002094  -0.000206
    21  H   -0.004271  -0.000065   0.000058   0.000179   0.000012   0.000001
    22  H    0.005282  -0.000320   0.000120  -0.001290  -0.000078  -0.000034
    23  H   -0.038149   0.004666   0.000107   0.004130  -0.000094  -0.000008
    24  H    0.360859  -0.030917  -0.006103  -0.001141  -0.000095   0.000000
    25  H    0.367718  -0.039725   0.005123   0.000176   0.000012  -0.000000
    26  H   -0.031506   0.345553  -0.031238   0.003461  -0.000101   0.000002
    27  H   -0.006051  -0.031156   0.353974  -0.028186  -0.006243  -0.000115
    28  H    0.005103  -0.039637   0.361431  -0.029757  -0.006314  -0.000072
    29  H   -0.000001  -0.000002   0.000093  -0.008178  -0.048421   0.352539
    30  H   -0.000000  -0.000000   0.000002  -0.000170   0.003460  -0.039511
    31  H    0.000000  -0.000000  -0.000000   0.000009   0.000759   0.004682
    32  H   -0.000000  -0.000000   0.000004  -0.000165   0.003598   0.000854
    33  H   -0.000005   0.000078   0.007831  -0.016322  -0.040347   0.006302
    34  H   -0.003956  -0.001136  -0.005967  -0.035596  -0.001641  -0.000182
    35  H    0.005139  -0.000075   0.005840  -0.033482  -0.008535   0.005005
              13         14         15         16         17         18
     1  O   -0.000000  -0.000000  -0.000000  -0.000000  -0.000031   0.004190
     2  C    0.000000  -0.000000   0.000000  -0.000014  -0.002821  -0.031712
     3  C   -0.000001  -0.000000   0.000001  -0.000060  -0.012423   0.344733
     4  C    0.000303   0.000002  -0.000159   0.001045  -0.053754  -0.030405
     5  C   -0.000000  -0.000000   0.000000  -0.000002  -0.046463  -0.031250
     6  C   -0.000000  -0.000000   0.000001  -0.000071   0.352751   0.004166
     7  C    0.000000  -0.000000   0.000000  -0.000012  -0.045996  -0.000053
     8  C    0.000001   0.000000  -0.000007   0.000570  -0.013279   0.007139
     9  C   -0.000157  -0.000003   0.000184  -0.009963  -0.057466  -0.000060
    10  C    0.005218   0.000331   0.006810  -0.052663   0.371118   0.003522
    11  C   -0.014923  -0.034275  -0.016327   0.549718  -0.047659  -0.000103
    12  C    0.525537  -0.036150  -0.045724  -0.056747  -0.008705  -0.000006
    13  C    4.866109   0.547649  -0.026961  -0.043726   0.000290  -0.000000
    14  C    0.547649   4.848994   0.553647  -0.035000   0.000002   0.000000
    15  C   -0.026961   0.553647   4.885239   0.508726  -0.000159  -0.000000
    16  C   -0.043726  -0.035000   0.508726   4.995240   0.001061   0.000000
    17  C    0.000290   0.000002  -0.000159   0.001061   5.151271   0.000127
    18  H   -0.000000   0.000000  -0.000000   0.000000   0.000127   0.600228
    19  H   -0.000009  -0.000002   0.000004  -0.000246  -0.004842  -0.004109
    20  H   -0.000042  -0.000012  -0.000022   0.001289   0.005715  -0.002518
    21  H    0.000000   0.000000   0.000000  -0.000000   0.005007  -0.002538
    22  H   -0.000000  -0.000000  -0.000000   0.000001  -0.003457  -0.004026
    23  H   -0.000000   0.000000  -0.000000   0.000001  -0.037856  -0.000142
    24  H    0.000000  -0.000000  -0.000000  -0.000003  -0.003612   0.000023
    25  H    0.000000   0.000000  -0.000000   0.000000   0.005019  -0.000085
    26  H   -0.000000  -0.000000   0.000000   0.000004   0.000145  -0.000185
    27  H   -0.000000  -0.000006   0.000045   0.001868  -0.005761   0.000024
    28  H   -0.000001  -0.000007   0.000049   0.001716   0.005879  -0.000091
    29  H   -0.043500   0.004867   0.000408   0.005956   0.000124   0.000003
    30  H    0.356527  -0.043196   0.004641   0.000850   0.000000   0.000000
    31  H   -0.043145   0.358575  -0.042792   0.004579   0.000000  -0.000000
    32  H    0.004626  -0.043561   0.356219  -0.038599   0.000002   0.000000
    33  H    0.000381   0.004884  -0.049352   0.354204   0.000240   0.000000
    34  H   -0.000051  -0.000011  -0.000026   0.001310   0.360323   0.000018
    35  H   -0.000029  -0.000002   0.000003  -0.000214   0.358780  -0.000059
              19         20         21         22         23         24
     1  O   -0.000082   0.000711   0.000731  -0.000083  -0.000000  -0.000082
     2  C    0.003554  -0.001334  -0.000854   0.003565   0.000300   0.003548
     3  C   -0.029724  -0.037764  -0.039251  -0.031686   0.004622  -0.000298
     4  C    0.354910   0.363202   0.005104  -0.005622   0.000078   0.000106
     5  C   -0.005937   0.005060   0.367131   0.360311  -0.037907   0.005247
     6  C   -0.000716  -0.000045  -0.034814  -0.033812   0.368463  -0.033396
     7  C    0.000099  -0.000009  -0.004271   0.005282  -0.038149   0.360859
     8  C   -0.000313   0.000443  -0.000065  -0.000320   0.004666  -0.030917
     9  C    0.005879  -0.006711   0.000058   0.000120   0.000107  -0.006103
    10  C   -0.030624  -0.034159   0.000179  -0.001290   0.004130  -0.001141
    11  C   -0.008754  -0.002094   0.000012  -0.000078  -0.000094  -0.000095
    12  C    0.005043  -0.000206   0.000001  -0.000034  -0.000008   0.000000
    13  C   -0.000009  -0.000042   0.000000  -0.000000  -0.000000   0.000000
    14  C   -0.000002  -0.000012   0.000000  -0.000000   0.000000  -0.000000
    15  C    0.000004  -0.000022   0.000000  -0.000000  -0.000000  -0.000000
    16  C   -0.000246   0.001289  -0.000000   0.000001   0.000001  -0.000003
    17  C   -0.004842   0.005715   0.005007  -0.003457  -0.037856  -0.003612
    18  H   -0.004109  -0.002518  -0.002538  -0.004026  -0.000142   0.000023
    19  H    0.597560  -0.034433  -0.000060   0.005808  -0.000079  -0.000004
    20  H   -0.034433   0.587857  -0.000158  -0.000064   0.000018   0.000001
    21  H   -0.000060  -0.000158   0.593724  -0.035327  -0.003417   0.000004
    22  H    0.005808  -0.000064  -0.035327   0.603055  -0.003235  -0.000202
    23  H   -0.000079   0.000018  -0.003417  -0.003235   0.625672  -0.003219
    24  H   -0.000004   0.000001   0.000004  -0.000202  -0.003219   0.600193
    25  H    0.000001  -0.000005   0.004239   0.000005  -0.003323  -0.035257
    26  H    0.000023  -0.000090  -0.000081   0.000023  -0.000146  -0.004132
    27  H   -0.000203  -0.000017   0.000000  -0.000005  -0.000099   0.005767
    28  H    0.000006   0.004939  -0.000005   0.000000   0.000018  -0.000059
    29  H    0.003857   0.000058  -0.000000   0.000043   0.000005  -0.000000
    30  H    0.000005   0.000000  -0.000000   0.000000   0.000000   0.000000
    31  H   -0.000000  -0.000000  -0.000000   0.000000  -0.000000   0.000000
    32  H    0.000000   0.000001  -0.000000   0.000000   0.000000   0.000000
    33  H   -0.000008  -0.000030  -0.000000   0.000000   0.000000  -0.000002
    34  H   -0.000069  -0.000163  -0.000162  -0.000059  -0.003456   0.004609
    35  H    0.003452  -0.000056  -0.000044   0.004744  -0.003822  -0.000049
              25         26         27         28         29         30
     1  O    0.000768   0.004280  -0.000083   0.000744  -0.000000   0.000000
     2  C   -0.000909  -0.031911   0.003544  -0.001039  -0.000005  -0.000000
     3  C   -0.000024   0.007147  -0.000402   0.000481  -0.000118  -0.000000
     4  C    0.000043  -0.000074   0.006059  -0.006678   0.000106  -0.000000
     5  C   -0.004353  -0.000043   0.000132   0.000008  -0.000014  -0.000000
     6  C   -0.034962   0.004220  -0.000749  -0.000046  -0.000135  -0.000000
     7  C    0.367718  -0.031506  -0.006051   0.005103  -0.000001  -0.000000
     8  C   -0.039725   0.345553  -0.031156  -0.039637  -0.000002  -0.000000
     9  C    0.005123  -0.031238   0.353974   0.361431   0.000093   0.000002
    10  C    0.000176   0.003461  -0.028186  -0.029757  -0.008178  -0.000170
    11  C    0.000012  -0.000101  -0.006243  -0.006314  -0.048421   0.003460
    12  C   -0.000000   0.000002  -0.000115  -0.000072   0.352539  -0.039511
    13  C    0.000000  -0.000000  -0.000000  -0.000001  -0.043500   0.356527
    14  C    0.000000  -0.000000  -0.000006  -0.000007   0.004867  -0.043196
    15  C   -0.000000   0.000000   0.000045   0.000049   0.000408   0.004641
    16  C    0.000000   0.000004   0.001868   0.001716   0.005956   0.000850
    17  C    0.005019   0.000145  -0.005761   0.005879   0.000124   0.000000
    18  H   -0.000085  -0.000185   0.000024  -0.000091   0.000003   0.000000
    19  H    0.000001   0.000023  -0.000203   0.000006   0.003857   0.000005
    20  H   -0.000005  -0.000090  -0.000017   0.004939   0.000058   0.000000
    21  H    0.004239  -0.000081   0.000000  -0.000005  -0.000000  -0.000000
    22  H    0.000005   0.000023  -0.000005   0.000000   0.000043   0.000000
    23  H   -0.003323  -0.000146  -0.000099   0.000018   0.000005   0.000000
    24  H   -0.035257  -0.004132   0.005767  -0.000059  -0.000000   0.000000
    25  H    0.593736  -0.002449  -0.000046  -0.000158  -0.000000  -0.000000
    26  H   -0.002449   0.601390  -0.003975  -0.002674   0.000000   0.000000
    27  H   -0.000046  -0.003975   0.601030  -0.039130   0.000000   0.000000
    28  H   -0.000158  -0.002674  -0.039130   0.593596   0.000002   0.000000
    29  H   -0.000000   0.000000   0.000000   0.000002   0.609746  -0.005819
    30  H   -0.000000   0.000000   0.000000   0.000000  -0.005819   0.600039
    31  H   -0.000000  -0.000000  -0.000000   0.000000  -0.000189  -0.005425
    32  H   -0.000000   0.000000   0.000003   0.000004   0.000018  -0.000194
    33  H   -0.000000   0.000005   0.001954   0.002015  -0.000178   0.000018
    34  H   -0.000032  -0.000076   0.005390  -0.000068   0.000079   0.000000
    35  H   -0.000163   0.000017  -0.000052  -0.000170   0.004031   0.000006
              31         32         33         34         35
     1  O    0.000000   0.000000  -0.000000   0.000000   0.000000
     2  C    0.000000  -0.000000  -0.000016   0.000141   0.000146
     3  C    0.000000  -0.000000  -0.000006  -0.000142  -0.001119
     4  C    0.000000   0.000002   0.000250   0.005851  -0.004959
     5  C    0.000000  -0.000000  -0.000001   0.005130  -0.003660
     6  C    0.000000  -0.000000  -0.000007  -0.034163  -0.034000
     7  C    0.000000  -0.000000  -0.000005  -0.003956   0.005139
     8  C   -0.000000  -0.000000   0.000078  -0.001136  -0.000075
     9  C   -0.000000   0.000004   0.007831  -0.005967   0.005840
    10  C    0.000009  -0.000165  -0.016322  -0.035596  -0.033482
    11  C    0.000759   0.003598  -0.040347  -0.001641  -0.008535
    12  C    0.004682   0.000854   0.006302  -0.000182   0.005005
    13  C   -0.043145   0.004626   0.000381  -0.000051  -0.000029
    14  C    0.358575  -0.043561   0.004884  -0.000011  -0.000002
    15  C   -0.042792   0.356219  -0.049352  -0.000026   0.000003
    16  C    0.004579  -0.038599   0.354204   0.001310  -0.000214
    17  C    0.000000   0.000002   0.000240   0.360323   0.358780
    18  H   -0.000000   0.000000   0.000000   0.000018  -0.000059
    19  H   -0.000000   0.000000  -0.000008  -0.000069   0.003452
    20  H   -0.000000   0.000001  -0.000030  -0.000163  -0.000056
    21  H   -0.000000  -0.000000  -0.000000  -0.000162  -0.000044
    22  H    0.000000   0.000000   0.000000  -0.000059   0.004744
    23  H   -0.000000   0.000000   0.000000  -0.003456  -0.003822
    24  H    0.000000   0.000000  -0.000002   0.004609  -0.000049
    25  H   -0.000000  -0.000000  -0.000000  -0.000032  -0.000163
    26  H   -0.000000   0.000000   0.000005  -0.000076   0.000017
    27  H   -0.000000   0.000003   0.001954   0.005390  -0.000052
    28  H    0.000000   0.000004   0.002015  -0.000068  -0.000170
    29  H   -0.000189   0.000018  -0.000178   0.000079   0.004031
    30  H   -0.005425  -0.000194   0.000018   0.000000   0.000006
    31  H    0.599844  -0.005505  -0.000184  -0.000000  -0.000000
    32  H   -0.005505   0.599328  -0.005761   0.000001   0.000000
    33  H   -0.000184  -0.005761   0.604665  -0.000015  -0.000005
    34  H   -0.000000   0.000001  -0.000015   0.601359  -0.034376
    35  H   -0.000000   0.000000  -0.000005  -0.034376   0.604203
 Mulliken charges:
               1
     1  O   -0.459930
     2  C    0.454829
     3  C   -0.166697
     4  C   -0.288395
     5  C   -0.281184
     6  C   -0.095697
     7  C   -0.280118
     8  C   -0.167345
     9  C   -0.308351
    10  C   -0.000606
    11  C    0.165724
    12  C   -0.183499
    13  C   -0.134094
    14  C   -0.126725
    15  C   -0.134446
    16  C   -0.190821
    17  C   -0.273568
    18  H    0.143166
    19  H    0.140012
    20  H    0.150637
    21  H    0.144855
    22  H    0.136342
    23  H    0.126872
    24  H    0.138213
    25  H    0.144651
    26  H    0.142411
    27  H    0.142489
    28  H    0.149911
    29  H    0.124625
    30  H    0.128767
    31  H    0.128791
    32  H    0.129127
    33  H    0.129414
    34  H    0.137136
    35  H    0.133503
 Sum of Mulliken charges =  -0.00000
 Mulliken charges with hydrogens summed into heavy atoms:
               1
     1  O   -0.459930
     2  C    0.454829
     3  C   -0.023531
     4  C    0.002253
     5  C    0.000013
     6  C    0.031176
     7  C    0.002746
     8  C   -0.024934
     9  C   -0.015951
    10  C   -0.000606
    11  C    0.165724
    12  C   -0.058874
    13  C   -0.005327
    14  C    0.002066
    15  C   -0.005319
    16  C   -0.061406
    17  C   -0.002929
 APT charges:
               1
     1  O   -0.646161
     2  C    0.695752
     3  C   -0.051110
     4  C    0.084524
     5  C    0.116611
     6  C    0.104403
     7  C    0.112875
     8  C   -0.036583
     9  C    0.084139
    10  C    0.090929
    11  C    0.068075
    12  C   -0.086481
    13  C    0.017745
    14  C   -0.044151
    15  C    0.012762
    16  C   -0.080732
    17  C    0.054953
    18  H   -0.059126
    19  H   -0.031763
    20  H   -0.030812
    21  H   -0.046446
    22  H   -0.044126
    23  H   -0.080625
    24  H   -0.044319
    25  H   -0.045208
    26  H   -0.054824
    27  H   -0.037785
    28  H   -0.031054
    29  H    0.024686
    30  H    0.005579
    31  H    0.011112
    32  H    0.005162
    33  H    0.035161
    34  H   -0.039442
    35  H   -0.033719
 Sum of APT charges =   0.00000
 APT charges with hydrogens summed into heavy atoms:
               1
     1  O   -0.646161
     2  C    0.695752
     3  C   -0.110236
     4  C    0.021948
     5  C    0.026038
     6  C    0.023778
     7  C    0.023348
     8  C   -0.091407
     9  C    0.015300
    10  C    0.090929
    11  C    0.068075
    12  C   -0.061796
    13  C    0.023323
    14  C   -0.033039
    15  C    0.017924
    16  C   -0.045571
    17  C   -0.018208
 Electronic spatial extent (au):  <R**2>=           3968.4891
 Charge=              0.0000 electrons
 Dipole moment (field-independent basis, Debye):
    X=             -1.9099    Y=              1.7994    Z=              1.6617  Tot=              3.1059
 Quadrupole moment (field-independent basis, Debye-Ang):
   XX=           -106.5411   YY=            -98.4569   ZZ=           -103.1725
   XY=              7.3913   XZ=              7.2216   YZ=             -5.4017
 Traceless Quadrupole moment (field-independent basis, Debye-Ang):
   XX=             -3.8176   YY=              4.2666   ZZ=             -0.4490
   XY=              7.3913   XZ=              7.2216   YZ=             -5.4017
 Octapole moment (field-independent basis, Debye-Ang**2):
  XXX=            -55.3564  YYY=             -0.8137  ZZZ=              0.4062  XYY=            -13.1541
  XXY=             24.1907  XXZ=             20.4817  XZZ=              6.0430  YZZ=              3.3234
  YYZ=              3.2495  XYZ=             -5.8482
 Hexadecapole moment (field-independent basis, Debye-Ang**3):
 XXXX=          -3783.0232 YYYY=           -835.5815 ZZZZ=           -640.2890 XXXY=             89.1431
 XXXZ=             93.9155 YYYX=              2.5472 YYYZ=            -12.1357 ZZZX=             -5.9688
 ZZZY=              0.1215 XXYY=           -791.8619 XXZZ=           -816.2145 YYZZ=           -253.4053
 XXYZ=            -64.3785 YYXZ=             14.6283 ZZXY=              9.8589
 N-N= 1.225056634120D+03 E-N=-4.062998618846D+03  KE= 6.891196058814D+02
  Exact polarizability: 199.265   0.240 147.793   1.251 -10.241 115.554
 Approx polarizability: 271.329  -4.773 249.417  -2.313 -20.410 180.953
 Calling FoFJK, ICntrl=    100127 FMM=F ISym2X=0 I1Cent= 0 IOpClX= 0 NMat=1 NMatS=1 NMatT=0.
 Full mass-weighted force constant matrix:
 Low frequencies ---   -9.3663   -0.0007   -0.0006   -0.0005    6.3509    7.8499
 Low frequencies ---   50.7520   75.0700  107.7300
 Diagonal vibrational polarizability:
       10.8558380       7.1100180       9.0936956
 Harmonic frequencies (cm**-1), IR intensities (KM/Mole), Raman scattering
 activities (A**4/AMU), depolarization ratios for plane and unpolarized
 incident light, reduced masses (AMU), force constants (mDyne/A),
 and normal coordinates:
                      1                      2                      3
                      A                      A                      A
 Frequencies --     50.7450                75.0688               107.7278
 Red. masses --      3.8443                 6.7937                 4.6776
 Frc consts  --      0.0058                 0.0226                 0.0320
 IR Inten    --      0.2141                 1.8780                 1.4951
  Atom  AN      X      Y      Z        X      Y      Z        X      Y      Z
     1   8     0.06   0.09  -0.03     0.36   0.16   0.22     0.19   0.17   0.04
     2   6     0.03   0.04  -0.03     0.10   0.01   0.05    -0.01   0.01  -0.04
     3   6     0.02   0.05   0.02     0.01  -0.06  -0.05    -0.13  -0.05  -0.05
     4   6     0.02   0.04  -0.01     0.02  -0.09  -0.10    -0.12  -0.06   0.08
     5   6    -0.01   0.01   0.08    -0.03  -0.04  -0.05    -0.06  -0.03  -0.09
     6   6    -0.03  -0.06   0.05    -0.07  -0.03  -0.06     0.07  -0.03  -0.04
     7   6    -0.03  -0.08   0.00    -0.08  -0.02  -0.01     0.10  -0.03  -0.09
     8   6    -0.01  -0.03  -0.06    -0.03  -0.03  -0.02     0.00  -0.04  -0.05
     9   6    -0.00  -0.04  -0.08    -0.03  -0.05  -0.08    -0.01  -0.03   0.08
    10   6    -0.00  -0.02  -0.04    -0.02  -0.06  -0.11    -0.03  -0.02   0.13
    11   6    -0.00  -0.01  -0.04    -0.03  -0.03  -0.09    -0.03   0.02   0.15
    12   6     0.02  -0.07  -0.21    -0.02   0.02   0.04     0.02   0.02   0.08
    13   6     0.01  -0.05  -0.18    -0.03   0.10   0.20     0.03   0.02  -0.11
    14   6    -0.01   0.03   0.05    -0.05   0.11   0.21    -0.01   0.01  -0.21
    15   6    -0.03   0.09   0.24    -0.06   0.04   0.03    -0.06   0.03  -0.07
    16   6    -0.02   0.06   0.19    -0.04  -0.03  -0.12    -0.07   0.03   0.11
    17   6    -0.03  -0.06   0.02    -0.06  -0.04  -0.11     0.06  -0.03   0.09
    18   1     0.03   0.10   0.04     0.05  -0.07  -0.03    -0.20  -0.06  -0.08
    19   1     0.03   0.05   0.01     0.02  -0.10  -0.14    -0.15  -0.08   0.08
    20   1     0.04   0.06  -0.05     0.05  -0.11  -0.09    -0.18  -0.09   0.13
    21   1    -0.01   0.01   0.10    -0.04  -0.02  -0.03    -0.06  -0.01  -0.19
    22   1    -0.01   0.02   0.11    -0.04  -0.05  -0.07    -0.12  -0.04  -0.06
    23   1    -0.04  -0.09   0.10    -0.10  -0.01  -0.06     0.13  -0.03  -0.07
    24   1    -0.05  -0.13  -0.02    -0.13   0.00  -0.02     0.19  -0.02  -0.05
    25   1    -0.03  -0.07   0.03    -0.09  -0.02   0.04     0.11  -0.05  -0.19
    26   1    -0.00  -0.04  -0.09    -0.03  -0.02   0.02     0.02  -0.04  -0.07
    27   1    -0.00  -0.07  -0.09    -0.07  -0.06  -0.10     0.07  -0.02   0.11
    28   1    -0.01  -0.01  -0.11     0.01  -0.05  -0.10    -0.08  -0.03   0.11
    29   1     0.03  -0.12  -0.38    -0.00   0.01   0.04     0.05   0.02   0.13
    30   1     0.03  -0.09  -0.32    -0.02   0.15   0.32     0.07   0.01  -0.19
    31   1    -0.01   0.05   0.09    -0.06   0.18   0.35     0.00   0.00  -0.37
    32   1    -0.05   0.15   0.42    -0.07   0.05   0.02    -0.10   0.04  -0.12
    33   1    -0.04   0.11   0.33    -0.05  -0.08  -0.23    -0.11   0.04   0.19
    34   1    -0.05  -0.10  -0.00    -0.09  -0.03  -0.12     0.15  -0.03   0.13
    35   1    -0.03  -0.05   0.04    -0.05  -0.05  -0.14     0.04  -0.02   0.14
                      4                      5                      6
                      A                      A                      A
 Frequencies --    141.7928               259.4586               273.5267
 Red. masses --      3.7485                 2.9955                 3.9388
 Frc consts  --      0.0444                 0.1188                 0.1736
 IR Inten    --      0.4095                 0.1956                 0.2815
  Atom  AN      X      Y      Z        X      Y      Z        X      Y      Z
     1   8    -0.09  -0.01  -0.08     0.01  -0.03   0.04     0.02   0.04  -0.11
     2   6     0.02   0.04   0.00    -0.00  -0.03   0.02     0.07   0.03  -0.03
     3   6    -0.02   0.03   0.02     0.02  -0.00   0.02     0.07   0.04   0.03
     4   6     0.00  -0.13   0.01     0.02   0.03   0.04     0.05  -0.02   0.03
     5   6    -0.15   0.09   0.00    -0.03   0.04  -0.01     0.20  -0.03   0.05
     6   6    -0.09   0.04   0.01     0.06  -0.02   0.02     0.07   0.02   0.00
     7   6     0.04   0.10   0.00     0.19   0.01  -0.08     0.04   0.02   0.04
     8   6     0.10   0.05   0.04    -0.00  -0.01   0.01     0.10   0.03   0.00
     9   6     0.09  -0.08   0.05    -0.02   0.04   0.09     0.07   0.01   0.07
    10   6     0.02  -0.13   0.01    -0.01   0.03   0.03    -0.00  -0.04   0.02
    11   6     0.03  -0.11  -0.02    -0.03   0.02  -0.10    -0.08  -0.08   0.02
    12   6     0.12  -0.05  -0.02    -0.08  -0.01  -0.15    -0.08  -0.08   0.02
    13   6     0.12   0.09  -0.00    -0.09  -0.02  -0.03    -0.09  -0.01   0.00
    14   6     0.03   0.15   0.01    -0.08   0.01   0.11    -0.17   0.03  -0.02
    15   6    -0.07   0.08  -0.02    -0.03  -0.01  -0.02    -0.19   0.01  -0.02
    16   6    -0.06  -0.06  -0.04    -0.02   0.00  -0.14    -0.17  -0.05   0.00
    17   6    -0.07  -0.11   0.03     0.04  -0.06   0.12     0.04   0.07  -0.10
    18   1    -0.03   0.05   0.02     0.01  -0.01   0.02     0.03   0.05   0.02
    19   1    -0.08  -0.19  -0.04     0.05   0.05   0.05     0.02  -0.04   0.02
    20   1     0.09  -0.19   0.04    -0.01   0.05   0.04     0.13  -0.03   0.01
    21   1    -0.17   0.23  -0.01    -0.04   0.15  -0.05     0.23  -0.24   0.11
    22   1    -0.28   0.03  -0.01    -0.14  -0.01  -0.00     0.41   0.06   0.04
    23   1    -0.16   0.07   0.01     0.08  -0.03   0.02     0.02   0.02   0.01
    24   1     0.10   0.08   0.02     0.45   0.02   0.01    -0.02  -0.00   0.01
    25   1     0.03   0.19  -0.04     0.21   0.03  -0.35     0.04   0.04   0.12
    26   1     0.17   0.09   0.05    -0.03  -0.03   0.00     0.11   0.03  -0.00
    27   1     0.11  -0.08   0.06     0.00   0.12   0.12     0.13   0.06   0.11
    28   1     0.15  -0.12   0.08    -0.04  -0.01   0.16     0.05  -0.05   0.14
    29   1     0.20  -0.09  -0.02    -0.11  -0.01  -0.21    -0.07  -0.09   0.02
    30   1     0.20   0.14   0.01    -0.12  -0.03  -0.01    -0.03   0.03  -0.00
    31   1     0.02   0.25   0.04    -0.09   0.03   0.27    -0.17   0.08  -0.03
    32   1    -0.15   0.12  -0.03     0.01  -0.01   0.02    -0.22   0.02  -0.03
    33   1    -0.12  -0.10  -0.05     0.00  -0.00  -0.19    -0.23  -0.09   0.01
    34   1    -0.04  -0.17   0.02     0.13  -0.18   0.12    -0.03   0.26  -0.08
    35   1    -0.16  -0.14   0.05    -0.00  -0.02   0.27     0.13   0.06  -0.27
                      7                      8                      9
                      A                      A                      A
 Frequencies --    282.5015               291.5072               347.7279
 Red. masses --      2.6450                 3.0798                 3.6641
 Frc consts  --      0.1244                 0.1542                 0.2610
 IR Inten    --      0.8301                 0.0117                 0.7513
  Atom  AN      X      Y      Z        X      Y      Z        X      Y      Z
     1   8    -0.02   0.11  -0.07    -0.02   0.07   0.04     0.04   0.02  -0.13
     2   6    -0.05   0.03  -0.03    -0.10   0.01  -0.00     0.08  -0.02  -0.03
     3   6    -0.04   0.02   0.02    -0.11  -0.02  -0.04    -0.08  -0.12  -0.03
     4   6    -0.01  -0.14  -0.00    -0.11   0.15   0.07    -0.07  -0.07   0.04
     5   6    -0.01  -0.01   0.05     0.09  -0.08  -0.05    -0.04  -0.15  -0.02
     6   6     0.01  -0.05   0.04     0.03   0.02  -0.04    -0.02  -0.00   0.03
     7   6    -0.02  -0.09   0.01    -0.04   0.02   0.03    -0.05   0.04   0.16
     8   6    -0.05  -0.05  -0.02    -0.03   0.02   0.03     0.16   0.05   0.05
     9   6    -0.06   0.04   0.17    -0.01  -0.00   0.02     0.12  -0.01  -0.03
    10   6    -0.00   0.01   0.02    -0.01  -0.00   0.06     0.00   0.02   0.06
    11   6     0.03   0.02  -0.04     0.03  -0.10  -0.01    -0.01   0.12  -0.02
    12   6     0.03   0.01  -0.07     0.10  -0.10  -0.09    -0.07   0.08  -0.08
    13   6     0.03   0.00  -0.00     0.11  -0.00  -0.03    -0.08   0.00  -0.04
    14   6     0.05   0.00   0.06     0.05   0.06   0.09    -0.03  -0.01   0.05
    15   6     0.07  -0.01  -0.01     0.00  -0.01  -0.02     0.05   0.02  -0.02
    16   6     0.06  -0.00  -0.06     0.01  -0.11  -0.09     0.04   0.09  -0.08
    17   6    -0.00   0.09  -0.07     0.01   0.03   0.02    -0.01  -0.01   0.10
    18   1    -0.04   0.05   0.03    -0.14  -0.07  -0.06    -0.13  -0.08  -0.04
    19   1    -0.13  -0.28  -0.19    -0.03   0.28   0.29    -0.05  -0.08  -0.01
    20   1     0.12  -0.31   0.13    -0.27   0.32  -0.05    -0.15  -0.12   0.12
    21   1    -0.01  -0.05   0.01     0.11  -0.30  -0.04    -0.03  -0.22  -0.03
    22   1    -0.00   0.01   0.11     0.28   0.00  -0.06     0.04  -0.12  -0.04
    23   1     0.04  -0.08   0.07     0.06   0.05  -0.08     0.01   0.08  -0.07
    24   1    -0.04  -0.12  -0.01    -0.12   0.05   0.01    -0.29  -0.01   0.06
    25   1    -0.03  -0.09   0.02    -0.04  -0.02   0.10    -0.07   0.08   0.42
    26   1    -0.05  -0.07  -0.08    -0.00   0.03   0.01     0.15   0.06   0.08
    27   1     0.04   0.25   0.27    -0.04  -0.03  -0.00     0.13  -0.16  -0.07
    28   1    -0.20  -0.05   0.35     0.00   0.02  -0.02     0.20   0.05  -0.13
    29   1     0.03   0.00  -0.09     0.16  -0.14  -0.13    -0.13   0.10  -0.13
    30   1     0.01  -0.01   0.01     0.15   0.02  -0.04    -0.14  -0.04  -0.05
    31   1     0.05   0.01   0.13     0.04   0.15   0.21    -0.03  -0.05   0.14
    32   1     0.08  -0.02  -0.01    -0.06   0.02  -0.02     0.11  -0.02  -0.01
    33   1     0.08   0.01  -0.07    -0.02  -0.15  -0.13     0.11   0.11  -0.12
    34   1    -0.14   0.26  -0.09     0.07   0.07   0.06     0.03  -0.09   0.10
    35   1     0.15   0.11  -0.23    -0.01   0.02   0.01    -0.07  -0.02   0.16
                     10                     11                     12
                      A                      A                      A
 Frequencies --    376.0917               391.0435               415.2531
 Red. masses --      4.7991                 2.5813                 3.0366
 Frc consts  --      0.3999                 0.2326                 0.3085
 IR Inten    --      0.9947                 0.0364                 0.2121
  Atom  AN      X      Y      Z        X      Y      Z        X      Y      Z
     1   8     0.16  -0.14  -0.10    -0.01  -0.03   0.00    -0.01   0.06  -0.03
     2   6     0.12  -0.14  -0.13     0.04   0.02   0.01    -0.03   0.01  -0.00
     3   6     0.10  -0.07   0.01     0.05   0.04   0.03     0.06   0.03   0.03
     4   6     0.06   0.09   0.12     0.05  -0.08   0.10     0.06  -0.03   0.09
     5   6    -0.06  -0.02   0.04    -0.01   0.13  -0.07     0.14   0.02  -0.03
     6   6    -0.18   0.04   0.01     0.09   0.06  -0.04    -0.05   0.07  -0.09
     7   6    -0.10   0.02  -0.13    -0.11  -0.04  -0.02    -0.08   0.07  -0.08
     8   6     0.02  -0.04  -0.13    -0.05  -0.03  -0.04    -0.07  -0.02  -0.01
     9   6    -0.00   0.09   0.08    -0.04  -0.06  -0.08    -0.07  -0.13   0.07
    10   6    -0.02   0.08   0.10     0.02   0.02   0.11    -0.01  -0.10   0.04
    11   6     0.00  -0.03   0.02    -0.00   0.00   0.06     0.00   0.05  -0.04
    12   6     0.03  -0.03  -0.00    -0.00  -0.04  -0.03    -0.01   0.04  -0.09
    13   6     0.04   0.01   0.01    -0.00  -0.03  -0.04    -0.03   0.03   0.09
    14   6     0.02   0.02   0.01    -0.03   0.02   0.06     0.02  -0.03  -0.01
    15   6    -0.00  -0.01  -0.02    -0.03  -0.01  -0.03     0.05  -0.02  -0.07
    16   6    -0.00  -0.04   0.01    -0.02  -0.03  -0.05     0.03   0.09   0.07
    17   6    -0.18   0.13   0.07     0.08   0.09   0.06    -0.03  -0.12   0.03
    18   1     0.02   0.05   0.00    -0.02  -0.00  -0.01     0.01  -0.03  -0.01
    19   1     0.21   0.20   0.21    -0.02  -0.17  -0.05     0.01  -0.04   0.12
    20   1    -0.11   0.21   0.06     0.11  -0.20   0.21     0.11  -0.01   0.04
    21   1    -0.08   0.07   0.20    -0.03   0.31  -0.16     0.16  -0.20   0.12
    22   1    -0.08  -0.08  -0.11    -0.20   0.05  -0.05     0.38   0.10  -0.13
    23   1    -0.08  -0.01   0.03     0.17   0.01  -0.01    -0.09   0.06  -0.07
    24   1    -0.04  -0.11  -0.14    -0.32   0.03  -0.08    -0.08   0.13  -0.07
    25   1    -0.11   0.17  -0.13    -0.11  -0.19   0.18    -0.08   0.04  -0.08
    26   1    -0.03  -0.02   0.01    -0.04  -0.03  -0.03     0.02   0.04   0.05
    27   1     0.16   0.19   0.17    -0.05  -0.30  -0.15    -0.01  -0.07   0.11
    28   1    -0.20   0.07   0.19    -0.03   0.10  -0.29    -0.08  -0.17   0.13
    29   1     0.06  -0.05  -0.01     0.00  -0.05  -0.08    -0.04   0.03  -0.17
    30   1     0.05   0.02   0.02     0.01  -0.03  -0.08    -0.08   0.04   0.20
    31   1     0.02   0.04   0.02    -0.04   0.06   0.14     0.02  -0.07  -0.02
    32   1    -0.03  -0.00  -0.04    -0.03  -0.02  -0.05     0.09  -0.06  -0.13
    33   1    -0.02  -0.04   0.04    -0.04  -0.06  -0.10     0.05   0.14   0.18
    34   1    -0.20   0.19   0.08     0.16   0.16   0.11     0.17  -0.25   0.08
    35   1    -0.16   0.12  -0.01     0.05   0.06   0.02    -0.26  -0.18   0.17
                     13                     14                     15
                      A                      A                      A
 Frequencies --    417.8642               445.0187               445.8207
 Red. masses --      3.0145                 2.1244                 1.8981
 Frc consts  --      0.3101                 0.2479                 0.2223
 IR Inten    --      0.0408                 3.2300                 1.0775
  Atom  AN      X      Y      Z        X      Y      Z        X      Y      Z
     1   8    -0.00  -0.02   0.02    -0.01   0.05  -0.05    -0.00   0.02  -0.01
     2   6     0.01   0.00   0.01     0.01  -0.03   0.06    -0.01  -0.04   0.04
     3   6    -0.03  -0.01  -0.01     0.02  -0.03   0.04    -0.04  -0.03   0.09
     4   6    -0.03   0.02  -0.03     0.02   0.11   0.04    -0.04  -0.03   0.07
     5   6    -0.06  -0.00   0.00    -0.07   0.06  -0.06     0.01  -0.01   0.06
     6   6     0.03  -0.03   0.04     0.02  -0.03  -0.05    -0.04   0.02   0.03
     7   6     0.03  -0.03   0.04    -0.02  -0.04   0.03     0.08   0.04  -0.07
     8   6     0.03   0.01   0.01     0.04  -0.10   0.07     0.01  -0.03   0.03
     9   6     0.03   0.05  -0.04     0.02  -0.09   0.08     0.01  -0.08  -0.10
    10   6     0.01   0.04  -0.01     0.03  -0.07  -0.01    -0.02  -0.02   0.04
    11   6     0.00  -0.02   0.01     0.01   0.02  -0.03    -0.01   0.03   0.02
    12   6     0.02  -0.09  -0.19    -0.02   0.03  -0.00    -0.00   0.03  -0.02
    13   6    -0.01   0.06   0.18    -0.03  -0.00   0.01    -0.00   0.01  -0.01
    14   6    -0.01   0.01   0.00    -0.02  -0.01  -0.01     0.02   0.00   0.02
    15   6    -0.01  -0.06  -0.19     0.01   0.01   0.01     0.03  -0.00  -0.01
    16   6    -0.03   0.04   0.19     0.01   0.04  -0.01     0.02   0.02  -0.01
    17   6     0.03   0.04  -0.01     0.03  -0.00  -0.10    -0.04   0.07  -0.07
    18   1    -0.01   0.01  -0.00     0.03  -0.12   0.03    -0.05  -0.03   0.09
    19   1     0.00   0.02  -0.05     0.13   0.28   0.33    -0.03  -0.03   0.06
    20   1    -0.05   0.01  -0.02    -0.12   0.35  -0.16    -0.02  -0.03   0.06
    21   1    -0.07   0.10  -0.08    -0.10   0.32  -0.15     0.02  -0.11   0.09
    22   1    -0.18  -0.04   0.05    -0.34  -0.05  -0.05     0.10   0.01   0.01
    23   1     0.06  -0.02   0.02    -0.00  -0.04  -0.03    -0.06   0.01   0.05
    24   1     0.01  -0.05   0.03    -0.13   0.04   0.01     0.38   0.04   0.03
    25   1     0.03  -0.04   0.07    -0.02  -0.05   0.14     0.09   0.13  -0.36
    26   1    -0.01  -0.02  -0.02     0.07  -0.08   0.09     0.01  -0.01   0.08
    27   1     0.01   0.01  -0.06     0.02   0.01   0.10    -0.07  -0.34  -0.20
    28   1     0.03   0.07  -0.07     0.01  -0.14   0.15     0.12   0.06  -0.32
    29   1     0.05  -0.17  -0.40    -0.06   0.05   0.01    -0.01   0.02  -0.06
    30   1    -0.00   0.13   0.38    -0.04  -0.00   0.02    -0.02  -0.01  -0.03
    31   1    -0.01   0.02  -0.00    -0.02  -0.04  -0.02     0.02  -0.01   0.04
    32   1    -0.01  -0.12  -0.40     0.04   0.00   0.03     0.04  -0.02  -0.04
    33   1    -0.06   0.09   0.40     0.01   0.05   0.00     0.04   0.02  -0.03
    34   1    -0.04   0.09  -0.02    -0.05   0.18  -0.09    -0.18   0.32  -0.08
    35   1     0.10   0.06  -0.06     0.10  -0.03  -0.28     0.08   0.04  -0.33
                     16                     17                     18
                      A                      A                      A
 Frequencies --    479.4987               544.7410               614.5490
 Red. masses --      3.6344                 3.1414                 5.2096
 Frc consts  --      0.4923                 0.5492                 1.1592
 IR Inten    --      7.2435                 5.9710                 1.4749
  Atom  AN      X      Y      Z        X      Y      Z        X      Y      Z
     1   8     0.00  -0.16   0.19     0.01   0.01  -0.02     0.15  -0.11  -0.11
     2   6    -0.00   0.10  -0.10     0.01  -0.02   0.01     0.07  -0.13  -0.13
     3   6    -0.05   0.13  -0.10     0.04   0.00   0.01    -0.09   0.00   0.08
     4   6    -0.07   0.01   0.06     0.01   0.02  -0.09    -0.14  -0.02   0.00
     5   6     0.01   0.04   0.04     0.00   0.01   0.02     0.02   0.10   0.11
     6   6    -0.02  -0.05   0.02    -0.03  -0.01  -0.01     0.15   0.14   0.13
     7   6    -0.01  -0.05  -0.02    -0.01   0.02   0.00     0.02   0.12   0.09
     8   6     0.07   0.07  -0.13    -0.01  -0.01   0.02    -0.10   0.09  -0.00
     9   6     0.09  -0.10   0.06    -0.01   0.01   0.01    -0.15  -0.02  -0.01
    10   6     0.01  -0.10   0.06    -0.00  -0.01  -0.05    -0.09  -0.09  -0.07
    11   6    -0.00   0.05   0.02    -0.02   0.09   0.27    -0.09   0.01  -0.03
    12   6    -0.02   0.05  -0.03    -0.00   0.01   0.04     0.03   0.08  -0.04
    13   6    -0.03   0.00  -0.02     0.01  -0.04  -0.13     0.05   0.03   0.01
    14   6    -0.01  -0.00   0.03    -0.01   0.06   0.19     0.10  -0.03  -0.01
    15   6     0.03   0.01  -0.02     0.01  -0.05  -0.14    -0.02  -0.08   0.05
    16   6     0.02   0.05  -0.02    -0.00   0.01   0.05    -0.04  -0.04  -0.01
    17   6    -0.00  -0.02  -0.07     0.01  -0.08  -0.06     0.14  -0.08  -0.08
    18   1    -0.17   0.28  -0.13     0.10  -0.01   0.03    -0.19   0.23   0.08
    19   1    -0.18   0.02   0.21     0.06   0.06  -0.06    -0.11   0.05   0.13
    20   1    -0.09   0.07  -0.01     0.02   0.07  -0.15    -0.13   0.10  -0.14
    21   1     0.01  -0.02   0.04    -0.00   0.02   0.06     0.02   0.18  -0.11
    22   1     0.06   0.10   0.15     0.01   0.01   0.01    -0.11   0.04   0.11
    23   1    -0.05  -0.07   0.05    -0.10  -0.00   0.01    -0.05   0.18   0.16
    24   1    -0.10  -0.15  -0.08     0.00   0.03   0.01    -0.10   0.11   0.04
    25   1    -0.02  -0.02   0.08    -0.01   0.04  -0.01     0.03  -0.09   0.18
    26   1     0.22   0.10  -0.30    -0.02  -0.01   0.05    -0.19   0.11   0.21
    27   1     0.25  -0.08   0.13    -0.02   0.14   0.05    -0.13   0.11   0.03
    28   1     0.08  -0.16   0.13    -0.03  -0.07   0.11    -0.10  -0.14   0.11
    29   1    -0.07   0.06  -0.06     0.02  -0.08  -0.24     0.07   0.06  -0.00
    30   1    -0.06  -0.02  -0.04     0.03  -0.15  -0.46    -0.05  -0.01   0.07
    31   1    -0.01  -0.02   0.06    -0.01   0.08   0.23     0.10   0.03  -0.02
    32   1     0.06  -0.02  -0.04     0.03  -0.15  -0.47    -0.08  -0.04   0.08
    33   1     0.06   0.07  -0.04     0.01  -0.07  -0.21     0.04   0.02   0.00
    34   1    -0.11   0.20  -0.06     0.01  -0.16  -0.08     0.11  -0.07  -0.09
    35   1     0.08  -0.06  -0.30    -0.05  -0.08   0.01     0.12  -0.09  -0.09
                     19                     20                     21
                      A                      A                      A
 Frequencies --    626.3713               631.5238               642.7779
 Red. masses --      6.8661                 4.6651                 4.4877
 Frc consts  --      1.5872                 1.0962                 1.0924
 IR Inten    --      1.7393                 0.7481                 1.0850
  Atom  AN      X      Y      Z        X      Y      Z        X      Y      Z
     1   8    -0.04  -0.02  -0.01     0.03  -0.04   0.02     0.01   0.02  -0.04
     2   6     0.18   0.11   0.11    -0.01  -0.11   0.05    -0.01   0.06  -0.10
     3   6     0.05   0.04   0.05    -0.13   0.02   0.14     0.11  -0.03  -0.13
     4   6    -0.03  -0.01   0.16    -0.13   0.01  -0.05     0.11  -0.02   0.04
     5   6     0.08   0.06  -0.11     0.03   0.13   0.05    -0.03  -0.11  -0.01
     6   6    -0.02  -0.19  -0.18     0.02   0.08  -0.01     0.02  -0.02   0.07
     7   6     0.08  -0.11   0.04    -0.05  -0.01  -0.10     0.04   0.05   0.12
     8   6     0.07   0.02   0.03     0.09  -0.13  -0.01    -0.14   0.14   0.01
     9   6    -0.02   0.16  -0.03     0.10   0.01  -0.01    -0.13  -0.06   0.02
    10   6    -0.23   0.03   0.03     0.02   0.03  -0.06     0.00  -0.05   0.04
    11   6    -0.23  -0.03  -0.01     0.02  -0.08   0.02     0.01  -0.07   0.03
    12   6    -0.06   0.11  -0.04    -0.14  -0.14   0.02    -0.13  -0.12   0.04
    13   6    -0.03   0.17  -0.06    -0.16   0.13  -0.04    -0.15   0.12  -0.05
    14   6     0.23   0.03   0.01    -0.02   0.08  -0.04    -0.00   0.07  -0.02
    15   6     0.06  -0.10   0.03     0.15   0.16  -0.03     0.15   0.13  -0.04
    16   6     0.02  -0.17   0.06     0.15  -0.10   0.03     0.13  -0.11   0.05
    17   6    -0.11  -0.09  -0.08     0.03   0.01  -0.02     0.02  -0.02   0.01
    18   1    -0.15  -0.11  -0.07    -0.08  -0.02   0.15     0.07   0.08  -0.13
    19   1     0.02  -0.04   0.03    -0.19  -0.05  -0.15     0.15   0.06   0.19
    20   1     0.06  -0.05   0.18    -0.01  -0.07  -0.00    -0.01   0.09  -0.04
    21   1     0.08   0.11  -0.05     0.06  -0.07   0.01    -0.06   0.11  -0.02
    22   1     0.02   0.07  -0.01     0.18   0.18   0.01    -0.22  -0.18   0.01
    23   1    -0.15  -0.19  -0.14     0.02  -0.05   0.14    -0.01   0.12  -0.09
    24   1    -0.01   0.00   0.03    -0.22  -0.01  -0.16     0.21   0.04   0.17
    25   1     0.07  -0.04   0.13    -0.06  -0.02   0.10     0.05  -0.01  -0.09
    26   1    -0.13  -0.11  -0.08     0.08  -0.10   0.11    -0.10   0.14  -0.05
    27   1     0.05   0.05  -0.03     0.13   0.18   0.05    -0.16  -0.19  -0.03
    28   1     0.05   0.16  -0.06    -0.01  -0.06   0.12    -0.01  -0.01  -0.09
    29   1     0.14   0.02   0.01    -0.07  -0.17   0.06    -0.05  -0.17   0.04
    30   1    -0.19   0.08  -0.04    -0.06   0.19  -0.03    -0.06   0.16  -0.08
    31   1     0.23  -0.03   0.03    -0.02  -0.17   0.05    -0.00  -0.17   0.05
    32   1    -0.15   0.00  -0.02     0.08   0.20  -0.02     0.07   0.17  -0.08
    33   1     0.17  -0.09   0.05     0.05  -0.15   0.06     0.03  -0.17   0.05
    34   1     0.02  -0.03  -0.02     0.14  -0.20  -0.02    -0.12   0.18   0.00
    35   1     0.00  -0.01   0.00    -0.12   0.00   0.18     0.12  -0.04  -0.21
                     22                     23                     24
                      A                      A                      A
 Frequencies --    705.0475               715.9359               719.3270
 Red. masses --      4.4880                 1.8111                 3.7859
 Frc consts  --      1.3144                 0.5469                 1.1542
 IR Inten    --      0.2185                25.2406                 2.2457
  Atom  AN      X      Y      Z        X      Y      Z        X      Y      Z
     1   8     0.03  -0.05  -0.04    -0.01   0.00   0.01     0.07  -0.06  -0.06
     2   6     0.11   0.02   0.01    -0.01   0.00   0.00     0.08  -0.04  -0.04
     3   6    -0.06   0.04   0.04    -0.01  -0.02   0.02    -0.00   0.16  -0.18
     4   6    -0.07  -0.03   0.18     0.01  -0.01   0.02    -0.07   0.06  -0.11
     5   6     0.02   0.04  -0.02    -0.00  -0.01   0.00     0.04   0.12  -0.06
     6   6    -0.04  -0.09  -0.08     0.01   0.01   0.00    -0.05  -0.03  -0.02
     7   6     0.03  -0.01   0.04    -0.00   0.01  -0.01     0.05  -0.04   0.13
     8   6    -0.06   0.04   0.03    -0.00   0.02  -0.02     0.00  -0.16   0.18
     9   6    -0.08   0.18  -0.05     0.00   0.01  -0.01    -0.07  -0.11   0.07
    10   6     0.02   0.01   0.01     0.00  -0.00  -0.01    -0.01   0.03   0.04
    11   6     0.15   0.01   0.02     0.01  -0.04  -0.11     0.02  -0.00  -0.02
    12   6     0.05  -0.13   0.03    -0.00   0.02   0.07     0.01  -0.01   0.01
    13   6     0.05  -0.14   0.06     0.01  -0.05  -0.13     0.01  -0.02  -0.02
    14   6    -0.17  -0.01  -0.02    -0.01   0.02   0.07    -0.01   0.00   0.01
    15   6     0.04   0.14  -0.03     0.01  -0.04  -0.14     0.01   0.00  -0.03
    16   6     0.05   0.13  -0.05    -0.00   0.02   0.07     0.00   0.02   0.01
    17   6    -0.01  -0.15  -0.13     0.01  -0.01  -0.01    -0.09   0.07   0.07
    18   1    -0.28   0.05  -0.04    -0.02  -0.01   0.02     0.01   0.13  -0.19
    19   1    -0.12  -0.06   0.17     0.00  -0.00   0.04    -0.28  -0.07  -0.20
    20   1    -0.06  -0.05   0.21     0.00   0.00   0.01    -0.01  -0.08   0.02
    21   1     0.03   0.00  -0.00    -0.00   0.00  -0.02     0.06  -0.05   0.05
    22   1     0.04   0.07   0.06    -0.02  -0.02  -0.01     0.22   0.26   0.09
    23   1    -0.24  -0.06  -0.05     0.00   0.01   0.00    -0.00  -0.03  -0.03
    24   1     0.04   0.07   0.07    -0.02  -0.01  -0.02     0.24   0.14   0.25
    25   1     0.03  -0.00   0.01    -0.00  -0.01   0.01     0.06   0.05  -0.07
    26   1    -0.27  -0.05   0.06    -0.01   0.02  -0.01     0.00  -0.17   0.16
    27   1    -0.14   0.17  -0.07     0.04   0.02   0.00    -0.26  -0.23  -0.04
    28   1    -0.08   0.20  -0.08    -0.02   0.00   0.00    -0.02   0.01  -0.10
    29   1    -0.08  -0.07   0.00    -0.03   0.16   0.48    -0.01   0.03   0.12
    30   1     0.23  -0.03   0.05    -0.01   0.06   0.19     0.02   0.02   0.08
    31   1    -0.17  -0.00  -0.03    -0.04   0.17   0.53    -0.02   0.04   0.13
    32   1     0.22   0.05   0.02    -0.01   0.06   0.19     0.02   0.03   0.07
    33   1    -0.08   0.06  -0.04    -0.03   0.16   0.49    -0.02   0.04   0.10
    34   1     0.00  -0.14  -0.13     0.00  -0.01  -0.01    -0.09   0.09   0.08
    35   1     0.00  -0.14  -0.12     0.02   0.00  -0.00    -0.07   0.08   0.06
                     25                     26                     27
[...]
 13423,-0.00041108,0.00063222,0.00105556,0.00052748,0.00499647,-0.00255
 055,-0.00193754,0.01589632,0.02126764,0.00131049,0.02469999,0.01340226
 ,-0.05652407,-0.01540698,-0.01746292,0.00645145,0.00264189,-0.00456526
 ,-0.00142893,0.00029151,-0.00041625,-0.00102753,0.00005311,-0.00001250
 ,0.00003029,0.00001282,-0.00000565,-0.00001439,-0.00001288,-0.00005625
 ,0.00000677,-0.00000368,-0.00001583,-0.00000289,0.00000037,-0.00000300
 ,-0.00000662,-0.00000692,-0.00001121,-0.00000047,0.00000467,-0.0000006
 6,-0.00002795,-0.00000495,0.00000073,0.00000047,-0.00000144,-0.0000005
 1,-0.00001149,0.00003684,-0.00000158,-0.00005541,-0.00000365,0.0000299
 7,-0.00000218,-0.00000003,-0.00002061,0.00001588,-0.00198093,0.0011180
 3,-0.00020799,-0.02927995,-0.01285003,0.05333373,-0.00006516,0.0000171
 9,-0.00000841,0.00007450,-0.00004017,0.00001797,-0.00000194,0.00005855
 ,-0.00001401,-0.00000088,-0.00001991,0.00008790,-0.00000435,-0.0000088
 2,-0.00000354,-0.00001261,-0.00002877,-0.00003126,-0.00001860,0.000002
 31,0.00000870,0.00000127,0.00005084,-0.00001186,-0.00002709,0.00001009
 ,0.00002731,-0.00047199,0.00037218,-0.00036693,-0.00026160,-0.00020214
 ,-0.00072005,0.00422556,-0.00229523,0.00169673,0.00328804,-0.00031831,
 -0.00214423,-0.15055511,-0.01753569,0.14301099,-0.00856026,0.00147381,
 0.01628660,0.00212261,-0.00578821,0.00154826,0.00002194,0.00001076,-0.
 00002962,-0.00001731,0.00000597,0.00002166,0.00000314,0.00003585,0.000
 00694,0.00000321,-0.00002092,0.00001436,-0.00000503,0.00000058,0.00000
 768,0.00000390,0.00000179,-0.00000254,0.00000515,0.00000146,0.00000422
 ,0.00000299,0.00000193,-0.00000492,-0.00000334,-0.00000268,0.00001259,
 -0.00000829,-0.00000445,0.00000834,-0.00001936,0.00004426,-0.00003224,
 0.00003682,-0.00001369,0.00001466,0.00017926,-0.00015660,-0.00004885,-
 0.00142596,0.00180801,-0.00139026,0.15327310,-0.00000102,0.00001941,-0
 .00000057,-0.00000301,-0.00005311,0.00000772,0.00000536,-0.00000150,-0
 .00000003,0.00000888,-0.00002838,-0.00003958,-0.00000397,-0.00000659,-
 0.00000511,0.00002963,0.00003081,0.00003788,-0.00000766,0.00000068,-0.
 00000694,0.00003206,0.00004692,0.00001158,-0.00001590,-0.00002440,-0.0
 0000712,0.00037745,-0.00017377,0.00030128,-0.00022886,-0.00118450,-0.0
 0022969,-0.00296006,-0.00147214,-0.00440997,0.01574469,0.00544397,-0.0
 1841190,-0.01753836,-0.05495607,0.00452173,-0.01459860,0.00322052,0.02
 137824,-0.00508387,-0.00182336,-0.00211092,-0.00006405,-0.00001528,0.0
 0000057,0.00000408,0.00000076,-0.00000557,-0.00001370,0.00003589,0.000
 00558,0.00001209,0.00001301,-0.00000863,0.00000227,0.00000078,-0.00000
 156,0.00000131,0.00000642,0.00000398,-0.00000537,0.00000214,0.00001164
 ,0.00000094,0.00000017,-0.00000155,0.00000914,0.00000550,0.00000911,0.
 00000224,0.00000061,-0.00000224,-0.00002357,0.00003552,-0.00002700,0.0
 0006045,-0.00000720,0.00002558,0.00069294,0.00012740,-0.00108662,0.001
 39487,-0.00017640,0.00159128,0.02101333,0.05102678,0.00007261,0.000007
 17,0.00000715,-0.00007592,-0.00001757,-0.00002433,0.00001858,0.0000656
 3,0.00000749,-0.00004684,-0.00003002,0.00002095,-0.00000059,0.00000497
 ,0.00000408,-0.00003152,0.00000489,0.00000259,0.00001160,-0.00002269,-
 0.00000556,-0.00000586,0.00000981,0.00000750,0.00001237,-0.00002833,-0
 .00004523,-0.00036031,0.00030559,-0.00020023,-0.00074442,-0.00027286,0
 .00012667,0.00102671,-0.00533711,0.00035705,0.01383830,0.00389742,-0.0
 1337338,0.14303529,0.00451554,-0.22918516,0.00028188,-0.00093780,0.000
 77936,0.00223956,-0.00113585,0.00314085,0.00004044,-0.00006167,-0.0000
 3362,0.00000704,-0.00000590,-0.00000380,-0.00000533,0.00007416,0.00001
 656,0.00001222,0.00000291,0.00001322,0.00000918,0.00000017,-0.00001219
 ,-0.00000369,0.00000394,0.00000734,0.00000615,-0.00000133,-0.00002921,
 -0.00000545,0.00000352,0.00000416,0.00000810,0.00000400,-0.00001317,0.
 00001449,0.00000491,-0.00001282,0.00000458,0.00000356,0.00000606,-0.00
 001824,0.00000278,-0.00000371,0.00079611,0.00009115,-0.00075605,-0.001
 80227,0.00101450,-0.00020804,-0.15697253,-0.00347586,0.23975999,-0.000
 03888,-0.00000815,-0.00000687,0.00006088,0.00001771,-0.00000817,-0.000
 01669,0.00005295,-0.00002051,0.00003966,-0.00009386,0.00013429,0.00000
 538,-0.00001684,-0.00000626,0.00007224,-0.00001768,0.00003942,0.000001
 27,0.00001054,0.00000417,-0.00000156,-0.00003285,-0.00000418,0.0000207
 0,0.00011266,-0.00004112,0.00036504,0.00069407,0.00031466,0.00118245,-
 0.00307132,0.00518509,-0.00084493,-0.00029623,0.00036757,0.00090715,-0
 .00515773,0.00338767,0.00334203,-0.01446208,-0.01546729,-0.04843940,-0
 .01460080,0.00343408,0.00366634,0.01548888,0.01340471,-0.00019828,-0.0
 0003018,0.00015946,-0.00001566,0.00000031,0.00002041,-0.00001124,0.000
 01888,-0.00000276,-0.00001496,0.00001207,-0.00001267,-0.00000332,0.000
 00264,0.00000368,0.00000142,0.00000208,-0.00000150,-0.00001628,-0.0000
 0186,0.00003250,0.00000104,-0.00000053,-0.00000076,-0.00000554,-0.0000
 0512,0.00000289,-0.00001359,-0.00000455,0.00001308,0.00003939,-0.00003
 113,-0.00000465,-0.00002870,-0.00001497,0.00001807,-0.00051090,0.00050
 863,-0.00051086,0.00020803,-0.00092100,-0.00071314,-0.00139755,0.00201
 343,-0.00149287,0.04300666,0.00006582,-0.00000019,0.00000801,-0.000081
 45,0.00000275,-0.00001043,-0.00000603,-0.00001049,0.00001416,-0.000068
 61,0.00003115,-0.00003027,-0.00000053,0.00000889,-0.00000247,-0.000032
 91,0.00001397,-0.00000130,0.00001138,-0.00001314,-0.00000897,-0.000011
 44,0.00000068,0.00000836,0.00004694,-0.00005067,-0.00002217,-0.0001457
 5,0.00009720,0.00019948,-0.00246317,0.00290743,-0.00078565,-0.00027922
 ,0.00005436,0.00080900,-0.00586769,-0.00081350,0.00032032,0.00159427,-
 0.01353282,-0.01824747,-0.01456389,-0.20098178,-0.14456860,-0.00049546
 ,0.00435927,0.00281895,0.00007012,0.00000646,-0.00006762,0.00000788,-0
 .00000215,-0.00001104,0.00001132,0.00000334,0.00001324,0.00000379,0.00
 000197,0.00000536,0.00000681,-0.00000127,-0.00000869,-0.00000108,0.000
 00209,0.00000460,0.00000744,-0.00000038,-0.00002065,-0.00000261,0.0000
 0038,0.00000397,0.00000623,0.00000416,-0.00001060,0.00001247,0.0000051
 9,-0.00001094,-0.00001947,-0.00000552,0.00002109,-0.00001358,0.0000109
 6,-0.00002498,0.00051302,-0.00031306,0.00021522,-0.00001903,-0.0007430
 0,-0.00106623,0.00161004,-0.00020552,0.00146136,0.01821327,0.20940713,
 0.00009866,0.00002585,0.00001603,-0.00012145,-0.00005774,-0.00001872,0
 .00008296,-0.00006579,0.00003884,0.00009782,0.00014598,-0.00028197,0.0
 0000245,0.00002382,0.00001972,-0.00011669,-0.00000676,-0.00003312,0.00
 000168,-0.00003440,0.00001289,0.00002801,0.00002781,0.00003084,-0.0001
 1064,-0.00012831,-0.00005307,-0.00050129,-0.00095447,-0.00015505,0.005
 78324,0.00006642,-0.00083226,0.00039509,0.00083024,-0.00008845,0.00267
 465,-0.00065299,0.00267696,0.00051266,0.00404083,0.00587714,0.00348665
 ,-0.14454910,-0.18426712,-0.00252448,-0.01937218,-0.01357681,0.0002926
 7,-0.00006389,-0.00004923,0.00003924,-0.00000382,-0.00004762,-0.000019
 15,0.00000143,-0.00000553,0.00000576,0.00000096,0.00001754,0.00000795,
 -0.00000360,-0.00001491,-0.00000617,0.00000073,0.00000469,0.00002454,0
 .00000099,-0.00005284,-0.00001064,0.00000987,0.00000148,0.00001039,0.0
 0000595,-0.00001051,0.00003068,0.00001092,-0.00002843,0.00001149,0.000
 02201,-0.00001009,0.00001170,-0.00000278,0.00004374,-0.00050793,0.0002
 2139,-0.00031828,0.00018431,0.00018649,0.00028310,-0.00189571,0.000898
 89,-0.00038682,-0.00629271,0.15793428,0.19142657,-0.00003119,0.0000260
 2,-0.00003398,-0.00002009,-0.00007987,0.00012972,-0.00002385,0.0001429
 9,-0.00006727,-0.00020404,0.00004506,0.00040553,-0.00001329,0.00000579
 ,-0.00000280,-0.00019431,0.00001776,-0.00011009,0.00006427,-0.00005292
 ,-0.00001447,-0.00018957,0.00057936,0.00009901,-0.00059097,0.00009775,
 0.00253373,-0.00244681,0.00100703,-0.00106348,0.00316261,-0.00031825,-
 0.00056364,0.00373584,-0.00151385,0.00194262,0.00002391,0.00062551,0.0
 0021632,0.00215648,-0.00128757,0.00561877,-0.00908568,-0.01590135,0.00
 021469,-0.15470070,-0.14477365,0.02136211,0.00052902,-0.00028158,-0.00
 040275,-0.00000914,-0.00000769,0.00002501,0.00000023,0.00000253,-0.000
 01380,-0.00001184,0.00001918,0.00000722,0.00000476,-0.00000270,-0.0000
 0709,-0.00000061,0.00000322,0.00000365,0.00004202,-0.00000330,-0.00006
 771,-0.00000756,0.00002107,-0.00001313,-0.00000425,0.00000469,-0.00001
 703,0.00004285,-0.00001275,-0.00004231,-0.00038908,0.00041146,0.000149
 33,-0.00117081,0.00015789,0.00139220,0.00031009,-0.00004631,0.00024609
 ,-0.00063198,0.00037297,-0.00048137,-0.00038694,-0.00088989,0.00009413
 ,-0.00136177,0.00187645,-0.00163914,0.16145306,-0.00007132,0.00016815,
 -0.00001391,0.00003592,-0.00045601,0.00010738,0.00013982,-0.00006787,-
 0.00000038,0.00014308,0.00008277,-0.00054948,-0.00001186,-0.00001345,-
 0.00002639,0.00002375,-0.00003563,0.00006293,-0.00020120,0.00001849,0.
 00007983,0.00040193,0.00059861,0.00035153,-0.00106972,0.00025601,0.000
 47562,0.00019192,-0.00125459,0.00244845,-0.01438135,-0.01409858,0.0028
 8705,-0.00098293,-0.00043748,-0.00528320,0.00061072,0.00015739,-0.0004
 1799,-0.00191785,0.00314809,-0.00133566,0.00022855,0.00184595,-0.00098
 673,-0.14428564,-0.22621027,0.01022136,-0.00011465,0.00009278,0.000122
 93,0.00003627,0.00002246,-0.00005049,-0.00000847,0.00013015,0.00005887
 ,0.00004461,-0.00004838,0.00002452,0.00000294,-0.00000706,-0.00000489,
 0.00001041,0.00002724,0.00001133,0.00001061,0.00002094,0.00001714,0.00
 001350,0.00000186,-0.00001079,0.00006628,0.00001887,0.00009461,0.00001
 459,-0.00000749,-0.00003423,-0.00057522,0.00045892,0.00048919,0.000961
 16,0.00000666,0.00032711,-0.00098426,-0.00072701,0.00013235,0.00037197
 ,-0.00033081,0.00040116,-0.00005759,0.00005344,-0.00017876,0.00160247,
 -0.00024793,0.00141978,0.15970245,0.23674926,-0.00022343,0.00016508,-0
 .00005990,0.00020057,-0.00042639,0.00014868,-0.00004291,0.00014005,-0.
 00007643,0.00002065,0.00002516,0.00045603,-0.00000595,-0.00000788,-0.0
 0003559,-0.00009545,-0.00001947,-0.00008040,-0.00008333,-0.00005326,-0
 .00003361,-0.00004642,0.00034179,-0.00017502,0.00136698,-0.00099731,-0
 .00183949,-0.00194197,0.00127706,-0.00000168,-0.01443835,-0.01659460,0
 .00648194,0.00245886,-0.00454962,-0.00169294,0.00019773,-0.00045187,-0
 .00099998,0.00502916,-0.00217525,-0.00199174,0.01630651,0.02142977,0.0
 0123386,0.02173063,0.01080295,-0.05487045,0.00026695,0.00001024,-0.000
 29996,-0.00002360,0.00002687,0.00003517,-0.00004284,0.00016207,0.00002
 624,-0.00001941,-0.00002534,0.00000995,-0.00000151,-0.00000232,0.00000
 434,0.00001354,0.00002349,0.00000636,0.00003891,0.00001666,-0.00001015
 ,0.00001087,0.00001957,-0.00002490,0.00002562,0.00001617,0.00006262,-0
 .00002978,-0.00001422,0.00004242,0.00063569,0.00052797,-0.00168615,0.0
 0070786,-0.00001764,-0.00045810,-0.00069194,-0.00116709,0.00031127,-0.
 00048691,0.00039558,-0.00018298,0.00092067,0.00097659,0.00000658,-0.00
 192286,0.00103218,-0.00021134,-0.02985279,-0.01096324,0.05582533,-0.00
 001042,-0.00037458,-0.00000241,0.00020838,0.00096549,0.00000269,0.0004
 7693,-0.00044408,-0.00001397,-0.00115019,-0.00133448,-0.00357016,-0.00
 116684,-0.00158653,0.00386479,-0.01192203,0.01554546,0.00000632,0.0003
 2289,0.00144113,-0.00074222,-0.00010938,-0.00049853,-0.00000681,0.0002
 7102,0.00149836,0.00069807,-0.01140202,0.01471596,-0.00128757,0.000067
 70,-0.00048068,0.00099868,0.00030934,-0.00017426,-0.00025089,-0.000165
 46,0.00021205,0.00014102,-0.00004735,-0.00012215,-0.00005895,0.0000208
 3,0.00001408,-0.00013572,0.00023962,-0.00005260,-0.00006079,-0.1353073
 3,0.11857092,-0.00013912,0.00000634,-0.00001610,0.00000046,0.00005979,
 0.00020780,0.00003621,-0.00056364,0.00101984,-0.00000605,-0.00058408,0
 .00109041,-0.00006328,0.00012536,0.00023832,-0.00003096,0.00081715,-0.
 00033803,-0.00000353,-0.00007854,-0.00096205,0.00022284,0.00041508,-0.
 00020504,0.00001205,-0.00005776,-0.00003900,-0.00000241,-0.00010768,-0
 .00093126,-0.00026951,0.00038826,-0.00023122,0.00002517,0.00008455,0.0
 0001539,0.00001170,0.00000555,-0.00000210,-0.00001025,0.00001631,-0.00
 001360,0.00002067,0.00000815,0.00000418,-0.00002158,-0.00001981,-0.000
 03201,-0.00004215,0.14641387,0.00018188,0.00015764,-0.00000210,-0.0002
 7042,-0.00039591,0.00000537,-0.00012284,0.00010472,0.00002271,-0.00024
 619,0.00107160,0.00056481,-0.00042710,0.00103672,-0.00062772,-0.001037
 65,-0.00030908,-0.00028867,-0.00063446,0.00060239,0.00031311,0.0001343
 2,0.00004428,-0.00001241,-0.00072137,0.00055094,-0.00028871,-0.0002528
 3,-0.00105502,0.00034217,0.00021518,0.00053736,-0.00039692,-0.00042249
 ,-0.00049285,-0.00010036,-0.00000204,0.00013777,0.00009543,-0.00006840
 ,-0.00002920,0.00005885,0.00003137,0.00006577,0.00002549,-0.00020405,0
 .00012013,0.00029453,0.11924560,-0.21965449,0.00060803,0.00004246,-0.0
 0003798,-0.00000795,-0.00014001,0.00034531,-0.00013914,0.00032257,0.00
 011048,-0.00003554,0.00033951,0.00012954,0.00010322,-0.00012214,0.0004
 3055,0.00012396,0.00004095,0.00010164,-0.00055410,0.00019355,0.0005507
 0,0.00006936,-0.00003441,0.00020921,-0.00010321,0.00000535,0.00001967,
 0.00000080,0.00012786,0.00052712,-0.00008155,-0.00002837,0.00019022,0.
 00010390,0.00014704,0.00016601,0.00003769,0.00000855,-0.00002255,0.000
 01257,-0.00000419,0.00001325,0.00001604,-0.00000617,0.00000295,0.00002
 110,0.00003295,0.00000568,-0.00000253,-0.13170378,0.23626210,-0.000016
 27,0.00001654,-0.00002443,0.00002013,-0.00004758,-0.00005065,0.0000834
 4,-0.00004946,-0.00043395,-0.00312905,-0.00109054,-0.00537535,0.003251
 89,0.00135074,-0.00498101,0.01657000,-0.02331289,0.00024299,-0.0006576
 7,-0.00103439,0.00103844,-0.00002060,0.00000239,-0.00026607,0.00073606
 ,0.00112571,0.00102038,-0.01636293,0.02320578,-0.00178453,-0.00096439,
 0.00076549,0.00169032,0.00035208,0.00010695,0.00001689,0.00002491,0.00
 005691,0.00005474,-0.00004726,-0.00005113,-0.00001281,0.00004488,-0.00
 003621,-0.00011410,0.00012394,-0.00031704,0.00004405,0.00015037,0.0000
 1545,-0.04778699,0.00001829,0.00000077,0.00029827,0.00022947,-0.000204
 44,0.00001228,-0.00145927,0.00150807,0.00020518,0.00140309,-0.00143872
 ,0.00010655,-0.00024689,0.00030769,-0.00001706,-0.00082531,-0.00018267
 ,0.00090566,-0.00006518,0.00070715,0.00006475,-0.00040682,-0.00001864,
 -0.00007404,-0.00000576,0.00000236,0.00010069,0.00005284,-0.00068710,0
 .00010430,0.00036332,-0.00000591,-0.00003001,-0.00009553,-0.00006605,0
 .00001134,-0.00000197,-0.00000016,-0.00001635,-0.00000292,-0.00000769,
 0.00000009,-0.00000267,0.00001008,-0.00000479,-0.00003205,0.00000023,-
 0.00003360,0.00043665,-0.00020014,0.05526872,-0.00002896,0.00036635,-0
 .00000572,0.00022277,-0.00094186,0.00001759,-0.00009852,0.00046593,-0.
 00000386,0.00044409,-0.00134982,0.00065418,0.00027005,-0.00142561,-0.0
 0076554,-0.01248395,-0.01550053,0.00004421,-0.00115568,0.00164047,0.00
 383640,0.00044380,0.00039307,-0.00004081,-0.00108937,0.00157693,-0.003
 58642,-0.01179642,-0.01479593,-0.00111137,-0.00021587,0.00068378,0.001
 03254,-0.00001704,-0.00083434,0.00059197,0.00029724,0.00021475,-0.0000
 2578,0.00001856,0.00020836,0.00009201,-0.00015474,-0.00005593,0.000202
 76,0.00020739,-0.00026919,-0.00027300,-0.14093560,-0.12140581,-0.00350
 799,-0.00005493,0.00003895,0.00000127,-0.00007955,0.00082169,-0.000185
 48,0.00032893,0.00018587,0.00000475,0.00043033,0.00020528,0.00001924,-
 0.00007197,0.00097233,0.00016472,0.00088692,0.00034353,-0.00001985,0.0
 0012096,-0.00023262,-0.00002743,-0.00059087,-0.00107307,-0.00005677,-0
 .00000385,0.00002150,0.00002001,0.00010640,-0.00027677,0.00003346,-0.0
 0058071,-0.00109173,0.00000223,0.00030143,0.00040032,0.00045979,0.0000
 4131,-0.00002730,-0.00000917,-0.00001447,0.00004632,0.00001582,-0.0000
 0857,0.00001050,-0.00001501,-0.00003082,0.00008111,0.00006037,0.012435
 41,0.01537977,0.00048119,0.15285628,-0.00018695,0.00016060,-0.00000063
 ,0.00025802,-0.00040533,-0.00000414,-0.00007494,0.00000870,0.00001519,
 0.00052635,0.00059135,-0.00001274,0.00065510,0.00060903,-0.00031812,0.
 00092520,-0.00051608,0.00026400,0.00040402,0.00102631,0.00068159,0.000
 11748,0.00008494,-0.00003702,0.00020402,0.00105767,-0.00055268,0.00089
 786,-0.00065288,-0.00041272,-0.00083083,0.00000746,0.00048781,0.000228
 38,-0.00065882,0.00085494,0.00039563,0.00006514,-0.00007903,0.00003768
 ,0.00023021,-0.00000346,-0.00014247,-0.00002848,0.00020879,0.00010167,
 -0.00009272,-0.00036114,-0.12173396,-0.21538265,-0.00424466,0.00000151
 ,0.00001990,-0.00001212,-0.00013402,0.00044086,0.00006114,-0.00004054,
 0.00015241,-0.00007673,0.00002568,0.00021191,0.00010255,-0.00018143,0.
 00055949,-0.00003903,-0.00001264,0.00012155,0.00054304,0.00012698,0.00
 044141,-0.00012754,-0.00036851,0.00011733,-0.00010012,-0.00004583,-0.0
 0003337,0.00001414,0.00014012,0.00041844,0.00014307,-0.00037503,0.0001
 4589,0.00006336,-0.00020098,0.00048284,0.00101785,0.00003566,-0.000012
 31,-0.00000904,-0.00002158,0.00004424,0.00001172,0.00002247,0.00000109
 ,0.00000008,0.00001955,0.00007883,0.00007880,-0.01599732,-0.02149666,-
 0.00043155,0.13522369,0.23220169,-0.00004247,-0.00002412,-0.00002143,0
 .00005455,0.00007786,-0.00005458,-0.00007566,-0.00000392,-0.00027037,0
 .00096271,-0.00088141,0.00123168,-0.00062492,0.00099921,0.00097015,0.0
 1743347,0.02301684,0.00005116,0.00328634,-0.00136382,-0.00489708,0.000
 07918,0.00004594,-0.00046069,-0.00297117,0.00110523,-0.00542679,-0.016
 44204,-0.02281518,-0.00147840,-0.00064980,-0.00050140,0.00163202,-0.00
 006776,-0.00050112,-0.00092673,0.00046593,0.00013786,-0.00022889,0.000
 10836,0.00030374,0.00018422,-0.00029338,-0.00006650,0.00025296,0.00026
 064,-0.00026874,-0.00031577,-0.00261843,-0.00296770,-0.04698696,-0.000
 01669,-0.00000172,0.00009841,-0.00000448,0.00062207,0.00013692,0.00033
 924,0.00001642,-0.00007148,-0.00041299,0.00003276,-0.00006768,-0.00008
 748,-0.00066420,0.00011411,-0.00077775,0.00022199,0.00094022,-0.000244
 26,-0.00030440,-0.00002172,0.00140033,0.00140432,0.00009389,0.00001478
 ,-0.00000491,0.00028619,0.00021813,0.00021749,0.00002231,-0.00149402,-
 0.00148776,0.00008273,0.00011084,0.00116943,-0.00136378,-0.00001101,-0
 .00000866,-0.00003583,-0.00001569,0.00005690,0.00002565,-0.00000993,0.
 00001844,-0.00000258,-0.00001524,0.00012277,0.00011361,0.00024099,0.00
 002192,-0.00017988,0.00189968,0.00227436,0.05657440\\0.00004452,-0.000
 00532,0.00000592,-0.00006114,0.00003790,0.00003431,0.00002613,-0.00003
 905,-0.00001147,0.00002835,0.00000940,0.00004421,0.00001580,0.00000617
 ,-0.00001332,0.00000255,-0.00006700,-0.00003811,0.00000079,0.00002657,
 -0.00000576,-0.00003230,-0.00001985,-0.00003095,0.00000322,0.00005825,
 0.00003866,0.00001988,0.00000353,-0.00004207,-0.00001648,0.00000374,0.
 00000720,0.00001655,0.00001071,-0.00000787,0.00000192,0.00000123,0.000
 01237,-0.00002588,-0.00000038,-0.00001425,0.00000794,-0.00001001,0.000
 00767,0.00001152,-0.00001319,0.00000251,-0.00000501,-0.00000258,0.0000
 2437,-0.00001320,-0.00000250,0.00000037,0.00000170,0.00002620,-0.00000
 669,-0.00000119,0.00000406,-0.00000846,-0.00000927,-0.00000196,0.00000
 478,-0.00001384,0.00000438,0.00000426,-0.00000720,-0.00000195,0.000005
 56,0.00000910,-0.00000253,0.00000438,-0.00000085,-0.00000441,0.0000012
 3,-0.00001260,-0.00000408,0.00000744,0.00000757,-0.00000695,-0.0000116
 3,0.00000303,0.00002066,-0.00000715,-0.00001019,-0.00001636,0.00000587
 ,0.00000664,0.00000122,-0.00000876,0.00000961,-0.00000265,-0.00000324,
 0.00000691,-0.00000378,-0.00000754,-0.00001564,-0.00000876,0.00001510,
 -0.00000404,-0.00000481,-0.00000746,0.00000511,0.00000407,-0.00000148\
 \\@


 ON INDUCTION, OR "WHY DO YOU BELIEVE THE SUN WILL RISE TOMORROW?":

 ... THE FARMER WHO HAS FED THE CHICKEN EVERY DAY THROUGHOUT ITS
 LIFE AT LAST WRINGS ITS NECK INSTEAD, SHOWING THAT MORE REFINED VIEWS
 AS TO THE UNIFORMITY OF NATURE WOULD HAVE BEEN USEFUL TO THE CHICKEN.

                               -- BERTRAND RUSSELL
 Job cpu time:       0 days  0 hours  5 minutes 52.8 seconds.
 Elapsed time:       0 days  0 hours  6 minutes  4.0 seconds.
 File lengths (MBytes):  RWF=    348 Int=      0 D2E=      0 Chk=     16 Scr=      1
 Normal termination of Gaussian 16 at Fri Feb 23 23:37:33 2024.
