 Entering Gaussian System, Link 0=g16
 Input=/Volumes/SSD-PMU3/b3lyp_6-31gd_freq/QAOXJQGZIOPYSG-AGIRLMLNSA-N_calculating/gaussianinput2.gjf
 Output=/Volumes/SSD-PMU3/b3lyp_6-31gd_freq/QAOXJQGZIOPYSG-AGIRLMLNSA-N_calculating/gaussianinput2.log
 Initial command:
 /Applications/g16/l1.exe "/Users/macmini_m1_2022/PycharmProjects/sphere_model/sphere_model_lib/Gau-79785.inp" -scrdir="/Users/macmini_m1_2022/PycharmProjects/sphere_model/sphere_model_lib/"
 Entering Link 1 = /Applications/g16/l1.exe PID=     79786.
  
 Copyright (c) 1988,1990,1992,1993,1995,1998,2003,2009,2016,
            Gaussian, Inc.  All Rights Reserved.
  
 This is part of the Gaussian(R) 16 program.  It is based on
 the Gaussian(R) 09 system (copyright 2009, Gaussian, Inc.),
 the Gaussian(R) 03 system (copyright 2003, Gaussian, Inc.),
 the Gaussian(R) 98 system (copyright 1998, Gaussian, Inc.),
 the Gaussian(R) 94 system (copyright 1995, Gaussian, Inc.),
 the Gaussian 92(TM) system (copyright 1992, Gaussian, Inc.),
 the Gaussian 90(TM) system (copyright 1990, Gaussian, Inc.),
 the Gaussian 88(TM) system (copyright 1988, Gaussian, Inc.),
 the Gaussian 86(TM) system (copyright 1986, Carnegie Mellon
 University), and the Gaussian 82(TM) system (copyright 1983,
 Carnegie Mellon University). Gaussian is a federally registered
 trademark of Gaussian, Inc.
  
 This software contains proprietary and confidential information,
 including trade secrets, belonging to Gaussian, Inc.
  
 This software is provided under written license and may be
 used, copied, transmitted, or stored only in accord with that
 written license.
  
 The following legend is applicable only to US Government
 contracts under FAR:
  
                    RESTRICTED RIGHTS LEGEND
  
 Use, reproduction and disclosure by the US Government is
 subject to restrictions as set forth in subparagraphs (a)
 and (c) of the Commercial Computer Software - Restricted
 Rights clause in FAR 52.227-19.
  
 Gaussian, Inc.
 340 Quinnipiac St., Bldg. 40, Wallingford CT 06492
  
  
 ---------------------------------------------------------------
 Warning -- This program may not be used in any manner that
 competes with the business of Gaussian, Inc. or will provide
 assistance to any competitor of Gaussian, Inc.  The licensee
 of this program is prohibited from giving any competitor of
 Gaussian, Inc. access to this program.  By using this program,
 the user acknowledges that Gaussian, Inc. is engaged in the
 business of creating and licensing software in the field of
 computational chemistry and represents and warrants to the
 licensee that it is not a competitor of Gaussian, Inc. and that
 it will not use this program in any manner prohibited above.
 ---------------------------------------------------------------
  

 Cite this work as:
 Gaussian 16, Revision A.03,
 M. J. Frisch, G. W. Trucks, H. B. Schlegel, G. E. Scuseria, 
 M. A. Robb, J. R. Cheeseman, G. Scalmani, V. Barone, 
 G. A. Petersson, H. Nakatsuji, X. Li, M. Caricato, A. V. Marenich, 
 J. Bloino, B. G. Janesko, R. Gomperts, B. Mennucci, H. P. Hratchian, 
 J. V. Ortiz, A. F. Izmaylov, J. L. Sonnenberg, D. Williams-Young, 
 F. Ding, F. Lipparini, F. Egidi, J. Goings, B. Peng, A. Petrone, 
 T. Henderson, D. Ranasinghe, V. G. Zakrzewski, J. Gao, N. Rega, 
 G. Zheng, W. Liang, M. Hada, M. Ehara, K. Toyota, R. Fukuda, 
 J. Hasegawa, M. Ishida, T. Nakajima, Y. Honda, O. Kitao, H. Nakai, 
 T. Vreven, K. Throssell, J. A. Montgomery, Jr., J. E. Peralta, 
 F. Ogliaro, M. J. Bearpark, J. J. Heyd, E. N. Brothers, K. N. Kudin, 
 V. N. Staroverov, T. A. Keith, R. Kobayashi, J. Normand, 
 K. Raghavachari, A. P. Rendell, J. C. Burant, S. S. Iyengar, 
 J. Tomasi, M. Cossi, J. M. Millam, M. Klene, C. Adamo, R. Cammi, 
 J. W. Ochterski, R. L. Martin, K. Morokuma, O. Farkas, 
 J. B. Foresman, and D. J. Fox, Gaussian, Inc., Wallingford CT, 2016.
 
 ******************************************
 Gaussian 16:  EM64M-G16RevA.03 25-Dec-2016
                23-Feb-2024 
 ******************************************
 %nprocshared=10
 Will use up to   10 processors via shared memory.
 %mem=12GB
 %chk= 2.chk
 ---------------------
 # freq b3lyp/6-31g(d)
 ---------------------
 1/10=4,30=1,38=1/1,3;
 2/12=2,17=6,18=5,40=1/2;
 3/5=1,6=6,7=1,11=2,25=1,30=1,71=2,74=-5,140=1/1,2,3;
 4//1;
 5/5=2,38=5,98=1/2;
 8/6=4,10=90,11=11/1;
 11/6=1,8=1,9=11,15=111,16=1/1,2,10;
 10/6=1/2;
 6/7=2,8=2,9=2,10=2,28=1/1;
 7/8=1,10=1,25=1/1,2,3,16;
 1/10=4,30=1/3;
 99//99;
 ---------
 good luck
 ---------
 Symbolic Z-matrix:
 Charge =  0 Multiplicity = 1
 O                     1.21633   0.        0. 
 C                     0.        0.        0. 
 C                    -0.84873  -1.26797   0.00319 
 C                    -1.73178  -1.26156   1.27552 
 C                    -1.75317  -1.25723  -1.25254 
 C                    -2.64299  -0.00004  -1.23011 
 C                    -1.75319   1.25717  -1.25254 
 C                    -0.84874   1.26796   0.00319 
 C                    -1.73177   1.26154   1.27553 
 C                    -2.64253  -0.00001   1.32191 
 C                    -3.47372   0.00003   2.61263 
 C                    -2.82795   0.00093   3.86183 
 C                    -3.54796   0.00127   5.05476 
 C                    -4.94402   0.00079   5.03325 
 C                    -5.60278   0.00006   3.80588 
 C                    -4.8757   -0.00025   2.61226 
 C                    -3.51539  -0.00002   0.04161 
 H                    -0.17907  -2.13412   0.00241 
 H                    -1.09386  -1.30173   2.16614 
 H                    -2.35481  -2.1657    1.29356 
 H                    -1.1394   -1.27563  -2.16258 
 H                    -2.37094  -2.16543  -1.26319 
 H                    -3.29679  -0.00003  -2.11185 
 H                    -1.13942   1.27558  -2.16257 
 H                    -2.37098   2.16536  -1.2632 
 H                    -0.1791    2.13413   0.00238 
 H                    -1.09386   1.30164   2.16616 
 H                    -2.35478   2.16569   1.29362 
 H                    -1.74231   0.00141   3.90967 
 H                    -3.01627   0.00192   6.00283 
 H                    -5.50856   0.00107   5.96174 
 H                    -6.68922  -0.00023   3.76945 
 H                    -5.42179  -0.00075   1.67548 
 H                    -4.16875  -0.8826    0.0353 
 H                    -4.16872   0.8826    0.03524 
 

 GradGradGradGradGradGradGradGradGradGradGradGradGradGradGradGradGradGrad
 Berny optimization.
 Initialization pass.
 Trust Radius=3.00D-01 FncErr=1.00D-07 GrdErr=1.00D-07 EigMax=2.50D+02 EigMin=1.00D-04
 Number of steps in this run=      2 maximum allowed number of steps=      2.
 GradGradGradGradGradGradGradGradGradGradGradGradGradGradGradGradGradGrad

                          Input orientation:                          
 ---------------------------------------------------------------------
 Center     Atomic      Atomic             Coordinates (Angstroms)
 Number     Number       Type             X           Y           Z
 ---------------------------------------------------------------------
      1          8           0        1.216327    0.000000    0.000000
      2          6           0        0.000000    0.000000    0.000000
      3          6           0       -0.848728   -1.267967    0.003192
      4          6           0       -1.731779   -1.261558    1.275515
      5          6           0       -1.753169   -1.257225   -1.252538
      6          6           0       -2.642993   -0.000036   -1.230108
      7          6           0       -1.753192    1.257173   -1.252535
      8          6           0       -0.848739    1.267959    0.003192
      9          6           0       -1.731773    1.261543    1.275525
     10          6           0       -2.642534   -0.000009    1.321905
     11          6           0       -3.473725    0.000027    2.612628
     12          6           0       -2.827946    0.000929    3.861829
     13          6           0       -3.547964    0.001270    5.054755
     14          6           0       -4.944022    0.000788    5.033248
     15          6           0       -5.602779    0.000064    3.805879
     16          6           0       -4.875698   -0.000248    2.612264
     17          6           0       -3.515385   -0.000016    0.041608
     18          1           0       -0.179072   -2.134122    0.002409
     19          1           0       -1.093858   -1.301729    2.166144
     20          1           0       -2.354805   -2.165702    1.293561
     21          1           0       -1.139396   -1.275628   -2.162579
     22          1           0       -2.370936   -2.165431   -1.263189
     23          1           0       -3.296788   -0.000033   -2.111850
     24          1           0       -1.139418    1.275581   -2.162575
     25          1           0       -2.370984    2.165363   -1.263197
     26          1           0       -0.179101    2.134128    0.002375
     27          1           0       -1.093864    1.301644    2.166162
     28          1           0       -2.354781    2.165693    1.293616
     29          1           0       -1.742313    0.001409    3.909674
     30          1           0       -3.016268    0.001923    6.002829
     31          1           0       -5.508555    0.001074    5.961736
     32          1           0       -6.689224   -0.000225    3.769454
     33          1           0       -5.421790   -0.000747    1.675478
     34          1           0       -4.168755   -0.882603    0.035297
     35          1           0       -4.168724    0.882597    0.035242
 ---------------------------------------------------------------------
                    Distance matrix (angstroms):
                    1          2          3          4          5
     1  O    0.000000
     2  C    1.216327   0.000000
     3  C    2.423263   1.525808   0.000000
     4  C    3.451057   2.493497   1.548750   0.000000
     5  C    3.459389   2.494608   1.547574   2.528147   0.000000
     6  C    4.050619   2.915232   2.519537   2.949558   1.540394
     7  C    3.459389   2.494596   2.961627   3.568683   2.514398
     8  C    2.423268   1.525807   2.535926   2.965977   2.961656
     9  C    3.451050   2.493490   2.965977   2.523101   3.568719
    10  C    4.079000   2.954728   2.562120   1.556641   2.999886
    11  C    5.368651   4.346561   3.912490   2.532557   4.413672
    12  C    5.591947   4.786544   4.518460   3.079688   5.375393
    13  C    6.946151   6.175646   5.866441   4.379032   6.677353
    14  C    7.955092   7.055277   6.609284   5.102213   7.160674
    15  C    7.809284   6.773171   6.218467   4.793649   6.479804
    16  C    6.628476   5.531397   4.962948   3.641707   5.125122
    17  C    4.731895   3.515631   2.953004   2.509037   2.522061
    18  H    2.549828   2.141623   1.094835   2.189307   2.195819
    19  H    3.423979   2.753762   2.177060   1.096256   3.481962
    20  H    4.372248   3.450894   2.176981   1.098164   2.769461
    21  H    3.442878   2.757208   2.185203   3.488783   1.097830
    22  H    4.376436   3.450518   2.174001   2.769571   1.098448
    23  H    4.982782   3.915191   3.474774   3.938901   2.168342
    24  H    3.442873   2.757193   3.353309   4.313749   2.760428
    25  H    4.376444   3.450511   3.963428   4.312474   3.477919
    26  H    2.549848   2.141631   3.467370   3.944918   3.943827
    27  H    3.423962   2.753738   3.367704   2.787506   4.320880
    28  H    4.372240   3.450893   3.965276   3.483462   4.308272
    29  H    4.902969   4.280328   4.203619   2.921299   5.313446
    30  H    7.344986   6.718023   6.504344   5.059031   7.471360
    31  H    8.987009   8.117048   7.669987   6.149711   8.229945
    32  H    8.758226   7.678183   7.064226   5.690954   7.152978
    33  H    6.846300   5.674772   5.031430   3.919923   4.859094
    34  H    5.457045   4.261309   3.342471   2.760543   2.762954
    35  H    5.457013   4.261277   3.955797   3.474821   3.474496
                    6          7          8          9         10
     6  C    0.000000
     7  C    1.540397   0.000000
     8  C    2.519561   1.547579   0.000000
     9  C    2.949593   2.528155   1.548748   0.000000
    10  C    2.552013   2.999863   2.562118   1.556647   0.000000
    11  C    3.931506   4.413631   3.912462   2.532521   1.535202
    12  C    5.095295   5.374939   4.517931   3.078914   2.546683
    13  C    6.349683   6.676856   5.865885   4.378289   3.841090
    14  C    6.672658   7.160375   6.608973   5.101816   4.367026
    15  C    5.841361   6.479753   6.218431   4.793611   3.864347
    16  C    4.443962   5.125214   4.963064   3.641875   2.579156
    17  C    1.542183   2.522034   2.953005   2.509054   1.549526
    18  H    3.484871   3.943808   3.467363   3.944901   3.516270
    19  H    3.953322   4.320887   3.367750   2.787562   2.192171
    20  H    3.337973   4.308203   3.965264   3.483461   2.184907
    21  H    2.181156   2.760436   3.353339   4.313781   4.003530
    22  H    2.182669   3.477922   3.963454   4.312511   3.383124
    23  H    1.097687   2.168335   3.474788   3.938928   3.495529
    24  H    2.181154   1.097830   2.185200   3.488784   4.003510
    25  H    2.182667   1.098449   2.174007   2.769583   3.383094
    26  H    3.484887   2.195817   1.094835   2.189316   3.516277
    27  H    3.953330   3.481979   2.177076   1.096253   2.192133
    28  H    3.338058   2.769513   2.176989   1.098159   2.184918
    29  H    5.218102   5.312764   4.202764   2.920067   2.739881
    30  H    7.242563   7.470697   6.503589   5.058060   4.695821
    31  H    7.741710   8.229595   7.669624   6.149263   5.453633
    32  H    6.431765   7.153030   7.064297   5.691051   4.729291
    33  H    4.020466   4.859448   5.031794   3.920404   2.801656
    34  H    2.169821   3.474492   3.955813   3.474825   2.182586
    35  H    2.169794   2.762874   3.342429   2.760549   2.182602
                   11         12         13         14         15
    11  C    0.000000
    12  C    1.406248   0.000000
    13  C    2.443255   1.393377   0.000000
    14  C    2.832168   2.418677   1.396224   0.000000
    15  C    2.440639   2.775397   2.404570   1.392981   0.000000
    16  C    1.401973   2.398896   2.780044   2.421948   1.397628
    17  C    2.571358   3.881580   5.013253   5.192059   4.304294
    18  H    4.714082   5.144910   6.437044   7.250650   6.959722
    19  H    2.749124   2.753058   4.008056   4.973992   4.971294
    20  H    2.771697   3.393251   4.501775   5.038153   4.642372
    21  H    5.466168   6.385475   7.715023   8.239196   7.561195
    22  H    4.574638   5.582811   6.782065   7.138515   6.389807
    23  H    4.727790   5.992049   7.171005   7.332517   6.351150
    24  H    5.466131   6.385085   7.714585   8.238931   7.561149
    25  H    4.574575   5.582068   6.781231   7.138006   6.389722
    26  H    4.714059   5.144152   6.436215   7.250193   6.959681
    27  H    2.749050   2.752124   4.007187   4.973543   4.971227
    28  H    2.771631   3.392021   4.500509   5.037443   4.642295
    29  H    2.163358   1.086687   2.138127   3.393134   3.861861
    30  H    3.420926   2.149267   1.086989   2.157852   3.393616
    31  H    3.918808   3.405183   2.160216   1.086640   2.157915
    32  H    3.417262   3.862383   3.394041   2.154740   1.087055
    33  H    2.161760   3.392368   3.864032   3.391590   2.138075
    34  H    2.811537   4.149789   5.134352   5.134290   4.129505
    35  H    2.811560   4.149433   5.133964   5.134076   4.129538
                   16         17         18         19         20
    16  C    0.000000
    17  C    2.908389   0.000000
    18  H    5.781268   3.960673   0.000000
    19  H    4.024325   3.474464   2.492280   0.000000
    20  H    3.575342   2.757631   2.530195   1.760068   0.000000
    21  H    6.195617   3.482951   2.519208   4.329041   3.770193
    22  H    5.097155   2.775118   2.531203   3.759951   2.556801
    23  H    4.980985   2.164524   4.329501   4.984832   4.144186
    24  H    6.195693   3.482928   4.151565   5.038096   5.026377
    25  H    5.097319   2.775074   4.989169   5.041047   5.029453
    26  H    5.781445   3.960669   4.268250   4.162186   4.988926
    27  H    4.024450   3.474451   4.162110   2.603373   3.791292
    28  H    3.575634   2.757684   4.988921   3.791338   4.331395
    29  H    3.391368   4.255082   4.719209   2.271246   3.451893
    30  H    3.866965   5.982080   6.972619   4.485011   5.226216
    31  H    3.408735   6.246651   8.275024   5.966017   6.035968
    32  H    2.151271   4.895926   7.818326   5.964280   5.441188
    33  H    1.084336   2.510759   5.902249   4.545801   3.773498
    34  H    2.814086   1.098131   4.181501   3.764461   2.553426
    35  H    2.814297   1.098134   5.001899   4.332069   3.763748
                   21         22         23         24         25
    21  H    0.000000
    22  H    1.765600   0.000000
    23  H    2.506802   2.503273   0.000000
    24  H    2.551209   3.763787   2.506793   0.000000
    25  H    3.763790   4.330794   2.503251   1.765601   0.000000
    26  H    4.151581   4.989188   4.329499   2.519190   2.531205
    27  H    5.038095   5.041029   4.984839   4.329055   3.759993
    28  H    5.026444   5.029528   4.144267   3.770234   2.556864
    29  H    6.234307   5.643481   6.218934   6.233715   5.642386
    30  H    8.475180   7.609789   8.119526   8.474585   7.608679
    31  H    9.312573   8.169329   8.371064   9.312258   8.168730
    32  H    8.222911   6.975903   6.789577   8.222955   6.975998
    33  H    5.890238   4.757030   4.342751   5.890533   4.757653
    34  H    3.763262   2.562004   2.479818   4.320334   3.769372
    35  H    4.320322   3.769408   2.479781   3.763181   2.561894
                   26         27         28         29         30
    26  H    0.000000
    27  H    2.492347   0.000000
    28  H    2.530194   1.760065   0.000000
    29  H    4.717956   2.269566   3.450073   0.000000
    30  H    6.971461   4.483852   5.224572   2.450359   0.000000
    31  H    8.274478   5.965514   6.035164   4.289002   2.492626
    32  H    7.818443   5.964349   5.441357   4.948898   4.298671
    33  H    5.902775   4.546200   3.774364   4.304670   4.951011
    34  H    5.001909   4.332029   3.763772   4.656167   6.141828
    35  H    4.181447   3.764463   2.553474   4.655662   6.141322
                   31         32         33         34         35
    31  H    0.000000
    32  H    2.489996   0.000000
    33  H    4.287136   2.447677   0.000000
    34  H    6.139921   4.590782   2.244540   0.000000
    35  H    6.139671   4.590930   2.245183   1.765200   0.000000
 Stoichiometry    C16H18O
 Framework group  C1[X(C16H18O)]
 Deg. of freedom    99
 Full point group                 C1      NOp   1
 Largest Abelian subgroup         C1      NOp   1
 Largest concise Abelian subgroup C1      NOp   1
                         Standard orientation:                         
 ---------------------------------------------------------------------
 Center     Atomic      Atomic             Coordinates (Angstroms)
 Number     Number       Type             X           Y           Z
 ---------------------------------------------------------------------
      1          8           0        3.250589   -2.080127   -0.000547
      2          6           0        2.506256   -1.118139   -0.000283
      3          6           0        1.984493   -0.448380   -1.268067
      4          6           0        0.437833   -0.528580   -1.261859
      5          6           0        2.424169    1.035380   -1.256740
      6          6           0        1.861761    1.724958    0.000635
      7          6           0        2.423873    1.034489    1.257657
      8          6           0        1.984204   -0.449286    1.267859
      9          6           0        0.437548   -0.529501    1.261242
     10          6           0       -0.156334    0.162888   -0.000126
     11          6           0       -1.685810    0.030414   -0.000308
     12          6           0       -2.278612   -1.244780    0.000068
     13          6           0       -3.662708   -1.405333    0.000197
     14          6           0       -4.500017   -0.288035    0.000025
     15          6           0       -3.932424    0.984062   -0.000177
     16          6           0       -2.543461    1.139451   -0.000279
     17          6           0        0.322105    1.636701    0.000452
     18          1           0        2.395005   -0.977216   -2.134367
     19          1           0        0.123820   -1.578116   -1.302443
     20          1           0        0.042400   -0.046549   -2.165873
     21          1           0        3.519518    1.106857   -1.274996
     22          1           0        2.054651    1.530815   -2.164809
     23          1           0        2.159036    2.781625    0.001052
     24          1           0        3.519217    1.105951    1.276213
     25          1           0        2.054146    1.529295    2.165985
     26          1           0        2.394539   -0.978712    2.133883
     27          1           0        0.123512   -1.579062    1.300930
     28          1           0        0.041889   -0.048164    2.165522
     29          1           0       -1.652098   -2.132681    0.000297
     30          1           0       -4.087164   -2.406024    0.000441
     31          1           0       -5.579821   -0.409738    0.000146
     32          1           0       -4.568466    1.865617   -0.000219
     33          1           0       -2.136742    2.144620   -0.000370
     34          1           0       -0.072636    2.157629   -0.881991
     35          1           0       -0.072770    2.157002    0.883208
 ---------------------------------------------------------------------
 Rotational constants (GHZ):           1.0966815           0.3221161           0.2925275
 Standard basis: 6-31G(d) (6D, 7F)
 There are   291 symmetry adapted cartesian basis functions of A   symmetry.
 There are   291 symmetry adapted basis functions of A   symmetry.
   291 basis functions,   548 primitive gaussians,   291 cartesian basis functions
    61 alpha electrons       61 beta electrons
       nuclear repulsion energy      1225.4624951151 Hartrees.
 NAtoms=   35 NActive=   35 NUniq=   35 SFac= 1.00D+00 NAtFMM=   60 NAOKFM=F Big=F
 Integral buffers will be    131072 words long.
 Raffenetti 2 integral format.
 Two-electron integral symmetry is turned on.
 One-electron integrals computed using PRISM.
 NBasis=   291 RedAO= T EigKep=  4.44D-04  NBF=   291
 NBsUse=   291 1.00D-06 EigRej= -1.00D+00 NBFU=   291
 ExpMin= 1.61D-01 ExpMax= 5.48D+03 ExpMxC= 8.25D+02 IAcc=3 IRadAn=         5 AccDes= 0.00D+00
 Harris functional with IExCor=  402 and IRadAn=       5 diagonalized for initial guess.
 HarFok:  IExCor=  402 AccDes= 0.00D+00 IRadAn=         5 IDoV= 1 UseB2=F ITyADJ=14
 ICtDFT=  3500011 ScaDFX=  1.000000  1.000000  1.000000  1.000000
 FoFCou: FMM=F IPFlag=           0 FMFlag=      100000 FMFlg1=           0
         NFxFlg=           0 DoJE=T BraDBF=F KetDBF=T FulRan=T
         wScrn=  0.000000 ICntrl=       500 IOpCl=  0 I1Cent=   200000004 NGrid=           0
         NMat0=    1 NMatS0=      1 NMatT0=    0 NMatD0=    1 NMtDS0=    0 NMtDT0=    0
 Petite list used in FoFCou.
 Requested convergence on RMS density matrix=1.00D-08 within 128 cycles.
 Requested convergence on MAX density matrix=1.00D-06.
 Requested convergence on             energy=1.00D-06.
 No special actions if energy rises.
 Integral accuracy reduced to 1.0D-05 until final iterations.
 Initial convergence to 1.0D-05 achieved.  Increase integral accuracy.
 SCF Done:  E(RB3LYP) =  -695.783229693     A.U. after   14 cycles
            NFock= 14  Conv=0.68D-08     -V/T= 2.0097
 DoSCS=F DFT=T ScalE2(SS,OS)=  1.000000  1.000000
 Range of M.O.s used for correlation:     1   291
 NBasis=   291 NAE=    61 NBE=    61 NFC=     0 NFV=     0
 NROrb=    291 NOA=    61 NOB=    61 NVA=   230 NVB=   230
 Symmetrizing basis deriv contribution to polar:
 IMax=3 JMax=2 DiffMx= 0.00D+00
 G2DrvN: will do    36 centers at a time, making    1 passes.
 Calling FoFCou, ICntrl=  3107 FMM=F I1Cent=   0 AccDes= 0.00D+00.
 End of G2Drv F.D. properties file   721 does not exist.
 End of G2Drv F.D. properties file   722 does not exist.
 End of G2Drv F.D. properties file   788 does not exist.
          IDoAtm=11111111111111111111111111111111111
          Differentiating once with respect to electric field.
                with respect to dipole field.
          Differentiating once with respect to nuclear coordinates.
 Keep R1 ints in memory in canonical form, NReq=915016040.
          There are   108 degrees of freedom in the 1st order CPHF.  IDoFFX=6 NUNeed=     3.
    105 vectors produced by pass  0 Test12= 1.40D-14 1.00D-09 XBig12= 1.69D+02 5.65D+00.
 AX will form   105 AO Fock derivatives at one time.
    105 vectors produced by pass  1 Test12= 1.40D-14 1.00D-09 XBig12= 2.16D+01 9.54D-01.
    105 vectors produced by pass  2 Test12= 1.40D-14 1.00D-09 XBig12= 1.55D-01 5.20D-02.
    105 vectors produced by pass  3 Test12= 1.40D-14 1.00D-09 XBig12= 4.47D-04 3.70D-03.
    105 vectors produced by pass  4 Test12= 1.40D-14 1.00D-09 XBig12= 4.97D-07 6.85D-05.
     65 vectors produced by pass  5 Test12= 1.40D-14 1.00D-09 XBig12= 3.96D-10 2.07D-06.
      5 vectors produced by pass  6 Test12= 1.40D-14 1.00D-09 XBig12= 2.62D-13 4.40D-08.
      2 vectors produced by pass  7 Test12= 1.40D-14 1.00D-09 XBig12= 2.29D-16 1.40D-09.
 InvSVY:  IOpt=1 It=  1 EMax= 5.33D-15
 Solved reduced A of dimension   597 with   108 vectors.
 Isotropic polarizability for W=    0.000000      154.23 Bohr**3.
 End of Minotr F.D. properties file   721 does not exist.
 End of Minotr F.D. properties file   722 does not exist.
 End of Minotr F.D. properties file   788 does not exist.

 **********************************************************************

            Population analysis using the SCF density.

 **********************************************************************

 Orbital symmetries:
       Occupied  (A) (A) (A) (A) (A) (A) (A) (A) (A) (A) (A) (A)
                 (A) (A) (A) (A) (A) (A) (A) (A) (A) (A) (A) (A)
                 (A) (A) (A) (A) (A) (A) (A) (A) (A) (A) (A) (A)
                 (A) (A) (A) (A) (A) (A) (A) (A) (A) (A) (A) (A)
                 (A) (A) (A) (A) (A) (A) (A) (A) (A) (A) (A) (A)
                 (A)
       Virtual   (A) (A) (A) (A) (A) (A) (A) (A) (A) (A) (A) (A)
                 (A) (A) (A) (A) (A) (A) (A) (A) (A) (A) (A) (A)
                 (A) (A) (A) (A) (A) (A) (A) (A) (A) (A) (A) (A)
                 (A) (A) (A) (A) (A) (A) (A) (A) (A) (A) (A) (A)
                 (A) (A) (A) (A) (A) (A) (A) (A) (A) (A) (A) (A)
                 (A) (A) (A) (A) (A) (A) (A) (A) (A) (A) (A) (A)
                 (A) (A) (A) (A) (A) (A) (A) (A) (A) (A) (A) (A)
                 (A) (A) (A) (A) (A) (A) (A) (A) (A) (A) (A) (A)
                 (A) (A) (A) (A) (A) (A) (A) (A) (A) (A) (A) (A)
                 (A) (A) (A) (A) (A) (A) (A) (A) (A) (A) (A) (A)
                 (A) (A) (A) (A) (A) (A) (A) (A) (A) (A) (A) (A)
                 (A) (A) (A) (A) (A) (A) (A) (A) (A) (A) (A) (A)
                 (A) (A) (A) (A) (A) (A) (A) (A) (A) (A) (A) (A)
                 (A) (A) (A) (A) (A) (A) (A) (A) (A) (A) (A) (A)
                 (A) (A) (A) (A) (A) (A) (A) (A) (A) (A) (A) (A)
                 (A) (A) (A) (A) (A) (A) (A) (A) (A) (A) (A) (A)
                 (A) (A) (A) (A) (A) (A) (A) (A) (A) (A) (A) (A)
                 (A) (A) (A) (A) (A) (A) (A) (A) (A) (A) (A) (A)
                 (A) (A) (A) (A) (A) (A) (A) (A) (A) (A) (A) (A)
                 (A) (A)
 The electronic state is 1-A.
 Alpha  occ. eigenvalues --  -19.13145 -10.26244 -10.20851 -10.19693 -10.19601
 Alpha  occ. eigenvalues --  -10.19301 -10.19299 -10.19158 -10.19157 -10.19109
 Alpha  occ. eigenvalues --  -10.19107 -10.18993 -10.18962 -10.18843 -10.18815
 Alpha  occ. eigenvalues --  -10.18774 -10.18695  -1.02961  -0.88013  -0.85029
 Alpha  occ. eigenvalues --   -0.79093  -0.78025  -0.76561  -0.74262  -0.72646
 Alpha  occ. eigenvalues --   -0.67764  -0.65201  -0.61498  -0.60321  -0.60035
 Alpha  occ. eigenvalues --   -0.57566  -0.56375  -0.52455  -0.49262  -0.47447
 Alpha  occ. eigenvalues --   -0.46127  -0.45551  -0.44751  -0.44356  -0.44036
 Alpha  occ. eigenvalues --   -0.43872  -0.42045  -0.41931  -0.40859  -0.40280
 Alpha  occ. eigenvalues --   -0.40032  -0.39324  -0.36533  -0.36509  -0.36402
 Alpha  occ. eigenvalues --   -0.35045  -0.34198  -0.33993  -0.33632  -0.33250
 Alpha  occ. eigenvalues --   -0.30723  -0.29846  -0.29299  -0.24917  -0.24174
 Alpha  occ. eigenvalues --   -0.22876
 Alpha virt. eigenvalues --   -0.00871  -0.00258   0.00080   0.06817   0.09102
 Alpha virt. eigenvalues --    0.11358   0.11667   0.12089   0.13218   0.13360
 Alpha virt. eigenvalues --    0.14011   0.14742   0.15009   0.15675   0.16360
 Alpha virt. eigenvalues --    0.16628   0.17315   0.18725   0.18807   0.19327
 Alpha virt. eigenvalues --    0.19479   0.20072   0.20324   0.21940   0.22645
 Alpha virt. eigenvalues --    0.22918   0.24278   0.24884   0.25623   0.26263
 Alpha virt. eigenvalues --    0.27853   0.27992   0.29119   0.29295   0.30802
 Alpha virt. eigenvalues --    0.34122   0.34447   0.35025   0.36583   0.37455
 Alpha virt. eigenvalues --    0.46789   0.51034   0.51584   0.51615   0.52413
 Alpha virt. eigenvalues --    0.53983   0.55581   0.56103   0.56222   0.56509
 Alpha virt. eigenvalues --    0.56620   0.57096   0.59652   0.59671   0.60380
 Alpha virt. eigenvalues --    0.60816   0.61975   0.62024   0.63182   0.63366
 Alpha virt. eigenvalues --    0.64366   0.64609   0.66762   0.67083   0.67802
 Alpha virt. eigenvalues --    0.69497   0.70063   0.71424   0.71770   0.74787
 Alpha virt. eigenvalues --    0.75596   0.77372   0.77739   0.77934   0.79299
 Alpha virt. eigenvalues --    0.81865   0.81886   0.82372   0.83890   0.84118
 Alpha virt. eigenvalues --    0.84273   0.85603   0.86276   0.86463   0.87540
 Alpha virt. eigenvalues --    0.88215   0.88350   0.90100   0.90221   0.91201
 Alpha virt. eigenvalues --    0.91855   0.93594   0.94762   0.94937   0.96198
 Alpha virt. eigenvalues --    0.96562   0.97759   0.98592   0.99725   0.99923
 Alpha virt. eigenvalues --    1.01492   1.05704   1.07279   1.10748   1.12117
 Alpha virt. eigenvalues --    1.14080   1.14402   1.16208   1.17240   1.17923
 Alpha virt. eigenvalues --    1.18638   1.21026   1.22527   1.22841   1.27630
 Alpha virt. eigenvalues --    1.29191   1.29571   1.35323   1.42323   1.42428
 Alpha virt. eigenvalues --    1.42848   1.43545   1.44653   1.47331   1.49064
 Alpha virt. eigenvalues --    1.49849   1.50962   1.51706   1.55717   1.58157
 Alpha virt. eigenvalues --    1.60777   1.65384   1.66173   1.69446   1.70240
 Alpha virt. eigenvalues --    1.71622   1.73553   1.75695   1.77037   1.77569
 Alpha virt. eigenvalues --    1.78573   1.79314   1.79729   1.82789   1.83273
 Alpha virt. eigenvalues --    1.85483   1.86648   1.87724   1.88907   1.89263
 Alpha virt. eigenvalues --    1.92116   1.92572   1.93998   1.94877   1.98363
 Alpha virt. eigenvalues --    2.02263   2.03016   2.03565   2.05922   2.07327
 Alpha virt. eigenvalues --    2.07782   2.08729   2.11924   2.13262   2.14107
 Alpha virt. eigenvalues --    2.14571   2.14882   2.16160   2.18381   2.19313
 Alpha virt. eigenvalues --    2.21392   2.24283   2.25519   2.26160   2.28150
 Alpha virt. eigenvalues --    2.29188   2.30981   2.32277   2.33453   2.35251
 Alpha virt. eigenvalues --    2.35339   2.39682   2.40785   2.42689   2.43309
 Alpha virt. eigenvalues --    2.47936   2.49545   2.50283   2.51313   2.52776
 Alpha virt. eigenvalues --    2.58519   2.60051   2.61811   2.64614   2.66673
 Alpha virt. eigenvalues --    2.67384   2.68585   2.71363   2.71515   2.73795
 Alpha virt. eigenvalues --    2.74095   2.75492   2.75735   2.76792   2.78128
 Alpha virt. eigenvalues --    2.80880   2.81196   2.86467   3.00898   3.01723
 Alpha virt. eigenvalues --    3.03550   3.11161   3.41261   4.09059   4.10623
 Alpha virt. eigenvalues --    4.12372   4.14230   4.18083   4.27279   4.28719
 Alpha virt. eigenvalues --    4.31955   4.33260   4.39934   4.49134   4.57641
 Alpha virt. eigenvalues --    4.66228   4.73765   4.80380   4.82629   4.85098
          Condensed to atoms (all electrons):
               1          2          3          4          5          6
     1  O    8.014477   0.578465  -0.073934   0.000896   0.001028   0.000057
     2  C    0.578465   4.516144   0.331727  -0.028969  -0.029306  -0.020538
     3  C   -0.073934   0.331727   5.235266   0.314946   0.338593  -0.027576
     4  C    0.000896  -0.028969   0.314946   5.176309  -0.038877  -0.014970
     5  C    0.001028  -0.029306   0.338593  -0.038877   5.095839   0.374532
     6  C    0.000057  -0.020538  -0.027576  -0.014970   0.374532   4.937896
     7  C    0.001028  -0.029308  -0.008215  -0.002553  -0.049045   0.374532
     8  C   -0.073932   0.331726  -0.124999  -0.006646  -0.008216  -0.027573
     9  C    0.000896  -0.028968  -0.006647  -0.055123  -0.002552  -0.014971
    10  C    0.000054  -0.019481  -0.020575   0.365602  -0.016314  -0.018679
    11  C    0.000001   0.000056   0.004155  -0.044815  -0.000073   0.003404
    12  C   -0.000001  -0.000059   0.000330  -0.008417  -0.000003  -0.000103
    13  C   -0.000000  -0.000000  -0.000001   0.000293   0.000000   0.000001
    14  C   -0.000000  -0.000000  -0.000000   0.000003  -0.000000   0.000000
    15  C    0.000000   0.000000   0.000001  -0.000153   0.000000  -0.000008
    16  C    0.000000   0.000001  -0.000070   0.000865  -0.000011   0.000586
    17  C   -0.000032  -0.003225  -0.012448  -0.057353  -0.045488   0.361732
    18  H    0.004264  -0.031579   0.344608  -0.030373  -0.031523   0.004206
    19  H    0.000792  -0.000816  -0.037884   0.361091   0.005120   0.000024
    20  H   -0.000079   0.003516  -0.029855   0.356560  -0.006213  -0.000783
    21  H    0.000705  -0.000937  -0.039266   0.005138   0.367616  -0.035241
    22  H   -0.000083   0.003539  -0.031187  -0.005870   0.360766  -0.033160
    23  H   -0.000000   0.000308   0.004664   0.000092  -0.038281   0.369572
    24  H    0.000705  -0.000937  -0.000040   0.000047  -0.004462  -0.035242
    25  H   -0.000083   0.003539  -0.000299   0.000105   0.005248  -0.033161
    26  H    0.004264  -0.031578   0.007067  -0.000083  -0.000059   0.004206
    27  H    0.000792  -0.000816   0.000433  -0.005747  -0.000010   0.000024
    28  H   -0.000079   0.003516  -0.000383   0.005852   0.000111  -0.000783
    29  H   -0.000001  -0.000050  -0.000107   0.000110  -0.000003  -0.000002
    30  H    0.000000  -0.000000  -0.000000  -0.000000  -0.000000  -0.000000
    31  H    0.000000   0.000000  -0.000000   0.000000   0.000000  -0.000000
    32  H    0.000000  -0.000000  -0.000000   0.000002  -0.000000  -0.000000
    33  H    0.000000  -0.000001  -0.000005   0.000244  -0.000004   0.000039
    34  H    0.000000   0.000163  -0.001136  -0.005909  -0.003717  -0.035762
    35  H    0.000000   0.000163  -0.000159   0.006019   0.005175  -0.035762
               7          8          9         10         11         12
     1  O    0.001028  -0.073932   0.000896   0.000054   0.000001  -0.000001
     2  C   -0.029308   0.331726  -0.028968  -0.019481   0.000056  -0.000059
     3  C   -0.008215  -0.124999  -0.006647  -0.020575   0.004155   0.000330
     4  C   -0.002553  -0.006646  -0.055123   0.365602  -0.044815  -0.008417
     5  C   -0.049045  -0.008216  -0.002552  -0.016314  -0.000073  -0.000003
     6  C    0.374532  -0.027573  -0.014971  -0.018679   0.003404  -0.000103
     7  C    5.095854   0.338591  -0.038876  -0.016314  -0.000073  -0.000003
     8  C    0.338591   5.235258   0.314948  -0.020576   0.004158   0.000331
     9  C   -0.038876   0.314948   5.176314   0.365641  -0.044834  -0.008433
    10  C   -0.016314  -0.020576   0.365641   4.959252   0.354467  -0.052811
    11  C   -0.000073   0.004158  -0.044834   0.354467   4.707810   0.519886
    12  C   -0.000003   0.000331  -0.008433  -0.052811   0.519886   5.006678
    13  C    0.000000  -0.000001   0.000295   0.005114  -0.015000   0.525530
    14  C   -0.000000  -0.000000   0.000003   0.000337  -0.034214  -0.036353
    15  C    0.000000   0.000001  -0.000153   0.006819  -0.016636  -0.045766
    16  C   -0.000011  -0.000070   0.000869  -0.052737   0.552142  -0.056647
    17  C   -0.045491  -0.012448  -0.057357   0.368108  -0.040513   0.005559
    18  H   -0.000059   0.007067  -0.000083   0.003547  -0.000099  -0.000007
    19  H   -0.000010   0.000433  -0.005746  -0.031882  -0.009016   0.005250
    20  H    0.000111  -0.000383   0.005852  -0.032899  -0.001806  -0.000187
    21  H   -0.004462  -0.000040   0.000047   0.000192   0.000012  -0.000000
    22  H    0.005248  -0.000299   0.000105  -0.001155  -0.000091   0.000000
    23  H   -0.038282   0.004664   0.000092   0.004051  -0.000092   0.000002
    24  H    0.367616  -0.039266   0.005138   0.000192   0.000012  -0.000000
    25  H    0.360765  -0.031187  -0.005869  -0.001155  -0.000091   0.000000
    26  H   -0.031524   0.344608  -0.030373   0.003547  -0.000099  -0.000007
    27  H    0.005120  -0.037883   0.361085  -0.031878  -0.009030   0.005249
    28  H   -0.006212  -0.029853   0.356566  -0.032906  -0.001801  -0.000186
    29  H   -0.000003  -0.000108   0.000106  -0.007935  -0.048397   0.353485
    30  H   -0.000000  -0.000000  -0.000000  -0.000168   0.003428  -0.039277
    31  H    0.000000  -0.000000   0.000000   0.000009   0.000751   0.004708
    32  H   -0.000000  -0.000000   0.000002  -0.000166   0.003630   0.000849
    33  H   -0.000004  -0.000005   0.000243  -0.016504  -0.040168   0.006379
    34  H    0.005175  -0.000159   0.006020  -0.031125  -0.005933  -0.000069
    35  H   -0.003717  -0.001136  -0.005908  -0.031132  -0.005925  -0.000069
              13         14         15         16         17         18
     1  O   -0.000000  -0.000000   0.000000   0.000000  -0.000032   0.004264
     2  C   -0.000000  -0.000000   0.000000   0.000001  -0.003225  -0.031579
     3  C   -0.000001  -0.000000   0.000001  -0.000070  -0.012448   0.344608
     4  C    0.000293   0.000003  -0.000153   0.000865  -0.057353  -0.030373
     5  C    0.000000  -0.000000   0.000000  -0.000011  -0.045488  -0.031523
     6  C    0.000001   0.000000  -0.000008   0.000586   0.361732   0.004206
     7  C    0.000000  -0.000000   0.000000  -0.000011  -0.045491  -0.000059
     8  C   -0.000001  -0.000000   0.000001  -0.000070  -0.012448   0.007067
     9  C    0.000295   0.000003  -0.000153   0.000869  -0.057357  -0.000083
    10  C    0.005114   0.000337   0.006819  -0.052737   0.368108   0.003547
    11  C   -0.015000  -0.034214  -0.016636   0.552142  -0.040513  -0.000099
    12  C    0.525530  -0.036353  -0.045766  -0.056647   0.005559  -0.000007
    13  C    4.865055   0.547831  -0.026992  -0.043554  -0.000160  -0.000000
    14  C    0.547831   4.849199   0.553591  -0.035049  -0.000004   0.000000
    15  C   -0.026992   0.553591   4.886424   0.508791   0.000176  -0.000000
    16  C   -0.043554  -0.035049   0.508791   4.994347  -0.010407   0.000001
    17  C   -0.000160  -0.000004   0.000176  -0.010407   5.153723   0.000164
    18  H   -0.000000   0.000000  -0.000000   0.000001   0.000164   0.600263
    19  H   -0.000017  -0.000004   0.000005  -0.000243   0.005722  -0.002789
    20  H   -0.000047  -0.000010  -0.000022   0.001200  -0.005697  -0.003820
    21  H    0.000000   0.000000  -0.000000   0.000000   0.004971  -0.002463
    22  H   -0.000000  -0.000000  -0.000000  -0.000003  -0.003787  -0.003977
    23  H   -0.000000  -0.000000   0.000000   0.000001  -0.038691  -0.000146
    24  H    0.000000   0.000000  -0.000000   0.000000   0.004971  -0.000084
    25  H   -0.000000  -0.000000  -0.000000  -0.000003  -0.003787   0.000023
    26  H   -0.000000   0.000000  -0.000000   0.000001   0.000164  -0.000180
    27  H   -0.000016  -0.000004   0.000005  -0.000244   0.005722  -0.000073
    28  H   -0.000048  -0.000010  -0.000022   0.001199  -0.005696   0.000024
    29  H   -0.042719   0.004815   0.000422   0.005857   0.000091   0.000005
    30  H    0.356749  -0.043202   0.004639   0.000847   0.000002   0.000000
    31  H   -0.043106   0.358578  -0.042936   0.004587  -0.000000  -0.000000
    32  H    0.004635  -0.043641   0.356109  -0.038817   0.000005   0.000000
    33  H    0.000365   0.004901  -0.049680   0.353646   0.008080   0.000000
    34  H   -0.000002  -0.000006   0.000037   0.001644   0.358539  -0.000077
    35  H   -0.000002  -0.000006   0.000036   0.001646   0.358548   0.000018
              19         20         21         22         23         24
     1  O    0.000792  -0.000079   0.000705  -0.000083  -0.000000   0.000705
     2  C   -0.000816   0.003516  -0.000937   0.003539   0.000308  -0.000937
     3  C   -0.037884  -0.029855  -0.039266  -0.031187   0.004664  -0.000040
     4  C    0.361091   0.356560   0.005138  -0.005870   0.000092   0.000047
     5  C    0.005120  -0.006213   0.367616   0.360766  -0.038281  -0.004462
     6  C    0.000024  -0.000783  -0.035241  -0.033160   0.369572  -0.035242
     7  C   -0.000010   0.000111  -0.004462   0.005248  -0.038282   0.367616
     8  C    0.000433  -0.000383  -0.000040  -0.000299   0.004664  -0.039266
     9  C   -0.005746   0.005852   0.000047   0.000105   0.000092   0.005138
    10  C   -0.031882  -0.032899   0.000192  -0.001155   0.004051   0.000192
    11  C   -0.009016  -0.001806   0.000012  -0.000091  -0.000092   0.000012
    12  C    0.005250  -0.000187  -0.000000   0.000000   0.000002  -0.000000
    13  C   -0.000017  -0.000047   0.000000  -0.000000  -0.000000   0.000000
    14  C   -0.000004  -0.000010   0.000000  -0.000000  -0.000000   0.000000
    15  C    0.000005  -0.000022  -0.000000  -0.000000   0.000000  -0.000000
    16  C   -0.000243   0.001200   0.000000  -0.000003   0.000001   0.000000
    17  C    0.005722  -0.005697   0.004971  -0.003787  -0.038691   0.004971
    18  H   -0.002789  -0.003820  -0.002463  -0.003977  -0.000146  -0.000084
    19  H    0.591168  -0.034470  -0.000160  -0.000059   0.000017  -0.000005
    20  H   -0.034470   0.594663  -0.000044   0.005708  -0.000098   0.000001
    21  H   -0.000160  -0.000044   0.594241  -0.035302  -0.003324   0.004382
    22  H   -0.000059   0.005708  -0.035302   0.600436  -0.003341   0.000011
    23  H    0.000017  -0.000098  -0.003324  -0.003341   0.626890  -0.003324
    24  H   -0.000005   0.000001   0.004382   0.000011  -0.003324   0.594241
    25  H    0.000001  -0.000005   0.000011  -0.000201  -0.003341  -0.035301
    26  H   -0.000073   0.000024  -0.000084   0.000023  -0.000146  -0.002463
    27  H    0.003143  -0.000008  -0.000005   0.000001   0.000017  -0.000160
    28  H   -0.000008  -0.000198   0.000001  -0.000005  -0.000098  -0.000044
    29  H    0.003611   0.000060  -0.000000   0.000000   0.000000  -0.000000
    30  H    0.000007   0.000000  -0.000000   0.000000   0.000000  -0.000000
    31  H   -0.000000  -0.000000  -0.000000   0.000000  -0.000000  -0.000000
    32  H    0.000000   0.000001  -0.000000   0.000000   0.000000  -0.000000
    33  H   -0.000007  -0.000024  -0.000000  -0.000001   0.000007  -0.000000
    34  H   -0.000041   0.005360  -0.000028   0.004660  -0.003663  -0.000162
    35  H   -0.000169  -0.000080  -0.000162  -0.000054  -0.003663  -0.000028
              25         26         27         28         29         30
     1  O   -0.000083   0.004264   0.000792  -0.000079  -0.000001   0.000000
     2  C    0.003539  -0.031578  -0.000816   0.003516  -0.000050  -0.000000
     3  C   -0.000299   0.007067   0.000433  -0.000383  -0.000107  -0.000000
     4  C    0.000105  -0.000083  -0.005747   0.005852   0.000110  -0.000000
     5  C    0.005248  -0.000059  -0.000010   0.000111  -0.000003  -0.000000
     6  C   -0.033161   0.004206   0.000024  -0.000783  -0.000002  -0.000000
     7  C    0.360765  -0.031524   0.005120  -0.006212  -0.000003  -0.000000
     8  C   -0.031187   0.344608  -0.037883  -0.029853  -0.000108  -0.000000
     9  C   -0.005869  -0.030373   0.361085   0.356566   0.000106  -0.000000
    10  C   -0.001155   0.003547  -0.031878  -0.032906  -0.007935  -0.000168
    11  C   -0.000091  -0.000099  -0.009030  -0.001801  -0.048397   0.003428
    12  C    0.000000  -0.000007   0.005249  -0.000186   0.353485  -0.039277
    13  C   -0.000000  -0.000000  -0.000016  -0.000048  -0.042719   0.356749
    14  C   -0.000000   0.000000  -0.000004  -0.000010   0.004815  -0.043202
    15  C   -0.000000  -0.000000   0.000005  -0.000022   0.000422   0.004639
    16  C   -0.000003   0.000001  -0.000244   0.001199   0.005857   0.000847
    17  C   -0.003787   0.000164   0.005722  -0.005696   0.000091   0.000002
    18  H    0.000023  -0.000180  -0.000073   0.000024   0.000005   0.000000
    19  H    0.000001  -0.000073   0.003143  -0.000008   0.003611   0.000007
    20  H   -0.000005   0.000024  -0.000008  -0.000198   0.000060   0.000000
    21  H    0.000011  -0.000084  -0.000005   0.000001  -0.000000  -0.000000
    22  H   -0.000201   0.000023   0.000001  -0.000005   0.000000   0.000000
    23  H   -0.003341  -0.000146   0.000017  -0.000098   0.000000   0.000000
    24  H   -0.035301  -0.002463  -0.000160  -0.000044  -0.000000  -0.000000
    25  H    0.600435  -0.003977  -0.000059   0.005707   0.000000   0.000000
    26  H   -0.003977   0.600263  -0.002788  -0.003821   0.000005   0.000000
    27  H   -0.000059  -0.002788   0.591171  -0.034470   0.003620   0.000007
    28  H    0.005707  -0.003821  -0.034470   0.594647   0.000061   0.000000
    29  H    0.000000   0.000005   0.003620   0.000061   0.604371  -0.005755
    30  H    0.000000   0.000000   0.000007   0.000000  -0.005755   0.598436
    31  H    0.000000  -0.000000  -0.000000  -0.000000  -0.000188  -0.005418
    32  H    0.000000   0.000000   0.000000   0.000001   0.000018  -0.000194
    33  H   -0.000001   0.000000  -0.000007  -0.000024  -0.000177   0.000017
    34  H   -0.000054   0.000018  -0.000169  -0.000080   0.000003   0.000000
    35  H    0.004660  -0.000077  -0.000041   0.005358   0.000003   0.000000
              31         32         33         34         35
     1  O    0.000000   0.000000   0.000000   0.000000   0.000000
     2  C    0.000000  -0.000000  -0.000001   0.000163   0.000163
     3  C   -0.000000  -0.000000  -0.000005  -0.001136  -0.000159
     4  C    0.000000   0.000002   0.000244  -0.005909   0.006019
     5  C    0.000000  -0.000000  -0.000004  -0.003717   0.005175
     6  C   -0.000000  -0.000000   0.000039  -0.035762  -0.035762
     7  C    0.000000  -0.000000  -0.000004   0.005175  -0.003717
     8  C   -0.000000  -0.000000  -0.000005  -0.000159  -0.001136
     9  C    0.000000   0.000002   0.000243   0.006020  -0.005908
    10  C    0.000009  -0.000166  -0.016504  -0.031125  -0.031132
    11  C    0.000751   0.003630  -0.040168  -0.005933  -0.005925
    12  C    0.004708   0.000849   0.006379  -0.000069  -0.000069
    13  C   -0.043106   0.004635   0.000365  -0.000002  -0.000002
    14  C    0.358578  -0.043641   0.004901  -0.000006  -0.000006
    15  C   -0.042936   0.356109  -0.049680   0.000037   0.000036
    16  C    0.004587  -0.038817   0.353646   0.001644   0.001646
    17  C   -0.000000   0.000005   0.008080   0.358539   0.358548
    18  H   -0.000000   0.000000   0.000000  -0.000077   0.000018
    19  H   -0.000000   0.000000  -0.000007  -0.000041  -0.000169
    20  H   -0.000000   0.000001  -0.000024   0.005360  -0.000080
    21  H   -0.000000  -0.000000  -0.000000  -0.000028  -0.000162
    22  H    0.000000   0.000000  -0.000001   0.004660  -0.000054
    23  H   -0.000000   0.000000   0.000007  -0.003663  -0.003663
    24  H   -0.000000  -0.000000  -0.000000  -0.000162  -0.000028
    25  H    0.000000   0.000000  -0.000001  -0.000054   0.004660
    26  H   -0.000000   0.000000   0.000000   0.000018  -0.000077
    27  H   -0.000000   0.000000  -0.000007  -0.000169  -0.000041
    28  H   -0.000000   0.000001  -0.000024  -0.000080   0.005358
    29  H   -0.000188   0.000018  -0.000177   0.000003   0.000003
    30  H   -0.005418  -0.000194   0.000017   0.000000   0.000000
    31  H    0.600052  -0.005520  -0.000184   0.000000   0.000000
    32  H   -0.005520   0.600640  -0.005776   0.000004   0.000004
    33  H   -0.000184  -0.005776   0.606235   0.002269   0.002265
    34  H    0.000000   0.000004   0.002269   0.606885  -0.039137
    35  H    0.000000   0.000004   0.002265  -0.039137   0.606875
 Mulliken charges:
               1
     1  O   -0.460200
     2  C    0.453705
     3  C   -0.167002
     4  C   -0.288317
     5  C   -0.279874
     6  C   -0.096500
     7  C   -0.279879
     8  C   -0.167003
     9  C   -0.288328
    10  C   -0.000542
    11  C    0.164796
    12  C   -0.185840
    13  C   -0.134207
    14  C   -0.126756
    15  C   -0.134691
    16  C   -0.190365
    17  C   -0.293695
    18  H    0.143144
    19  H    0.147015
    20  H    0.143672
    21  H    0.144203
    22  H    0.138078
    23  H    0.126112
    24  H    0.144203
    25  H    0.138079
    26  H    0.143144
    27  H    0.147016
    28  H    0.143682
    29  H    0.128801
    30  H    0.129882
    31  H    0.128665
    32  H    0.128215
    33  H    0.127879
    34  H    0.136453
    35  H    0.136457
 Sum of Mulliken charges =  -0.00000
 Mulliken charges with hydrogens summed into heavy atoms:
               1
     1  O   -0.460200
     2  C    0.453705
     3  C   -0.023858
     4  C    0.002370
     5  C    0.002407
     6  C    0.029612
     7  C    0.002402
     8  C   -0.023859
     9  C    0.002370
    10  C   -0.000542
    11  C    0.164796
    12  C   -0.057039
    13  C   -0.004325
    14  C    0.001909
    15  C   -0.006476
    16  C   -0.062486
    17  C   -0.020786
 APT charges:
               1
     1  O   -0.645239
     2  C    0.699377
     3  C   -0.049908
     4  C    0.081251
     5  C    0.113046
     6  C    0.116825
     7  C    0.113037
     8  C   -0.049891
     9  C    0.081214
    10  C    0.093255
    11  C    0.068351
    12  C   -0.085983
    13  C    0.017342
    14  C   -0.044014
    15  C    0.012800
    16  C   -0.081615
    17  C    0.056155
    18  H   -0.058952
    19  H   -0.025617
    20  H   -0.037548
    21  H   -0.045498
    22  H   -0.044409
    23  H   -0.076209
    24  H   -0.045496
    25  H   -0.044408
    26  H   -0.058948
    27  H   -0.025596
    28  H   -0.037545
    29  H    0.026228
    30  H    0.006521
    31  H    0.010951
    32  H    0.004227
    33  H    0.035240
    34  H   -0.039469
    35  H   -0.039475
 Sum of APT charges =   0.00000
 APT charges with hydrogens summed into heavy atoms:
               1
     1  O   -0.645239
     2  C    0.699377
     3  C   -0.108861
     4  C    0.018087
     5  C    0.023140
     6  C    0.040616
     7  C    0.023133
     8  C   -0.108840
     9  C    0.018073
    10  C    0.093255
    11  C    0.068351
    12  C   -0.059755
    13  C    0.023863
    14  C   -0.033063
    15  C    0.017027
    16  C   -0.046375
    17  C   -0.022790
 Electronic spatial extent (au):  <R**2>=           3957.6924
 Charge=             -0.0000 electrons
 Dipole moment (field-independent basis, Debye):
    X=             -1.7686    Y=              2.5087    Z=              0.0010  Tot=              3.0695
 Quadrupole moment (field-independent basis, Debye-Ang):
   XX=           -105.5149   YY=           -101.6390   ZZ=           -100.5445
   XY=             10.0932   XZ=              0.0015   YZ=             -0.0031
 Traceless Quadrupole moment (field-independent basis, Debye-Ang):
   XX=             -2.9488   YY=              0.9271   ZZ=              2.0217
   XY=             10.0932   XZ=              0.0015   YZ=             -0.0031
 Octapole moment (field-independent basis, Debye-Ang**2):
  XXX=            -49.8151  YYY=              6.0997  ZZZ=             -0.0005  XYY=            -27.9204
  XXY=             32.2831  XXZ=              0.0139  XZZ=             19.4848  YZZ=             -1.6465
  YYZ=              0.0044  XYZ=             -0.0031
 Hexadecapole moment (field-independent basis, Debye-Ang**3):
 XXXX=          -3733.1631 YYYY=           -950.7392 ZZZZ=           -546.9430 XXXY=            107.2565
 XXXZ=              0.0060 YYYX=             36.7376 YYYZ=             -0.0127 ZZZX=             -0.0132
 ZZZY=              0.0037 XXYY=           -837.0938 XXZZ=           -767.3388 YYZZ=           -252.1857
 XXYZ=             -0.0348 YYXZ=              0.0095 ZZXY=            -12.7724
 N-N= 1.225462495115D+03 E-N=-4.063822608500D+03  KE= 6.891205432569D+02
  Exact polarizability: 199.020  -1.769 153.438  -0.004  -0.006 110.230
 Approx polarizability: 271.018 -11.987 262.338  -0.011  -0.011 168.527
 Calling FoFJK, ICntrl=    100127 FMM=F ISym2X=0 I1Cent= 0 IOpClX= 0 NMat=1 NMatS=1 NMatT=0.
 Full mass-weighted force constant matrix:
 Low frequencies ---   -5.5659    0.0004    0.0005    0.0009    4.9580    8.7814
 Low frequencies ---   50.3159   79.3590   91.6394
 Diagonal vibrational polarizability:
       11.3468936       7.0203963       8.5891797
 Harmonic frequencies (cm**-1), IR intensities (KM/Mole), Raman scattering
 activities (A**4/AMU), depolarization ratios for plane and unpolarized
 incident light, reduced masses (AMU), force constants (mDyne/A),
 and normal coordinates:
                      1                      2                      3
                      A                      A                      A
 Frequencies --     50.2956                79.3588                91.6387
 Red. masses --      3.8730                 9.6827                 3.8302
 Frc consts  --      0.0058                 0.0359                 0.0190
 IR Inten    --      0.1332                 3.0153                 0.0193
  Atom  AN      X      Y      Z        X      Y      Z        X      Y      Z
     1   8    -0.00  -0.00   0.11     0.54   0.36   0.00    -0.00  -0.00   0.04
     2   6    -0.00  -0.00   0.06     0.12   0.03   0.00    -0.00   0.00   0.02
     3   6     0.03  -0.05   0.02    -0.04  -0.09   0.00     0.08   0.03  -0.00
     4   6     0.03  -0.04  -0.01    -0.04  -0.11   0.02     0.08   0.04  -0.12
     5   6     0.03  -0.05  -0.03    -0.05  -0.08  -0.01     0.10   0.03   0.08
     6   6     0.00   0.00  -0.07    -0.04  -0.09  -0.00    -0.00   0.00   0.05
     7   6    -0.03   0.05  -0.03    -0.05  -0.08   0.01    -0.10  -0.03   0.08
     8   6    -0.03   0.05   0.02    -0.04  -0.09  -0.00    -0.08  -0.03  -0.00
     9   6    -0.03   0.04  -0.01    -0.04  -0.11  -0.02    -0.08  -0.04  -0.12
    10   6     0.00   0.00  -0.05    -0.04  -0.09  -0.00     0.00   0.00  -0.14
    11   6     0.00   0.00  -0.04    -0.05  -0.03  -0.00     0.00  -0.00  -0.15
    12   6     0.00  -0.00  -0.23    -0.13   0.01  -0.00     0.00  -0.00  -0.03
    13   6     0.00  -0.00  -0.19    -0.15   0.10   0.00     0.00  -0.00   0.18
    14   6     0.00  -0.00   0.06    -0.08   0.16   0.00     0.00  -0.00   0.24
    15   6    -0.00  -0.00   0.26     0.00   0.12   0.00     0.00  -0.00   0.06
    16   6    -0.00   0.00   0.20     0.01   0.03  -0.00     0.00  -0.00  -0.14
    17   6     0.00   0.00  -0.09    -0.03  -0.09  -0.00    -0.00   0.00  -0.07
    18   1     0.04  -0.08   0.05    -0.03  -0.08   0.00     0.15   0.06   0.01
    19   1     0.03  -0.04   0.01    -0.03  -0.12   0.05     0.07   0.04  -0.18
    20   1     0.05  -0.07  -0.04    -0.04  -0.15   0.00     0.15   0.07  -0.13
    21   1     0.03  -0.05  -0.01    -0.06  -0.08  -0.04     0.10   0.02   0.17
    22   1     0.05  -0.09  -0.06    -0.08  -0.08  -0.00     0.18   0.06   0.06
    23   1     0.00   0.00  -0.11    -0.04  -0.09   0.00    -0.00   0.00   0.10
    24   1    -0.03   0.05  -0.01    -0.06  -0.08   0.04    -0.10  -0.02   0.17
    25   1    -0.05   0.09  -0.06    -0.08  -0.08   0.00    -0.18  -0.06   0.06
    26   1    -0.05   0.08   0.05    -0.03  -0.08  -0.00    -0.15  -0.06   0.01
    27   1    -0.03   0.04   0.01    -0.03  -0.12  -0.05    -0.07  -0.04  -0.17
    28   1    -0.05   0.07  -0.04    -0.04  -0.15  -0.00    -0.15  -0.07  -0.13
    29   1     0.00   0.00  -0.41    -0.19  -0.03  -0.00     0.00  -0.00  -0.06
    30   1     0.00  -0.00  -0.34    -0.21   0.13   0.00     0.00  -0.00   0.30
    31   1     0.00  -0.00   0.11    -0.09   0.22   0.00     0.00  -0.00   0.42
    32   1    -0.00  -0.00   0.46     0.06   0.16   0.00     0.00  -0.00   0.08
    33   1    -0.00   0.00   0.35     0.07   0.00  -0.00    -0.00  -0.00  -0.25
    34   1    -0.00  -0.03  -0.11    -0.03  -0.10  -0.00     0.07   0.02  -0.09
    35   1     0.00   0.03  -0.11    -0.03  -0.10  -0.00    -0.07  -0.02  -0.09
                      4                      5                      6
                      A                      A                      A
 Frequencies --    162.0290               245.0969               272.0938
 Red. masses --      3.9114                 2.7723                 5.3446
 Frc consts  --      0.0605                 0.0981                 0.2331
 IR Inten    --      0.5276                 0.5129                 0.2280
  Atom  AN      X      Y      Z        X      Y      Z        X      Y      Z
     1   8    -0.10  -0.07  -0.00     0.00  -0.00  -0.00    -0.04   0.07  -0.00
     2   6     0.07   0.06   0.00     0.00  -0.00  -0.02    -0.11   0.01  -0.00
     3   6     0.08   0.07   0.00    -0.00  -0.01  -0.02    -0.12  -0.04  -0.02
     4   6     0.08  -0.10   0.00    -0.02   0.06  -0.08    -0.09  -0.05  -0.00
     5   6    -0.06   0.11  -0.00     0.13  -0.05   0.04    -0.18  -0.02  -0.04
     6   6    -0.11   0.06  -0.00     0.00   0.00  -0.04    -0.10  -0.02   0.00
     7   6    -0.06   0.11   0.00    -0.13   0.05   0.04    -0.18  -0.02   0.04
     8   6     0.08   0.07   0.00     0.00   0.01  -0.02    -0.12  -0.04   0.02
     9   6     0.08  -0.10  -0.00     0.02  -0.06  -0.08    -0.09  -0.05   0.00
    10   6     0.03  -0.14   0.00     0.00   0.00  -0.03     0.01  -0.01   0.00
    11   6     0.02  -0.12   0.00    -0.00  -0.00   0.11     0.11   0.03   0.00
    12   6    -0.08  -0.07  -0.00    -0.00   0.00   0.16     0.20   0.01   0.00
    13   6    -0.11   0.06  -0.00    -0.00  -0.00   0.02     0.22   0.01   0.00
    14   6    -0.01   0.14  -0.00    -0.00  -0.00  -0.13     0.24   0.02  -0.00
    15   6     0.10   0.09   0.00    -0.00  -0.00   0.01     0.20   0.04  -0.00
    16   6     0.11  -0.05   0.00    -0.00  -0.00   0.16     0.18   0.06   0.00
    17   6    -0.08  -0.10  -0.00     0.00   0.00  -0.11    -0.06  -0.01  -0.00
    18   1     0.13   0.10   0.00    -0.00  -0.02  -0.02    -0.09  -0.04  -0.00
    19   1     0.20  -0.14   0.03    -0.07   0.08  -0.18    -0.10  -0.05   0.05
    20   1     0.03  -0.16  -0.00     0.04   0.17  -0.04    -0.14  -0.08   0.00
    21   1    -0.07   0.22  -0.02     0.14  -0.16   0.23    -0.18   0.01  -0.14
    22   1    -0.12   0.08   0.00     0.33  -0.01  -0.02    -0.28  -0.03   0.00
    23   1    -0.21   0.09  -0.00     0.00   0.00  -0.06    -0.06  -0.03   0.00
    24   1    -0.07   0.22   0.02    -0.14   0.16   0.23    -0.18   0.01   0.14
    25   1    -0.12   0.08  -0.00    -0.33   0.01  -0.02    -0.28  -0.03  -0.00
    26   1     0.13   0.10  -0.00     0.00   0.02  -0.02    -0.09  -0.04   0.00
    27   1     0.20  -0.14  -0.03     0.07  -0.08  -0.18    -0.10  -0.05  -0.05
    28   1     0.03  -0.16   0.00    -0.04  -0.17  -0.04    -0.14  -0.08  -0.00
    29   1    -0.16  -0.13   0.00    -0.00  -0.00   0.22     0.23   0.04   0.00
    30   1    -0.20   0.10  -0.00    -0.00  -0.00  -0.01     0.20   0.01   0.00
    31   1    -0.02   0.23  -0.00    -0.00  -0.00  -0.31     0.24   0.01  -0.00
    32   1     0.19   0.15   0.00    -0.00  -0.00  -0.02     0.17   0.02  -0.00
    33   1     0.19  -0.09   0.00    -0.00  -0.00   0.21     0.20   0.05   0.00
    34   1    -0.13  -0.14  -0.00     0.02  -0.08  -0.17    -0.08  -0.03  -0.00
    35   1    -0.13  -0.14  -0.00    -0.02   0.08  -0.17    -0.08  -0.03   0.00
                      7                      8                      9
                      A                      A                      A
 Frequencies --    279.7239               315.5437               323.0324
 Red. masses --      2.3410                 3.3179                 2.9643
 Frc consts  --      0.1079                 0.1946                 0.1822
 IR Inten    --      0.7036                 0.0750                 0.7690
  Atom  AN      X      Y      Z        X      Y      Z        X      Y      Z
     1   8    -0.00  -0.00   0.15     0.04  -0.11  -0.00    -0.00   0.00   0.09
     2   6    -0.00  -0.00   0.05     0.12  -0.04   0.00    -0.00   0.00   0.02
     3   6    -0.01  -0.04   0.00     0.07  -0.03   0.03     0.11   0.07  -0.02
     4   6    -0.02   0.12  -0.09     0.05  -0.11   0.08     0.10  -0.05  -0.05
     5   6    -0.05  -0.03  -0.06    -0.08   0.02  -0.01    -0.05   0.12  -0.06
     6   6    -0.00   0.00  -0.04    -0.05   0.02   0.00     0.00  -0.00   0.02
     7   6     0.05   0.03  -0.06    -0.08   0.02   0.01     0.05  -0.12  -0.06
     8   6     0.01   0.04   0.00     0.07  -0.03  -0.03    -0.11  -0.07  -0.02
     9   6     0.02  -0.12  -0.09     0.05  -0.11  -0.08    -0.10   0.05  -0.05
    10   6     0.00   0.00  -0.01     0.01   0.03  -0.00     0.00  -0.00  -0.09
    11   6     0.00   0.00  -0.00    -0.02   0.16   0.00     0.00  -0.00   0.01
    12   6     0.00   0.00   0.00     0.05   0.15   0.00     0.00  -0.00   0.13
    13   6     0.00   0.00   0.01     0.07   0.02   0.00     0.00  -0.00   0.05
    14   6     0.00   0.00  -0.00    -0.02  -0.05  -0.00     0.00  -0.00  -0.12
    15   6     0.00   0.00  -0.01    -0.11  -0.01   0.00     0.00  -0.00   0.04
    16   6     0.00   0.00   0.00    -0.11   0.12   0.00     0.00  -0.00   0.12
    17   6    -0.00  -0.00   0.15    -0.02   0.02  -0.00     0.00  -0.00  -0.03
    18   1    -0.00  -0.07   0.02     0.05   0.01  -0.00     0.17   0.09  -0.01
    19   1    -0.17   0.18  -0.28     0.12  -0.14   0.27     0.18  -0.08   0.03
    20   1     0.11   0.33  -0.04     0.03  -0.31  -0.02     0.09  -0.16  -0.10
    21   1    -0.06   0.04  -0.12    -0.09   0.14  -0.12    -0.07   0.28  -0.21
    22   1    -0.13  -0.09  -0.06    -0.21  -0.04   0.01    -0.26   0.08   0.00
    23   1    -0.00   0.00  -0.09    -0.03   0.02   0.00    -0.00  -0.00   0.13
    24   1     0.06  -0.04  -0.12    -0.09   0.14   0.12     0.07  -0.28  -0.21
    25   1     0.13   0.09  -0.06    -0.21  -0.04  -0.01     0.26  -0.08   0.00
    26   1     0.00   0.07   0.02     0.05   0.01   0.00    -0.17  -0.09  -0.01
    27   1     0.17  -0.18  -0.28     0.12  -0.14  -0.27    -0.18   0.08   0.04
    28   1    -0.11  -0.33  -0.04     0.03  -0.31   0.02    -0.09   0.16  -0.10
    29   1     0.00   0.00   0.00     0.11   0.20   0.00    -0.00  -0.00   0.20
    30   1     0.00   0.00   0.02     0.17  -0.02   0.00    -0.00   0.00   0.07
    31   1     0.00  -0.00  -0.01    -0.01  -0.14  -0.00     0.00   0.00  -0.28
    32   1     0.00   0.00  -0.01    -0.19  -0.06  -0.00     0.00   0.00   0.04
    33   1     0.00   0.00   0.01    -0.20   0.16   0.00     0.00  -0.00   0.18
    34   1    -0.13   0.14   0.29    -0.05   0.00   0.00     0.04   0.05  -0.01
    35   1     0.13  -0.14   0.29    -0.05   0.00  -0.00    -0.04  -0.05  -0.01
                     10                     11                     12
                      A                      A                      A
 Frequencies --    377.4248               399.0640               417.3129
 Red. masses --      3.7790                 4.7866                 2.9974
 Frc consts  --      0.3172                 0.4491                 0.3076
 IR Inten    --      1.0239                 0.0199                 0.0177
  Atom  AN      X      Y      Z        X      Y      Z        X      Y      Z
     1   8    -0.13   0.15   0.00    -0.00  -0.00  -0.00    -0.00   0.00  -0.02
     2   6    -0.09   0.17   0.00     0.00   0.00   0.00    -0.00   0.00   0.00
     3   6    -0.05   0.07  -0.05     0.13   0.10   0.00    -0.01  -0.01   0.00
     4   6    -0.03  -0.13   0.02     0.10   0.14   0.16    -0.00  -0.02  -0.01
     5   6     0.07   0.02  -0.08     0.14   0.08  -0.16    -0.00  -0.01   0.01
     6   6     0.18  -0.03   0.00     0.00   0.00  -0.18    -0.00  -0.00   0.00
     7   6     0.07   0.02   0.08    -0.14  -0.08  -0.16     0.00   0.01   0.01
     8   6    -0.05   0.07   0.05    -0.13  -0.10   0.00     0.01   0.01   0.00
     9   6    -0.03  -0.13  -0.02    -0.10  -0.14   0.16     0.00   0.02  -0.01
    10   6     0.02  -0.07  -0.00     0.00  -0.00   0.19    -0.00  -0.00  -0.02
    11   6    -0.01   0.03  -0.00     0.00   0.00   0.05    -0.00   0.00  -0.02
    12   6    -0.01   0.03  -0.00     0.00  -0.00  -0.05     0.00   0.00  -0.21
    13   6    -0.01  -0.01  -0.00     0.00  -0.00   0.00     0.00   0.00   0.22
    14   6    -0.03  -0.03   0.00     0.00  -0.00   0.05     0.00  -0.00  -0.01
    15   6    -0.04  -0.02   0.00     0.00  -0.00  -0.05    -0.00   0.00  -0.20
    16   6    -0.03   0.02  -0.00     0.00   0.00  -0.01    -0.00   0.00   0.22
    17   6     0.17  -0.09  -0.00     0.00   0.00  -0.00    -0.00  -0.00   0.01
    18   1    -0.01  -0.02   0.02    -0.00   0.00   0.00     0.00  -0.01   0.01
    19   1     0.16  -0.20   0.21     0.13   0.13   0.04     0.02  -0.02   0.01
    20   1    -0.20  -0.34  -0.02     0.05   0.22   0.23    -0.00  -0.04  -0.02
    21   1     0.07  -0.11  -0.18     0.14   0.13  -0.06    -0.00  -0.02   0.02
    22   1     0.03   0.13  -0.00     0.19   0.00  -0.22     0.01  -0.01   0.01
    23   1     0.13  -0.01   0.00     0.00   0.00  -0.05    -0.00   0.00  -0.01
    24   1     0.07  -0.11   0.18    -0.14  -0.13  -0.06     0.00   0.02   0.02
    25   1     0.03   0.13   0.00    -0.19  -0.00  -0.22    -0.01   0.01   0.01
    26   1    -0.01  -0.02  -0.02     0.00  -0.00   0.00    -0.00   0.01   0.01
    27   1     0.16  -0.20  -0.21    -0.13  -0.13   0.04    -0.02   0.02   0.01
    28   1    -0.20  -0.34   0.02    -0.05  -0.22   0.23     0.00   0.04  -0.02
    29   1    -0.00   0.03  -0.00    -0.00  -0.00  -0.11     0.00   0.00  -0.43
    30   1     0.02  -0.02  -0.00     0.00  -0.00  -0.00     0.00   0.00   0.46
    31   1    -0.03  -0.04   0.00     0.00   0.00   0.12     0.00  -0.00  -0.03
    32   1    -0.05  -0.03   0.00    -0.00  -0.00  -0.11    -0.00  -0.00  -0.42
    33   1    -0.05   0.03  -0.00    -0.00   0.00  -0.01    -0.00   0.00   0.47
    34   1     0.17  -0.08   0.00    -0.15  -0.15  -0.02    -0.02   0.04   0.04
    35   1     0.17  -0.08  -0.00     0.15   0.15  -0.02     0.02  -0.04   0.04
                     13                     14                     15
                      A                      A                      A
 Frequencies --    425.7449               442.9908               453.2156
 Red. masses --      2.2896                 1.8749                 2.1244
 Frc consts  --      0.2445                 0.2168                 0.2571
 IR Inten    --      0.2153                 0.1031                 0.3135
  Atom  AN      X      Y      Z        X      Y      Z        X      Y      Z
     1   8     0.01  -0.03   0.00    -0.00   0.00  -0.03     0.01  -0.01   0.00
     2   6     0.04  -0.01   0.00     0.00   0.00  -0.05    -0.01  -0.02  -0.00
     3   6     0.01  -0.02  -0.00     0.04  -0.03  -0.05    -0.04   0.01   0.05
     4   6     0.01   0.04   0.04     0.04  -0.06   0.01    -0.03  -0.04   0.11
     5   6    -0.08  -0.00  -0.10     0.07  -0.05  -0.01     0.04  -0.00   0.08
     6   6     0.11  -0.00   0.00     0.00  -0.00  -0.04    -0.01   0.08   0.00
     7   6    -0.08  -0.00   0.10    -0.07   0.05  -0.01     0.04  -0.00  -0.08
     8   6     0.01  -0.02   0.00    -0.04   0.03  -0.05    -0.04   0.01  -0.05
     9   6     0.01   0.04  -0.04    -0.04   0.06   0.01    -0.03  -0.04  -0.11
    10   6     0.03   0.10  -0.00     0.00  -0.00  -0.03    -0.03   0.10   0.00
    11   6     0.02  -0.07   0.00     0.00  -0.00  -0.05     0.00  -0.05   0.00
    12   6    -0.04  -0.07  -0.00    -0.00   0.00   0.03    -0.00  -0.06   0.00
    13   6    -0.06  -0.01   0.00    -0.00   0.00   0.01    -0.01  -0.01   0.00
    14   6    -0.04   0.01   0.00    -0.00  -0.00  -0.04     0.02   0.02  -0.00
    15   6     0.02  -0.02  -0.00    -0.00  -0.00   0.03     0.04   0.00  -0.00
    16   6     0.02  -0.08   0.00    -0.00  -0.00  -0.00     0.04  -0.04   0.00
    17   6     0.08   0.14  -0.00     0.00  -0.00   0.17    -0.03   0.13   0.00
    18   1    -0.04  -0.05  -0.01     0.04  -0.03  -0.05    -0.08   0.04   0.01
    19   1    -0.05   0.05   0.12     0.10  -0.09   0.14     0.05  -0.08   0.39
    20   1     0.03  -0.01   0.01    -0.01  -0.20  -0.04    -0.11  -0.31   0.01
    21   1    -0.09   0.10  -0.40     0.08  -0.09   0.14     0.05  -0.12   0.24
    22   1    -0.38  -0.04   0.00     0.22  -0.03  -0.06     0.24  -0.00  -0.00
    23   1     0.22  -0.03   0.00     0.00  -0.00  -0.09     0.05   0.06   0.00
    24   1    -0.09   0.10   0.40    -0.08   0.09   0.14     0.05  -0.12  -0.24
    25   1    -0.38  -0.04  -0.00    -0.22   0.03  -0.06     0.24  -0.00   0.00
    26   1    -0.04  -0.05   0.01    -0.04   0.03  -0.05    -0.08   0.04  -0.01
    27   1    -0.05   0.05  -0.12    -0.10   0.09   0.14     0.05  -0.08  -0.39
    28   1     0.03  -0.01  -0.01     0.01   0.20  -0.04    -0.11  -0.31  -0.01
    29   1    -0.10  -0.11  -0.00    -0.00   0.00   0.10    -0.03  -0.08   0.00
    30   1    -0.10   0.00   0.00    -0.00   0.00   0.04    -0.05   0.01   0.00
    31   1    -0.04   0.05   0.00    -0.00  -0.00  -0.07     0.02   0.05  -0.00
    32   1     0.07   0.02  -0.00     0.00   0.00   0.09     0.07   0.02  -0.00
    33   1     0.06  -0.09   0.00    -0.00  -0.00   0.03     0.08  -0.06   0.00
    34   1     0.12   0.16  -0.00    -0.20   0.26   0.42    -0.01   0.14  -0.00
    35   1     0.12   0.16   0.00     0.20  -0.26   0.42    -0.01   0.14   0.00
                     16                     17                     18
                      A                      A                      A
 Frequencies --    465.9487               547.2778               612.0163
 Red. masses --      4.3194                 3.0786                 5.3189
 Frc consts  --      0.5525                 0.5433                 1.1738
 IR Inten    --     13.0012                 3.4987                 0.6926
  Atom  AN      X      Y      Z        X      Y      Z        X      Y      Z
     1   8    -0.00  -0.00   0.31     0.00   0.00  -0.05     0.14  -0.17  -0.00
     2   6     0.00   0.00  -0.18    -0.00  -0.00   0.04     0.06  -0.19  -0.00
     3   6    -0.03   0.03  -0.21     0.04  -0.00   0.03    -0.09   0.06   0.05
     4   6    -0.07  -0.02   0.01     0.02  -0.05  -0.08    -0.15  -0.02   0.00
     5   6     0.03   0.06   0.02     0.01   0.00  -0.01     0.03   0.15   0.02
     6   6    -0.00  -0.00   0.06    -0.00   0.00  -0.02     0.16   0.19   0.00
     7   6    -0.03  -0.06   0.02    -0.01  -0.00  -0.01     0.03   0.15  -0.02
     8   6     0.03  -0.03  -0.21    -0.04   0.00   0.03    -0.09   0.06  -0.05
     9   6     0.07   0.02   0.01    -0.02   0.05  -0.08    -0.15  -0.02  -0.00
    10   6     0.00  -0.00   0.06     0.00  -0.00  -0.06    -0.09  -0.10  -0.00
    11   6    -0.00   0.00   0.09     0.00   0.00   0.28    -0.09   0.02  -0.00
    12   6     0.00   0.00  -0.04     0.00  -0.00   0.04    -0.06  -0.02   0.00
    13   6     0.00   0.00  -0.03    -0.00  -0.00  -0.13    -0.03  -0.11   0.00
    14   6    -0.00   0.00   0.07     0.00   0.00   0.19     0.09  -0.02  -0.00
    15   6    -0.00   0.00  -0.05    -0.00  -0.00  -0.14     0.06   0.00   0.00
    16   6    -0.00   0.00  -0.00     0.00   0.00   0.05     0.04   0.10  -0.00
    17   6     0.00  -0.00   0.00     0.00  -0.00   0.02     0.14  -0.12  -0.00
    18   1    -0.13   0.16  -0.34     0.12  -0.02   0.08    -0.17   0.23  -0.09
    19   1    -0.01  -0.05   0.11     0.07  -0.07  -0.03    -0.11  -0.02  -0.17
    20   1    -0.24  -0.10   0.05     0.06  -0.11  -0.13    -0.13   0.10   0.06
    21   1     0.04  -0.02   0.11     0.01   0.02  -0.00     0.03   0.06  -0.19
    22   1     0.14   0.21   0.06     0.01  -0.03  -0.02    -0.10   0.11   0.05
    23   1    -0.00  -0.00   0.10    -0.00   0.00  -0.00    -0.04   0.25   0.00
    24   1    -0.04   0.02   0.11    -0.01  -0.02  -0.00     0.03   0.06   0.19
    25   1    -0.14  -0.21   0.06    -0.01   0.03  -0.02    -0.10   0.11  -0.05
    26   1     0.13  -0.16  -0.34    -0.12   0.02   0.08    -0.17   0.23   0.09
    27   1     0.01   0.05   0.11    -0.07   0.07  -0.03    -0.11  -0.02   0.17
    28   1     0.24   0.10   0.05    -0.06   0.11  -0.13    -0.13   0.10  -0.06
    29   1     0.00   0.00  -0.12    -0.00  -0.00  -0.25     0.03   0.04  -0.00
    30   1     0.00  -0.00  -0.09    -0.00  -0.00  -0.47    -0.07  -0.10   0.00
    31   1    -0.00  -0.00   0.12     0.00   0.00   0.23     0.08   0.07  -0.00
    32   1    -0.00  -0.00  -0.13    -0.00  -0.00  -0.48    -0.03  -0.06   0.00
    33   1    -0.00   0.00  -0.06    -0.00   0.00  -0.22     0.08   0.08  -0.00
    34   1     0.04  -0.06  -0.05    -0.05   0.13   0.12     0.11  -0.13   0.01
    35   1    -0.04   0.06  -0.05     0.05  -0.13   0.12     0.11  -0.13  -0.01
                     19                     20                     21
                      A                      A                      A
 Frequencies --    625.7813               637.0510               637.9951
 Red. masses --      6.8486                 3.4759                 6.3255
 Frc consts  --      1.5801                 0.8311                 1.5170
 IR Inten    --      2.0787                 2.3875                 0.0552
  Atom  AN      X      Y      Z        X      Y      Z        X      Y      Z
     1   8     0.03   0.03   0.00    -0.00   0.00  -0.04     0.05  -0.03  -0.00
     2   6    -0.19  -0.14  -0.00     0.00   0.00  -0.14    -0.04  -0.09  -0.00
     3   6    -0.06  -0.05  -0.00     0.13  -0.14  -0.10    -0.04   0.00   0.00
     4   6     0.03  -0.10  -0.13     0.14   0.01   0.05    -0.03  -0.04  -0.04
     5   6    -0.08   0.03   0.11    -0.05  -0.12   0.07    -0.00   0.05   0.02
     6   6     0.02   0.24   0.00    -0.00  -0.00   0.08     0.06   0.10   0.00
     7   6    -0.08   0.03  -0.11     0.05   0.12   0.07    -0.00   0.05  -0.02
     8   6    -0.06  -0.05   0.00    -0.13   0.14  -0.10    -0.04   0.01  -0.00
     9   6     0.03  -0.10   0.13    -0.14  -0.01   0.05    -0.03  -0.04   0.04
    10   6     0.24  -0.04   0.00    -0.00   0.00   0.08     0.03  -0.04   0.00
    11   6     0.23   0.06  -0.00    -0.00   0.00   0.02     0.04  -0.13   0.00
    12   6    -0.06   0.20  -0.00    -0.00   0.00   0.02     0.25  -0.16   0.00
    13   6    -0.08   0.08  -0.00    -0.00  -0.00  -0.02     0.21   0.27  -0.00
    14   6    -0.23  -0.06   0.00     0.00  -0.00   0.03    -0.04   0.12   0.00
    15   6     0.06  -0.20   0.00     0.00  -0.00  -0.02    -0.27   0.18  -0.00
    16   6     0.08  -0.09   0.00     0.00   0.00   0.03    -0.19  -0.24   0.00
    17   6     0.10   0.12   0.00    -0.00   0.00   0.01     0.06  -0.02   0.00
    18   1     0.16   0.11   0.01     0.10  -0.05  -0.18    -0.00   0.08  -0.03
    19   1    -0.06  -0.07  -0.15    -0.01   0.06  -0.11    -0.02  -0.04  -0.09
    20   1    -0.02  -0.00  -0.06     0.21   0.19   0.11    -0.05   0.01  -0.01
    21   1    -0.08  -0.05   0.13    -0.07   0.07  -0.09    -0.00   0.00  -0.04
    22   1     0.00  -0.04   0.03    -0.26  -0.14   0.15    -0.03   0.03   0.02
    23   1     0.15   0.21   0.00    -0.00  -0.00  -0.17     0.02   0.11  -0.00
    24   1    -0.08  -0.05  -0.13     0.07  -0.07  -0.09    -0.00  -0.00   0.04
    25   1     0.00  -0.04  -0.03     0.26   0.14   0.15    -0.02   0.03  -0.02
    26   1     0.16   0.11  -0.01    -0.10   0.05  -0.18    -0.01   0.08   0.03
    27   1    -0.06  -0.07   0.15     0.01  -0.06  -0.11    -0.02  -0.04   0.08
    28   1    -0.02  -0.00   0.06    -0.21  -0.19   0.11    -0.06   0.01   0.01
    29   1    -0.18   0.11   0.00    -0.00   0.00  -0.01     0.09  -0.26  -0.00
    30   1     0.16  -0.02   0.00    -0.00  -0.00  -0.07     0.09   0.32  -0.00
    31   1    -0.24   0.03   0.00     0.00   0.00   0.01     0.01  -0.28   0.00
    32   1     0.20  -0.09  -0.00     0.00  -0.00  -0.08    -0.12   0.29  -0.00
    33   1    -0.14  -0.00   0.00     0.00   0.00  -0.01    -0.05  -0.29  -0.00
    34   1    -0.02   0.02  -0.00     0.14  -0.19  -0.16     0.02  -0.04   0.00
    35   1    -0.02   0.02  -0.00    -0.14   0.19  -0.16     0.01  -0.04  -0.01
                     22                     23                     24
                      A                      A                      A
 Frequencies --    705.0993               715.8497               716.2217
 Red. masses --      4.4582                 3.9420                 1.7727
 Frc consts  --      1.3059                 1.1902                 0.5358
 IR Inten    --      0.2907                 2.6652                24.9203
  Atom  AN      X      Y      Z        X      Y      Z        X      Y      Z
     1   8    -0.03   0.07   0.00    -0.06   0.09   0.00     0.00  -0.00   0.00
     2   6    -0.12  -0.02  -0.00    -0.07   0.06   0.00     0.00  -0.00  -0.00
     3   6     0.05  -0.06   0.01    -0.01  -0.00   0.25    -0.01   0.00   0.00
     4   6     0.07  -0.10  -0.15     0.07   0.03   0.14    -0.00   0.00   0.00
     5   6    -0.03  -0.02   0.05    -0.04  -0.05   0.12    -0.00   0.00   0.00
     6   6     0.04   0.12   0.00     0.05   0.04   0.00    -0.00   0.00  -0.00
     7   6    -0.03  -0.02  -0.05    -0.04  -0.05  -0.12     0.00  -0.00   0.00
     8   6     0.05  -0.06  -0.01    -0.01  -0.00  -0.25     0.01  -0.00   0.00
     9   6     0.07  -0.10   0.15     0.07   0.03  -0.14     0.00  -0.00   0.00
    10   6    -0.02  -0.01  -0.00     0.01  -0.05  -0.00    -0.00   0.00  -0.00
    11   6    -0.15  -0.01   0.00    -0.01  -0.00  -0.00    -0.00  -0.00  -0.11
    12   6    -0.04  -0.14  -0.00     0.00  -0.01   0.00    -0.00  -0.00   0.08
    13   6    -0.03  -0.15   0.00     0.00   0.00  -0.00    -0.00  -0.00  -0.14
    14   6     0.17   0.02  -0.00     0.00   0.00   0.00     0.00   0.00   0.07
    15   6    -0.05   0.14   0.00    -0.02   0.01  -0.00    -0.00   0.00  -0.14
    16   6    -0.06   0.14  -0.00    -0.01   0.00   0.00    -0.00   0.00   0.07
    17   6     0.02   0.19   0.00     0.09  -0.12  -0.00    -0.00   0.00  -0.01
    18   1     0.28  -0.02   0.09    -0.03   0.02   0.23    -0.01   0.01  -0.00
    19   1     0.06  -0.10  -0.19     0.00   0.06  -0.08    -0.02   0.01   0.01
    20   1     0.14  -0.07  -0.16     0.29   0.20   0.13    -0.00   0.00   0.00
    21   1    -0.03  -0.00   0.01    -0.05   0.00  -0.09    -0.00  -0.00   0.00
    22   1    -0.05  -0.10   0.01    -0.24  -0.25   0.09     0.00   0.01   0.00
    23   1     0.24   0.07   0.00    -0.01   0.05   0.00     0.00  -0.00   0.01
    24   1    -0.03  -0.00  -0.01    -0.05   0.00   0.09     0.00   0.00   0.00
    25   1    -0.05  -0.10  -0.01    -0.24  -0.25  -0.10    -0.00  -0.01   0.00
    26   1     0.28  -0.02  -0.09    -0.03   0.02  -0.23     0.01  -0.01  -0.00
    27   1     0.06  -0.10   0.19     0.00   0.06   0.08     0.02  -0.01   0.01
    28   1     0.14  -0.07   0.16     0.29   0.20  -0.13     0.00  -0.00   0.00
    29   1     0.09  -0.05  -0.00     0.01  -0.00   0.00     0.00   0.00   0.51
    30   1    -0.22  -0.07  -0.00    -0.00   0.00   0.00    -0.00  -0.00   0.21
    31   1     0.17   0.02  -0.00     0.00  -0.02   0.00     0.00   0.00   0.57
    32   1    -0.23   0.02  -0.00    -0.02   0.01   0.00    -0.00   0.00   0.21
    33   1     0.07   0.09  -0.00     0.00   0.00   0.00     0.00   0.00   0.51
    34   1     0.02   0.19  -0.00     0.07  -0.13   0.00    -0.02  -0.00  -0.00
    35   1     0.02   0.19   0.00     0.07  -0.13  -0.00     0.02   0.00  -0.00
                     25                     26                     27
[...]
 546745,0.00013674,0.00000003,0.00002538,-0.00017419,-0.00000005,-0.000
 01601,0.00003657,-0.00002779,0.00002374,-0.00007264,0.00014276,-0.0000
 4727,-0.00000426,0.00003725,0.00000249,-0.00019573,0.00000002,-0.00005
 512,-0.00000424,-0.00003725,0.00000246,0.00003650,0.00002779,0.0000237
 3,-0.00007259,-0.00014270,-0.00004707,-0.00129786,-0.00000103,-0.00055
 435,0.00434020,-0.00000283,-0.00239330,-0.01559564,-0.00001686,-0.0196
 4600,-0.11842243,-0.00015746,-0.27119634,0.00171324,0.00000099,0.00337
 324,0.00021882,-0.00000270,0.00155451,0.00092927,0.00000044,0.00025247
 ,0.00049364,0.,-0.00026025,0.00003376,-0.00001023,-0.00003335,0.000017
 57,-0.00000422,0.00001871,-0.00000180,-0.00001361,-0.00000605,0.000016
 45,-0.00000911,-0.00001377,-0.00000536,-0.00000211,0.00000637,0.000043
 74,0.,-0.00007871,0.00001645,0.00000912,-0.00001377,-0.00000536,0.0000
 0212,0.00000636,0.00003376,0.00001024,-0.00003335,0.00001757,0.0000042
 0,0.00001862,-0.00000182,0.00001365,-0.00000609,0.00021343,0.00000244,
 0.00104163,0.12792743,0.00017412,0.28719030,-0.00004071,0.00000003,0.0
 0000189,0.00004712,-0.00000007,-0.00000005,0.00002787,-0.00000642,0.00
 000596,-0.00004899,-0.00000480,-0.00003190,-0.00001578,-0.00000474,-0.
 00000329,0.00003234,0.00000002,0.00002670,-0.00001582,0.00000473,-0.00
 000326,0.00002798,0.00000648,0.00000602,-0.00004916,0.00000473,-0.0000
 3196,0.00011647,0.00000029,0.00001900,-0.00079481,-0.00000054,-0.00096
 327,-0.00545806,-0.00000511,-0.00188714,-0.01103597,0.00001072,0.02944
 719,-0.13587854,0.00002979,0.12348487,0.01223446,-0.00000399,-0.014396
 72,-0.00100855,-0.00000353,-0.00284658,-0.00005336,-0.00000003,-0.0000
 0335,-0.00000724,0.00000311,0.00000722,0.00006815,-0.00004263,0.000018
 96,0.00000999,0.00000942,0.00001750,0.00000349,-0.00000342,0.00001326,
 0.00000355,0.00000206,-0.00000175,-0.00000288,0.,0.00001716,0.00000350
 ,0.00000343,0.00001328,0.00000355,-0.00000205,-0.00000176,-0.00000724,
 -0.00000310,0.00000721,0.00006834,0.00004266,0.00001904,0.00001000,-0.
 00000940,0.00001750,-0.00079559,0.00000041,0.00148134,0.00111083,0.000
 00138,-0.00039773,0.14010949,0.00000004,-0.00000258,0.,-0.00000006,0.0
 0000397,0.,0.00005124,-0.00003060,0.00002321,0.00003901,0.00003320,-0.
 00005735,0.00000255,0.00000460,0.00001026,0.00000002,-0.00002635,0.000
 00006,-0.00000254,0.00000458,-0.00001029,-0.00005122,-0.00003052,-0.00
 002321,-0.00003881,0.00003313,0.00005708,0.00000055,-0.00099583,0.0000
 0030,-0.00000084,-0.00063572,0.00000019,-0.00000473,0.00709316,-0.0000
 0304,-0.00000542,0.00198608,0.00001067,0.00003112,-0.03503360,-0.00007
 660,0.00001096,0.00210014,-0.00001316,-0.00000402,0.00738478,-0.000005
 19,-0.00000003,-0.00000854,-0.00000008,0.00001139,0.00000007,-0.000014
 36,0.00004003,-0.00001508,0.00001792,-0.00000184,0.00002152,-0.0000188
 6,0.00000311,-0.00000157,0.00000206,-0.00000170,-0.00000303,-0.0000010
 0,0.,0.00000076,0.,-0.00000309,-0.00000155,-0.00000206,0.00000169,-0.0
 0000304,0.00000100,-0.00001137,0.00000008,0.00001434,-0.00004004,-0.00
 001506,-0.00001796,0.00000184,0.00002152,0.00001890,-0.00000051,0.0002
 5152,0.00000033,0.00000183,-0.00372390,0.00000225,-0.00003071,0.025200
 26,0.00007230,0.,0.00000260,-0.00008662,0.,-0.00000676,0.00000689,-0.0
 0000441,0.00000441,0.00001333,0.00004539,0.00000085,0.00001229,0.00002
 307,-0.00001672,-0.00000252,0.00000006,0.00006730,0.00001232,-0.000023
 09,-0.00001674,0.00000693,0.00000444,0.00000443,0.00001340,-0.00004544
 ,0.00000083,0.00000938,0.00000053,0.00003843,-0.00090338,0.00000021,0.
 00011284,-0.00057064,-0.00000303,0.00146553,-0.00235425,0.00000057,0.0
 0442702,0.12348200,-0.00007432,-0.26377977,0.01742834,-0.00000514,-0.0
 1891051,-0.00423723,-0.00000592,-0.00293447,0.00004437,-0.00000013,-0.
 00005895,0.00001649,-0.00000502,-0.00001207,0.00000214,-0.00000433,0.0
 0000056,-0.00000670,0.00000458,-0.00000440,0.00001437,-0.00000909,-0.0
 0001244,-0.00000545,0.00000024,0.00000581,0.00000083,0.,-0.00001985,0.
 00001437,0.00000910,-0.00001244,-0.00000546,-0.00000024,0.00000581,0.0
 0001650,0.00000502,-0.00001209,0.00000216,0.00000435,0.00000057,-0.000
 00670,-0.00000459,-0.00000442,-0.00020081,-0.00000019,0.00009711,0.000
 41945,0.00000239,0.00079967,-0.13378668,0.00008298,0.27874467,-0.00008
 968,0.00000002,-0.00000593,0.00011720,-0.00000004,0.00001027,-0.000039
 26,0.00007138,-0.00003397,-0.00007301,-0.00016408,0.00018363,-0.000019
 42,-0.00002705,-0.00001279,0.00005489,-0.00000003,-0.00001601,-0.00001
 943,0.00002705,-0.00001277,-0.00003927,-0.00007138,-0.00003397,-0.0000
 7306,0.00016405,0.00018371,-0.00041130,-0.00000020,-0.00063735,0.00072
 011,-0.00000067,0.00325694,0.00080140,0.00000043,0.00010086,0.00073491
 ,-0.00000288,-0.00322578,-0.01115295,-0.00000250,0.00218505,-0.3372094
 7,-0.00008010,-0.00955252,-0.01272997,-0.00000472,-0.00290252,-0.00013
 441,0.00000007,-0.00004883,-0.00003251,0.00000387,0.00004259,0.0000095
 1,-0.00000409,-0.00000626,0.00001201,0.00001467,0.00000075,-0.00000580
 ,0.00000353,0.00001941,0.00000983,0.00000672,-0.00000374,-0.00000552,0
 .,0.00004656,-0.00000580,-0.00000353,0.00001942,0.00000983,-0.00000671
 ,-0.00000375,-0.00003251,-0.00000386,0.00004260,0.00000953,0.00000410,
 -0.00000627,0.00001201,-0.00001465,0.00000075,-0.00009611,0.00000023,0
 .00000856,-0.00068214,-0.00000032,0.00016914,0.00088778,0.00000100,-0.
 00027909,0.35844096,0.00000001,-0.00001540,0.,-0.00000002,0.00004263,0
 .,-0.00000356,0.00001230,0.00001348,-0.00004067,0.00006932,0.00009829,
 -0.00000343,0.00000356,0.00001289,-0.00000001,0.00003169,-0.00000004,0
 .00000340,0.00000356,-0.00001286,0.00000368,0.00001236,-0.00001345,0.0
 0004080,0.00006922,-0.00009853,0.00000046,0.00009974,-0.00000006,-0.00
 000269,0.00712940,-0.00000518,0.00000002,-0.00037262,0.00000117,-0.000
 00176,0.00705016,-0.00000630,-0.00001755,0.00254920,-0.00000025,-0.000
 07963,-0.03542294,-0.00001059,0.00001059,0.00218354,-0.00000113,-0.000
 00005,-0.00009340,0.00000020,-0.00000371,0.00000195,0.00000578,0.00000
 194,-0.00002927,-0.00000066,0.00000323,-0.00001145,-0.00000172,0.00000
 073,0.00000176,0.00000318,-0.00000209,-0.00000520,-0.00000101,0.,-0.00
 000011,0.,-0.00000072,0.00000176,-0.00000317,0.00000209,-0.00000520,0.
 00000101,0.00000374,0.00000196,-0.00000581,-0.00000187,-0.00002928,0.0
 0000075,-0.00000327,-0.00001146,0.00000167,0.00000057,-0.00124260,0.00
 000069,-0.00000080,0.00035443,-0.00000013,0.00000151,-0.00391415,0.000
 00224,0.00008830,0.02538433,0.00004144,0.,0.00000862,-0.00006648,0.,-0
 .00000125,0.00004687,-0.00007717,0.00002373,0.00007113,0.00013979,-0.0
 0021064,0.00000495,0.00000959,0.00001976,-0.00003987,-0.00000001,-0.00
 001828,0.00000494,-0.00000959,0.00001979,0.00004692,0.00007718,0.00002
 377,0.00007115,-0.00013990,-0.00021070,0.00101775,0.00000027,0.0006124
 4,0.00203597,-0.00000369,-0.00457908,0.00006459,-0.00000046,-0.0013145
 3,-0.00181164,-0.00000584,-0.00500939,-0.02961388,-0.00000691,0.004242
 42,-0.00959026,-0.00001242,-0.06086469,0.02875660,0.00000750,0.0049517
 3,0.00007572,0.00000007,0.00012471,0.00002423,-0.00000350,-0.00003557,
 0.00001293,0.00000217,0.00000950,-0.00000368,-0.00002291,0.00000227,-0
 .00000160,0.00000027,-0.00000721,-0.00000469,-0.00000549,-0.00000034,0
 .00000542,0.,-0.00002849,-0.00000160,-0.00000027,-0.00000721,-0.000004
 70,0.00000548,-0.00000034,0.00002424,0.00000349,-0.00003558,0.00001296
 ,-0.00000216,0.00000953,-0.00000368,0.00002290,0.00000226,-0.00000024,
 0.00000070,0.00019927,-0.00161576,-0.00000088,0.00007597,0.00052605,0.
 00000239,0.00104035,0.01027375,0.00001752,0.05989997,0.00012561,0.0000
 0005,0.00000163,-0.00014965,-0.00000011,0.00001216,-0.00002611,0.00004
 391,-0.00001423,-0.00003297,0.00001390,0.00016465,0.00001492,0.0001348
 7,-0.00021633,0.00030091,0.00000076,0.00059585,0.00001512,-0.00013501,
 -0.00021660,-0.00002602,-0.00004367,-0.00001416,-0.00003244,-0.0000142
 7,0.00016431,0.00113713,0.00000107,-0.00175961,-0.01069901,-0.00001601
 ,-0.02865362,-0.00598329,-0.00000182,0.00150224,-0.00084655,0.,0.00081
 163,-0.00112807,-0.00000012,0.00306309,0.01175836,0.00000861,0.0161905
 7,-0.13142778,-0.00006907,-0.12243422,-0.00098501,-0.00000186,0.000236
 84,0.00001938,-0.00001128,0.00003662,0.00019257,-0.00010189,0.00003569
 ,-0.00002089,0.00005265,-0.00002305,0.00010760,-0.00008682,-0.00000112
 ,-0.00000541,0.00001280,0.00002846,-0.00002146,0.,-0.00002757,0.000107
 67,0.00008692,-0.00000109,-0.00000542,-0.00001275,0.00002842,0.0000194
 0,0.00001128,0.00003659,0.00019272,0.00010203,0.00003561,-0.00002086,-
 0.00005244,-0.00002307,-0.00072906,-0.00000133,-0.00165744,0.00013964,
 0.00000023,-0.00011267,0.00042869,0.00000050,0.00084503,0.00099914,0.0
 0000075,-0.00031952,0.13661169,0.00000004,0.00000412,0.,-0.00000006,-0
 .00001554,0.00000005,0.00009700,-0.00021399,0.00004610,0.00050940,0.00
 024842,-0.00051738,0.00008999,0.00007471,-0.00007171,0.00000037,-0.000
 52397,0.00000039,-0.00008994,0.00007453,0.00007146,-0.00009700,-0.0002
 1386,-0.00004614,-0.00050930,0.00024814,0.00051726,0.00000236,-0.00391
 870,-0.00000033,-0.00000194,0.00300648,-0.00000341,-0.00000290,0.00623
 666,-0.00000321,-0.00000008,-0.00027684,0.00000019,-0.00000058,0.00714
 405,-0.00000331,-0.00000397,0.00246617,-0.00000576,-0.00007194,-0.0354
 1610,-0.00012088,-0.00000002,0.00120647,-0.00000052,0.00003879,0.00000
 697,-0.00005641,0.00000046,-0.00003739,0.00000687,0.00001772,-0.000045
 53,-0.00001427,0.00001617,-0.00003152,0.00000175,-0.00000466,-0.000029
 99,-0.00001376,-0.00000004,0.00001537,0.00000004,-0.00001605,-0.000031
 41,-0.00000175,0.00000466,-0.00002998,0.00001377,-0.00003874,0.0000069
 7,0.00005643,-0.00000033,-0.00003732,-0.00000681,-0.00001769,-0.000045
 47,0.00001421,-0.00000026,0.00051325,-0.00000037,0.00000040,-0.0012450
 1,0.00000065,-0.00000025,0.00032146,-0.00000035,0.00000142,-0.00390138
 ,0.00000190,0.00007651,0.02531208,-0.00004576,0.00000002,-0.00000009,0
 .00005604,-0.00000004,-0.00001182,-0.00002216,0.00005571,-0.00003155,-
 0.00015761,-0.00017592,0.00007990,0.00002449,-0.00001883,-0.00003468,0
 .00063250,0.00000007,0.00014363,0.00002456,0.00001887,-0.00003466,-0.0
 0002212,-0.00005557,-0.00003155,-0.00015750,0.00017585,0.00007951,-0.0
 0005448,0.00000130,-0.00103113,-0.00089782,-0.00000078,0.00344121,0.00
 041510,-0.00000140,0.00132209,0.00084858,0.00000048,0.00030226,0.00427
 135,-0.00000260,-0.00269239,-0.01574696,-0.00001352,-0.02023290,-0.123
 33377,-0.00012166,-0.26888581,0.00261209,0.00000050,-0.00231714,-0.000
 02328,0.00000219,0.00002924,0.00000371,0.00001849,0.00000199,0.0000148
 2,0.00002125,0.00001265,0.00000593,-0.00000677,0.00000882,0.00000737,0
 .00000247,-0.00000038,-0.00004484,0.,0.00007661,0.00000594,0.00000678,
 0.00000882,0.00000737,-0.00000245,-0.00000039,-0.00002326,-0.00000219,
 0.00002922,0.00000368,-0.00001851,0.00000199,0.00001479,-0.00002119,0.
 00001260,0.00021153,-0.00000004,0.00009871,-0.00010454,0.00000042,-0.0
 0003621,-0.00079901,-0.00000084,-0.00106853,0.00024631,0.00000198,0.00
 108611,0.12996275,0.00013619,0.29194267,-0.00002594,0.00038672,-0.0000
 0429,0.00024092,-0.00099208,0.00000304,-0.00011047,0.00050332,-0.00003
 691,0.00033240,-0.00154043,0.00067178,0.00027233,-0.00141334,-0.000758
 09,-0.01217164,-0.01542533,0.00044762,-0.00100554,0.00161337,0.0038248
 7,0.00043416,0.00039759,-0.00008392,-0.00145366,0.00162443,-0.00371107
 ,-0.01231753,-0.01554465,-0.00087530,0.00008207,0.00018403,0.00092216,
 -0.00003404,0.00019818,-0.00029265,-0.00010132,-0.00001182,0.00011227,
 0.00011616,-0.00004549,0.00004576,0.00018547,0.00001859,-0.00005743,-0
 .00016854,0.00062574,0.00050180,-0.13670241,-0.11879094,-0.00177571,-0
 .00005872,0.00004143,0.00001370,0.00038470,0.00024355,-0.00002223,-0.0
 0005946,0.00095963,-0.00024106,0.00041838,0.00020044,0.00000963,-0.000
 06894,0.00095837,0.00021471,0.00088123,0.00036368,-0.00005251,-0.00058
 304,-0.00106403,-0.00003048,0.00011932,-0.00023115,-0.00002735,-0.0000
 1527,0.00002017,0.00003738,-0.00062169,-0.00114188,0.00003536,0.000123
 43,-0.00021713,0.00002769,0.00002166,-0.00004276,0.00005230,0.00000393
 ,-0.00002358,-0.00001497,0.00000957,-0.00000650,0.00000636,0.00001624,
 0.00002032,-0.00002004,-0.00001531,0.00045674,0.00103363,0.14966526,-0
 .00019791,0.00016034,0.00000360,0.00027993,-0.00040126,-0.00000939,-0.
 00011968,0.00001476,0.00000974,0.00071662,0.00055367,0.00023921,0.0006
 5156,0.00059806,-0.00032456,0.00073723,-0.00051903,0.00038393,0.000438
 20,0.00105859,0.00064923,0.00013311,0.00012626,-0.00002572,0.00012649,
 0.00098973,-0.00079910,0.00048680,-0.00088662,-0.00041500,-0.00041994,
 0.00015256,0.00042185,0.00018443,-0.00000041,-0.00028092,-0.00003606,0
 .00000202,0.00009110,-0.00002051,-0.00007177,0.00007404,0.00048371,0.0
 0006719,0.00025843,-0.00111501,0.00058163,-0.00048682,-0.11883895,-0.2
 1687691,-0.00164150,-0.00000353,0.00002212,-0.00000870,-0.00001117,0.0
 0021056,-0.00011119,-0.00014792,0.00051242,0.00011961,0.00002743,0.000
 21080,0.00010665,-0.00018892,0.00053010,-0.00007355,0.00002338,0.00011
 362,0.00053462,-0.00036445,0.00010930,-0.00009699,0.00012379,0.0004321
 4,-0.00012856,-0.00004042,-0.00003955,0.00000338,-0.00040833,0.0001114
 2,0.00009123,0.00012922,0.00043866,0.00014681,0.00008235,-0.00000749,0
 .00008026,0.00002164,0.00000073,-0.00000948,0.00003132,-0.00000979,0.0
 0006448,0.00000577,0.00002577,-0.00003455,0.00077942,-0.00043505,0.000
 12834,0.13206335,0.23338238,-0.00002225,-0.00002162,-0.00002090,0.0000
 3069,0.00005740,-0.00005686,-0.00002748,-0.00001582,-0.00024585,0.0007
 0173,-0.00112456,0.00093205,-0.00059955,0.00102585,0.00102121,0.017454
 58,0.02344630,-0.00038037,0.00317518,-0.00137724,-0.00505853,0.0000608
 2,0.00007221,-0.00043168,-0.00298935,0.00100469,-0.00524243,-0.0162631
 2,-0.02290709,-0.00012756,-0.00026891,-0.00030854,0.00147998,-0.000123
 71,0.00025646,-0.00025309,-0.00018067,0.00001377,0.00020983,0.00024604
 ,0.00002256,0.00016956,0.00021003,0.00009083,-0.00027595,0.00031562,-0
 .00015220,-0.00041354,-0.00176650,-0.00047846,-0.04738598,-0.00000388,
 -0.00000284,0.00008349,0.00034717,0.00003485,-0.00006365,0.00005358,0.
 00067435,0.00010181,-0.00042478,0.00003024,-0.00006787,-0.00006371,-0.
 00071406,0.00006007,-0.00078578,0.00023136,0.00098018,0.00140315,0.001
 42198,0.00006346,-0.00025385,-0.00031158,-0.00000829,0.00002168,-0.000
 00036,0.00027514,-0.00144036,-0.00147445,0.00016391,0.00019925,0.00023
 860,-0.00000866,0.00007842,-0.00006772,0.00009376,0.00000125,-0.000029
 93,0.00001069,0.00001215,-0.00000996,0.00002570,-0.00000439,-0.0000390
 0,-0.00001442,0.00086241,-0.00092040,-0.00113582,-0.00031800,0.0011865
 0,0.05597782,-0.00002592,-0.00038673,-0.00000430,0.00024088,0.00099210
 ,0.00000306,0.00043425,-0.00039768,-0.00008387,-0.00145362,-0.00162425
 ,-0.00371110,-0.00100552,-0.00161322,0.00382485,-0.01217200,0.01542600
 ,0.00044822,0.00027215,0.00141352,-0.00075812,-0.00011056,-0.00050340,
 -0.00003702,0.00033230,0.00154007,0.00067227,-0.01231688,0.01554359,-0
 .00087528,0.00008283,-0.00018443,0.00092270,-0.00003378,-0.00019865,-0
 .00029289,-0.00010161,0.00001186,0.00011238,0.00011646,0.00004552,0.00
 004570,0.00018491,-0.00001871,-0.00005803,-0.00016696,-0.00062484,0.00
 050059,-0.13669268,0.11878619,-0.00178206,-0.00001525,-0.00002017,0.00
 003738,-0.00062156,0.00114184,0.00003537,0.00012346,0.00021716,0.00002
 771,-0.00058307,0.00106398,-0.00003046,0.00011929,0.00023112,-0.000027
 34,0.00088121,-0.00036365,-0.00005246,0.00041846,-0.00020045,0.0000095
 9,-0.00006925,-0.00095892,0.00021490,-0.00005871,-0.00004143,0.0000137
 1,0.00038471,-0.00024351,-0.00002219,-0.00005925,-0.00095889,-0.000240
 97,0.00002156,0.00004278,0.00005210,0.00000392,0.00002360,-0.00001500,
 0.00000953,0.00000654,0.00000630,0.00001627,-0.00002029,-0.00002001,-0
 .00001523,-0.00045625,0.00103057,0.01220627,-0.01561296,0.00036253,0.1
 4965343,0.00019789,0.00016034,-0.00000360,-0.00027990,-0.00040126,0.00
 000937,-0.00013311,0.00012628,0.00002572,-0.00012665,0.00098948,0.0007
 9881,-0.00043822,0.00105867,-0.00064941,-0.00073556,-0.00052074,-0.000
 38392,-0.00065195,0.00059806,0.00032491,0.00011979,0.00001480,-0.00000
 969,-0.00071640,0.00055362,-0.00023918,-0.00048778,-0.00088554,0.00041
 439,0.00041964,0.00015268,-0.00042187,-0.00018428,-0.00000048,0.000281
 10,0.00003622,0.00000200,-0.00009115,0.00002019,-0.00007190,-0.0000738
 9,-0.00048313,0.00006699,-0.00025762,0.00111286,0.00058288,0.00048623,
 0.11883469,-0.21688362,0.00165062,0.00004042,-0.00003955,-0.00000337,0
 .00040815,0.00011159,-0.00009117,-0.00012917,0.00043869,-0.00014678,0.
 00036444,0.00010922,0.00009696,-0.00012381,0.00043206,0.00012854,-0.00
 002346,0.00011364,-0.00053455,-0.00002756,0.00021083,-0.00010668,0.000
 18869,0.00053003,0.00007373,0.00000354,0.00002212,0.00000868,0.0000111
 8,0.00021053,0.00011116,0.00014798,0.00051253,-0.00011943,-0.00008227,
 -0.00000759,-0.00008015,-0.00002163,0.00000075,0.00000949,-0.00003127,
 -0.00000991,-0.00006438,-0.00000580,0.00002579,0.00003450,-0.00077781,
 -0.00043680,-0.00012858,0.01561149,-0.02115694,0.00014789,-0.13205744,
 0.23339074,-0.00002225,0.00002162,-0.00002090,0.00003067,-0.00005740,-
 0.00005684,0.00006083,-0.00007222,-0.00043160,-0.00298955,-0.00100432,
 -0.00524244,0.00317510,0.00137722,-0.00505843,0.01745503,-0.02344681,-
 0.00038061,-0.00059929,-0.00102597,0.00102110,-0.00002749,0.00001584,-
 0.00024578,0.00070160,0.00112431,0.00093187,-0.01626048,0.02290650,-0.
 00012971,-0.00027060,0.00030958,0.00148049,-0.00012355,-0.00025713,-0.
 00025328,-0.00018095,-0.00001352,0.00020985,0.00024619,-0.00002233,0.0
 0016965,0.00021012,-0.00009101,-0.00027620,0.00031516,0.00015182,-0.00
 041175,-0.00177355,0.00048932,-0.04738705,0.00002170,0.00000036,0.0002
 7512,-0.00144021,0.00147438,0.00016421,0.00019922,-0.00023865,-0.00000
 869,0.00140316,-0.00142195,0.00006346,-0.00025388,0.00031158,-0.000008
 30,-0.00078568,-0.00023143,0.00098009,-0.00042481,-0.00003028,-0.00006
 785,-0.00006356,0.00071431,0.00005959,-0.00000387,0.00000285,0.0000834
 9,0.00034719,-0.00003484,-0.00006361,0.00005355,-0.00067450,0.00010143
 ,0.00007832,0.00006783,0.00009346,0.00000124,0.00002993,0.00001065,0.0
 0001213,0.00001003,0.00002567,-0.00000440,0.00003903,-0.00001445,0.000
 85975,0.00091951,-0.00113299,0.00036196,-0.00014697,-0.00045721,-0.000
 30880,-0.00119668,0.05597756\\-0.00002447,-0.00000061,0.00003820,-0.00
 004018,0.00000024,0.00003103,0.00004658,-0.00005483,-0.00007509,0.0000
 0523,-0.00004135,0.00003925,-0.00002855,-0.00003997,0.00002660,0.00000
 466,-0.00000132,0.00001992,-0.00002869,0.00003842,0.00002769,0.0000486
 8,0.00005798,-0.00007344,0.00000552,0.00004903,0.00004232,0.00004475,0
 .00000351,-0.00007206,-0.00003132,-0.00004470,0.00000612,0.00001292,0.
 00001417,0.00000563,-0.00004055,0.00000466,0.00000930,0.00003351,-0.00
 000473,-0.00001196,0.00000233,0.00000074,0.00000824,0.00000533,0.00001
 587,-0.00000282,-0.00006814,-0.00000046,0.00006721,-0.00000879,-0.0000
 0145,0.00000063,-0.00000335,0.00000232,-0.00003179,0.00001148,0.000003
 54,-0.00000980,0.00000207,0.00000753,0.00001048,0.00000503,0.00001099,
 -0.00000277,0.00000201,0.00000053,0.00000121,0.00000191,-0.00000814,0.
 00001061,0.00000445,-0.00001062,-0.00000273,-0.00000896,0.00000186,-0.
 00000052,-0.00000886,-0.00000909,-0.00002227,0.00001341,-0.00000461,-0
 .00000884,-0.00002218,0.00000656,0.00000052,-0.00001611,-0.00000077,-0
 .00002261,0.00000801,0.00000133,-0.00001520,0.00003009,-0.00000014,0.0
 0000254,0.00003361,0.00000133,0.00001101,0.00000343,0.00000786,-0.0000
 0010,0.00000512,-0.00000565,-0.00000653\\\@


 It is also a good rule not to put too much confidence in
 experimental results until they have been confirmed by
 Theory.
                             -- Sir Arthur Eddington
 Job cpu time:       0 days  0 hours  5 minutes 42.7 seconds.
 Elapsed time:       0 days  0 hours  6 minutes  8.5 seconds.
 File lengths (MBytes):  RWF=    348 Int=      0 D2E=      0 Chk=     11 Scr=      1
 Normal termination of Gaussian 16 at Fri Feb 23 23:49:59 2024.
