 Entering Gaussian System, Link 0=g16
 Input=/Volumes/SSD-PMU3/b3lyp_6-31gd_freq/VFNJWHFPIRNNRQ-ODSVQIMTSA-N_calculating/gaussianinput0.gjf
 Output=/Volumes/SSD-PMU3/b3lyp_6-31gd_freq/VFNJWHFPIRNNRQ-ODSVQIMTSA-N_calculating/gaussianinput0.log
 Initial command:
 /Applications/g16/l1.exe "/Users/macmini_m1_2022/PycharmProjects/sphere_model/sphere_model_lib/Gau-85653.inp" -scrdir="/Users/macmini_m1_2022/PycharmProjects/sphere_model/sphere_model_lib/"
 Entering Link 1 = /Applications/g16/l1.exe PID=     85654.
  
 Copyright (c) 1988,1990,1992,1993,1995,1998,2003,2009,2016,
            Gaussian, Inc.  All Rights Reserved.
  
 This is part of the Gaussian(R) 16 program.  It is based on
 the Gaussian(R) 09 system (copyright 2009, Gaussian, Inc.),
 the Gaussian(R) 03 system (copyright 2003, Gaussian, Inc.),
 the Gaussian(R) 98 system (copyright 1998, Gaussian, Inc.),
 the Gaussian(R) 94 system (copyright 1995, Gaussian, Inc.),
 the Gaussian 92(TM) system (copyright 1992, Gaussian, Inc.),
 the Gaussian 90(TM) system (copyright 1990, Gaussian, Inc.),
 the Gaussian 88(TM) system (copyright 1988, Gaussian, Inc.),
 the Gaussian 86(TM) system (copyright 1986, Carnegie Mellon
 University), and the Gaussian 82(TM) system (copyright 1983,
 Carnegie Mellon University). Gaussian is a federally registered
 trademark of Gaussian, Inc.
  
 This software contains proprietary and confidential information,
 including trade secrets, belonging to Gaussian, Inc.
  
 This software is provided under written license and may be
 used, copied, transmitted, or stored only in accord with that
 written license.
  
 The following legend is applicable only to US Government
 contracts under FAR:
  
                    RESTRICTED RIGHTS LEGEND
  
 Use, reproduction and disclosure by the US Government is
 subject to restrictions as set forth in subparagraphs (a)
 and (c) of the Commercial Computer Software - Restricted
 Rights clause in FAR 52.227-19.
  
 Gaussian, Inc.
 340 Quinnipiac St., Bldg. 40, Wallingford CT 06492
  
  
 ---------------------------------------------------------------
 Warning -- This program may not be used in any manner that
 competes with the business of Gaussian, Inc. or will provide
 assistance to any competitor of Gaussian, Inc.  The licensee
 of this program is prohibited from giving any competitor of
 Gaussian, Inc. access to this program.  By using this program,
 the user acknowledges that Gaussian, Inc. is engaged in the
 business of creating and licensing software in the field of
 computational chemistry and represents and warrants to the
 licensee that it is not a competitor of Gaussian, Inc. and that
 it will not use this program in any manner prohibited above.
 ---------------------------------------------------------------
  

 Cite this work as:
 Gaussian 16, Revision A.03,
 M. J. Frisch, G. W. Trucks, H. B. Schlegel, G. E. Scuseria, 
 M. A. Robb, J. R. Cheeseman, G. Scalmani, V. Barone, 
 G. A. Petersson, H. Nakatsuji, X. Li, M. Caricato, A. V. Marenich, 
 J. Bloino, B. G. Janesko, R. Gomperts, B. Mennucci, H. P. Hratchian, 
 J. V. Ortiz, A. F. Izmaylov, J. L. Sonnenberg, D. Williams-Young, 
 F. Ding, F. Lipparini, F. Egidi, J. Goings, B. Peng, A. Petrone, 
 T. Henderson, D. Ranasinghe, V. G. Zakrzewski, J. Gao, N. Rega, 
 G. Zheng, W. Liang, M. Hada, M. Ehara, K. Toyota, R. Fukuda, 
 J. Hasegawa, M. Ishida, T. Nakajima, Y. Honda, O. Kitao, H. Nakai, 
 T. Vreven, K. Throssell, J. A. Montgomery, Jr., J. E. Peralta, 
 F. Ogliaro, M. J. Bearpark, J. J. Heyd, E. N. Brothers, K. N. Kudin, 
 V. N. Staroverov, T. A. Keith, R. Kobayashi, J. Normand, 
 K. Raghavachari, A. P. Rendell, J. C. Burant, S. S. Iyengar, 
 J. Tomasi, M. Cossi, J. M. Millam, M. Klene, C. Adamo, R. Cammi, 
 J. W. Ochterski, R. L. Martin, K. Morokuma, O. Farkas, 
 J. B. Foresman, and D. J. Fox, Gaussian, Inc., Wallingford CT, 2016.
 
 ******************************************
 Gaussian 16:  EM64M-G16RevA.03 25-Dec-2016
                24-Feb-2024 
 ******************************************
 %nprocshared=10
 Will use up to   10 processors via shared memory.
 %mem=12GB
 %chk= 0.chk
 ---------------------
 # freq b3lyp/6-31g(d)
 ---------------------
 1/10=4,30=1,38=1/1,3;
 2/12=2,17=6,18=5,40=1/2;
 3/5=1,6=6,7=1,11=2,25=1,30=1,71=2,74=-5,140=1/1,2,3;
 4//1;
 5/5=2,38=5,98=1/2;
 8/6=4,10=90,11=11/1;
 11/6=1,8=1,9=11,15=111,16=1/1,2,10;
 10/6=1/2;
 6/7=2,8=2,9=2,10=2,28=1/1;
 7/8=1,10=1,25=1/1,2,3,16;
 1/10=4,30=1/3;
 99//99;
 ---------
 good luck
 ---------
 Symbolic Z-matrix:
 Charge =  0 Multiplicity = 1
 O                     1.21572   0.        0. 
 C                     0.        0.        0. 
 C                    -0.84963  -1.26817  -0.00701 
 C                    -1.75664  -1.26106   1.24809 
 C                    -1.72679  -1.25828  -1.28409 
 C                    -2.61778   0.00001  -1.28953 
 C                    -1.72679   1.25829  -1.28409 
 C                    -0.84963   1.26817  -0.00701 
 C                    -1.75663   1.26107   1.2481 
 C                    -2.66524   0.00001   1.23792 
 C                    -3.56691   0.00004   2.46494 
 O                    -4.77876  -0.00242   2.45642 
 O                    -2.85781  -0.00445   3.62433 
 C                    -3.52553   0.00002  -0.04433 
 H                    -0.18091  -2.13464   0.00839 
 H                    -1.14885  -1.27793   2.15913 
 H                    -2.37573  -2.16824   1.25378 
 H                    -2.34476  -2.16594  -1.30768 
 H                    -1.08942  -1.28029  -2.17745 
 H                    -3.24307   0.       -2.19122 
 H                    -2.34475   2.16594  -1.30768 
 H                    -1.08942   1.28029  -2.17746 
 H                    -0.18091   2.13464   0.00839 
 H                    -1.14883   1.27792   2.15914 
 H                    -2.37571   2.16826   1.2538 
 H                    -3.51868  -0.0068    4.34231 
 H                    -4.18221  -0.87794  -0.04621 
 H                    -4.18219   0.87798  -0.04621 
 

 GradGradGradGradGradGradGradGradGradGradGradGradGradGradGradGradGradGrad
 Berny optimization.
 Initialization pass.
 Trust Radius=3.00D-01 FncErr=1.00D-07 GrdErr=1.00D-07 EigMax=2.50D+02 EigMin=1.00D-04
 Number of steps in this run=      2 maximum allowed number of steps=      2.
 GradGradGradGradGradGradGradGradGradGradGradGradGradGradGradGradGradGrad

                          Input orientation:                          
 ---------------------------------------------------------------------
 Center     Atomic      Atomic             Coordinates (Angstroms)
 Number     Number       Type             X           Y           Z
 ---------------------------------------------------------------------
      1          8           0        1.215717    0.000000    0.000000
      2          6           0        0.000000    0.000000    0.000000
      3          6           0       -0.849631   -1.268165   -0.007010
      4          6           0       -1.756639   -1.261062    1.248090
      5          6           0       -1.726787   -1.258282   -1.284091
      6          6           0       -2.617782    0.000005   -1.289532
      7          6           0       -1.726785    1.258287   -1.284094
      8          6           0       -0.849632    1.268165   -0.007010
      9          6           0       -1.756627    1.261070    1.248100
     10          6           0       -2.665236    0.000011    1.237923
     11          6           0       -3.566911    0.000044    2.464938
     12          8           0       -4.778755   -0.002416    2.456415
     13          8           0       -2.857808   -0.004448    3.624332
     14          6           0       -3.525528    0.000015   -0.044328
     15          1           0       -0.180907   -2.134644    0.008386
     16          1           0       -1.148853   -1.277926    2.159134
     17          1           0       -2.375726   -2.168242    1.253777
     18          1           0       -2.344755   -2.165935   -1.307676
     19          1           0       -1.089421   -1.280291   -2.177452
     20          1           0       -3.243072    0.000004   -2.191223
     21          1           0       -2.344751    2.165941   -1.307678
     22          1           0       -1.089419    1.280293   -2.177455
     23          1           0       -0.180907    2.134643    0.008389
     24          1           0       -1.148833    1.277919    2.159135
     25          1           0       -2.375706    2.168256    1.253803
     26          1           0       -3.518677   -0.006795    4.342313
     27          1           0       -4.182210   -0.877938   -0.046212
     28          1           0       -4.182193    0.877979   -0.046210
 ---------------------------------------------------------------------
                    Distance matrix (angstroms):
                    1          2          3          4          5
     1  O    0.000000
     2  C    1.215717   0.000000
     3  C    2.423624   1.526488   0.000000
     4  C    3.461633   2.496755   1.548544   0.000000
     5  C    3.448259   2.492781   1.549334   2.532358   0.000000
     6  C    4.044578   2.918163   2.525762   2.961652   1.541813
     7  C    3.448261   2.492784   2.963664   3.572110   2.516569
     8  C    2.423625   1.526488   2.536330   2.965624   2.963658
     9  C    3.461630   2.496756   2.965632   2.522132   3.572116
    10  C    4.073604   2.938696   2.540581   1.554335   2.970613
    11  C    5.380469   4.335755   3.886192   2.519562   4.361727
    12  O    6.478246   5.373126   4.807140   3.489617   4.988296
    13  O    5.452468   4.615503   4.337787   2.904854   5.190754
    14  C    4.741452   3.525807   2.961435   2.527771   2.521070
    15  H    2.550948   2.142312   1.094630   2.186994   2.197328
    16  H    3.447629   2.759496   2.186735   1.095303   3.491446
    17  H    4.378549   3.452145   2.174555   1.098306   2.773071
    18  H    4.367866   3.449517   2.175573   2.774277   1.098305
    19  H    3.419664   2.750869   2.183681   3.489970   1.097640
    20  H    4.968124   3.913946   3.479598   3.953308   2.169169
    21  H    4.367866   3.449519   3.964871   4.315342   3.479618
    22  H    3.419666   2.750872   3.356035   4.317178   2.765628
    23  H    2.550947   2.142311   3.467929   3.943425   3.946161
    24  H    3.447613   2.759485   3.356226   2.765114   4.315339
    25  H    4.378547   3.452149   3.965797   3.484752   4.313139
    26  H    6.424190   5.588991   5.256565   3.775206   6.036018
    27  H    5.469052   4.273616   3.355577   2.775860   2.775988
    28  H    5.469041   4.273607   3.964018   3.483392   3.482094
                    6          7          8          9         10
     6  C    0.000000
     7  C    1.541810   0.000000
     8  C    2.525757   1.549335   0.000000
     9  C    2.961663   2.532371   1.548545   0.000000
    10  C    2.527900   2.970609   2.540569   1.554331   0.000000
    11  C    3.872582   4.361706   3.886163   2.519526   1.522690
    12  O    4.324573   4.989519   4.808414   3.491372   2.439609
    13  O    4.919725   5.192914   4.340387   2.908713   2.394170
    14  C    1.540953   2.521060   2.961421   2.527774   1.544108
    15  H    3.489939   3.946166   3.467930   3.943432   3.498629
    16  H    3.960323   4.315345   3.356232   2.765117   2.186589
    17  H    3.350867   4.313121   3.965784   3.484752   2.187553
    18  H    2.183156   3.479618   3.964867   4.315350   3.357693
    19  H    2.182532   2.765628   3.356031   4.317185   3.973305
    20  H    1.097285   2.169167   3.479594   3.953321   3.477490
    21  H    2.183152   1.098305   2.175573   2.774290   3.357685
    22  H    2.182530   1.097640   2.183684   3.489980   3.973302
    23  H    3.489934   2.197328   1.094630   2.186986   3.498614
    24  H    3.960326   3.491452   2.186733   1.095300   2.186586
    25  H    3.350890   2.773096   2.174561   1.098307   2.187548
    26  H    5.703449   6.038855   5.259842   3.779743   3.219572
    27  H    2.182673   3.482086   3.964009   3.483397   2.172788
    28  H    2.182675   2.775972   3.355554   2.775854   2.172783
                   11         12         13         14         15
    11  C    0.000000
    12  O    1.211876   0.000000
    13  O    1.359059   2.248126   0.000000
    14  C    2.509607   2.797195   3.728932   0.000000
    15  H    4.696442   5.628450   4.977811   3.968128   0.000000
    16  H    2.752041   3.858949   2.586325   3.483814   2.509303
    17  H    2.754505   3.451331   3.245603   2.776411   2.523759
    18  H    4.518600   4.977304   5.409247   2.771572   2.532832
    19  H    5.415625   6.059445   6.198037   3.481956   2.516586
    20  H    4.667409   4.894780   5.828304   2.165396   4.332650
    21  H    4.518564   4.979412   5.412812   2.771556   4.990919
    22  H    5.415609   6.060470   6.199878   3.481949   4.155128
    23  H    4.696400   5.630281   4.981622   3.968111   4.269287
    24  H    2.752014   3.860566   2.590726   3.483815   4.148275
    25  H    2.754444   3.454379   3.251534   2.776419   4.988302
    26  H    1.878007   2.268133   0.975833   4.386652   5.869529
    27  H    2.730443   2.717636   3.998740   1.096374   4.194367
    28  H    2.730422   2.719212   4.000694   1.096373   5.008909
                   16         17         18         19         20
    16  H    0.000000
    17  H    1.765659   0.000000
    18  H    3.773263   2.561641   0.000000
    19  H    4.336994   3.770460   1.765429   0.000000
    20  H    4.994443   4.161923   2.505777   2.505505   0.000000
    21  H    5.030823   5.034596   4.331876   3.769466   2.505776
    22  H    5.035278   5.031931   3.769466   2.560584   2.505504
    23  H    4.148283   4.988290   4.990915   4.155126   4.332647
    24  H    2.555845   3.768417   5.030819   5.035271   4.994449
    25  H    3.768416   4.336498   5.034615   5.031950   4.161952
    26  H    3.463829   3.939193   6.161360   7.073218   6.539350
    27  H    3.771577   2.572594   2.574193   3.777488   2.500767
    28  H    4.325809   3.772632   3.772650   4.331923   2.500774
                   21         22         23         24         25
    21  H    0.000000
    22  H    1.765430   0.000000
    23  H    2.532831   2.516589   0.000000
    24  H    3.773274   4.336998   2.509296   0.000000
    25  H    2.561669   3.770483   2.523753   1.765657   0.000000
    26  H    6.166140   7.075681   5.874467   3.468849   3.946660
    27  H    3.772632   4.331918   5.008897   4.325812   3.772637
    28  H    2.574168   3.777474   4.194338   3.771574   2.572595
                   26         27         28
    26  H    0.000000
    27  H    4.523087   0.000000
    28  H    4.525728   1.755917   0.000000
 Stoichiometry    C11H14O3
 Framework group  C1[X(C11H14O3)]
 Deg. of freedom    78
 Full point group                 C1      NOp   1
 Largest Abelian subgroup         C1      NOp   1
 Largest concise Abelian subgroup C1      NOp   1
                         Standard orientation:                         
 ---------------------------------------------------------------------
 Center     Atomic      Atomic             Coordinates (Angstroms)
 Number     Number       Type             X           Y           Z
 ---------------------------------------------------------------------
      1          8           0       -2.671232   -1.878002   -0.000470
      2          6           0       -1.827018   -1.003206   -0.000246
      3          6           0       -1.241180   -0.388144    1.268082
      4          6           0        0.291792   -0.607041    1.259709
      5          6           0       -1.551027    1.129869    1.259824
      6          6           0       -0.937096    1.775951    0.001708
      7          6           0       -1.552783    1.132205   -1.256743
      8          6           0       -1.242946   -0.385789   -1.268246
      9          6           0        0.290034   -0.604716   -1.262422
     10          6           0        0.914543    0.054991   -0.001185
     11          6           0        2.423608   -0.148248   -0.002457
     12          8           0        3.259002    0.729677    0.000236
     13          8           0        2.765465   -1.463606    0.000576
     14          6           0        0.589273    1.564450    0.000439
     15          1           0       -1.693872   -0.880834    2.134420
     16          1           0        0.525309   -1.677047    1.275417
     17          1           0        0.726421   -0.166354    2.166996
     18          1           0       -1.138238    1.590078    2.167617
     19          1           0       -2.636447    1.291583    1.282739
     20          1           0       -1.151716    2.852042    0.002857
     21          1           0       -1.141259    1.594096   -2.164256
     22          1           0       -2.638234    1.293960   -1.277843
     23          1           0       -1.696843   -0.876874   -2.134864
     24          1           0        0.523516   -1.674690   -1.280426
     25          1           0        0.723406   -0.162362   -2.169500
     26          1           0        3.741025   -1.486643    0.002222
     27          1           0        1.044540    2.037473    0.878514
     28          1           0        1.043307    2.039089   -0.877401
 ---------------------------------------------------------------------
 Rotational constants (GHZ):           1.2422069           0.6077267           0.5397218
 Standard basis: 6-31G(d) (6D, 7F)
 There are   238 symmetry adapted cartesian basis functions of A   symmetry.
 There are   238 symmetry adapted basis functions of A   symmetry.
   238 basis functions,   448 primitive gaussians,   238 cartesian basis functions
    52 alpha electrons       52 beta electrons
       nuclear repulsion energy       976.1175032633 Hartrees.
 NAtoms=   28 NActive=   28 NUniq=   28 SFac= 1.00D+00 NAtFMM=   60 NAOKFM=F Big=F
 Integral buffers will be    131072 words long.
 Raffenetti 2 integral format.
 Two-electron integral symmetry is turned on.
 One-electron integrals computed using PRISM.
 NBasis=   238 RedAO= T EigKep=  2.12D-03  NBF=   238
 NBsUse=   238 1.00D-06 EigRej= -1.00D+00 NBFU=   238
 ExpMin= 1.61D-01 ExpMax= 5.48D+03 ExpMxC= 8.25D+02 IAcc=3 IRadAn=         5 AccDes= 0.00D+00
 Harris functional with IExCor=  402 and IRadAn=       5 diagonalized for initial guess.
 HarFok:  IExCor=  402 AccDes= 0.00D+00 IRadAn=         5 IDoV= 1 UseB2=F ITyADJ=14
 ICtDFT=  3500011 ScaDFX=  1.000000  1.000000  1.000000  1.000000
 FoFCou: FMM=F IPFlag=           0 FMFlag=      100000 FMFlg1=           0
         NFxFlg=           0 DoJE=T BraDBF=F KetDBF=T FulRan=T
         wScrn=  0.000000 ICntrl=       500 IOpCl=  0 I1Cent=   200000004 NGrid=           0
         NMat0=    1 NMatS0=      1 NMatT0=    0 NMatD0=    1 NMtDS0=    0 NMtDT0=    0
 Petite list used in FoFCou.
 Requested convergence on RMS density matrix=1.00D-08 within 128 cycles.
 Requested convergence on MAX density matrix=1.00D-06.
 Requested convergence on             energy=1.00D-06.
 No special actions if energy rises.
 Integral accuracy reduced to 1.0D-05 until final iterations.
 Initial convergence to 1.0D-05 achieved.  Increase integral accuracy.
 SCF Done:  E(RB3LYP) =  -653.302321263     A.U. after   14 cycles
            NFock= 14  Conv=0.71D-08     -V/T= 2.0092
 DoSCS=F DFT=T ScalE2(SS,OS)=  1.000000  1.000000
 Range of M.O.s used for correlation:     1   238
 NBasis=   238 NAE=    52 NBE=    52 NFC=     0 NFV=     0
 NROrb=    238 NOA=    52 NOB=    52 NVA=   186 NVB=   186
 Symmetrizing basis deriv contribution to polar:
 IMax=3 JMax=2 DiffMx= 0.00D+00
 G2DrvN: will do    29 centers at a time, making    1 passes.
 Calling FoFCou, ICntrl=  3107 FMM=F I1Cent=   0 AccDes= 0.00D+00.
 End of G2Drv F.D. properties file   721 does not exist.
 End of G2Drv F.D. properties file   722 does not exist.
 End of G2Drv F.D. properties file   788 does not exist.
          IDoAtm=1111111111111111111111111111
          Differentiating once with respect to electric field.
                with respect to dipole field.
          Differentiating once with respect to nuclear coordinates.
 Keep R1 ints in memory in canonical form, NReq=415128146.
          There are    87 degrees of freedom in the 1st order CPHF.  IDoFFX=6 NUNeed=     3.
     84 vectors produced by pass  0 Test12= 1.11D-14 1.15D-09 XBig12= 8.30D+01 2.88D+00.
 AX will form    84 AO Fock derivatives at one time.
     84 vectors produced by pass  1 Test12= 1.11D-14 1.15D-09 XBig12= 1.03D+01 7.39D-01.
     84 vectors produced by pass  2 Test12= 1.11D-14 1.15D-09 XBig12= 9.68D-02 4.30D-02.
     84 vectors produced by pass  3 Test12= 1.11D-14 1.15D-09 XBig12= 5.09D-04 4.09D-03.
     84 vectors produced by pass  4 Test12= 1.11D-14 1.15D-09 XBig12= 9.63D-07 1.08D-04.
     51 vectors produced by pass  5 Test12= 1.11D-14 1.15D-09 XBig12= 9.07D-10 3.48D-06.
      6 vectors produced by pass  6 Test12= 1.11D-14 1.15D-09 XBig12= 6.80D-13 9.89D-08.
      1 vectors produced by pass  7 Test12= 1.11D-14 1.15D-09 XBig12= 5.08D-16 3.19D-09.
 InvSVY:  IOpt=1 It=  1 EMax= 5.33D-15
 Solved reduced A of dimension   478 with    87 vectors.
 Isotropic polarizability for W=    0.000000      109.85 Bohr**3.
 End of Minotr F.D. properties file   721 does not exist.
 End of Minotr F.D. properties file   722 does not exist.
 End of Minotr F.D. properties file   788 does not exist.

 **********************************************************************

            Population analysis using the SCF density.

 **********************************************************************

 Orbital symmetries:
       Occupied  (A) (A) (A) (A) (A) (A) (A) (A) (A) (A) (A) (A)
                 (A) (A) (A) (A) (A) (A) (A) (A) (A) (A) (A) (A)
                 (A) (A) (A) (A) (A) (A) (A) (A) (A) (A) (A) (A)
                 (A) (A) (A) (A) (A) (A) (A) (A) (A) (A) (A) (A)
                 (A) (A) (A) (A)
       Virtual   (A) (A) (A) (A) (A) (A) (A) (A) (A) (A) (A) (A)
                 (A) (A) (A) (A) (A) (A) (A) (A) (A) (A) (A) (A)
                 (A) (A) (A) (A) (A) (A) (A) (A) (A) (A) (A) (A)
                 (A) (A) (A) (A) (A) (A) (A) (A) (A) (A) (A) (A)
                 (A) (A) (A) (A) (A) (A) (A) (A) (A) (A) (A) (A)
                 (A) (A) (A) (A) (A) (A) (A) (A) (A) (A) (A) (A)
                 (A) (A) (A) (A) (A) (A) (A) (A) (A) (A) (A) (A)
                 (A) (A) (A) (A) (A) (A) (A) (A) (A) (A) (A) (A)
                 (A) (A) (A) (A) (A) (A) (A) (A) (A) (A) (A) (A)
                 (A) (A) (A) (A) (A) (A) (A) (A) (A) (A) (A) (A)
                 (A) (A) (A) (A) (A) (A) (A) (A) (A) (A) (A) (A)
                 (A) (A) (A) (A) (A) (A) (A) (A) (A) (A) (A) (A)
                 (A) (A) (A) (A) (A) (A) (A) (A) (A) (A) (A) (A)
                 (A) (A) (A) (A) (A) (A) (A) (A) (A) (A) (A) (A)
                 (A) (A) (A) (A) (A) (A) (A) (A) (A) (A) (A) (A)
                 (A) (A) (A) (A) (A) (A)
 The electronic state is 1-A.
 Alpha  occ. eigenvalues --  -19.20241 -19.14562 -19.13652 -10.32359 -10.26778
 Alpha  occ. eigenvalues --  -10.21988 -10.20175 -10.20173 -10.19962 -10.19960
 Alpha  occ. eigenvalues --  -10.19913 -10.19526 -10.19525 -10.18848  -1.11062
 Alpha  occ. eigenvalues --   -1.03486  -1.01955  -0.88342  -0.79610  -0.78660
 Alpha  occ. eigenvalues --   -0.76803  -0.68464  -0.66939  -0.64126  -0.60993
 Alpha  occ. eigenvalues --   -0.59184  -0.57068  -0.52079  -0.49370  -0.47930
 Alpha  occ. eigenvalues --   -0.46618  -0.46223  -0.46178  -0.44876  -0.43752
 Alpha  occ. eigenvalues --   -0.43391  -0.41428  -0.41374  -0.40896  -0.40703
 Alpha  occ. eigenvalues --   -0.39197  -0.36895  -0.36815  -0.34859  -0.34461
 Alpha  occ. eigenvalues --   -0.34250  -0.32299  -0.31808  -0.30993  -0.30236
 Alpha  occ. eigenvalues --   -0.27511  -0.23415
 Alpha virt. eigenvalues --   -0.01370   0.00161   0.05904   0.07685   0.11418
 Alpha virt. eigenvalues --    0.11441   0.12713   0.13254   0.13260   0.14049
 Alpha virt. eigenvalues --    0.15469   0.15968   0.17069   0.18521   0.18625
 Alpha virt. eigenvalues --    0.18896   0.19537   0.20118   0.21430   0.21895
 Alpha virt. eigenvalues --    0.22101   0.24000   0.24245   0.24597   0.25914
 Alpha virt. eigenvalues --    0.27318   0.28448   0.29671   0.33519   0.35302
 Alpha virt. eigenvalues --    0.36729   0.37444   0.50165   0.50478   0.51381
 Alpha virt. eigenvalues --    0.52490   0.53503   0.54748   0.57423   0.59501
 Alpha virt. eigenvalues --    0.59943   0.61503   0.63233   0.63622   0.64651
 Alpha virt. eigenvalues --    0.64843   0.66259   0.67095   0.67889   0.68917
 Alpha virt. eigenvalues --    0.70659   0.73282   0.73557   0.75618   0.75911
 Alpha virt. eigenvalues --    0.76685   0.77960   0.77968   0.80010   0.80420
 Alpha virt. eigenvalues --    0.82137   0.84375   0.85483   0.85575   0.86023
 Alpha virt. eigenvalues --    0.87271   0.87892   0.90040   0.90406   0.91136
 Alpha virt. eigenvalues --    0.91559   0.91837   0.94366   0.95574   0.96799
 Alpha virt. eigenvalues --    0.98118   0.98496   0.99028   1.01908   1.06119
 Alpha virt. eigenvalues --    1.07466   1.10097   1.10634   1.12729   1.15696
 Alpha virt. eigenvalues --    1.18195   1.20058   1.22293   1.22380   1.25249
 Alpha virt. eigenvalues --    1.28087   1.28136   1.36652   1.36911   1.40337
 Alpha virt. eigenvalues --    1.44751   1.45767   1.50650   1.54505   1.55614
 Alpha virt. eigenvalues --    1.60245   1.62553   1.64825   1.66273   1.66986
 Alpha virt. eigenvalues --    1.68469   1.70054   1.73230   1.73316   1.76396
 Alpha virt. eigenvalues --    1.76480   1.77477   1.78597   1.79936   1.80171
 Alpha virt. eigenvalues --    1.81575   1.83626   1.85182   1.85239   1.87141
 Alpha virt. eigenvalues --    1.89305   1.89657   1.90365   1.93833   1.96292
 Alpha virt. eigenvalues --    2.00563   2.03692   2.04724   2.05195   2.07695
 Alpha virt. eigenvalues --    2.08251   2.08400   2.11113   2.13050   2.15404
 Alpha virt. eigenvalues --    2.19419   2.20412   2.23698   2.26385   2.26801
 Alpha virt. eigenvalues --    2.31465   2.33614   2.34549   2.34758   2.37201
 Alpha virt. eigenvalues --    2.38715   2.40281   2.41763   2.42397   2.45739
 Alpha virt. eigenvalues --    2.47268   2.48160   2.52177   2.57082   2.59823
 Alpha virt. eigenvalues --    2.62760   2.66283   2.67193   2.68114   2.69111
 Alpha virt. eigenvalues --    2.72174   2.74626   2.74869   2.76258   2.77487
 Alpha virt. eigenvalues --    2.80061   2.85477   2.89067   2.99390   3.01548
 Alpha virt. eigenvalues --    3.02965   3.13747   3.88013   4.07542   4.12123
 Alpha virt. eigenvalues --    4.18919   4.27623   4.28678   4.31434   4.48488
 Alpha virt. eigenvalues --    4.48643   4.56517   4.71482   4.80336   4.82087
 Alpha virt. eigenvalues --    4.86014
          Condensed to atoms (all electrons):
               1          2          3          4          5          6
     1  O    8.008729   0.579597  -0.073671   0.001058   0.000895   0.000028
     2  C    0.579597   4.515202   0.330963  -0.028482  -0.030291  -0.020681
     3  C   -0.073671   0.330963   5.228399   0.326849   0.339276  -0.028873
     4  C    0.001058  -0.028482   0.326849   5.144888  -0.038954  -0.014360
     5  C    0.000895  -0.030291   0.339276  -0.038954   5.098873   0.371407
     6  C    0.000028  -0.020681  -0.028873  -0.014360   0.371407   4.958170
     7  C    0.000895  -0.030286  -0.008073  -0.002585  -0.049478   0.371387
     8  C   -0.073674   0.330980  -0.124312  -0.009104  -0.008073  -0.028863
     9  C    0.001059  -0.028484  -0.009118  -0.046769  -0.002586  -0.014347
    10  C    0.000087  -0.020399  -0.021524   0.352054  -0.017629  -0.019982
    11  C    0.000001   0.000190   0.002414  -0.033823  -0.000086   0.004907
    12  O    0.000000  -0.000001  -0.000063  -0.000143  -0.000008   0.000633
    13  O    0.000000  -0.000007   0.000137   0.001312  -0.000006  -0.000024
    14  C   -0.000030  -0.002579  -0.012288  -0.051423  -0.043655   0.351018
    15  H    0.004274  -0.030927   0.346202  -0.031760  -0.030790   0.004208
    16  H    0.000688  -0.001092  -0.035741   0.366542   0.004802  -0.000026
    17  H   -0.000081   0.003428  -0.030308   0.359754  -0.005940  -0.000708
    18  H   -0.000081   0.003536  -0.031130  -0.005874   0.361208  -0.033274
    19  H    0.000754  -0.000745  -0.039592   0.005177   0.368026  -0.034863
    20  H   -0.000001   0.000271   0.004662   0.000078  -0.037802   0.371124
    21  H   -0.000081   0.003536  -0.000292   0.000111   0.005222  -0.033275
    22  H    0.000754  -0.000745  -0.000105   0.000038  -0.004210  -0.034862
    23  H    0.004273  -0.030927   0.006982  -0.000009  -0.000071   0.004208
    24  H    0.000688  -0.001092   0.000447  -0.005105  -0.000009  -0.000025
    25  H   -0.000081   0.003427  -0.000338   0.005449   0.000112  -0.000709
    26  H   -0.000000   0.000001   0.000010  -0.000268   0.000000   0.000002
    27  H    0.000000   0.000133  -0.001326  -0.004243  -0.003616  -0.034602
    28  H    0.000000   0.000133  -0.000022   0.005259   0.004940  -0.034622
               7          8          9         10         11         12
     1  O    0.000895  -0.073674   0.001059   0.000087   0.000001   0.000000
     2  C   -0.030286   0.330980  -0.028484  -0.020399   0.000190  -0.000001
     3  C   -0.008073  -0.124312  -0.009118  -0.021524   0.002414  -0.000063
     4  C   -0.002585  -0.009104  -0.046769   0.352054  -0.033823  -0.000143
     5  C   -0.049478  -0.008073  -0.002586  -0.017629  -0.000086  -0.000008
     6  C    0.371387  -0.028863  -0.014347  -0.019982   0.004907   0.000633
     7  C    5.098852   0.339311  -0.038967  -0.017621  -0.000085  -0.000008
     8  C    0.339311   5.228301   0.326854  -0.021523   0.002396  -0.000063
     9  C   -0.038967   0.326854   5.145211   0.351558  -0.033580  -0.000091
    10  C   -0.017621  -0.021523   0.351558   5.120755   0.310168  -0.082873
    11  C   -0.000085   0.002396  -0.033580   0.310168   4.395798   0.577196
    12  O   -0.000008  -0.000063  -0.000091  -0.082873   0.577196   8.037688
    13  O   -0.000006   0.000131   0.001296  -0.103318   0.270478  -0.088599
    14  C   -0.043653  -0.012301  -0.051423   0.370135  -0.046361   0.003301
    15  H   -0.000071   0.006982  -0.000009   0.003846  -0.000088   0.000000
    16  H   -0.000009   0.000448  -0.005100  -0.032466  -0.007241   0.000014
    17  H    0.000112  -0.000339   0.005454  -0.036965  -0.001761   0.000618
    18  H    0.005222  -0.000292   0.000111  -0.001269  -0.000087  -0.000000
    19  H   -0.004210  -0.000105   0.000038   0.000249   0.000015   0.000000
    20  H   -0.037800   0.004662   0.000078   0.004337  -0.000110  -0.000001
    21  H    0.361206  -0.031130  -0.005875  -0.001270  -0.000087  -0.000000
    22  H    0.368032  -0.039594   0.005178   0.000248   0.000015   0.000000
    23  H   -0.030793   0.346198  -0.031761   0.003845  -0.000088   0.000000
    24  H    0.004802  -0.035743   0.366550  -0.032525  -0.007204   0.000015
    25  H   -0.005940  -0.030291   0.359774  -0.036927  -0.001809   0.000606
    26  H    0.000000   0.000010  -0.000270   0.011341  -0.006470   0.011635
    27  H    0.004939  -0.000022   0.005263  -0.034402  -0.004801   0.004179
    28  H   -0.003617  -0.001325  -0.004240  -0.034425  -0.004772   0.004132
              13         14         15         16         17         18
     1  O    0.000000  -0.000030   0.004274   0.000688  -0.000081  -0.000081
     2  C   -0.000007  -0.002579  -0.030927  -0.001092   0.003428   0.003536
     3  C    0.000137  -0.012288   0.346202  -0.035741  -0.030308  -0.031130
     4  C    0.001312  -0.051423  -0.031760   0.366542   0.359754  -0.005874
     5  C   -0.000006  -0.043655  -0.030790   0.004802  -0.005940   0.361208
     6  C   -0.000024   0.351018   0.004208  -0.000026  -0.000708  -0.033274
     7  C   -0.000006  -0.043653  -0.000071  -0.000009   0.000112   0.005222
     8  C    0.000131  -0.012301   0.006982   0.000448  -0.000339  -0.000292
     9  C    0.001296  -0.051423  -0.000009  -0.005100   0.005454   0.000111
    10  C   -0.103318   0.370135   0.003846  -0.032466  -0.036965  -0.001269
    11  C    0.270478  -0.046361  -0.000088  -0.007241  -0.001761  -0.000087
    12  O   -0.088599   0.003301   0.000000   0.000014   0.000618  -0.000000
    13  O    8.264097   0.003116  -0.000001   0.006343  -0.000075   0.000000
    14  C    0.003116   5.103455   0.000082   0.005095  -0.004113  -0.003301
    15  H   -0.000001   0.000082   0.594097  -0.002611  -0.003905  -0.003940
    16  H    0.006343   0.005095  -0.002611   0.561757  -0.033073  -0.000059
    17  H   -0.000075  -0.004113  -0.003905  -0.033073   0.590595   0.005650
    18  H    0.000000  -0.003301  -0.003940  -0.000059   0.005650   0.596225
    19  H   -0.000000   0.004813  -0.002513  -0.000146  -0.000057  -0.034644
    20  H    0.000000  -0.038616  -0.000138   0.000017  -0.000089  -0.003208
    21  H    0.000000  -0.003302   0.000023   0.000000  -0.000005  -0.000198
    22  H   -0.000000   0.004814  -0.000085  -0.000005   0.000001   0.000007
    23  H   -0.000001   0.000081  -0.000173  -0.000074   0.000023   0.000023
    24  H    0.006302   0.005098  -0.000074   0.004007  -0.000011   0.000000
    25  H   -0.000066  -0.004112   0.000023  -0.000012  -0.000193  -0.000005
    26  H    0.215944  -0.000308  -0.000000  -0.000185  -0.000078  -0.000000
    27  H    0.000055   0.366108  -0.000061  -0.000052   0.004827   0.004474
    28  H    0.000056   0.366139   0.000016  -0.000159  -0.000071  -0.000055
              19         20         21         22         23         24
     1  O    0.000754  -0.000001  -0.000081   0.000754   0.004273   0.000688
     2  C   -0.000745   0.000271   0.003536  -0.000745  -0.030927  -0.001092
     3  C   -0.039592   0.004662  -0.000292  -0.000105   0.006982   0.000447
     4  C    0.005177   0.000078   0.000111   0.000038  -0.000009  -0.005105
     5  C    0.368026  -0.037802   0.005222  -0.004210  -0.000071  -0.000009
     6  C   -0.034863   0.371124  -0.033275  -0.034862   0.004208  -0.000025
     7  C   -0.004210  -0.037800   0.361206   0.368032  -0.030793   0.004802
     8  C   -0.000105   0.004662  -0.031130  -0.039594   0.346198  -0.035743
     9  C    0.000038   0.000078  -0.005875   0.005178  -0.031761   0.366550
    10  C    0.000249   0.004337  -0.001270   0.000248   0.003845  -0.032525
    11  C    0.000015  -0.000110  -0.000087   0.000015  -0.000088  -0.007204
    12  O    0.000000  -0.000001  -0.000000   0.000000   0.000000   0.000015
    13  O   -0.000000   0.000000   0.000000  -0.000000  -0.000001   0.006302
    14  C    0.004813  -0.038616  -0.003302   0.004814   0.000081   0.005098
    15  H   -0.002513  -0.000138   0.000023  -0.000085  -0.000173  -0.000074
    16  H   -0.000146   0.000017   0.000000  -0.000005  -0.000074   0.004007
    17  H   -0.000057  -0.000089  -0.000005   0.000001   0.000023  -0.000011
    18  H   -0.034644  -0.003208  -0.000198   0.000007   0.000023   0.000000
    19  H    0.590397  -0.003372   0.000007   0.004241  -0.000085  -0.000005
    20  H   -0.003372   0.618691  -0.003208  -0.003372  -0.000138   0.000017
    21  H    0.000007  -0.003208   0.596239  -0.034645  -0.003939  -0.000059
    22  H    0.004241  -0.003372  -0.034645   0.590389  -0.002514  -0.000146
    23  H   -0.000085  -0.000138  -0.003939  -0.002514   0.594125  -0.002610
    24  H   -0.000005   0.000017  -0.000059  -0.000146  -0.002610   0.561941
    25  H    0.000001  -0.000089   0.005649  -0.000057  -0.003902  -0.033095
    26  H    0.000000  -0.000000  -0.000000   0.000000  -0.000000  -0.000185
    27  H   -0.000037  -0.003529  -0.000055  -0.000152   0.000017  -0.000159
    28  H   -0.000153  -0.003531   0.004475  -0.000037  -0.000061  -0.000052
              25         26         27         28
     1  O   -0.000081  -0.000000   0.000000   0.000000
     2  C    0.003427   0.000001   0.000133   0.000133
     3  C   -0.000338   0.000010  -0.001326  -0.000022
     4  C    0.005449  -0.000268  -0.004243   0.005259
     5  C    0.000112   0.000000  -0.003616   0.004940
     6  C   -0.000709   0.000002  -0.034602  -0.034622
     7  C   -0.005940   0.000000   0.004939  -0.003617
     8  C   -0.030291   0.000010  -0.000022  -0.001325
     9  C    0.359774  -0.000270   0.005263  -0.004240
    10  C   -0.036927   0.011341  -0.034402  -0.034425
    11  C   -0.001809  -0.006470  -0.004801  -0.004772
    12  O    0.000606   0.011635   0.004179   0.004132
    13  O   -0.000066   0.215944   0.000055   0.000056
    14  C   -0.004112  -0.000308   0.366108   0.366139
    15  H    0.000023  -0.000000  -0.000061   0.000016
    16  H   -0.000012  -0.000185  -0.000052  -0.000159
    17  H   -0.000193  -0.000078   0.004827  -0.000071
    18  H   -0.000005  -0.000000   0.004474  -0.000055
    19  H    0.000001   0.000000  -0.000037  -0.000153
    20  H   -0.000089  -0.000000  -0.003529  -0.003531
    21  H    0.005649  -0.000000  -0.000055   0.004475
    22  H   -0.000057   0.000000  -0.000152  -0.000037
    23  H   -0.003902  -0.000000   0.000017  -0.000061
    24  H   -0.033095  -0.000185  -0.000159  -0.000052
    25  H    0.590622  -0.000077  -0.000071   0.004824
    26  H   -0.000077   0.358071  -0.000010  -0.000010
    27  H   -0.000071  -0.000010   0.581935  -0.031707
    28  H    0.004824  -0.000010  -0.031707   0.582029
 Mulliken charges:
               1
     1  O   -0.456081
     2  C    0.455345
     3  C   -0.169567
     4  C   -0.295666
     5  C   -0.281558
     6  C   -0.102996
     7  C   -0.281557
     8  C   -0.169519
     9  C   -0.295805
    10  C   -0.013502
    11  C    0.584875
    12  O   -0.468166
    13  O   -0.577163
    14  C   -0.265790
    15  H    0.147392
    16  H    0.168334
    17  H    0.147312
    18  H    0.140961
    19  H    0.146808
    20  H    0.131068
    21  H    0.140951
    22  H    0.146812
    23  H    0.147372
    24  H    0.168231
    25  H    0.147289
    26  H    0.410846
    27  H    0.146917
    28  H    0.146856
 Sum of Mulliken charges =  -0.00000
 Mulliken charges with hydrogens summed into heavy atoms:
               1
     1  O   -0.456081
     2  C    0.455345
     3  C   -0.022174
     4  C    0.019981
     5  C    0.006210
     6  C    0.028072
     7  C    0.006206
     8  C   -0.022148
     9  C    0.019716
    10  C   -0.013502
    11  C    0.584875
    12  O   -0.468166
    13  O   -0.166317
    14  C    0.027983
 APT charges:
               1
     1  O   -0.637165
     2  C    0.695300
     3  C   -0.046611
     4  C    0.107028
     5  C    0.116460
     6  C    0.102821
     7  C    0.116475
     8  C   -0.046659
     9  C    0.107312
    10  C   -0.049936
    11  C    1.045752
    12  O   -0.699836
    13  O   -0.673710
    14  C    0.075730
    15  H   -0.048425
    16  H   -0.014271
    17  H   -0.037604
    18  H   -0.044761
    19  H   -0.039946
    20  H   -0.066021
    21  H   -0.044768
    22  H   -0.039945
    23  H   -0.048432
    24  H   -0.014442
    25  H   -0.037635
    26  H    0.277323
    27  H   -0.026994
    28  H   -0.027038
 Sum of APT charges =   0.00000
 APT charges with hydrogens summed into heavy atoms:
               1
     1  O   -0.637165
     2  C    0.695300
     3  C   -0.095036
     4  C    0.055153
     5  C    0.031753
     6  C    0.036800
     7  C    0.031762
     8  C   -0.095092
     9  C    0.055235
    10  C   -0.049936
    11  C    1.045752
    12  O   -0.699836
    13  O   -0.396387
    14  C    0.021698
 Electronic spatial extent (au):  <R**2>=           2329.1459
 Charge=             -0.0000 electrons
 Dipole moment (field-independent basis, Debye):
    X=              1.1129    Y=              1.1028    Z=             -0.0000  Tot=              1.5667
 Quadrupole moment (field-independent basis, Debye-Ang):
   XX=            -89.7662   YY=            -86.5425   ZZ=            -78.0270
   XY=            -14.6935   XZ=             -0.0005   YZ=             -0.0061
 Traceless Quadrupole moment (field-independent basis, Debye-Ang):
   XX=             -4.9876   YY=             -1.7640   ZZ=              6.7515
   XY=            -14.6935   XZ=             -0.0005   YZ=             -0.0061
 Octapole moment (field-independent basis, Debye-Ang**2):
  XXX=             45.7956  YYY=              1.5346  ZZZ=              0.0048  XYY=             19.1349
  XXY=            -12.3951  XXZ=              0.0338  XZZ=              4.8459  YZZ=             -3.0844
  YYZ=              0.0147  XYZ=             -0.0138
 Hexadecapole moment (field-independent basis, Debye-Ang**3):
 XXXX=          -1631.8067 YYYY=           -751.8429 ZZZZ=           -515.3741 XXXY=           -200.9885
 XXXZ=              0.1326 YYYX=            -33.3616 YYYZ=             -0.0245 ZZZX=              0.0307
 ZZZY=             -0.0145 XXYY=           -432.0861 XXZZ=           -355.3178 YYZZ=           -207.7417
 XXYZ=             -0.0882 YYXZ=              0.0358 ZZXY=              6.4884
 N-N= 9.761175032633D+02 E-N=-3.473761315946D+03  KE= 6.473293351347D+02
  Exact polarizability: 121.452   3.389 109.215   0.016  -0.006  98.892
 Approx polarizability: 170.757  17.416 173.606   0.031   0.007 147.375
 Calling FoFJK, ICntrl=    100127 FMM=F ISym2X=0 I1Cent= 0 IOpClX= 0 NMat=1 NMatS=1 NMatT=0.
 Full mass-weighted force constant matrix:
 Low frequencies ---    0.0003    0.0006    0.0010    6.2316    6.7006   10.6580
 Low frequencies ---   36.9938   89.0808  160.8549
 Diagonal vibrational polarizability:
       16.9837235      15.6468296      40.4844761
 Harmonic frequencies (cm**-1), IR intensities (KM/Mole), Raman scattering
 activities (A**4/AMU), depolarization ratios for plane and unpolarized
 incident light, reduced masses (AMU), force constants (mDyne/A),
 and normal coordinates:
                      1                      2                      3
                      A                      A                      A
 Frequencies --     36.9751                89.0807               160.8547
 Red. masses --     11.2788                10.4121                 3.7113
 Frc consts  --      0.0091                 0.0487                 0.0566
 IR Inten    --      1.4896                 4.2291                 0.0999
  Atom  AN      X      Y      Z        X      Y      Z        X      Y      Z
     1   8     0.00  -0.00   0.13     0.51  -0.42  -0.00     0.00  -0.00   0.04
     2   6     0.00  -0.00   0.06     0.08  -0.01  -0.00    -0.00   0.00   0.00
     3   6     0.03   0.06   0.02    -0.07   0.13   0.00     0.07  -0.02  -0.02
     4   6     0.02   0.06  -0.00    -0.07   0.09   0.02     0.05  -0.05  -0.15
     5   6     0.03   0.06  -0.05    -0.03   0.13  -0.01     0.13  -0.01   0.05
     6   6    -0.00   0.00  -0.10     0.02   0.11   0.00     0.00   0.00  -0.00
     7   6    -0.03  -0.06  -0.05    -0.03   0.13   0.01    -0.13   0.01   0.05
     8   6    -0.02  -0.06   0.02    -0.07   0.13  -0.00    -0.07   0.02  -0.02
     9   6    -0.02  -0.06  -0.00    -0.07   0.09  -0.02    -0.05   0.05  -0.15
    10   6     0.00   0.00  -0.05    -0.05   0.04   0.00    -0.00  -0.00  -0.15
    11   6    -0.00   0.00   0.04    -0.07  -0.08  -0.00     0.00  -0.00   0.02
    12   8    -0.00  -0.00   0.60     0.01  -0.16  -0.00    -0.00   0.00   0.15
    13   8    -0.00  -0.00  -0.51    -0.21  -0.12   0.00     0.00   0.00   0.21
    14   6    -0.00   0.00  -0.11     0.01   0.06   0.00     0.00  -0.00  -0.14
    15   1     0.04   0.11   0.05    -0.08   0.14   0.00     0.13  -0.04  -0.01
    16   1     0.03   0.06   0.04    -0.11   0.09   0.05     0.04  -0.05  -0.23
    17   1     0.05   0.11  -0.03    -0.06   0.11   0.00     0.13  -0.11  -0.16
    18   1     0.04   0.11  -0.08    -0.04   0.12  -0.00     0.26  -0.06   0.02
    19   1     0.03   0.06  -0.04    -0.02   0.17  -0.04     0.14   0.03   0.19
    20   1    -0.00   0.00  -0.14     0.06   0.12   0.00     0.00   0.00   0.03
    21   1    -0.05  -0.11  -0.08    -0.04   0.12   0.00    -0.26   0.06   0.02
    22   1    -0.03  -0.06  -0.04    -0.02   0.17   0.04    -0.14  -0.03   0.19
    23   1    -0.04  -0.11   0.05    -0.08   0.14  -0.00    -0.13   0.04  -0.01
    24   1    -0.02  -0.06   0.04    -0.11   0.09  -0.05    -0.04   0.05  -0.23
    25   1    -0.05  -0.11  -0.03    -0.06   0.11  -0.00    -0.13   0.11  -0.16
    26   1    -0.00  -0.00  -0.32    -0.21  -0.22  -0.00     0.00   0.00   0.41
    27   1     0.02   0.04  -0.14     0.03   0.04   0.00     0.08   0.02  -0.20
    28   1    -0.02  -0.04  -0.14     0.03   0.04  -0.00    -0.08  -0.02  -0.20
                      4                      5                      6
                      A                      A                      A
 Frequencies --    190.7121               274.8274               297.6550
 Red. masses --      4.6405                 2.3461                 2.3247
 Frc consts  --      0.0994                 0.1044                 0.1214
 IR Inten    --      0.4186                 0.9998                 0.0147
  Atom  AN      X      Y      Z        X      Y      Z        X      Y      Z
     1   8     0.05  -0.08  -0.00     0.00  -0.00   0.15    -0.00  -0.00  -0.06
     2   6    -0.08   0.05   0.00     0.00  -0.00   0.05    -0.00   0.00  -0.02
     3   6    -0.08   0.06  -0.00     0.01   0.04   0.00    -0.08   0.06   0.01
     4   6    -0.09  -0.13  -0.01    -0.02  -0.11  -0.09    -0.09  -0.08   0.01
     5   6     0.08   0.09   0.00    -0.05   0.03  -0.07     0.10   0.11   0.05
     6   6     0.11   0.03  -0.00    -0.00   0.00  -0.05     0.00   0.00  -0.04
     7   6     0.08   0.09  -0.01     0.05  -0.03  -0.07    -0.10  -0.11   0.05
     8   6    -0.08   0.06   0.00    -0.01  -0.04   0.00     0.08  -0.06   0.01
     9   6    -0.09  -0.13   0.01     0.02   0.11  -0.09     0.09   0.07   0.01
    10   6    -0.04  -0.15   0.00    -0.00   0.00  -0.02     0.00  -0.00   0.08
    11   6    -0.02  -0.01  -0.00    -0.00   0.00  -0.01    -0.00   0.00   0.04
    12   8    -0.18   0.15  -0.00    -0.00  -0.00   0.00     0.00   0.00  -0.04
    13   8     0.23   0.06  -0.00    -0.00   0.00   0.01     0.00   0.00  -0.04
    14   6     0.07  -0.13   0.00     0.00  -0.00   0.15    -0.00   0.00  -0.02
    15   1    -0.13   0.10   0.00     0.02   0.07   0.02    -0.13   0.10  -0.00
    16   1    -0.22  -0.16  -0.05    -0.16  -0.15  -0.27    -0.19  -0.10  -0.11
    17   1    -0.04  -0.21   0.01     0.09  -0.32  -0.04    -0.07  -0.23   0.08
    18   1     0.15   0.05  -0.01    -0.14   0.10  -0.06     0.33   0.05  -0.02
    19   1     0.09   0.20   0.04    -0.06  -0.05  -0.14     0.13   0.26   0.24
    20   1     0.22   0.05  -0.00    -0.00   0.00  -0.09    -0.00   0.00  -0.13
    21   1     0.15   0.04   0.01     0.14  -0.10  -0.06    -0.33  -0.05  -0.02
    22   1     0.09   0.20  -0.04     0.06   0.05  -0.14    -0.13  -0.26   0.24
    23   1    -0.12   0.10   0.00    -0.02  -0.07   0.02     0.13  -0.10  -0.00
    24   1    -0.22  -0.16   0.05     0.16   0.15  -0.27     0.19   0.10  -0.11
    25   1    -0.04  -0.21  -0.00    -0.09   0.32  -0.04     0.07   0.23   0.08
    26   1     0.23   0.26  -0.00    -0.00  -0.00   0.02     0.00  -0.00  -0.15
    27   1     0.12  -0.17  -0.00    -0.16  -0.14   0.31    -0.03   0.09  -0.05
    28   1     0.13  -0.17   0.01     0.16   0.14   0.31     0.03  -0.09  -0.05
                      7                      8                      9
                      A                      A                      A
 Frequencies --    316.3871               348.4700               383.1490
 Red. masses --      4.5260                 5.5246                 2.9281
 Frc consts  --      0.2669                 0.3953                 0.2533
 IR Inten    --      4.2029                 0.2734                 2.6871
  Atom  AN      X      Y      Z        X      Y      Z        X      Y      Z
     1   8    -0.03  -0.03   0.00    -0.15  -0.20   0.00    -0.09  -0.07  -0.00
     2   6    -0.06  -0.00   0.00    -0.22  -0.11   0.00    -0.03  -0.12  -0.00
     3   6    -0.08   0.04  -0.02    -0.11  -0.05  -0.07    -0.02  -0.05  -0.02
     4   6    -0.04   0.08   0.03    -0.07  -0.04  -0.12    -0.00   0.13   0.06
     5   6    -0.17   0.03  -0.06     0.08   0.00  -0.02     0.05  -0.03  -0.07
     6   6    -0.05   0.01  -0.00     0.08   0.05   0.00     0.16  -0.01   0.00
     7   6    -0.17   0.03   0.06     0.08   0.00   0.02     0.05  -0.03   0.07
     8   6    -0.08   0.05   0.02    -0.11  -0.05   0.07    -0.02  -0.05   0.02
     9   6    -0.04   0.08  -0.03    -0.07  -0.04   0.12    -0.00   0.13  -0.06
    10   6     0.06  -0.04   0.00     0.05   0.14  -0.00    -0.01   0.01  -0.00
    11   6     0.16  -0.08  -0.00     0.11   0.12   0.00    -0.06  -0.03  -0.00
    12   8     0.17  -0.09   0.00     0.25  -0.01   0.00    -0.13   0.04  -0.00
    13   8     0.29  -0.06  -0.00    -0.05   0.09  -0.00    -0.01  -0.01   0.00
    14   6    -0.01  -0.03  -0.00     0.08   0.14  -0.00     0.15   0.02   0.00
    15   1    -0.05   0.05  -0.00    -0.02   0.02   0.01    -0.01   0.01   0.02
    16   1    -0.05   0.08   0.17    -0.06  -0.04  -0.33     0.18   0.17   0.31
    17   1    -0.09   0.19   0.00    -0.14  -0.23   0.01    -0.12   0.40  -0.01
    18   1    -0.35   0.06   0.00     0.20  -0.12  -0.01    -0.03  -0.09  -0.00
    19   1    -0.19  -0.04  -0.24     0.11   0.17   0.07     0.06   0.05  -0.19
    20   1     0.03   0.02  -0.00    -0.00   0.03   0.00     0.13  -0.01  -0.00
    21   1    -0.35   0.06  -0.00     0.20  -0.12   0.01    -0.03  -0.09   0.00
    22   1    -0.19  -0.04   0.24     0.11   0.17  -0.07     0.06   0.04   0.19
    23   1    -0.05   0.05   0.00    -0.02   0.02  -0.01    -0.01   0.01  -0.02
    24   1    -0.05   0.08  -0.17    -0.06  -0.04   0.33     0.18   0.17  -0.31
    25   1    -0.09   0.19   0.00    -0.14  -0.24  -0.01    -0.12   0.40   0.02
    26   1     0.30   0.10   0.00    -0.05  -0.04   0.00    -0.01   0.01   0.00
    27   1    -0.03  -0.01  -0.00     0.07   0.14   0.00     0.17  -0.01   0.00
    28   1    -0.03  -0.01   0.00     0.07   0.14  -0.00     0.17  -0.01  -0.00
                     10                     11                     12
                      A                      A                      A
 Frequencies --    394.2119               432.8335               440.2726
 Red. masses --      4.9269                 1.7908                 1.9187
 Frc consts  --      0.4511                 0.1977                 0.2191
 IR Inten    --      0.1634                 0.0188                 3.2528
  Atom  AN      X      Y      Z        X      Y      Z        X      Y      Z
     1   8    -0.00  -0.00   0.02    -0.00   0.00  -0.04    -0.01  -0.02  -0.00
     2   6    -0.00  -0.00  -0.00     0.00   0.00  -0.04    -0.04   0.01  -0.00
     3   6     0.13  -0.12  -0.00     0.04   0.03  -0.04    -0.03  -0.01   0.03
     4   6     0.10  -0.14   0.15     0.05   0.07   0.01    -0.02   0.06   0.04
     5   6     0.14  -0.11  -0.16     0.07   0.04  -0.00     0.07  -0.01   0.11
     6   6     0.00   0.00  -0.19     0.00   0.00  -0.04    -0.09  -0.04   0.00
     7   6    -0.14   0.11  -0.16    -0.07  -0.04  -0.00     0.07  -0.01  -0.11
     8   6    -0.13   0.12  -0.00    -0.04  -0.03  -0.04    -0.03  -0.01  -0.03
     9   6    -0.10   0.14   0.15    -0.05  -0.07   0.01    -0.02   0.06  -0.04
    10   6    -0.00   0.00   0.19     0.00   0.00  -0.03    -0.02   0.01  -0.00
    11   6    -0.00  -0.00   0.06     0.00   0.00  -0.04     0.00  -0.04  -0.00
    12   8    -0.00   0.00  -0.01     0.00  -0.00   0.01     0.00  -0.04  -0.00
    13   8    -0.00  -0.00   0.00    -0.00   0.00   0.01     0.09  -0.03   0.00
    14   6     0.00   0.00  -0.02     0.00  -0.00   0.16    -0.07   0.03   0.00
    15   1     0.01  -0.02  -0.01     0.04   0.03  -0.04    -0.02  -0.05   0.01
    16   1     0.15  -0.13   0.05     0.11   0.08   0.14     0.07   0.09   0.15
    17   1     0.03  -0.20   0.22     0.01   0.21  -0.04    -0.07   0.20  -0.00
    18   1     0.18  -0.04  -0.22     0.22   0.01  -0.05     0.39  -0.06  -0.01
    19   1     0.13  -0.16  -0.07     0.09   0.09   0.14     0.10   0.13   0.42
    20   1    -0.00  -0.00  -0.04     0.00   0.00  -0.09    -0.13  -0.04  -0.00
    21   1    -0.18   0.04  -0.22    -0.22  -0.01  -0.05     0.39  -0.06   0.00
    22   1    -0.13   0.16  -0.07    -0.09  -0.09   0.14     0.10   0.13  -0.42
    23   1    -0.01   0.02  -0.01    -0.04  -0.03  -0.04    -0.02  -0.05  -0.01
    24   1    -0.15   0.13   0.05    -0.11  -0.08   0.14     0.07   0.09  -0.15
    25   1    -0.03   0.20   0.22    -0.01  -0.21  -0.04    -0.07   0.20   0.00
    26   1     0.00  -0.00  -0.15    -0.00   0.00   0.09     0.09   0.08   0.00
    27   1    -0.14   0.17  -0.05    -0.24  -0.23   0.41    -0.09   0.05   0.00
    28   1     0.14  -0.17  -0.05     0.24   0.23   0.41    -0.09   0.05  -0.00
                     13                     14                     15
                      A                      A                      A
 Frequencies --    465.3915               494.9372               615.5409
 Red. masses --      4.3547                 4.2860                 4.9570
 Frc consts  --      0.5557                 0.6186                 1.1066
 IR Inten    --     14.1493                 5.2691                 3.8265
  Atom  AN      X      Y      Z        X      Y      Z        X      Y      Z
     1   8     0.00  -0.00   0.32    -0.02  -0.01  -0.00    -0.16  -0.14  -0.00
     2   6    -0.00   0.00  -0.18     0.01  -0.04  -0.00    -0.05  -0.20   0.01
     3   6    -0.04  -0.02  -0.22     0.05  -0.01  -0.05     0.10   0.04  -0.04
     4   6    -0.08   0.03   0.01     0.03   0.01  -0.13     0.14  -0.04   0.01
     5   6     0.02  -0.06   0.02     0.00  -0.01  -0.03    -0.00   0.15  -0.04
     6   6     0.00  -0.00   0.06    -0.04   0.10   0.00    -0.13   0.23  -0.00
     7   6    -0.02   0.06   0.02     0.00  -0.01   0.03    -0.00   0.16   0.04
     8   6     0.04   0.02  -0.22     0.05  -0.01   0.05     0.10   0.05   0.05
     9   6     0.08  -0.03   0.01     0.03   0.01   0.13     0.15  -0.05  -0.03
    10   6     0.00  -0.00   0.06    -0.00   0.15   0.00     0.04  -0.11  -0.01
    11   6    -0.00  -0.00   0.05    -0.09  -0.15  -0.00     0.04  -0.01   0.03
    12   8    -0.00   0.00  -0.02    -0.20  -0.07  -0.00    -0.03   0.05  -0.00
    13   8     0.00  -0.00  -0.01     0.16  -0.14   0.00    -0.03  -0.06   0.01
    14   6     0.00  -0.00   0.01     0.01   0.25   0.00    -0.16  -0.09  -0.00
    15   1    -0.15  -0.15  -0.36     0.12   0.00  -0.00     0.18   0.23   0.11
    16   1    -0.01   0.04   0.11     0.01   0.00  -0.40     0.13  -0.04   0.17
    17   1    -0.24   0.12   0.05     0.07  -0.23  -0.03     0.15   0.11  -0.06
    18   1     0.13  -0.22   0.06    -0.05  -0.03   0.00     0.10   0.10  -0.06
    19   1     0.04   0.02   0.12    -0.01  -0.09  -0.04    -0.01   0.05   0.16
    20   1     0.00  -0.00   0.09    -0.20   0.07   0.00     0.05   0.27   0.00
    21   1    -0.13   0.22   0.06    -0.05  -0.03  -0.00     0.09   0.10   0.05
    22   1    -0.04  -0.02   0.12    -0.01  -0.09   0.04    -0.02   0.05  -0.15
    23   1     0.15   0.15  -0.35     0.12   0.00   0.00     0.16   0.23  -0.08
    24   1     0.01  -0.04   0.11     0.01   0.00   0.40     0.12  -0.05  -0.18
    25   1     0.24  -0.12   0.04     0.07  -0.23   0.03     0.15   0.07   0.03
    26   1     0.00  -0.00  -0.14     0.17   0.16   0.00    -0.04  -0.20  -0.23
    27   1     0.05   0.05  -0.04    -0.02   0.26   0.01    -0.13  -0.12  -0.00
    28   1    -0.05  -0.05  -0.04    -0.02   0.26  -0.01    -0.11  -0.10   0.02
                     16                     17                     18
                      A                      A                      A
 Frequencies --    616.0780               635.8042               637.2209
 Red. masses --      1.2978                 3.1867                 4.9341
 Frc consts  --      0.2902                 0.7590                 1.1804
 IR Inten    --     62.3912                13.7399                36.4780
  Atom  AN      X      Y      Z        X      Y      Z        X      Y      Z
     1   8    -0.01  -0.01   0.01    -0.00   0.00   0.04     0.01  -0.04   0.00
     2   6    -0.00  -0.01  -0.03     0.00  -0.00   0.13    -0.14   0.11   0.00
     3   6     0.00   0.02  -0.02    -0.13  -0.12   0.10    -0.02   0.05  -0.01
     4   6     0.02  -0.03   0.05    -0.13   0.02  -0.05     0.04   0.09  -0.13
     5   6    -0.01   0.03   0.00     0.04  -0.12  -0.07    -0.06  -0.02   0.08
     6   6    -0.01   0.01   0.01    -0.00   0.00  -0.08    -0.01  -0.18  -0.00
     7   6     0.01  -0.01   0.01    -0.04   0.12  -0.07    -0.07  -0.01  -0.08
     8   6     0.01  -0.01  -0.01     0.13   0.12   0.10    -0.02   0.05   0.02
     9   6    -0.00   0.02   0.05     0.13  -0.03  -0.05     0.05   0.09   0.13
    10   6     0.00  -0.01   0.02    -0.00  -0.00  -0.07     0.18   0.01  -0.00
    11   6     0.00  -0.00  -0.11    -0.00   0.00  -0.01     0.17  -0.04  -0.00
    12   8    -0.00   0.00   0.00     0.00  -0.00  -0.02    -0.10   0.22  -0.00
    13   8    -0.00  -0.00  -0.05     0.00   0.00  -0.03    -0.07  -0.18  -0.00
    14   6    -0.01  -0.01   0.00    -0.00   0.00  -0.02     0.07  -0.09  -0.00
    15   1    -0.04   0.02  -0.04    -0.09  -0.05   0.17     0.17  -0.08   0.01
    16   1    -0.01  -0.04   0.02     0.01   0.06   0.09    -0.02   0.08  -0.14
    17   1     0.01  -0.06   0.07    -0.18   0.19  -0.10     0.00   0.02  -0.08
    18   1    -0.02   0.02   0.01     0.23  -0.16  -0.14     0.01   0.03   0.02
    19   1    -0.01   0.01   0.00     0.07   0.06   0.08    -0.06   0.03   0.11
    20   1     0.00   0.02  -0.02    -0.00   0.00   0.16     0.10  -0.16   0.00
    21   1     0.03  -0.01   0.02    -0.23   0.16  -0.13     0.00   0.03  -0.03
    22   1     0.01  -0.01  -0.02    -0.07  -0.06   0.08    -0.06   0.03  -0.11
    23   1     0.06   0.01  -0.05     0.09   0.05   0.17     0.17  -0.08  -0.01
    24   1     0.03   0.03   0.00    -0.01  -0.06   0.09    -0.02   0.08   0.14
    25   1     0.01   0.07   0.07     0.18  -0.19  -0.10     0.01   0.02   0.08
    26   1    -0.00  -0.01   0.96    -0.00   0.01   0.39    -0.09  -0.68   0.02
    27   1     0.03   0.04  -0.04    -0.16  -0.16   0.15    -0.02  -0.01   0.00
    28   1    -0.04  -0.05  -0.04     0.16   0.16   0.15    -0.02  -0.01   0.00
                     19                     20                     21
                      A                      A                      A
 Frequencies --    710.9435               716.5392               765.2175
 Red. masses --      3.4913                 4.2340                 4.4948
 Frc consts  --      1.0397                 1.2808                 1.5507
 IR Inten    --     16.1518                 2.3492                34.8563
  Atom  AN      X      Y      Z        X      Y      Z        X      Y      Z
     1   8     0.05   0.09   0.00     0.05   0.05   0.00    -0.00  -0.00  -0.03
     2   6     0.13  -0.01  -0.00     0.03   0.06   0.00    -0.00   0.00   0.02
     3   6    -0.05  -0.05  -0.11     0.03   0.02  -0.23     0.10   0.03  -0.01
     4   6    -0.09  -0.06   0.07    -0.03   0.07  -0.18    -0.01   0.07  -0.10
     5   6     0.04  -0.04  -0.09     0.03  -0.04  -0.11     0.02  -0.01   0.01
     6   6    -0.05   0.12   0.00    -0.03  -0.02  -0.00     0.00  -0.00   0.01
     7   6     0.04  -0.04   0.09     0.03  -0.04   0.11    -0.02   0.01   0.01
     8   6    -0.05  -0.05   0.11     0.03   0.02   0.23    -0.10  -0.03  -0.01
     9   6    -0.09  -0.06  -0.07    -0.03   0.07   0.18     0.01  -0.07  -0.10
    10   6     0.02  -0.03  -0.00    -0.02  -0.04  -0.00    -0.00   0.00   0.08
    11   6     0.15   0.00   0.00    -0.06   0.00  -0.00    -0.00   0.00   0.46
    12   8     0.01   0.15  -0.00     0.01  -0.07   0.00     0.00   0.00  -0.13
    13   8    -0.01  -0.13  -0.00     0.00   0.07   0.00     0.00  -0.00  -0.14
    14   6    -0.04   0.12   0.00    -0.10  -0.19  -0.00    -0.00  -0.00   0.01
    15   1    -0.22   0.02  -0.16     0.13   0.03  -0.18     0.22   0.03   0.05
    16   1    -0.06  -0.05   0.18     0.03   0.09  -0.00    -0.01   0.07  -0.13
    17   1    -0.23   0.03   0.09    -0.19   0.23  -0.18     0.00   0.02  -0.07
    18   1     0.13  -0.20  -0.05     0.19  -0.21  -0.10    -0.06   0.03   0.02
    19   1     0.04   0.00   0.04     0.05   0.00   0.07     0.01  -0.11  -0.04
    20   1    -0.19   0.10   0.00     0.11   0.01  -0.00     0.00  -0.00   0.01
    21   1     0.13  -0.20   0.05     0.19  -0.21   0.10     0.06  -0.02   0.02
    22   1     0.04   0.00  -0.04     0.05   0.00  -0.07    -0.01   0.11  -0.04
    23   1    -0.22   0.02   0.16     0.13   0.03   0.18    -0.22  -0.03   0.05
    24   1    -0.06  -0.05  -0.18     0.03   0.09   0.00     0.01  -0.07  -0.13
    25   1    -0.23   0.03  -0.09    -0.19   0.23   0.18    -0.00  -0.02  -0.07
    26   1    -0.02  -0.50   0.00     0.01   0.23  -0.00    -0.00   0.00   0.70
    27   1    -0.04   0.11   0.00    -0.09  -0.19  -0.01    -0.02   0.05  -0.00
    28   1    -0.04   0.11  -0.00    -0.09  -0.19   0.00     0.02  -0.05  -0.00
                     22                     23                     24
                      A                      A                      A
 Frequencies --    788.4579               805.1340               861.5095
 Red. masses --      3.8245                 2.8643                 2.6963
 Frc consts  --      1.4008                 1.0940                 1.1791
 IR Inten    --      1.3676                 0.4094                 0.0004
  Atom  AN      X      Y      Z        X      Y      Z        X      Y      Z
     1   8    -0.04   0.06   0.00     0.03   0.00  -0.00    -0.00   0.00  -0.04
     2   6     0.29  -0.27  -0.00    -0.05   0.09   0.00     0.00  -0.00   0.04
     3   6    -0.03  -0.02   0.01     0.00  -0.08  -0.06     0.05   0.14  -0.02
     4   6    -0.08   0.08  -0.05     0.03  -0.05  -0.03    -0.08   0.07   0.01
     5   6    -0.10   0.07   0.08    -0.08  -0.00   0.14     0.10  -0.11  -0.06
     6   6     0.02   0.02  -0.00    -0.01   0.22   0.00     0.00  -0.00   0.11
     7   6    -0.10   0.07  -0.08    -0.08  -0.00  -0.14    -0.10   0.11  -0.06
     8   6    -0.03  -0.02  -0.01     0.00  -0.08   0.06    -0.05  -0.14  -0.02
     9   6    -0.07   0.08   0.05     0.03  -0.05   0.03     0.08  -0.07   0.01
    10   6    -0.01   0.03   0.00     0.01  -0.06   0.00     0.00   0.00   0.03
    11   6     0.02  -0.00   0.00    -0.02  -0.00   0.00     0.00  -0.00  -0.09
    12   8     0.01   0.01  -0.00    -0.00  -0.02  -0.00    -0.00  -0.00   0.02
    13   8    -0.00   0.00  -0.00    -0.02   0.04  -0.00    -0.00   0.00   0.02
    14   6     0.09  -0.10  -0.00     0.14   0.02  -0.00     0.00   0.00   0.04
    15   1     0.03  -0.11  -0.01     0.04  -0.24  -0.14     0.10   0.32   0.10
    16   1    -0.21   0.04  -0.26     0.16  -0.02   0.16    -0.31   0.02  -0.08
    17   1     0.07  -0.17   0.00    -0.11   0.15  -0.06    -0.04  -0.12   0.08
    18   1     0.14  -0.09   0.05    -0.15  -0.14   0.25    -0.02  -0.13   0.00
    19   1    -0.07   0.24   0.26    -0.10  -0.11   0.16     0.09  -0.21  -0.13
    20   1     0.23   0.06  -0.00     0.03   0.22   0.00     0.00  -0.00   0.40
    21   1     0.14  -0.09  -0.05    -0.15  -0.14  -0.25     0.02   0.13   0.00
    22   1    -0.07   0.24  -0.26    -0.10  -0.11  -0.16    -0.09   0.21  -0.13
    23   1     0.03  -0.11   0.01     0.04  -0.24   0.13    -0.10  -0.32   0.10
    24   1    -0.21   0.04   0.26     0.16  -0.02  -0.16     0.31  -0.02  -0.08
    25   1     0.07  -0.17  -0.00    -0.11   0.15   0.06     0.04   0.12   0.08
    26   1    -0.00  -0.03   0.00    -0.02   0.06   0.00     0.00  -0.00  -0.06
    27   1     0.12  -0.11  -0.00     0.26  -0.08  -0.01     0.10   0.01  -0.02
    28   1     0.12  -0.11   0.00     0.26  -0.08   0.01    -0.10  -0.01  -0.02
                     25                     26                     27
                      A                      A                      A
 Frequencies --    894.3126               896.3406               905.6191
 Red. masses --      3.3537                 1.6091                 1.5681
 Frc consts  --      1.5804                 0.7617                 0.7577
 IR Inten    --      0.9014                 2.0854                 0.4866
  Atom  AN      X      Y      Z        X      Y      Z        X      Y      Z
     1   8    -0.00   0.00   0.00     0.00   0.00  -0.01    -0.00  -0.00  -0.00
     2   6     0.00   0.01  -0.00     0.00   0.00   0.06    -0.00  -0.00   0.02
     3   6    -0.06   0.04  -0.11    -0.00  -0.00  -0.02     0.01  -0.00  -0.01
     4   6     0.11  -0.05   0.10     0.03  -0.01  -0.05    -0.04  -0.10  -0.03
     5   6    -0.10   0.03  -0.05    -0.06   0.00  -0.06     0.08   0.05  -0.00
     6   6    -0.05  -0.13  -0.00    -0.00  -0.00   0.02    -0.00   0.00   0.05
     7   6    -0.10   0.03   0.05     0.06  -0.00  -0.06    -0.08  -0.05  -0.00
     8   6    -0.06   0.04   0.11     0.00   0.00  -0.02    -0.01   0.00  -0.01
     9   6     0.11  -0.05  -0.10    -0.03   0.01  -0.05     0.04   0.10  -0.03
    10   6     0.21   0.02  -0.00     0.00   0.00   0.05    -0.00  -0.00  -0.03
    11   6    -0.06  -0.03   0.00    -0.00  -0.00  -0.02     0.00  -0.00   0.01
    12   8    -0.06  -0.06  -0.00    -0.00  -0.00   0.01     0.00   0.00  -0.00
    13   8    -0.03   0.08  -0.00    -0.00   0.00   0.00    -0.00   0.00  -0.00
    14   6     0.11   0.05  -0.00     0.00   0.00   0.15     0.00  -0.00   0.04
    15   1    -0.16   0.03  -0.17     0.10   0.06   0.07    -0.05   0.11   0.03
    16   1     0.00  -0.08   0.05     0.05   0.00   0.07     0.16  -0.05   0.34
    17   1     0.02  -0.16   0.20    -0.03   0.10  -0.08    -0.18   0.30  -0.16
    18   1     0.24  -0.10  -0.14     0.25  -0.08  -0.16    -0.21   0.11   0.10
    19   1    -0.06   0.25   0.23    -0.03   0.12   0.25     0.05  -0.11  -0.26
    20   1     0.00  -0.12  -0.00     0.00  -0.00  -0.00    -0.00   0.00  -0.01
    21   1     0.25  -0.10   0.15    -0.25   0.08  -0.16     0.21  -0.11   0.10
    22   1    -0.06   0.26  -0.23     0.03  -0.12   0.25    -0.05   0.11  -0.26
    23   1    -0.15   0.03   0.17    -0.10  -0.06   0.07     0.05  -0.11   0.03
    24   1     0.00  -0.08  -0.05    -0.05  -0.00   0.07    -0.16   0.05   0.34
    25   1     0.02  -0.15  -0.20     0.03  -0.10  -0.08     0.18  -0.30  -0.16
    26   1    -0.02   0.25  -0.00    -0.00   0.00   0.00    -0.00  -0.00   0.01
    27   1    -0.01   0.15   0.00     0.34   0.32  -0.20     0.09   0.10  -0.05
    28   1    -0.00   0.16  -0.00    -0.34  -0.32  -0.20    -0.09  -0.10  -0.05
                     28                     29                     30
                      A                      A                      A
 Frequencies --    914.8051               959.2086               985.2737
 Red. masses --      2.3692                 2.3038                 2.2596
 Frc consts  --      1.1682                 1.2489                 1.2924
 IR Inten    --     10.0877                 0.0148                 3.4331
  Atom  AN      X      Y      Z        X      Y      Z        X      Y      Z
     1   8    -0.03  -0.03  -0.00    -0.00  -0.00   0.01     0.03   0.01   0.00
     2   6    -0.02  -0.04  -0.00    -0.00  -0.00  -0.03    -0.04   0.06   0.00
     3   6     0.09   0.13  -0.01    -0.11   0.05   0.01    -0.06  -0.02   0.08
     4   6    -0.08   0.03   0.03     0.12  -0.04   0.05     0.07   0.04  -0.00
     5   6     0.01  -0.10   0.02     0.02  -0.02  -0.07    -0.03  -0.07  -0.11
     6   6    -0.09   0.01   0.00     0.00  -0.00   0.12    -0.08   0.11   0.00
     7   6     0.01  -0.10  -0.02    -0.02   0.02  -0.07    -0.03  -0.07   0.11
     8   6     0.09   0.13   0.02     0.11  -0.05   0.01    -0.06  -0.02  -0.08
     9   6    -0.08   0.03  -0.03    -0.12   0.04   0.05     0.07   0.04   0.00
    10   6     0.03  -0.08   0.00     0.00   0.00  -0.12    -0.09   0.01   0.00
    11   6     0.00  -0.01   0.00    -0.00   0.00   0.11     0.01   0.01  -0.00
    12   8    -0.00  -0.01  -0.00     0.00   0.00  -0.03     0.01   0.01   0.00
    13   8    -0.02   0.04  -0.00     0.00  -0.00  -0.02     0.01  -0.02   0.00
    14   6     0.13   0.03  -0.00    -0.00   0.00  -0.01     0.09  -0.07  -0.00
    15   1     0.19   0.24   0.11    -0.36   0.19  -0.05    -0.16   0.10   0.09
    16   1    -0.36  -0.03   0.08     0.13  -0.03  -0.02     0.10   0.05  -0.20
    17   1    -0.03  -0.06   0.05     0.29  -0.02  -0.04     0.28  -0.06  -0.06
    18   1     0.01  -0.09   0.01     0.07  -0.08  -0.06     0.21  -0.15  -0.17
    19   1    -0.02  -0.30   0.15     0.05   0.17  -0.08    -0.01   0.04   0.18
    20   1    -0.28  -0.03   0.00     0.00  -0.00   0.36    -0.21   0.08   0.00
    21   1     0.01  -0.09  -0.01    -0.07   0.08  -0.06     0.21  -0.15   0.17
    22   1    -0.02  -0.30  -0.15    -0.05  -0.17  -0.08    -0.01   0.04  -0.18
    23   1     0.19   0.24  -0.10     0.36  -0.19  -0.05    -0.16   0.10  -0.09
    24   1    -0.36  -0.03  -0.08    -0.13   0.03  -0.02     0.10   0.05   0.20
    25   1    -0.03  -0.06  -0.05    -0.29   0.02  -0.04     0.28  -0.06   0.06
    26   1    -0.02   0.01  -0.00    -0.00   0.00   0.02     0.01  -0.06   0.00
    27   1     0.18  -0.02   0.00     0.15  -0.16   0.01     0.25  -0.22  -0.00
    28   1     0.18  -0.02  -0.00    -0.15   0.17   0.01     0.25  -0.22   0.00
                     31                     32                     33
                      A                      A                      A
 Frequencies --    986.4372              1018.6353              1052.4359
 Red. masses --      2.2052                 2.0859                 2.2844
 Frc consts  --      1.2643                 1.2752                 1.4908
 IR Inten    --      2.3943                 4.4415                 1.2794
  Atom  AN      X      Y      Z        X      Y      Z        X      Y      Z
     1   8    -0.01  -0.02  -0.00    -0.00   0.00  -0.02     0.01  -0.01  -0.00
     2   6    -0.05   0.03   0.00     0.00  -0.00   0.02    -0.05   0.05   0.00
     3   6     0.01   0.02  -0.06     0.06   0.09  -0.02     0.10  -0.10  -0.00
     4   6     0.02   0.06   0.12    -0.03  -0.10   0.05    -0.08   0.01   0.05
     5   6     0.02  -0.06   0.05    -0.09  -0.06   0.03    -0.01   0.07  -0.05
     6   6     0.07   0.08   0.00    -0.00   0.00  -0.05    -0.10  -0.01   0.00
     7   6     0.02  -0.06  -0.05     0.09   0.06   0.03    -0.01   0.07   0.05
     8   6     0.01   0.02   0.06    -0.06  -0.09  -0.02     0.10  -0.10   0.00
     9   6     0.02   0.06  -0.12     0.03   0.10   0.05    -0.08   0.01  -0.05
    10   6     0.01   0.12   0.00    -0.00   0.00  -0.10     0.01   0.11   0.00
    11   6    -0.01   0.02  -0.00    -0.00   0.00   0.05    -0.01   0.01  -0.00
    12   8    -0.00   0.00   0.00     0.00   0.00  -0.01     0.00   0.01   0.00
    13   8     0.02  -0.04   0.00     0.00  -0.00  -0.01     0.01  -0.03   0.00
    14   6    -0.09  -0.11  -0.00     0.00   0.00  -0.08     0.08  -0.08  -0.00
    15   1    -0.09   0.03  -0.10     0.02   0.18   0.02     0.18  -0.18  -0.01
    16   1    -0.09   0.04  -0.24    -0.12  -0.12   0.33     0.06   0.04  -0.10
    17   1     0.04  -0.27   0.27    -0.02   0.12  -0.06    -0.31  -0.10   0.22
    18   1    -0.09  -0.25   0.19     0.14  -0.13  -0.04     0.08   0.34  -0.23
    19   1     0.01  -0.14  -0.00    -0.11  -0.19   0.37    -0.02  -0.07   0.07
    20   1     0.35   0.13  -0.00    -0.00   0.00  -0.15    -0.01   0.01   0.00
    21   1    -0.09  -0.25  -0.19    -0.14   0.13  -0.04     0.08   0.34   0.23
    22   1     0.01  -0.14   0.00     0.11   0.19   0.37    -0.02  -0.07  -0.07
    23   1    -0.09   0.03   0.10    -0.02  -0.18   0.02     0.18  -0.18   0.01
    24   1    -0.09   0.03   0.24     0.12   0.12   0.33     0.06   0.04   0.10
    25   1     0.04  -0.27  -0.27     0.02  -0.12  -0.06    -0.31  -0.10  -0.22
    26   1     0.02   0.05  -0.00     0.00   0.00   0.00     0.01   0.04  -0.00
    27   1    -0.10  -0.08  -0.01    -0.06  -0.16   0.04     0.11  -0.11  -0.00
    28   1    -0.10  -0.08   0.01     0.06   0.16   0.04     0.11  -0.11   0.00
                     34                     35                     36
                      A                      A                      A
 Frequencies --   1065.2743              1078.8141              1086.1316
 Red. masses --      2.0026                 1.8750                 3.5234
 Frc consts  --      1.3390                 1.2857                 2.4489
 IR Inten    --      4.1080                26.1595                44.6317
  Atom  AN      X      Y      Z        X      Y      Z        X      Y      Z
     1   8    -0.00  -0.00  -0.01    -0.00  -0.00  -0.02     0.03   0.02  -0.00
     2   6     0.00  -0.00   0.07     0.00  -0.00   0.14    -0.03   0.05   0.00
     3   6    -0.09   0.06  -0.04     0.03  -0.05  -0.08    -0.01  -0.09   0.12
     4   6     0.09  -0.01  -0.06     0.01  -0.02   0.02    -0.04   0.05  -0.02
     5   6    -0.00  -0.05   0.05    -0.03   0.07  -0.04    -0.00  -0.03  -0.06
     6   6    -0.00  -0.00  -0.06     0.00  -0.00   0.11     0.04   0.15   0.00
     7   6     0.00   0.05   0.05     0.03  -0.07  -0.04    -0.00  -0.03   0.06
     8   6     0.09  -0.06  -0.04    -0.03   0.05  -0.08    -0.01  -0.09  -0.12
     9   6    -0.09   0.01  -0.06    -0.01   0.02   0.02    -0.04   0.05   0.02
    10   6    -0.00  -0.00   0.13    -0.00  -0.00   0.01     0.25  -0.07  -0.00
    11   6     0.00   0.00  -0.03    -0.00   0.00   0.00     0.06  -0.12   0.00
    12   8     0.00   0.00   0.01     0.00   0.00   0.00    -0.06  -0.05  -0.00
    13   8    -0.00  -0.00   0.00     0.00  -0.00  -0.00    -0.04   0.14  -0.00
    14   6     0.00   0.00  -0.04    -0.00   0.00  -0.09    -0.10  -0.01  -0.00
    15   1    -0.06   0.22   0.06     0.22   0.11   0.10     0.23  -0.14   0.22
    16   1     0.19   0.02  -0.03     0.11  -0.00  -0.04    -0.27  -0.00   0.05
    17   1    -0.01   0.07  -0.05    -0.31  -0.08   0.20    -0.06  -0.07   0.05
    18   1    -0.11  -0.31   0.23     0.03  -0.24   0.09     0.09  -0.14  -0.05
    19   1    -0.00  -0.05  -0.03     0.00   0.27  -0.06     0.02   0.11   0.02
    20   1    -0.00  -0.00  -0.15     0.00  -0.00   0.06     0.26   0.20  -0.00
    21   1     0.11   0.31   0.23    -0.03   0.24   0.09     0.09  -0.14   0.05
    22   1     0.00   0.05  -0.03    -0.00  -0.27  -0.06     0.02   0.11  -0.02
    23   1     0.06  -0.22   0.06    -0.22  -0.11   0.10     0.23  -0.14  -0.22
    24   1    -0.19  -0.02  -0.03    -0.11   0.00  -0.04    -0.28  -0.00  -0.05
    25   1     0.01  -0.07  -0.05     0.31   0.08   0.20    -0.06  -0.07  -0.05
    26   1    -0.00  -0.00   0.01     0.00   0.00  -0.00    -0.04  -0.05   0.00
    27   1    -0.36   0.22   0.03    -0.02  -0.29   0.08    -0.24   0.16  -0.01
    28   1     0.36  -0.22   0.03     0.02   0.29   0.08    -0.24   0.16   0.01
                     37                     38                     39
                      A                      A                      A
 Frequencies --   1102.8186              1120.6313              1134.8343
 Red. masses --      2.1899                 1.5210                 1.2553
 Frc consts  --      1.5692                 1.1254                 0.9525
 IR Inten    --      5.8004                25.0881                 0.1608
  Atom  AN      X      Y      Z        X      Y      Z        X      Y      Z
     1   8    -0.00   0.02  -0.00     0.01   0.02   0.00     0.00   0.00   0.00
     2   6     0.06  -0.05   0.00     0.01  -0.00   0.00    -0.00   0.00  -0.04
     3   6    -0.09   0.02   0.02     0.01   0.03   0.05     0.01   0.03   0.02
     4   6     0.00  -0.01  -0.04    -0.03  -0.07  -0.02     0.01  -0.03  -0.03
     5   6     0.09   0.00   0.03    -0.05  -0.02  -0.02    -0.03  -0.01  -0.01
     6   6    -0.11   0.03   0.00     0.05  -0.00  -0.00     0.00  -0.00   0.04
     7   6     0.09   0.00  -0.03    -0.05  -0.03   0.02     0.03   0.01  -0.01
     8   6    -0.09   0.02  -0.02     0.01   0.03  -0.05    -0.01  -0.03   0.02
     9   6     0.00  -0.01   0.04    -0.03  -0.07   0.02    -0.01   0.03  -0.03
    10   6     0.15   0.08   0.00     0.01   0.09   0.00     0.00  -0.00   0.08
    11   6     0.03  -0.05   0.00    -0.03   0.04  -0.00     0.00  -0.00  -0.02
    12   8    -0.04  -0.02  -0.00     0.01   0.01   0.00    -0.00  -0.00   0.00
    13   8    -0.01   0.05  -0.00     0.01  -0.05   0.00    -0.00   0.00   0.00
    14   6     0.02  -0.09  -0.00     0.01  -0.01   0.00    -0.00   0.00  -0.06
    15   1    -0.33   0.20   0.00     0.06   0.30   0.23     0.16  -0.16  -0.02
    16   1     0.25   0.04  -0.06     0.20  -0.02   0.10    -0.08  -0.05   0.16
    17   1    -0.18   0.04   0.02    -0.19   0.12  -0.03     0.04   0.09  -0.10
    18   1    -0.17   0.18   0.06     0.09  -0.14  -0.02     0.07   0.17  -0.14
    19   1     0.04  -0.32  -0.09    -0.06  -0.10   0.22     0.01   0.25  -0.05
    20   1    -0.15   0.02   0.00     0.47   0.08  -0.00     0.00  -0.00   0.59
    21   1    -0.17   0.18  -0.06     0.09  -0.14   0.02    -0.07  -0.17  -0.14
    22   1     0.04  -0.32   0.09    -0.06  -0.10  -0.22    -0.01  -0.25  -0.06
    23   1    -0.33   0.20  -0.00     0.06   0.30  -0.22    -0.16   0.16  -0.02
    24   1     0.25   0.04   0.06     0.20  -0.02  -0.10     0.08   0.05   0.16
    25   1    -0.18   0.04  -0.02    -0.19   0.12   0.03    -0.04  -0.09  -0.10
    26   1    -0.02   0.02  -0.00     0.01   0.14  -0.00    -0.00  -0.00   0.01
    27   1     0.03  -0.08  -0.01    -0.08   0.08  -0.00    -0.28   0.08   0.04
    28   1     0.03  -0.08   0.01    -0.08   0.08   0.00     0.28  -0.08   0.04
                     40                     41                     42
                      A                      A                      A
 Frequencies --   1162.0671              1185.5851              1221.1719
 Red. masses --      1.1053                 1.6903                 1.2316
 Frc consts  --      0.8794                 1.3999                 1.0821
 IR Inten    --      0.0721               145.0820                47.8959
  Atom  AN      X      Y      Z        X      Y      Z        X      Y      Z
     1   8    -0.00  -0.00  -0.00     0.01   0.01   0.00    -0.01  -0.01  -0.00
     2   6     0.00  -0.00   0.01     0.02  -0.01   0.00    -0.00   0.00   0.00
     3   6     0.02  -0.03  -0.00    -0.04   0.01   0.02    -0.00  -0.01   0.01
     4   6    -0.01   0.01   0.03     0.01  -0.00  -0.01    -0.01   0.02  -0.01
     5   6     0.01   0.01  -0.01     0.02  -0.02   0.01     0.02  -0.00  -0.02
     6   6    -0.00   0.00  -0.01    -0.02   0.04   0.00    -0.01   0.02  -0.00
     7   6    -0.01  -0.01  -0.01     0.02  -0.02  -0.01     0.02  -0.00   0.02
     8   6    -0.02   0.03  -0.00    -0.04   0.01  -0.02    -0.00  -0.01  -0.01
     9   6     0.01  -0.01   0.03     0.01  -0.00   0.01    -0.01   0.02   0.01
    10   6    -0.00  -0.00  -0.06     0.11   0.01   0.00     0.04  -0.06  -0.00
    11   6    -0.00   0.00   0.01    -0.08   0.09  -0.00    -0.03   0.04  -0.00
    12   8     0.00   0.00  -0.00     0.03   0.04   0.00     0.03   0.03   0.00
    13   8     0.00  -0.00  -0.00    -0.02  -0.13   0.00    -0.02  -0.06   0.00
    14   6    -0.00  -0.00   0.03    -0.03  -0.03  -0.00     0.03   0.01   0.00
    15   1     0.08  -0.08  -0.00     0.21  -0.09   0.10    -0.22  -0.15  -0.19
    16   1    -0.33  -0.06   0.15    -0.13  -0.03   0.11    -0.14  -0.00   0.03
    17   1     0.25   0.00  -0.09    -0.09  -0.01   0.05     0.21   0.03  -0.13
    18   1    -0.04  -0.31   0.18    -0.04  -0.06   0.05     0.03   0.18  -0.12
    19   1     0.04   0.26  -0.17     0.05   0.21  -0.16    -0.02  -0.27   0.12
    20   1    -0.00   0.00  -0.18    -0.39  -0.04   0.00     0.34   0.09   0.00
    21   1     0.04   0.31   0.18    -0.04  -0.06  -0.05     0.03   0.18   0.12
    22   1    -0.04  -0.26  -0.17     0.05   0.21   0.16    -0.02  -0.27  -0.12
    23   1    -0.08   0.08  -0.00     0.21  -0.08  -0.10    -0.22  -0.15   0.19
    24   1     0.33   0.06   0.15    -0.13  -0.03  -0.11    -0.14  -0.00  -0.03
[...]
 00011183,0.00008648,0.00010124,0.00009350,-0.00000035,-0.00004281,0.00
 002096,0.00007345,-0.00002114,-0.00007764,0.00001742,-0.00018547,0.000
 65900,-0.00036090,0.00031781,0.00023387,0.00030257,-0.00016191,0.00008
 055,0.00299204,-0.00273255,0.05278578,0.00015356,-0.00042636,0.0002825
 1,0.00132383,-0.00003736,-0.00040550,0.00000959,-0.00002857,-0.0001020
 6,-0.00004246,0.00003994,0.00008727,0.00038229,0.00126983,-0.00005540,
 -0.01220596,0.00044818,0.01631409,-0.13763583,-0.00010642,0.12246683,0
 .01217738,0.00080249,-0.01685186,-0.00261935,0.00038762,-0.00344134,-0
 .00040717,-0.00013623,-0.00052665,-0.00029370,0.00006189,-0.00024902,0
 .00023612,-0.00000545,0.00022198,0.00014794,0.00004986,0.00025945,-0.0
 0162105,-0.00427846,-0.00139716,0.00004676,0.00001404,0.00003040,0.000
 08080,-0.00007573,0.00001416,-0.00000801,0.00006977,-0.00000152,-0.000
 00098,0.00008160,-0.00036089,0.00068214,-0.00042976,-0.00027096,0.0001
 5994,0.00059549,-0.00024993,-0.01089041,-0.00032470,0.01498203,0.14872
 602,-0.00007527,0.00007137,-0.00012998,-0.00032699,-0.00009397,0.00076
 321,0.00023706,-0.00016088,-0.00008372,-0.00009555,0.00016792,-0.00001
 462,-0.00077948,0.00155037,0.00113052,-0.01587083,-0.00103638,0.023291
 19,0.00061875,-0.05157979,0.00210452,0.00064715,-0.00069903,0.00035578
 ,-0.00008024,0.00047125,-0.00060914,-0.00019389,0.00001159,-0.00055628
 ,-0.00019750,0.00003857,-0.00009637,0.00016890,0.00004515,0.00014568,0
 .00008392,0.00000313,0.00014557,-0.00239864,-0.00498374,-0.00126461,0.
 00003950,-0.00000687,0.00002453,0.00007572,-0.00006536,-0.00003604,0.0
 0000596,0.00003971,-0.00004087,0.00003297,0.00035795,-0.00031780,0.000
 42979,-0.00044777,-0.00049823,0.00062479,0.00107068,-0.00040168,0.0156
 8067,0.00098006,-0.02265188,0.00269102,0.05322283,-0.00142997,0.000106
 55,0.00051134,0.00268141,-0.00108769,-0.00060901,-0.00020244,0.0002344
 9,-0.00038513,0.00018620,-0.00009521,0.00000652,-0.00008491,-0.0003516
 8,-0.00007770,-0.00066018,0.00013283,0.00141159,0.12174943,0.00264132,
 -0.21730296,0.01444485,0.00128658,-0.02142850,-0.00500006,0.00023001,-
 0.00379931,-0.00042045,-0.00044015,0.00027233,-0.00029923,0.00003221,0
 .00019891,0.00024939,-0.00002555,-0.00007097,0.00010639,0.00008141,-0.
 00008759,-0.00030677,-0.00014320,0.00127892,0.00001470,0.00009925,-0.0
 0000123,-0.00002095,-0.00003581,0.00005555,-0.00004660,0.00010103,0.00
 001344,-0.00018887,0.00005655,0.00023386,-0.00027127,0.00049808,0.0003
 1736,0.00023676,0.00046440,0.00063984,-0.00026398,-0.00068862,0.001061
 67,-0.13153527,-0.00261098,0.23770913,0.00214295,-0.00172629,-0.000022
 09,0.01145940,0.01663878,0.00026635,-0.00214479,0.00295778,0.00000287,
 -0.00021474,0.00025518,0.00015751,-0.00029648,0.00014903,-0.00019534,-
 0.00096136,0.00148674,-0.00361891,-0.01041400,-0.01418228,-0.00025456,
 -0.14731462,-0.12997299,-0.00211958,-0.01118353,-0.01477214,0.00026213
 ,-0.00118504,0.00117419,0.00373311,0.00005741,-0.00107338,-0.00120544,
 -0.00051242,0.00024223,0.00044889,0.00007690,0.00008758,0.00047642,0.0
 0065053,0.00038768,-0.00004027,0.00066184,0.00093000,-0.00001287,0.000
 04650,-0.00005514,-0.00001552,0.00006440,-0.00007996,-0.00007914,0.000
 08080,-0.00009915,0.00008649,0.00004680,-0.00003950,0.00001469,-0.0005
 6718,-0.00099863,0.00000773,0.00013975,0.00023518,0.00059258,0.0008414
 5,0.00030530,0.00005854,0.15756164,0.00039615,0.00585043,0.00006613,-0
 .02130875,-0.02648738,-0.00039807,0.00482975,-0.00309850,0.00006327,0.
 00050746,0.00016303,-0.00047601,0.00045459,0.00028925,0.00050336,0.000
 54965,0.00100347,0.00035655,0.00179589,0.00253640,-0.00046067,-0.12550
 848,-0.21618952,-0.00279652,0.00161201,0.00211757,0.00046916,0.0007543
 2,0.00123991,-0.00052562,-0.00000441,0.00031083,-0.00006557,0.00006226
 ,-0.00013386,0.00004765,-0.00004112,-0.00000100,0.00004965,0.00009358,
 0.00004603,-0.00000631,-0.00092998,-0.00140462,0.00000538,-0.00001767,
 -0.00001661,0.00008009,-0.00013960,0.00003593,0.00009603,-0.00013076,0
 .00002606,-0.00010125,-0.00001402,-0.00000691,-0.00009928,0.00005751,0
 .00014801,0.00011928,-0.00021544,0.00055405,-0.00045286,-0.00010459,0.
 00006929,-0.00046963,0.13765420,0.23234271,0.00010488,-0.00006564,-0.0
 0120911,-0.00003993,0.00036421,-0.00005845,0.00000946,0.00001283,0.001
 41921,0.00001878,-0.00075504,-0.00003908,-0.00014910,0.00069800,-0.000
 06665,-0.00258345,0.00166805,-0.00506404,-0.01668714,-0.02313738,0.000
 03500,-0.00207681,-0.00300669,-0.04935462,0.01648968,0.02222352,0.0000
 5459,0.00310167,-0.00073692,-0.00517031,-0.00010239,0.00166786,0.00171
 488,0.00088558,-0.00041939,-0.00053081,-0.00011432,-0.00014803,-0.0005
 2858,0.00002333,-0.00005278,-0.00065903,-0.00001288,-0.00000543,0.0001
 8400,-0.00003605,0.00004108,0.00000388,-0.00013014,0.00007345,0.000079
 28,0.00014308,-0.00011963,0.00009353,0.00003039,-0.00002452,-0.0000012
 2,-0.00110637,-0.00148436,0.00003816,0.00050360,0.00046593,0.00098677,
 0.00091626,-0.00023303,0.00090254,0.00215276,0.00310502,0.05489951,-0.
 00000285,-0.00041200,-0.00031904,0.00150974,-0.00011009,0.00045854,0.0
 0000853,-0.00005914,0.00010831,0.00043172,0.00133126,0.00018673,-0.000
 00062,0.00004458,-0.00006943,-0.00034779,-0.00015059,0.00040321,-0.002
 92110,0.00040055,0.00338817,0.01230666,0.00084903,0.01792216,-0.132088
 13,0.00068972,-0.12193628,-0.01233123,-0.00020165,-0.01546406,-0.00159
 301,0.00009955,-0.00423673,0.00064370,-0.00011210,0.00096184,0.0009599
 3,0.00038390,0.00134870,-0.00180660,-0.00403160,0.00140405,0.00004650,
 0.00001763,-0.00003598,0.00063395,-0.00036980,0.00019963,-0.00002121,0
 .00005369,0.00029129,-0.00001748,0.00007495,-0.00000033,0.00008082,-0.
 00007576,-0.00002094,0.00012961,0.00010574,-0.00011888,-0.00004310,-0.
 00017301,0.00001524,0.00087428,-0.00002751,0.00121200,0.00086363,-0.00
 009839,-0.00088110,0.14299371,-0.00007237,0.00008184,0.00013523,-0.000
 36493,-0.00008998,-0.00077257,0.00024197,-0.00022916,0.00010014,-0.000
 68633,0.00173493,-0.00108776,-0.00007365,0.00018284,0.00001855,-0.0001
 4957,0.00001025,0.00046381,0.00005460,0.00053637,0.00055072,0.00034093
 ,-0.00059529,-0.00064384,0.00211776,-0.05168310,-0.00094742,-0.0156841
 6,-0.00164931,-0.02252867,-0.00009663,0.00063060,-0.00161408,0.0001408
 7,0.00007383,0.00038365,-0.00000095,-0.00043244,0.00046053,-0.00256253
 ,-0.00471019,0.00136451,0.00005509,-0.00001666,-0.00004103,0.00036947,
 -0.00054236,0.00040936,0.00005520,0.00028526,0.00030681,0.00000013,0.0
 0004308,0.00004282,0.00007569,-0.00006535,0.00003581,0.00012097,0.0000
 5898,-0.00003328,-0.00038379,0.00020424,-0.00042656,-0.00004948,0.0004
 1108,0.00022717,0.00028728,0.00010456,0.00029503,0.00211744,0.05413822
 ,0.00127562,-0.00005823,0.00039640,-0.00235682,0.00084560,-0.00055893,
 0.00019497,-0.00021632,-0.00037030,0.00006532,0.00032674,0.00000613,-0
 .00019437,0.00007623,-0.00003802,0.00032318,0.00041046,0.00029325,0.00
 484617,-0.00021801,-0.00324884,-0.01284886,-0.00113954,-0.02070897,-0.
 12401162,-0.00227794,-0.22918566,-0.00017130,-0.00035744,0.00072567,-0
 .00011523,-0.00053520,-0.00022035,0.00005069,0.00016453,0.00019763,0.0
 0145455,0.00096509,-0.00071890,0.00056084,0.00000589,0.00106258,-0.000
 01550,-0.00008031,0.00000376,0.00019947,-0.00041023,0.00033915,0.00015
 496,0.00000020,0.00019772,0.00004693,-0.00009576,0.00002095,0.00001417
 ,0.00003606,0.00005562,-0.00007091,-0.00006580,0.00003079,0.00016179,0
 .00005957,0.00036208,-0.00107459,-0.00021918,-0.00132672,-0.00006622,0
 .00045534,0.00088911,0.13108430,0.00149242,0.25057367,-0.00145173,0.00
 141650,-0.00064997,-0.00015347,-0.00421600,0.00370549,-0.00012668,0.00
 019054,-0.00049263,-0.00241253,-0.00306195,-0.00013563,-0.00020042,-0.
 00006737,-0.00019727,-0.00005744,-0.00003593,0.00027216,0.00072431,-0.
 00051141,-0.00179423,-0.01279537,0.01793329,0.00317107,-0.13180296,0.1
 2064614,-0.00341136,0.01111380,-0.01678493,-0.00014625,0.00145284,-0.0
 0035597,0.00005795,0.00005607,0.00020823,-0.00027328,-0.00005300,-0.00
 006581,-0.00021586,0.00124031,-0.00022531,0.00037532,0.00006450,0.0001
 3959,-0.00013043,-0.00002115,-0.00005507,0.00015492,0.00099767,-0.0011
 3193,-0.00005438,0.00007493,0.00001459,0.00007347,-0.00000803,-0.00000
 596,-0.00004661,0.00008176,0.00005152,-0.00005520,0.00083168,-0.000253
 17,0.00061022,-0.00002751,-0.00038915,-0.00017804,0.00016420,-0.000228
 58,-0.00049892,-0.01037509,0.01519404,0.00034575,0.14264754,0.00011149
 ,-0.00009189,-0.00021494,-0.00025933,0.00094366,0.00044819,-0.00030809
 ,0.00070177,0.00023264,-0.00506565,-0.00364496,0.00017023,0.00011869,0
 .00002768,0.00021548,-0.00026605,-0.00011848,-0.00027448,-0.00019321,0
 .00015282,0.00021127,0.00005917,0.00127257,0.00021956,0.11862392,-0.22
 094129,0.00046243,0.01378670,-0.02210894,0.00117799,0.00235006,-0.0008
 9047,-0.00134133,-0.00119161,0.00043263,0.00021945,-0.00023549,0.00037
 862,0.00052944,0.00166284,0.00060376,0.00081815,0.00007977,0.00003593,
 -0.00007310,-0.00005345,0.00028526,-0.00000073,0.00113099,-0.00157656,
 -0.00014015,-0.00001581,0.00003726,0.00002114,-0.00006974,0.00003973,-
 0.00010104,0.00002261,0.00000414,-0.00007606,-0.00024062,0.00006793,-0
 .00059827,-0.00016864,0.00020894,-0.00004176,0.00023771,0.00054119,-0.
 00039717,-0.00020741,0.00103222,0.00050217,-0.12871781,0.24192296,0.00
 216506,-0.00174263,0.00122207,0.00105467,0.00395237,-0.00529783,-0.000
 37803,0.00011666,0.00059229,0.00013274,-0.00011045,0.00021084,0.000217
 27,0.00005946,0.00028281,-0.00013446,0.00009064,-0.00027177,0.00063796
 ,-0.00122188,0.00213481,0.01719449,-0.02469014,-0.00386517,-0.00313918
 ,0.00084232,-0.04974077,-0.00063206,0.00020333,-0.00115537,-0.00051942
 ,0.00098507,0.00048343,0.00012549,-0.00019256,-0.00011027,0.00006899,-
 0.00035131,-0.00016329,0.00048250,-0.00081604,0.00007603,-0.00007923,-
 0.00009602,0.00007951,0.00029121,-0.00030692,0.00019765,-0.00005451,0.
 00014044,0.00064099,-0.00006647,0.00002832,-0.00007767,-0.00000153,0.0
 0004088,0.00001345,-0.00006510,-0.00005069,-0.00001429,-0.00058665,0.0
 0066779,-0.00033562,-0.00002862,0.00040633,0.00038679,-0.00060189,0.00
 044361,0.00096252,-0.01517335,0.02310888,0.00105292,-0.00079542,-0.001
 63782,0.05265374,-0.00009394,0.00000005,-0.00002499,0.00012284,0.00000
 002,-0.00000556,0.00003778,-0.00001394,0.00002574,-0.00022159,0.000083
 78,-0.00009129,-0.00003517,-0.00000358,0.00003352,-0.00016893,-0.00000
 014,-0.00019787,-0.00003491,0.00000350,0.00003311,0.00003633,0.0000136
 1,0.00002465,-0.00021941,-0.00008402,-0.00009042,-0.00138454,0.0000050
 3,-0.00333153,0.02388524,0.00007867,-0.01751047,-0.00537584,-0.0000200
 9,0.00233660,-0.25499174,-0.00074064,0.23527508,0.00057849,-0.00000057
 ,-0.00079247,-0.00001530,0.00000955,0.00001763,0.00017419,-0.00018117,
 0.00009625,0.00005079,0.00003102,0.00011480,-0.00000007,-0.00000550,-0
 .00000595,-0.00000004,-0.00000196,0.00001700,0.00003295,0.,-0.00006641
 ,-0.00000008,0.00000549,-0.00000592,-0.00000015,0.00000193,0.00001683,
 -0.00001533,-0.00000950,0.00001773,0.00017171,0.00018031,0.00009396,0.
 00005021,-0.00003022,0.00011417,0.23736487,0.00000007,-0.00011119,0.,-
 0.00000013,0.00023187,0.00000014,-0.00027645,-0.00003890,-0.00012341,-
 0.00015350,0.00020076,0.00036855,0.00003381,0.00002248,-0.00006590,0.0
 0000400,-0.00001561,0.00000180,-0.00003218,0.00002308,0.00006490,0.000
 27417,-0.00003637,0.00012200,0.00016364,0.00019922,-0.00037963,0.00004
 408,0.00441863,0.00000283,-0.00014566,0.00499612,0.00025346,0.00000588
 ,-0.00691430,-0.00005593,-0.00057991,-0.01721684,0.00079673,-0.0000097
 4,0.00042473,0.00000350,-0.00000872,-0.00001864,0.00003115,-0.00020245
 ,0.00016062,-0.00014110,-0.00006035,-0.00020937,-0.00008863,-0.0000071
 2,-0.00001666,-0.00000599,-0.00000475,-0.00000297,-0.00000604,-0.00000
 104,-0.00000736,0.00000095,0.00000699,-0.00001671,0.00000595,0.0000042
 5,-0.00000318,0.00000556,0.00000906,-0.00001864,-0.00003182,0.00019866
 ,0.00015792,0.00013750,0.00005878,-0.00020942,0.00008863,0.00067832,0.
 01406487,-0.00025479,-0.00000074,-0.00004447,0.00027119,0.00000189,0.0
 0007823,0.00009344,0.00005529,0.00001908,-0.00052964,0.00010132,0.0004
 9268,-0.00012698,0.00003262,0.00006278,-0.00059433,-0.00000052,-0.0004
 0918,-0.00012699,-0.00003242,0.00006351,0.00009658,-0.00005427,0.00002
 023,-0.00052192,-0.00009813,0.00048154,-0.00655160,0.00004124,-0.00337
 525,0.03360103,0.00015371,-0.05033161,0.00246368,-0.00005072,0.0108171
 7,0.18585445,0.00083706,-0.26042429,0.00162582,0.00000301,-0.00069903,
 -0.00003906,0.00001121,0.00006481,0.00033538,-0.00020940,0.00009613,0.
 00006781,-0.00010009,-0.00003657,0.00001487,-0.00001021,-0.00001578,0.
 00000696,-0.00000851,0.00005992,0.00015769,-0.00000009,-0.00012437,0.0
 0001488,0.00001008,-0.00001571,0.00000688,0.00000842,0.00005977,-0.000
 03852,-0.00001150,0.00006384,0.00033579,0.00021004,0.00009750,0.000068
 05,0.00009718,-0.00003590,-0.21614344,-0.00098571,0.30326588,0.0000122
 1,0.00036140,-0.00000380,0.00018433,-0.00092822,0.00001184,-0.00013498
 ,0.00049524,0.00001533,0.00036204,-0.00144325,0.00071741,0.00027860,-0
 .00135206,-0.00076349,-0.01190632,-0.01491451,0.00014152,-0.00107841,0
 .00153835,0.00362627,0.00042976,0.00039851,-0.00002484,-0.00111961,0.0
 0144595,-0.00342600,-0.01194464,-0.01493319,-0.00141206,-0.00083574,0.
 00006669,0.00077646,0.00070953,0.00037579,0.00064680,0.00007181,0.0000
 8528,-0.00007101,-0.13990729,-0.12245900,-0.00153776,-0.00005134,0.000
 03390,0.00000711,0.00039468,0.00021107,-0.00001387,-0.00009149,0.00092
 757,-0.00023428,-0.00008070,0.00094050,0.00020837,0.00043029,0.0001928
 3,0.00001789,0.00083717,0.00033541,-0.00005849,0.00010576,-0.00023858,
 -0.00001884,-0.00051976,-0.00101549,-0.00006547,0.00000268,0.00001783,
 0.00001426,-0.00050106,-0.00101630,0.00006691,0.00007651,-0.00023440,0
 .00000523,0.00002575,0.00000561,-0.00004378,0.15192758,-0.00017637,0.0
 0014274,0.00000094,0.00024407,-0.00035842,0.00000134,-0.00013066,0.000
 00825,0.00002412,0.00066469,0.00057277,0.00019470,0.00060481,0.0006274
 8,-0.00026676,0.00127610,-0.00003684,0.00046423,0.00046019,0.00099668,
 0.00052919,0.00014357,0.00011467,-0.00000187,0.00018704,0.00085105,-0.
 00060409,0.00111731,-0.00047200,-0.00055694,-0.00271749,0.00014347,0.0
 0012295,0.00146986,0.00061449,0.00104931,0.00080826,-0.00008855,0.0001
 6696,-0.12295434,-0.21964551,-0.00108170,0.00000558,0.00001788,-0.0000
 0993,-0.00000505,0.00017696,-0.00008513,-0.00012410,0.00047543,0.00010
 369,-0.00018039,0.00051807,-0.00006792,0.00001976,0.00020627,0.0000950
 0,-0.00004474,0.00011291,0.00052342,0.00012299,0.00042702,-0.00012678,
 -0.00032450,0.00015069,-0.00011212,-0.00003294,-0.00003958,-0.00000712
 ,-0.00034251,0.00015037,0.00011078,0.00012844,0.00041722,0.00014492,-0
 .00005784,-0.00003137,-0.00015322,0.13547020,0.23540521,-0.00001951,-0
 .00001362,-0.00002006,0.00002485,0.00004618,-0.00005648,-0.00002833,0.
 00001357,-0.00026810,0.00063384,-0.00107781,0.00104953,-0.00063660,0.0
 0099361,0.00101996,0.01678232,0.02321881,0.00035448,0.00330197,-0.0013
 5310,-0.00492850,0.00012808,0.00012862,-0.00042677,-0.00271926,0.00107
 722,-0.00543376,-0.01668892,-0.02333210,-0.00089013,-0.00260230,-0.001
 27859,0.00047688,0.00135384,0.00052458,-0.00016653,0.00052988,0.000142
 54,0.00044512,-0.00051824,0.00092188,-0.04784346,-0.00001222,-0.000001
 84,0.00009345,0.00033912,0.00003023,-0.00006412,0.00005176,0.00065117,
 0.00008045,-0.00006945,-0.00070451,0.00008671,-0.00041780,0.00002632,-
 0.00008221,-0.00082661,0.00021877,0.00092535,-0.00024543,-0.00030295,-
 0.00001785,0.00138669,0.00141496,0.00011179,0.00002254,0.00000088,0.00
 026139,-0.00140322,-0.00148005,0.00013625,0.00018924,0.00022297,-0.000
 00154,0.00002443,0.00001067,-0.00011559,0.00109756,-0.00027830,0.05532
 503,0.00001215,-0.00036137,-0.00000382,0.00018439,0.00092813,0.0000118
 8,0.00043017,-0.00039909,-0.00002424,-0.00111863,-0.00144503,-0.003427
 02,-0.00107884,-0.00153854,0.00362687,-0.01190720,0.01491596,0.0001393
 2,0.00027825,0.00135237,-0.00076283,-0.00013511,-0.00049551,0.00001496
 ,0.00036130,0.00144300,0.00071881,-0.01194313,0.01493119,-0.00140512,-
 0.00082911,-0.00007036,0.00077100,0.00070802,-0.00036941,0.00064012,0.
 00007082,-0.00008500,-0.00007061,-0.13990265,0.12245708,-0.00153918,0.
 00000277,-0.00001776,0.00001398,-0.00050090,0.00101607,0.00006685,0.00
 007651,0.00023433,0.00000527,0.00010576,0.00023848,-0.00001886,-0.0005
 2003,0.00101568,-0.00006549,0.00083747,-0.00033542,-0.00005867,-0.0000
 8133,-0.00094188,0.00020802,0.00043026,-0.00019290,0.00001796,-0.00005
 140,-0.00003390,0.00000715,0.00039480,-0.00021106,-0.00001414,-0.00009
 092,-0.00092643,-0.00023386,0.00002590,-0.00000535,-0.00004345,0.01232
 264,-0.01563192,0.00032179,0.15191803,0.00017646,0.00014270,-0.0000009
 4,-0.00024404,-0.00035832,-0.00000144,-0.00014406,0.00011541,0.0000013
 9,-0.00018685,0.00084884,0.00060485,-0.00045973,0.00099698,-0.00052986
 ,-0.00127545,-0.00003894,-0.00046365,-0.00060498,0.00062711,0.00026678
 ,0.00013062,0.00000827,-0.00002408,-0.00066406,0.00057304,-0.00019595,
 -0.00112098,-0.00046851,0.00055723,0.00271638,0.00014512,-0.00011959,-
 0.00146917,0.00060912,-0.00104741,-0.00080677,-0.00008494,-0.00016667,
 0.12295564,-0.21964367,0.00108165,0.00003284,-0.00003967,0.00000737,0.
 00034234,0.00015067,-0.00011071,-0.00012825,0.00041733,-0.00014499,-0.
 00012303,0.00042698,0.00012685,0.00032474,0.00015042,0.00011211,0.0000
 4464,0.00011300,-0.00052347,0.00018006,0.00051778,0.00006775,-0.000019
 71,0.00020638,-0.00009504,-0.00000553,0.00001788,0.00000996,0.00000484
 ,0.00017723,0.00008539,0.00012470,0.00047570,-0.00010316,0.00005788,-0
 .00003277,0.00015245,0.01563286,-0.02145737,0.00017990,-0.13547138,0.2
 3540423,-0.00001950,0.00001368,-0.00002009,0.00002489,-0.00004629,-0.0
 0005649,0.00012747,-0.00012800,-0.00042760,-0.00271963,-0.00107927,-0.
 00543398,0.00330272,0.00135322,-0.00492891,0.01678334,-0.02322011,0.00
 035622,-0.00063640,-0.00099366,0.00101956,-0.00002868,-0.00001396,-0.0
 0026824,0.00063350,0.00107851,0.00105021,-0.01670087,0.02333470,-0.000
 88223,-0.00259133,0.00128104,0.00046659,0.00135109,-0.00052093,-0.0001
 6244,0.00052989,-0.00014756,0.00044832,-0.00052032,-0.00091911,-0.0478
 4739,0.00002232,-0.00000096,0.00026167,-0.00140336,0.00148026,0.000136
 07,0.00018945,-0.00022313,-0.00000145,-0.00024543,0.00030291,-0.000017
 79,0.00138683,-0.00141508,0.00011191,-0.00082671,-0.00021874,0.0009257
 3,-0.00006934,0.00070509,0.00008575,-0.00041778,-0.00002627,-0.0000822
 5,-0.00001228,0.00000188,0.00009368,0.00033940,-0.00003021,-0.00006451
 ,0.00005185,-0.00065144,0.00007963,0.00002482,-0.00001018,-0.00011531,
 0.00032074,-0.00017966,-0.00005129,0.00110330,0.00027328,0.05532462\\0
 .00009302,0.00000008,-0.00000655,-0.00005488,0.00000033,0.00006137,-0.
 00000559,-0.00004119,-0.00001840,0.00001352,-0.00002608,0.00001212,0.0
 0002503,-0.00003514,0.00000143,-0.00000486,-0.00000286,0.00004624,0.00
 002619,0.00003578,-0.00000503,-0.00003097,0.00001173,-0.00003618,-0.00
 000088,0.00004674,0.00008343,-0.00001043,-0.00024183,0.00003366,0.0001
 4705,0.00083178,0.00007434,-0.00012972,-0.00030207,0.00000073,-0.00009
 556,-0.00026226,-0.00011435,0.00006286,-0.00000497,-0.00012584,-0.0000
 0244,0.00000873,0.00000670,0.00000953,0.00000344,-0.00000498,0.0000003
 3,-0.00000040,-0.00002152,-0.00001467,0.00001947,0.00000101,-0.0000142
 1,0.00000544,-0.00000026,0.00000176,0.00000007,0.00000247,-0.00001435,
 -0.00002014,0.00000212,-0.00001541,-0.00000617,-0.00000172,-0.00000708
 ,-0.00000689,0.00001499,-0.00000215,-0.00000080,-0.00002792,-0.0000026
 3,-0.00000489,-0.00001556,0.00001428,-0.00000380,0.00001902,0.00000336
 ,-0.00000242,0.00000502,0.00000890,-0.00000168,0.00001367\\\@


 LOGIC IS A SYSTEMATIC METHOD OF COMING TO THE
 WRONG CONCLUSION WITH CONFIDENCE.
 Job cpu time:       0 days  0 hours  3 minutes 27.7 seconds.
 Elapsed time:       0 days  0 hours  3 minutes 39.6 seconds.
 File lengths (MBytes):  RWF=    192 Int=      0 D2E=      0 Chk=     16 Scr=      1
 Normal termination of Gaussian 16 at Sat Feb 24 02:14:22 2024.
