 Entering Gaussian System, Link 0=g16
 Input=/Volumes/SSD-PMU3/b3lyp_6-31gd_freq/YUAMGYASLSTFFK-RNJXMRFFSA-N_calculating/gaussianinput0.gjf
 Output=/Volumes/SSD-PMU3/b3lyp_6-31gd_freq/YUAMGYASLSTFFK-RNJXMRFFSA-N_calculating/gaussianinput0.log
 Initial command:
 /Applications/g16/l1.exe "/Users/macmini_m1_2022/PycharmProjects/sphere_model/sphere_model_lib/Gau-52284.inp" -scrdir="/Users/macmini_m1_2022/PycharmProjects/sphere_model/sphere_model_lib/"
 Entering Link 1 = /Applications/g16/l1.exe PID=     52285.
  
 Copyright (c) 1988,1990,1992,1993,1995,1998,2003,2009,2016,
            Gaussian, Inc.  All Rights Reserved.
  
 This is part of the Gaussian(R) 16 program.  It is based on
 the Gaussian(R) 09 system (copyright 2009, Gaussian, Inc.),
 the Gaussian(R) 03 system (copyright 2003, Gaussian, Inc.),
 the Gaussian(R) 98 system (copyright 1998, Gaussian, Inc.),
 the Gaussian(R) 94 system (copyright 1995, Gaussian, Inc.),
 the Gaussian 92(TM) system (copyright 1992, Gaussian, Inc.),
 the Gaussian 90(TM) system (copyright 1990, Gaussian, Inc.),
 the Gaussian 88(TM) system (copyright 1988, Gaussian, Inc.),
 the Gaussian 86(TM) system (copyright 1986, Carnegie Mellon
 University), and the Gaussian 82(TM) system (copyright 1983,
 Carnegie Mellon University). Gaussian is a federally registered
 trademark of Gaussian, Inc.
  
 This software contains proprietary and confidential information,
 including trade secrets, belonging to Gaussian, Inc.
  
 This software is provided under written license and may be
 used, copied, transmitted, or stored only in accord with that
 written license.
  
 The following legend is applicable only to US Government
 contracts under FAR:
  
                    RESTRICTED RIGHTS LEGEND
  
 Use, reproduction and disclosure by the US Government is
 subject to restrictions as set forth in subparagraphs (a)
 and (c) of the Commercial Computer Software - Restricted
 Rights clause in FAR 52.227-19.
  
 Gaussian, Inc.
 340 Quinnipiac St., Bldg. 40, Wallingford CT 06492
  
  
 ---------------------------------------------------------------
 Warning -- This program may not be used in any manner that
 competes with the business of Gaussian, Inc. or will provide
 assistance to any competitor of Gaussian, Inc.  The licensee
 of this program is prohibited from giving any competitor of
 Gaussian, Inc. access to this program.  By using this program,
 the user acknowledges that Gaussian, Inc. is engaged in the
 business of creating and licensing software in the field of
 computational chemistry and represents and warrants to the
 licensee that it is not a competitor of Gaussian, Inc. and that
 it will not use this program in any manner prohibited above.
 ---------------------------------------------------------------
  

 Cite this work as:
 Gaussian 16, Revision A.03,
 M. J. Frisch, G. W. Trucks, H. B. Schlegel, G. E. Scuseria, 
 M. A. Robb, J. R. Cheeseman, G. Scalmani, V. Barone, 
 G. A. Petersson, H. Nakatsuji, X. Li, M. Caricato, A. V. Marenich, 
 J. Bloino, B. G. Janesko, R. Gomperts, B. Mennucci, H. P. Hratchian, 
 J. V. Ortiz, A. F. Izmaylov, J. L. Sonnenberg, D. Williams-Young, 
 F. Ding, F. Lipparini, F. Egidi, J. Goings, B. Peng, A. Petrone, 
 T. Henderson, D. Ranasinghe, V. G. Zakrzewski, J. Gao, N. Rega, 
 G. Zheng, W. Liang, M. Hada, M. Ehara, K. Toyota, R. Fukuda, 
 J. Hasegawa, M. Ishida, T. Nakajima, Y. Honda, O. Kitao, H. Nakai, 
 T. Vreven, K. Throssell, J. A. Montgomery, Jr., J. E. Peralta, 
 F. Ogliaro, M. J. Bearpark, J. J. Heyd, E. N. Brothers, K. N. Kudin, 
 V. N. Staroverov, T. A. Keith, R. Kobayashi, J. Normand, 
 K. Raghavachari, A. P. Rendell, J. C. Burant, S. S. Iyengar, 
 J. Tomasi, M. Cossi, J. M. Millam, M. Klene, C. Adamo, R. Cammi, 
 J. W. Ochterski, R. L. Martin, K. Morokuma, O. Farkas, 
 J. B. Foresman, and D. J. Fox, Gaussian, Inc., Wallingford CT, 2016.
 
 ******************************************
 Gaussian 16:  EM64M-G16RevA.03 25-Dec-2016
                21-Feb-2024 
 ******************************************
 %nprocshared=8
 Will use up to    8 processors via shared memory.
 %mem=4GB
 %chk= 0.chk
 ---------------------
 # freq b3lyp/6-31g(d)
 ---------------------
 1/10=4,30=1,38=1/1,3;
 2/12=2,17=6,18=5,40=1/2;
 3/5=1,6=6,7=1,11=2,25=1,30=1,71=2,74=-5,140=1/1,2,3;
 4//1;
 5/5=2,38=5,98=1/2;
 8/6=4,10=90,11=11/1;
 11/6=1,8=1,9=11,15=111,16=1/1,2,10;
 10/6=1/2;
 6/7=2,8=2,9=2,10=2,28=1/1;
 7/8=1,10=1,25=1/1,2,3,16;
 1/10=4,30=1/3;
 99//99;
 ---------
 good luck
 ---------
 Symbolic Z-matrix:
 Charge =  0 Multiplicity = 1
 O                     1.20652   0.        0. 
 C                     0.        0.        0. 
 C                    -1.00452  -1.16255   0.00054 
 C                    -1.79739  -0.79695  -1.29679 
 C                    -3.10933  -1.42551  -1.40746 
 C                    -4.19901  -1.93947  -1.50077 
 C                    -1.83923   0.79014  -1.25561 
 C                    -1.01311   1.15369   0.00054 
 C                    -1.83767   0.77769   1.25576 
 C                    -1.84337  -0.79587   1.24549 
 H                    -0.57409  -2.16402  -0.00448 
 H                    -1.19329  -1.11046  -2.15781 
 H                    -5.15928  -2.39458  -1.58931 
 H                    -1.39417   1.20364  -2.16573 
 H                    -2.86645   1.15877  -1.18482 
 H                    -0.58354   2.15622   0.00081 
 H                    -1.36103   1.1632    2.16301 
 H                    -2.84849   1.19593   1.20973 
 H                    -2.85296  -1.21057   1.17997 
 H                    -1.37595  -1.19705   2.15033 
 

 GradGradGradGradGradGradGradGradGradGradGradGradGradGradGradGradGradGrad
 Berny optimization.
 Initialization pass.
 Trust Radius=3.00D-01 FncErr=1.00D-07 GrdErr=1.00D-07 EigMax=2.50D+02 EigMin=1.00D-04
 Number of steps in this run=      2 maximum allowed number of steps=      2.
 GradGradGradGradGradGradGradGradGradGradGradGradGradGradGradGradGradGrad

                          Input orientation:                          
 ---------------------------------------------------------------------
 Center     Atomic      Atomic             Coordinates (Angstroms)
 Number     Number       Type             X           Y           Z
 ---------------------------------------------------------------------
      1          8           0        1.206519    0.000000    0.000000
      2          6           0        0.000000    0.000000    0.000000
      3          6           0       -1.004523   -1.162549    0.000535
      4          6           0       -1.797389   -0.796949   -1.296790
      5          6           0       -3.109326   -1.425508   -1.407461
      6          6           0       -4.199012   -1.939473   -1.500768
      7          6           0       -1.839228    0.790135   -1.255609
      8          6           0       -1.013113    1.153686    0.000535
      9          6           0       -1.837672    0.777689    1.255760
     10          6           0       -1.843372   -0.795866    1.245494
     11          1           0       -0.574094   -2.164018   -0.004483
     12          1           0       -1.193285   -1.110461   -2.157810
     13          1           0       -5.159279   -2.394577   -1.589311
     14          1           0       -1.394169    1.203644   -2.165730
     15          1           0       -2.866450    1.158766   -1.184823
     16          1           0       -0.583535    2.156223    0.000813
     17          1           0       -1.361034    1.163202    2.163013
     18          1           0       -2.848493    1.195926    1.209725
     19          1           0       -2.852964   -1.210575    1.179967
     20          1           0       -1.375946   -1.197054    2.150330
 ---------------------------------------------------------------------
                    Distance matrix (angstroms):
                    1          2          3          4          5
     1  O    0.000000
     2  C    1.206519   0.000000
     3  C    2.498045   1.536420   0.000000
     4  C    3.367530   2.355292   1.563762   0.000000
     5  C    4.758102   3.698774   2.545937   1.458942   0.000000
     6  C    5.935792   4.862670   3.614178   2.667351   1.208421
     7  C    3.387837   2.362970   2.467307   1.588169   2.558375
     8  C    2.501551   1.535379   2.316251   2.470449   3.609543
     9  C    3.383612   2.357705   2.456471   2.999436   3.682924
    10  C    3.389173   2.362769   1.545331   2.542700   3.006203
    11  H    2.802423   2.238879   1.090062   2.243967   2.990175
    12  H    3.412965   2.704292   2.167210   1.097537   2.081704
    13  H    6.984504   5.905766   4.616005   3.733670   2.274746
    14  H    3.592036   2.843036   3.231625   2.218111   3.229423
    15  H    4.397229   3.311054   3.203178   2.231647   2.605193
    16  H    2.802426   2.233789   3.345367   3.446511   4.603439
    17  H    3.553026   2.807860   3.195705   4.000354   4.744073
    18  H    4.397362   3.317768   3.228741   3.370310   3.713437
    19  H    4.397410   3.316205   2.193194   2.723904   2.608966
    20  H    3.567350   2.819589   2.181918   3.495760   3.964174
                    6          7          8          9         10
     6  C    0.000000
     7  C    3.616551   0.000000
     8  C    4.687376   1.546782   0.000000
     9  C    4.534021   2.511400   1.548180   0.000000
    10  C    3.794579   2.961576   2.457642   1.573599   0.000000
    11  H    3.928017   3.448608   3.346629   3.440709   2.246185
    12  H    3.186434   2.200789   3.133253   3.953834   3.479089
    13  H    1.066336   4.612644   5.684054   5.402849   4.646207
    14  H    4.264798   1.094252   2.200092   3.476309   3.979481
    15  H    3.387422   1.093656   2.199990   2.675827   3.282334
    16  H    5.665787   2.240883   1.090696   2.246799   3.442564
    17  H    5.577096   3.472006   2.190308   1.094948   2.216402
    18  H    4.359060   2.694653   2.198305   1.094897   2.231319
    19  H    3.086985   3.310971   3.219603   2.233776   1.093414
    20  H    4.674549   3.970387   3.206126   2.216542   1.094608
                   11         12         13         14         15
    11  H    0.000000
    12  H    2.475923   0.000000
    13  H    4.856826   4.207286   0.000000
    14  H    4.084686   2.322821   5.239800   0.000000
    15  H    4.205828   2.982545   4.248167   1.769690   0.000000
    16  H    4.320255   3.962660   6.646481   2.501688   2.759049
    17  H    4.048173   4.885406   6.415948   4.329059   3.670736
    18  H    4.235141   4.404478   5.105492   3.675434   2.394904
    19  H    2.739566   3.728983   3.793396   4.376097   3.347565
    20  H    2.494234   4.312880   5.452759   4.938832   4.346808
                   16         17         18         19         20
    16  H    0.000000
    17  H    2.503139   0.000000
    18  H    2.741108   1.767021   0.000000
    19  H    4.228007   2.971035   2.406689   0.000000
    20  H    4.061133   2.360337   2.963020   1.767306   0.000000
 Stoichiometry    C9H10O
 Framework group  C1[X(C9H10O)]
 Deg. of freedom    54
 Full point group                 C1      NOp   1
 Largest Abelian subgroup         C1      NOp   1
 Largest concise Abelian subgroup C1      NOp   1
                         Standard orientation:                         
 ---------------------------------------------------------------------
 Center     Atomic      Atomic             Coordinates (Angstroms)
 Number     Number       Type             X           Y           Z
 ---------------------------------------------------------------------
      1          8           0       -2.466486   -1.107495   -0.592955
      2          6           0       -1.479684   -0.497228   -0.262072
      3          6           0       -0.153582   -0.255757   -0.999453
      4          6           0        0.826028   -0.849450    0.065088
      5          6           0        2.213723   -0.422281   -0.077534
      6          6           0        3.363335   -0.066766   -0.188365
      7          6           0        0.155676   -0.429448    1.442226
      8          6           0       -1.152134    0.280691    1.020481
      9          6           0       -0.788454    1.655096    0.407611
     10          6           0       -0.096767    1.287953   -0.957302
     11          1           0       -0.068950   -0.707709   -1.987791
     12          1           0        0.793155   -1.942966   -0.022819
     13          1           0        4.379743    0.240772   -0.285359
     14          1           0       -0.044207   -1.316329    2.051223
     15          1           0        0.809066    0.233672    2.016193
     16          1           0       -1.938832    0.293949    1.775827
     17          1           0       -1.688227    2.256947    0.243007
     18          1           0       -0.125904    2.224180    1.067893
     19          1           0        0.933756    1.648858   -1.014961
     20          1           0       -0.646552    1.711728   -1.803658
 ---------------------------------------------------------------------
 Rotational constants (GHZ):           2.4960782           1.0767654           1.0287472
 Standard basis: 6-31G(d) (6D, 7F)
 There are   170 symmetry adapted cartesian basis functions of A   symmetry.
 There are   170 symmetry adapted basis functions of A   symmetry.
   170 basis functions,   320 primitive gaussians,   170 cartesian basis functions
    36 alpha electrons       36 beta electrons
       nuclear repulsion energy       510.4332763443 Hartrees.
 NAtoms=   20 NActive=   20 NUniq=   20 SFac= 1.00D+00 NAtFMM=   60 NAOKFM=F Big=F
 Integral buffers will be    131072 words long.
 Raffenetti 2 integral format.
 Two-electron integral symmetry is turned on.
 One-electron integrals computed using PRISM.
 NBasis=   170 RedAO= T EigKep=  3.63D-04  NBF=   170
 NBsUse=   170 1.00D-06 EigRej= -1.00D+00 NBFU=   170
 ExpMin= 1.61D-01 ExpMax= 5.48D+03 ExpMxC= 8.25D+02 IAcc=3 IRadAn=         5 AccDes= 0.00D+00
 Harris functional with IExCor=  402 and IRadAn=       5 diagonalized for initial guess.
 HarFok:  IExCor=  402 AccDes= 0.00D+00 IRadAn=         5 IDoV= 1 UseB2=F ITyADJ=14
 ICtDFT=  3500011 ScaDFX=  1.000000  1.000000  1.000000  1.000000
 FoFCou: FMM=F IPFlag=           0 FMFlag=      100000 FMFlg1=           0
         NFxFlg=           0 DoJE=T BraDBF=F KetDBF=T FulRan=T
         wScrn=  0.000000 ICntrl=       500 IOpCl=  0 I1Cent=   200000004 NGrid=           0
         NMat0=    1 NMatS0=      1 NMatT0=    0 NMatD0=    1 NMtDS0=    0 NMtDT0=    0
 Petite list used in FoFCou.
 Requested convergence on RMS density matrix=1.00D-08 within 128 cycles.
 Requested convergence on MAX density matrix=1.00D-06.
 Requested convergence on             energy=1.00D-06.
 No special actions if energy rises.
 Integral accuracy reduced to 1.0D-05 until final iterations.
 Initial convergence to 1.0D-05 achieved.  Increase integral accuracy.
 SCF Done:  E(RB3LYP) =  -424.111588529     A.U. after   15 cycles
            NFock= 15  Conv=0.43D-08     -V/T= 2.0095
 DoSCS=F DFT=T ScalE2(SS,OS)=  1.000000  1.000000
 Range of M.O.s used for correlation:     1   170
 NBasis=   170 NAE=    36 NBE=    36 NFC=     0 NFV=     0
 NROrb=    170 NOA=    36 NOB=    36 NVA=   134 NVB=   134

 **** Warning!!: The largest alpha MO coefficient is  0.16700714D+02

 Symmetrizing basis deriv contribution to polar:
 IMax=3 JMax=2 DiffMx= 0.00D+00
 G2DrvN: will do    21 centers at a time, making    1 passes.
 Calling FoFCou, ICntrl=  3107 FMM=F I1Cent=   0 AccDes= 0.00D+00.
 End of G2Drv F.D. properties file   721 does not exist.
 End of G2Drv F.D. properties file   722 does not exist.
 End of G2Drv F.D. properties file   788 does not exist.
          IDoAtm=11111111111111111111
          Differentiating once with respect to electric field.
                with respect to dipole field.
          Differentiating once with respect to nuclear coordinates.
 Keep R1 ints in memory in canonical form, NReq=113604335.
          There are    63 degrees of freedom in the 1st order CPHF.  IDoFFX=6 NUNeed=     3.
     60 vectors produced by pass  0 Test12= 7.66D-15 1.59D-09 XBig12= 9.80D+01 3.73D+00.
 AX will form    60 AO Fock derivatives at one time.
     60 vectors produced by pass  1 Test12= 7.66D-15 1.59D-09 XBig12= 1.90D+01 7.33D-01.
     60 vectors produced by pass  2 Test12= 7.66D-15 1.59D-09 XBig12= 3.58D-01 1.53D-01.
     60 vectors produced by pass  3 Test12= 7.66D-15 1.59D-09 XBig12= 9.32D-04 3.82D-03.
     60 vectors produced by pass  4 Test12= 7.66D-15 1.59D-09 XBig12= 1.56D-06 1.87D-04.
     38 vectors produced by pass  5 Test12= 7.66D-15 1.59D-09 XBig12= 1.28D-09 4.25D-06.
      4 vectors produced by pass  6 Test12= 7.66D-15 1.59D-09 XBig12= 8.63D-13 1.27D-07.
      1 vectors produced by pass  7 Test12= 7.66D-15 1.59D-09 XBig12= 5.94D-16 2.64D-09.
 InvSVY:  IOpt=1 It=  1 EMax= 5.33D-15
 Solved reduced A of dimension   343 with    63 vectors.
 Isotropic polarizability for W=    0.000000       84.55 Bohr**3.
 End of Minotr F.D. properties file   721 does not exist.
 End of Minotr F.D. properties file   722 does not exist.
 End of Minotr F.D. properties file   788 does not exist.

 **********************************************************************

            Population analysis using the SCF density.

 **********************************************************************

 Orbital symmetries:
       Occupied  (A) (A) (A) (A) (A) (A) (A) (A) (A) (A) (A) (A)
                 (A) (A) (A) (A) (A) (A) (A) (A) (A) (A) (A) (A)
                 (A) (A) (A) (A) (A) (A) (A) (A) (A) (A) (A) (A)
       Virtual   (A) (A) (A) (A) (A) (A) (A) (A) (A) (A) (A) (A)
                 (A) (A) (A) (A) (A) (A) (A) (A) (A) (A) (A) (A)
                 (A) (A) (A) (A) (A) (A) (A) (A) (A) (A) (A) (A)
                 (A) (A) (A) (A) (A) (A) (A) (A) (A) (A) (A) (A)
                 (A) (A) (A) (A) (A) (A) (A) (A) (A) (A) (A) (A)
                 (A) (A) (A) (A) (A) (A) (A) (A) (A) (A) (A) (A)
                 (A) (A) (A) (A) (A) (A) (A) (A) (A) (A) (A) (A)
                 (A) (A) (A) (A) (A) (A) (A) (A) (A) (A) (A) (A)
                 (A) (A) (A) (A) (A) (A) (A) (A) (A) (A) (A) (A)
                 (A) (A) (A) (A) (A) (A) (A) (A) (A) (A) (A) (A)
                 (A) (A) (A) (A) (A) (A) (A) (A) (A) (A) (A) (A)
                 (A) (A)
 The electronic state is 1-A.
 Alpha  occ. eigenvalues --  -19.14767 -10.27419 -10.22719 -10.20319 -10.20279
 Alpha  occ. eigenvalues --  -10.19993 -10.19680 -10.19458 -10.19091 -10.18411
 Alpha  occ. eigenvalues --   -1.04575  -0.88454  -0.78262  -0.74833  -0.72787
 Alpha  occ. eigenvalues --   -0.67333  -0.63025  -0.56833  -0.53780  -0.52620
 Alpha  occ. eigenvalues --   -0.50924  -0.48391  -0.46355  -0.42826  -0.41404
 Alpha  occ. eigenvalues --   -0.40079  -0.39494  -0.38030  -0.37597  -0.36002
 Alpha  occ. eigenvalues --   -0.35648  -0.34236  -0.31867  -0.26899  -0.26755
 Alpha  occ. eigenvalues --   -0.23580
 Alpha virt. eigenvalues --   -0.01642   0.04320   0.05045   0.08462   0.10127
 Alpha virt. eigenvalues --    0.12284   0.13363   0.14664   0.15036   0.15494
 Alpha virt. eigenvalues --    0.15955   0.17102   0.18244   0.20096   0.20569
 Alpha virt. eigenvalues --    0.21122   0.22164   0.24501   0.25820   0.28456
 Alpha virt. eigenvalues --    0.31716   0.32365   0.35018   0.44675   0.47180
 Alpha virt. eigenvalues --    0.50270   0.52286   0.53722   0.56073   0.57464
 Alpha virt. eigenvalues --    0.58233   0.59184   0.61160   0.62138   0.63039
 Alpha virt. eigenvalues --    0.63950   0.65203   0.66238   0.68742   0.69568
 Alpha virt. eigenvalues --    0.72437   0.74164   0.75274   0.77566   0.78350
 Alpha virt. eigenvalues --    0.80731   0.82726   0.84354   0.84894   0.85772
 Alpha virt. eigenvalues --    0.86331   0.87709   0.89638   0.91378   0.92020
 Alpha virt. eigenvalues --    0.93383   0.94418   0.96335   0.98085   0.99305
 Alpha virt. eigenvalues --    1.07086   1.07833   1.15145   1.16841   1.21048
 Alpha virt. eigenvalues --    1.26373   1.27140   1.28274   1.37721   1.43165
 Alpha virt. eigenvalues --    1.43884   1.52596   1.53495   1.55479   1.55648
 Alpha virt. eigenvalues --    1.57164   1.63813   1.66966   1.69939   1.71420
 Alpha virt. eigenvalues --    1.72205   1.73712   1.76893   1.77558   1.80410
 Alpha virt. eigenvalues --    1.83232   1.84948   1.87077   1.89120   1.92410
 Alpha virt. eigenvalues --    1.93941   1.94775   1.97485   1.98704   2.02886
 Alpha virt. eigenvalues --    2.05363   2.08350   2.10855   2.12453   2.13475
 Alpha virt. eigenvalues --    2.20119   2.20330   2.24701   2.28407   2.34096
 Alpha virt. eigenvalues --    2.34834   2.40466   2.42528   2.44933   2.51148
 Alpha virt. eigenvalues --    2.56444   2.58863   2.63286   2.65183   2.67037
 Alpha virt. eigenvalues --    2.68442   2.72830   2.75569   2.76839   2.79094
 Alpha virt. eigenvalues --    2.86048   3.01406   3.05582   3.38106   4.08991
 Alpha virt. eigenvalues --    4.16657   4.20775   4.29607   4.34267   4.47215
 Alpha virt. eigenvalues --    4.57951   4.68799   4.81927   4.92950
          Condensed to atoms (all electrons):
               1          2          3          4          5          6
     1  O    7.953852   0.597539  -0.060573   0.000539  -0.000064  -0.000000
     2  C    0.597539   4.651356   0.281981  -0.061395   0.002129  -0.000247
     3  C   -0.060573   0.281981   5.266088   0.346725  -0.033086  -0.001585
     4  C    0.000539  -0.061395   0.346725   5.367676   0.351916  -0.228412
     5  C   -0.000064   0.002129  -0.033086   0.351916   4.618719   0.705771
     6  C   -0.000000  -0.000247  -0.001585  -0.228412   0.705771   5.721254
     7  C    0.001498  -0.057988  -0.057844   0.313107  -0.029529   0.000509
     8  C   -0.063105   0.310084  -0.149612  -0.044638  -0.001707  -0.000098
     9  C    0.001418  -0.061588  -0.051907  -0.012067  -0.000442  -0.000215
    10  C    0.001213  -0.057110   0.366650  -0.031772  -0.016038  -0.002441
    11  H    0.001070  -0.026723   0.357553  -0.030288  -0.000825   0.000045
    12  H    0.000648   0.000919  -0.044267   0.355535  -0.030502   0.001713
    13  H   -0.000000   0.000002  -0.000029   0.002547   0.013473   0.344446
    14  H    0.000329   0.000537   0.003212  -0.024451   0.001785  -0.000077
    15  H   -0.000061   0.004154  -0.000139  -0.035057  -0.001128   0.002848
    16  H    0.001203  -0.028335   0.006992   0.004830   0.000053   0.000003
    17  H    0.000385   0.000882   0.002151  -0.000066   0.000010   0.000003
    18  H   -0.000062   0.004281   0.000705   0.000475   0.000269   0.000107
    19  H   -0.000068   0.004260  -0.030975  -0.015504   0.013879   0.007780
    20  H    0.000343   0.000922  -0.034706   0.004860   0.000354   0.000029
               7          8          9         10         11         12
     1  O    0.001498  -0.063105   0.001418   0.001213   0.001070   0.000648
     2  C   -0.057988   0.310084  -0.061588  -0.057110  -0.026723   0.000919
     3  C   -0.057844  -0.149612  -0.051907   0.366650   0.357553  -0.044267
     4  C    0.313107  -0.044638  -0.012067  -0.031772  -0.030288   0.355535
     5  C   -0.029529  -0.001707  -0.000442  -0.016038  -0.000825  -0.030502
     6  C    0.000509  -0.000098  -0.000215  -0.002441   0.000045   0.001713
     7  C    5.155342   0.352372  -0.036767  -0.014668   0.006006  -0.037429
     8  C    0.352372   5.203602   0.365787  -0.053226   0.006331   0.002700
     9  C   -0.036767   0.365787   5.086062   0.343960   0.005436  -0.000051
    10  C   -0.014668  -0.053226   0.343960   5.098208  -0.031968   0.005351
    11  H    0.006006   0.006331   0.005436  -0.031968   0.568986  -0.003500
    12  H   -0.037429   0.002700  -0.000051   0.005351  -0.003500   0.577334
    13  H   -0.000000  -0.000002  -0.000002   0.000007  -0.000003  -0.000013
    14  H    0.361348  -0.032005   0.004858  -0.000035  -0.000171  -0.008566
    15  H    0.365257  -0.026934  -0.010041   0.000806  -0.000093   0.004008
    16  H   -0.030719   0.359056  -0.031393   0.005182  -0.000153  -0.000209
    17  H    0.004932  -0.034554   0.369888  -0.029053  -0.000163   0.000012
    18  H   -0.010395  -0.029960   0.369578  -0.029408  -0.000085   0.000010
    19  H    0.001187   0.000368  -0.027668   0.364512   0.000692   0.000312
    20  H   -0.000139   0.002398  -0.030031   0.370408  -0.003361  -0.000159
              13         14         15         16         17         18
     1  O   -0.000000   0.000329  -0.000061   0.001203   0.000385  -0.000062
     2  C    0.000002   0.000537   0.004154  -0.028335   0.000882   0.004281
     3  C   -0.000029   0.003212  -0.000139   0.006992   0.002151   0.000705
     4  C    0.002547  -0.024451  -0.035057   0.004830  -0.000066   0.000475
     5  C    0.013473   0.001785  -0.001128   0.000053   0.000010   0.000269
     6  C    0.344446  -0.000077   0.002848   0.000003   0.000003   0.000107
     7  C   -0.000000   0.361348   0.365257  -0.030719   0.004932  -0.010395
     8  C   -0.000002  -0.032005  -0.026934   0.359056  -0.034554  -0.029960
     9  C   -0.000002   0.004858  -0.010041  -0.031393   0.369888   0.369578
    10  C    0.000007  -0.000035   0.000806   0.005182  -0.029053  -0.029408
    11  H   -0.000003  -0.000171  -0.000093  -0.000153  -0.000163  -0.000085
    12  H   -0.000013  -0.008566   0.004008  -0.000209   0.000012   0.000010
    13  H    0.446195   0.000001   0.000002   0.000000   0.000000   0.000000
    14  H    0.000001   0.569426  -0.031485  -0.003213  -0.000184   0.000123
    15  H    0.000002  -0.031485   0.559141   0.000109   0.000142   0.007294
    16  H    0.000000  -0.003213   0.000109   0.573459  -0.003061   0.000496
    17  H    0.000000  -0.000184   0.000142  -0.003061   0.576413  -0.035051
    18  H    0.000000   0.000123   0.007294   0.000496  -0.035051   0.576633
    19  H    0.000097  -0.000012  -0.000140  -0.000080   0.003391  -0.007708
    20  H    0.000000   0.000010   0.000000  -0.000165  -0.009684   0.003508
              19         20
     1  O   -0.000068   0.000343
     2  C    0.004260   0.000922
     3  C   -0.030975  -0.034706
     4  C   -0.015504   0.004860
     5  C    0.013879   0.000354
     6  C    0.007780   0.000029
     7  C    0.001187  -0.000139
     8  C    0.000368   0.002398
     9  C   -0.027668  -0.030031
    10  C    0.364512   0.370408
    11  H    0.000692  -0.003361
    12  H    0.000312  -0.000159
    13  H    0.000097   0.000000
    14  H   -0.000012   0.000010
    15  H   -0.000140   0.000000
    16  H   -0.000080  -0.000165
    17  H    0.003391  -0.009684
    18  H   -0.007708   0.003508
    19  H    0.553888  -0.033191
    20  H   -0.033191   0.574409
 Mulliken charges:
               1
     1  O   -0.436103
     2  C    0.434343
     3  C   -0.167333
     4  C   -0.264557
     5  C    0.404961
     6  C   -0.551432
     7  C   -0.286079
     8  C   -0.166856
     9  C   -0.284816
    10  C   -0.290577
    11  H    0.151213
    12  H    0.176153
    13  H    0.193278
    14  H    0.158572
    15  H    0.161319
    16  H    0.145945
    17  H    0.153606
    18  H    0.149190
    19  H    0.164980
    20  H    0.154195
 Sum of Mulliken charges =  -0.00000
 Mulliken charges with hydrogens summed into heavy atoms:
               1
     1  O   -0.436103
     2  C    0.434343
     3  C   -0.016120
     4  C   -0.088404
     5  C    0.404961
     6  C   -0.358153
     7  C    0.033811
     8  C   -0.020911
     9  C    0.017980
    10  C    0.028598
 APT charges:
               1
     1  O   -0.660037
     2  C    0.758160
     3  C   -0.084138
     4  C    0.159063
     5  C    0.002801
     6  C   -0.338246
     7  C    0.106488
     8  C   -0.078998
     9  C    0.103825
    10  C    0.071694
    11  H   -0.023165
    12  H   -0.045691
    13  H    0.210695
    14  H   -0.038868
    15  H   -0.014566
    16  H   -0.029171
    17  H   -0.036738
    18  H   -0.031358
    19  H    0.001457
    20  H   -0.033205
 Sum of APT charges =   0.00000
 APT charges with hydrogens summed into heavy atoms:
               1
     1  O   -0.660037
     2  C    0.758160
     3  C   -0.107303
     4  C    0.113372
     5  C    0.002801
     6  C   -0.127551
     7  C    0.053053
     8  C   -0.108169
     9  C    0.035728
    10  C    0.039946
 Electronic spatial extent (au):  <R**2>=           1298.0399
 Charge=              0.0000 electrons
 Dipole moment (field-independent basis, Debye):
    X=              1.8403    Y=              1.4250    Z=              0.8701  Tot=              2.4849
 Quadrupole moment (field-independent basis, Debye-Ang):
   XX=            -62.9113   YY=            -58.4289   ZZ=            -57.5791
   XY=             -3.1279   XZ=             -2.6194   YZ=             -1.4646
 Traceless Quadrupole moment (field-independent basis, Debye-Ang):
   XX=             -3.2715   YY=              1.2109   ZZ=              2.0606
   XY=             -3.1279   XZ=             -2.6194   YZ=             -1.4646
 Octapole moment (field-independent basis, Debye-Ang**2):
  XXX=             38.3715  YYY=             -3.6859  ZZZ=             -1.4564  XYY=             -1.5496
  XXY=             19.9728  XXZ=              3.0600  XZZ=             -6.7146  YZZ=             -0.6517
  YYZ=              1.1435  XYZ=              3.3756
 Hexadecapole moment (field-independent basis, Debye-Ang**3):
 XXXX=           -895.1569 YYYY=           -368.8623 ZZZZ=           -316.5854 XXXY=             11.6920
 XXXZ=            -28.5401 YYYX=              4.5646 YYYZ=             -0.7240 ZZZX=              5.4807
 ZZZY=              1.2598 XXYY=           -251.1337 XXZZ=           -233.8406 YYZZ=           -114.1715
 XXYZ=             -9.3970 YYXZ=             -0.3486 ZZXY=              2.3090
 N-N= 5.104332763443D+02 E-N=-2.005374743785D+03  KE= 4.201287804433D+02
  Exact polarizability: 108.917   6.459  73.122  -1.903   0.035  71.619
 Approx polarizability: 164.928  21.468 108.724  -0.135   1.775 102.807
 Calling FoFJK, ICntrl=    100127 FMM=F ISym2X=0 I1Cent= 0 IOpClX= 0 NMat=1 NMatS=1 NMatT=0.
 Full mass-weighted force constant matrix:
 Low frequencies ---   -7.6089   -4.1269    0.0010    0.0011    0.0013    3.9905
 Low frequencies ---   72.6149  130.3994  155.7933
 Diagonal vibrational polarizability:
        6.2332484      10.2428670       7.1185525
 Harmonic frequencies (cm**-1), IR intensities (KM/Mole), Raman scattering
 activities (A**4/AMU), depolarization ratios for plane and unpolarized
 incident light, reduced masses (AMU), force constants (mDyne/A),
 and normal coordinates:
                      1                      2                      3
                      A                      A                      A
 Frequencies --     72.6125               130.3993               155.7930
 Red. masses --      3.4174                 5.2257                 4.0338
 Frc consts  --      0.0106                 0.0524                 0.0577
 IR Inten    --      0.9763                 2.2023                 0.5040
  Atom  AN      X      Y      Z        X      Y      Z        X      Y      Z
     1   8    -0.09   0.11   0.03    -0.12   0.29  -0.20    -0.12   0.14   0.03
     2   6    -0.03   0.01   0.01     0.01  -0.04   0.00    -0.02  -0.03   0.04
     3   6    -0.02  -0.10  -0.02     0.08  -0.13   0.10    -0.05  -0.03  -0.05
     4   6     0.00  -0.06  -0.02     0.07  -0.03   0.15     0.06   0.03  -0.12
     5   6    -0.03   0.08   0.03     0.05   0.01   0.03     0.07   0.02  -0.06
     6   6    -0.08   0.25   0.09     0.01   0.08  -0.22     0.13  -0.07   0.28
     7   6    -0.03  -0.15  -0.01     0.05   0.06   0.11     0.16   0.04  -0.07
     8   6     0.06   0.01  -0.00    -0.01  -0.10   0.05     0.07  -0.07   0.03
     9   6     0.21  -0.03  -0.01    -0.13  -0.09  -0.02    -0.11  -0.05  -0.03
    10   6     0.02  -0.10  -0.09     0.02  -0.12   0.05    -0.16  -0.02  -0.07
    11   1    -0.06  -0.15   0.00     0.13  -0.15   0.12    -0.12  -0.02  -0.05
    12   1     0.10  -0.06  -0.05     0.11  -0.04   0.24     0.07   0.03  -0.10
    13   1    -0.11   0.38   0.13    -0.02   0.14  -0.40     0.17  -0.13   0.50
    14   1    -0.16  -0.20  -0.12     0.15   0.11   0.21     0.30   0.06  -0.01
    15   1    -0.00  -0.28   0.11    -0.00   0.18   0.03     0.18   0.12  -0.18
    16   1     0.06   0.10  -0.00    -0.03  -0.12   0.03     0.13  -0.12   0.10
    17   1     0.29   0.12   0.10    -0.19  -0.22  -0.14    -0.19  -0.15   0.01
    18   1     0.37  -0.16  -0.07    -0.25   0.04  -0.02    -0.12   0.04  -0.09
    19   1     0.01  -0.12  -0.26     0.01  -0.09   0.14    -0.19   0.06  -0.13
    20   1    -0.11  -0.14  -0.03     0.08  -0.17  -0.02    -0.24  -0.07  -0.04
                      4                      5                      6
                      A                      A                      A
 Frequencies --    211.8077               298.8111               363.8068
 Red. masses --      2.4132                 2.6031                 2.8974
 Frc consts  --      0.0638                 0.1369                 0.2259
 IR Inten    --      0.2961                 1.9715                 1.5684
  Atom  AN      X      Y      Z        X      Y      Z        X      Y      Z
     1   8    -0.01   0.00   0.06    -0.08   0.02   0.12    -0.08  -0.07  -0.07
     2   6    -0.00   0.01   0.01    -0.04   0.00   0.01    -0.09  -0.06  -0.03
     3   6    -0.01  -0.00  -0.03    -0.01  -0.02  -0.02    -0.07  -0.06  -0.00
     4   6    -0.04  -0.10  -0.06     0.05   0.06  -0.02    -0.02   0.07  -0.01
     5   6    -0.04  -0.12  -0.06     0.04   0.20   0.01    -0.04   0.16  -0.10
     6   6    -0.10   0.14   0.07     0.11  -0.06  -0.03     0.03  -0.03   0.03
     7   6     0.07   0.03  -0.05    -0.09  -0.12  -0.03     0.03   0.15  -0.01
     8   6     0.03   0.00  -0.00    -0.02   0.00  -0.03    -0.07  -0.04  -0.01
     9   6    -0.07   0.01  -0.04    -0.07  -0.01  -0.07     0.13  -0.05   0.08
    10   6     0.17  -0.00   0.08     0.12  -0.02   0.03     0.11  -0.07   0.08
    11   1    -0.06   0.05  -0.05     0.00  -0.01  -0.02    -0.06  -0.04  -0.01
    12   1    -0.12  -0.10  -0.04     0.23   0.06  -0.07     0.08   0.06   0.11
    13   1    -0.14   0.28   0.15     0.15  -0.18  -0.06     0.07  -0.14   0.10
    14   1     0.12   0.10   0.06    -0.25  -0.23  -0.23     0.27   0.22   0.15
    15   1     0.13   0.09  -0.19    -0.11  -0.29   0.20    -0.03   0.37  -0.19
    16   1     0.06  -0.02   0.03    -0.03   0.01  -0.04    -0.05  -0.01   0.01
    17   1    -0.16  -0.17  -0.23    -0.14  -0.16  -0.23     0.28   0.17   0.10
    18   1    -0.27   0.18   0.00    -0.24   0.14  -0.04     0.24  -0.26   0.16
    19   1     0.23  -0.16   0.35     0.18  -0.16   0.26     0.18  -0.25   0.15
    20   1     0.43   0.15  -0.01     0.35   0.11  -0.05     0.22   0.10   0.10
                      7                      8                      9
                      A                      A                      A
 Frequencies --    433.5713               470.8694               538.5182
 Red. masses --      4.8427                 5.1746                 4.7871
 Frc consts  --      0.5364                 0.6760                 0.8179
 IR Inten    --      3.5869                 4.8779                 1.2925
  Atom  AN      X      Y      Z        X      Y      Z        X      Y      Z
     1   8    -0.19  -0.01   0.18    -0.03   0.06   0.13    -0.05  -0.10  -0.15
     2   6    -0.06  -0.04  -0.11     0.10  -0.03  -0.09    -0.17  -0.00   0.08
     3   6     0.09   0.02  -0.07     0.06   0.11  -0.16    -0.17   0.04  -0.00
     4   6     0.09  -0.02   0.00    -0.10   0.08   0.03     0.00  -0.01  -0.08
     5   6     0.22  -0.20   0.15    -0.19   0.12   0.25     0.09  -0.01   0.39
     6   6     0.12   0.10  -0.06    -0.17  -0.08  -0.04     0.04   0.02  -0.10
     7   6    -0.07   0.08  -0.10     0.10   0.01   0.05     0.12  -0.03  -0.11
     8   6    -0.13  -0.05  -0.16     0.11  -0.20  -0.04     0.07   0.06   0.10
     9   6     0.01  -0.01   0.07     0.05  -0.16  -0.04     0.03   0.05  -0.03
    10   6    -0.02   0.06   0.04     0.05   0.09  -0.11     0.00   0.01  -0.02
    11   1     0.23   0.14  -0.12     0.24   0.06  -0.12    -0.36   0.01  -0.01
    12   1    -0.04  -0.02   0.04    -0.10   0.08  -0.05     0.03  -0.01  -0.17
    13   1     0.08   0.23  -0.14    -0.15  -0.20  -0.15     0.03   0.05  -0.17
    14   1     0.02   0.14   0.02     0.34   0.07   0.21     0.17   0.01  -0.02
    15   1    -0.19   0.24  -0.15     0.08   0.20  -0.15     0.20  -0.03  -0.22
    16   1    -0.18  -0.15  -0.22     0.01  -0.21  -0.16     0.29   0.20   0.34
    17   1     0.15   0.22   0.17    -0.02  -0.26   0.02    -0.02  -0.02  -0.04
    18   1     0.14  -0.28   0.18    -0.01  -0.13  -0.01     0.01   0.14  -0.09
    19   1    -0.05   0.13  -0.00     0.05   0.11  -0.06     0.07  -0.18   0.06
    20   1    -0.09   0.05   0.08     0.04   0.19  -0.05     0.14   0.15  -0.04
                     10                     11                     12
                      A                      A                      A
 Frequencies --    559.3977               608.8782               613.6850
 Red. masses --      4.9229                 1.2140                 1.2819
 Frc consts  --      0.9076                 0.2652                 0.2844
 IR Inten    --      0.8605                48.1106                42.6963
  Atom  AN      X      Y      Z        X      Y      Z        X      Y      Z
     1   8    -0.08  -0.06  -0.05    -0.00  -0.00  -0.00    -0.03  -0.02  -0.01
     2   6    -0.10  -0.03   0.04    -0.00  -0.00   0.01    -0.02  -0.01  -0.01
     3   6    -0.09   0.17  -0.01    -0.00   0.02   0.00     0.00   0.02   0.00
     4   6    -0.03   0.21   0.08    -0.00   0.01   0.00     0.00  -0.01   0.02
     5   6     0.12  -0.20  -0.14     0.00   0.01   0.01    -0.01   0.03  -0.03
     6   6     0.05   0.12   0.04     0.02  -0.08  -0.10     0.04  -0.09   0.09
     7   6    -0.01  -0.04   0.23    -0.01   0.00   0.03     0.01  -0.01   0.02
     8   6     0.01  -0.11   0.09    -0.01  -0.01   0.01     0.02  -0.00  -0.00
     9   6     0.07  -0.12  -0.11     0.01  -0.01  -0.01     0.01   0.01  -0.01
    10   6     0.07   0.10  -0.16     0.01   0.01  -0.01     0.00   0.03  -0.01
    11   1    -0.03  -0.02   0.07    -0.00  -0.00   0.01     0.03   0.02   0.00
    12   1    -0.27   0.22   0.03    -0.02   0.01   0.01    -0.00  -0.01   0.00
    13   1     0.14  -0.18  -0.03    -0.11   0.62   0.76    -0.27   0.71  -0.62
    14   1     0.04  -0.18   0.04     0.00  -0.01   0.02     0.01  -0.00   0.02
    15   1    -0.14  -0.06   0.40    -0.03   0.01   0.04     0.01  -0.01   0.01
    16   1    -0.01   0.14   0.07    -0.02   0.01  -0.00     0.03   0.02   0.01
    17   1     0.01  -0.21  -0.08     0.00  -0.02  -0.01    -0.01  -0.01  -0.00
    18   1     0.01  -0.06  -0.11     0.00  -0.01  -0.01    -0.00   0.02  -0.01
    19   1     0.13  -0.05  -0.02     0.01   0.01  -0.01     0.00   0.03  -0.01
    20   1     0.19   0.28  -0.15     0.01   0.02  -0.01     0.00   0.02  -0.01
                     13                     14                     15
                      A                      A                      A
 Frequencies --    642.2600               719.7164               753.5628
 Red. masses --      3.8834                 2.9047                 3.9406
 Frc consts  --      0.9438                 0.8865                 1.3184
 IR Inten    --      3.2009                 4.0002                 1.5791
  Atom  AN      X      Y      Z        X      Y      Z        X      Y      Z
     1   8     0.20   0.11   0.04    -0.00  -0.02   0.01     0.05  -0.03   0.03
     2   6     0.11   0.12   0.14    -0.11   0.11   0.09    -0.05   0.24  -0.19
     3   6    -0.10  -0.01  -0.06     0.11   0.10   0.16    -0.17  -0.05  -0.13
     4   6    -0.04   0.07  -0.12     0.02  -0.13  -0.00     0.01  -0.20   0.08
     5   6     0.06  -0.04   0.06    -0.01   0.07  -0.04     0.07   0.07  -0.02
     6   6     0.05  -0.00   0.01     0.01   0.00   0.00     0.11   0.03  -0.01
     7   6    -0.12   0.05  -0.06     0.00  -0.09  -0.05     0.00  -0.06   0.20
     8   6    -0.17  -0.06   0.06    -0.14  -0.07   0.03     0.04  -0.01  -0.02
     9   6    -0.02  -0.15   0.01     0.01  -0.05  -0.09    -0.01   0.01   0.07
    10   6     0.02  -0.11  -0.06     0.10   0.06  -0.07    -0.04   0.01  -0.03
    11   1    -0.50  -0.17  -0.02     0.04   0.08   0.16    -0.28  -0.08  -0.13
    12   1    -0.09   0.07  -0.08     0.06  -0.12  -0.18     0.12  -0.20   0.09
    13   1    -0.05   0.26  -0.31     0.05  -0.12   0.03     0.15  -0.07   0.02
    14   1     0.07   0.02  -0.04     0.27   0.08   0.28     0.10   0.14   0.52
    15   1    -0.17   0.15  -0.12    -0.02   0.22  -0.38     0.03   0.18  -0.11
    16   1    -0.26  -0.12  -0.04    -0.06   0.06   0.10    -0.13  -0.06  -0.20
    17   1     0.08  -0.02  -0.01     0.05  -0.01  -0.15    -0.13  -0.18   0.03
    18   1     0.05  -0.26   0.03    -0.06  -0.10   0.02    -0.10   0.20  -0.00
    19   1     0.06  -0.20   0.06    -0.02   0.37  -0.28    -0.01  -0.10  -0.03
    20   1     0.10   0.06  -0.03    -0.18  -0.25  -0.05    -0.02   0.16   0.03
                     16                     17                     18
                      A                      A                      A
 Frequencies --    785.5920               832.9425               866.5672
 Red. masses --      2.4572                 2.3788                 2.7321
 Frc consts  --      0.8935                 0.9724                 1.2088
 IR Inten    --      2.4100                 5.4418                 5.0477
  Atom  AN      X      Y      Z        X      Y      Z        X      Y      Z
     1   8    -0.00  -0.05   0.01     0.03  -0.02   0.02    -0.03  -0.01   0.01
     2   6    -0.10   0.17  -0.10    -0.05   0.16  -0.06     0.01  -0.02  -0.07
     3   6     0.06  -0.00  -0.01    -0.02  -0.02   0.09     0.09   0.02  -0.06
     4   6    -0.03   0.12   0.01     0.02   0.08   0.12    -0.04   0.07  -0.14
     5   6     0.00  -0.04   0.00    -0.02  -0.03  -0.01     0.01  -0.01   0.03
     6   6    -0.01  -0.00   0.00    -0.04  -0.01   0.00     0.00   0.00  -0.00
     7   6     0.00   0.04  -0.08     0.14  -0.06  -0.09     0.05  -0.08   0.14
     8   6     0.05   0.04   0.05    -0.02  -0.06  -0.05    -0.12   0.01   0.14
     9   6     0.04  -0.11   0.07    -0.09   0.05   0.00    -0.03   0.16   0.02
    10   6     0.04  -0.14   0.05    -0.03  -0.04  -0.07     0.01  -0.15  -0.01
    11   1     0.19   0.01  -0.00     0.10  -0.18   0.18     0.29   0.14  -0.10
    12   1    -0.08   0.12   0.09     0.00   0.09   0.12    -0.08   0.08  -0.30
    13   1    -0.03   0.06  -0.00    -0.05   0.03   0.04    -0.01   0.02  -0.05
    14   1    -0.02  -0.06  -0.23     0.16  -0.14  -0.20     0.35  -0.13   0.18
    15   1    -0.05  -0.04   0.08     0.01  -0.08   0.06     0.18  -0.02  -0.06
    16   1     0.13   0.06   0.13     0.04  -0.28   0.01    -0.35  -0.17  -0.09
    17   1    -0.11  -0.42  -0.24     0.04   0.32   0.30     0.07   0.27  -0.13
    18   1    -0.26   0.24   0.06     0.24  -0.23  -0.09     0.09   0.21  -0.13
    19   1    -0.06   0.07  -0.29     0.03  -0.16   0.29     0.01  -0.16  -0.05
    20   1    -0.33  -0.27   0.22     0.32  -0.00  -0.27     0.04  -0.25  -0.07
                     19                     20                     21
                      A                      A                      A
 Frequencies --    878.1280               883.7986               956.2113
 Red. masses --      1.9414                 3.7738                 1.8726
 Frc consts  --      0.8820                 1.7367                 1.0088
 IR Inten    --      1.8724                 3.8977                 0.6178
  Atom  AN      X      Y      Z        X      Y      Z        X      Y      Z
     1   8     0.00   0.01   0.00     0.03   0.03   0.02    -0.00  -0.01  -0.00
     2   6     0.04  -0.05   0.02     0.05   0.01  -0.03    -0.03   0.04   0.01
     3   6    -0.11  -0.04   0.06    -0.12   0.12   0.16    -0.03   0.01  -0.05
     4   6     0.00   0.06   0.04    -0.03   0.05   0.00     0.09  -0.04  -0.04
     5   6    -0.00  -0.02   0.01     0.02  -0.01   0.01    -0.03  -0.00   0.03
     6   6    -0.01  -0.00   0.00     0.02   0.01  -0.00    -0.05  -0.02   0.00
     7   6     0.03  -0.04  -0.04     0.04  -0.08   0.02     0.15   0.07   0.09
     8   6    -0.03  -0.09  -0.09     0.03  -0.02  -0.18    -0.08   0.01  -0.03
     9   6     0.05   0.15   0.06     0.11  -0.04  -0.20    -0.04  -0.04  -0.06
    10   6     0.08   0.04  -0.03    -0.14  -0.10   0.24     0.05   0.01   0.05
    11   1    -0.22  -0.14   0.10     0.02   0.43   0.04    -0.29   0.11  -0.12
    12   1     0.02   0.06   0.07    -0.11   0.07  -0.23     0.15  -0.06   0.16
    13   1    -0.02   0.02   0.00     0.01   0.03  -0.01    -0.05  -0.03  -0.01
    14   1     0.15  -0.08  -0.06     0.14  -0.00   0.16    -0.11  -0.14  -0.30
    15   1    -0.09   0.04   0.00    -0.01   0.09  -0.11     0.14  -0.23   0.46
    16   1    -0.13  -0.28  -0.19    -0.09   0.14  -0.32    -0.15  -0.02  -0.10
    17   1    -0.04  -0.08  -0.27     0.11  -0.05  -0.26     0.15   0.22  -0.16
    18   1    -0.31   0.31   0.28     0.08   0.01  -0.22    -0.02  -0.27   0.11
    19   1     0.10  -0.07  -0.48    -0.10  -0.25   0.14    -0.04   0.23  -0.13
    20   1    -0.21  -0.03   0.12    -0.08  -0.14   0.19    -0.18  -0.11   0.15
                     22                     23                     24
                      A                      A                      A
 Frequencies --    989.9046              1006.0930              1032.5085
 Red. masses --      2.0657                 2.4335                 2.7146
 Frc consts  --      1.1926                 1.4513                 1.7051
 IR Inten    --      0.9127                 0.1953                 1.9658
  Atom  AN      X      Y      Z        X      Y      Z        X      Y      Z
     1   8    -0.01  -0.00   0.00     0.02   0.01   0.01    -0.01  -0.02  -0.01
     2   6     0.01  -0.02  -0.01     0.01  -0.00  -0.00    -0.07   0.08   0.02
     3   6    -0.05   0.15   0.04    -0.02   0.01  -0.14     0.06  -0.06   0.05
     4   6    -0.04  -0.08   0.00     0.03  -0.04   0.14     0.18   0.04  -0.17
     5   6     0.01   0.03   0.00    -0.00   0.00  -0.03    -0.04  -0.05   0.02
     6   6     0.04   0.01  -0.00    -0.00  -0.00   0.00    -0.10  -0.03   0.01
     7   6    -0.06   0.10  -0.00    -0.04  -0.00  -0.11    -0.10   0.05   0.08
     8   6     0.10  -0.10   0.01    -0.06  -0.10   0.16     0.09  -0.12  -0.02
     9   6    -0.05   0.05   0.02     0.08   0.07  -0.12     0.05   0.08  -0.03
    10   6     0.06  -0.11  -0.05    -0.05   0.02   0.08    -0.04   0.02   0.03
    11   1    -0.05   0.39  -0.07     0.04   0.19  -0.22    -0.24  -0.02   0.00
    12   1    -0.14  -0.07  -0.03     0.10  -0.06   0.41     0.33   0.03  -0.07
    13   1     0.05  -0.01  -0.01     0.00  -0.01   0.03    -0.12  -0.02  -0.02
    14   1    -0.39   0.14  -0.04     0.12  -0.06  -0.14     0.06  -0.01   0.05
    15   1    -0.05  -0.04   0.15    -0.15   0.04  -0.03    -0.50   0.33   0.21
    16   1     0.21  -0.42   0.13     0.07  -0.30   0.30     0.14  -0.16   0.03
    17   1     0.01   0.16   0.07     0.15   0.11  -0.31    -0.10  -0.11   0.14
    18   1     0.07  -0.08   0.01     0.14   0.23  -0.32     0.10   0.22  -0.19
    19   1     0.07  -0.15  -0.20    -0.06   0.06   0.05    -0.05   0.07   0.18
    20   1     0.03  -0.37  -0.16    -0.06   0.13   0.15     0.11  -0.06  -0.11
                     25                     26                     27
                      A                      A                      A
 Frequencies --   1053.7555              1082.6240              1137.7882
 Red. masses --      2.7887                 2.1664                 1.0740
 Frc consts  --      1.8245                 1.4960                 0.8192
 IR Inten    --      3.3001                11.0351                 0.9093
  Atom  AN      X      Y      Z        X      Y      Z        X      Y      Z
     1   8    -0.01   0.01  -0.00    -0.02  -0.01   0.01    -0.01  -0.00  -0.00
     2   6     0.02  -0.04   0.02     0.02   0.01  -0.09     0.01  -0.03   0.01
     3   6    -0.02   0.16  -0.03     0.01  -0.01   0.15     0.01   0.01  -0.00
     4   6     0.23  -0.04   0.09    -0.02  -0.10  -0.07    -0.04  -0.01   0.01
     5   6    -0.05  -0.02  -0.02     0.00   0.03   0.02     0.01   0.01   0.00
     6   6    -0.09  -0.03   0.01     0.02   0.01  -0.00     0.02   0.01  -0.00
     7   6     0.02  -0.02  -0.04     0.03   0.13  -0.02     0.00  -0.01  -0.02
     8   6    -0.09   0.09  -0.01    -0.06  -0.02   0.08     0.01   0.01  -0.01
     9   6     0.03  -0.04   0.11     0.11  -0.05   0.01     0.01   0.01   0.02
    10   6    -0.06  -0.09  -0.11    -0.07   0.08  -0.05     0.03  -0.01  -0.00
    11   1     0.08   0.39  -0.13     0.12  -0.08   0.20    -0.27   0.23  -0.13
    12   1     0.34  -0.03  -0.09    -0.14  -0.09  -0.06    -0.08  -0.04   0.39
    13   1    -0.10  -0.04   0.04     0.03  -0.02  -0.02     0.02   0.00  -0.00
    14   1     0.07   0.00   0.01    -0.09  -0.07  -0.35     0.31  -0.18  -0.17
    15   1    -0.10   0.08  -0.00     0.18  -0.21   0.20    -0.08   0.03   0.03
    16   1    -0.10   0.23  -0.02    -0.34  -0.26  -0.20    -0.20   0.23  -0.22
    17   1    -0.08  -0.23  -0.02    -0.01  -0.26  -0.11    -0.17  -0.18   0.31
    18   1    -0.13   0.16   0.10     0.03   0.29  -0.20     0.08   0.13  -0.15
    19   1     0.09  -0.50  -0.06     0.03  -0.19   0.10    -0.03   0.18   0.08
    20   1     0.14   0.17  -0.11     0.12   0.22  -0.10     0.09  -0.32  -0.20
                     28                     29                     30
                      A                      A                      A
 Frequencies --   1143.7595              1167.6083              1194.1925
 Red. masses --      2.4282                 1.3903                 1.3966
 Frc consts  --      1.8716                 1.1167                 1.1734
 IR Inten    --     28.4694                 8.4799                 0.3262
  Atom  AN      X      Y      Z        X      Y      Z        X      Y      Z
     1   8     0.03   0.00  -0.03     0.02   0.02   0.03     0.02  -0.00  -0.01
     2   6    -0.10   0.06   0.21     0.05  -0.00  -0.10    -0.04   0.03   0.06
     3   6     0.07  -0.01  -0.09    -0.05  -0.05   0.05    -0.09  -0.07   0.01
     4   6    -0.09  -0.08  -0.02    -0.01  -0.02  -0.05     0.02   0.03  -0.03
     5   6     0.01   0.04   0.00     0.00   0.00   0.01     0.00  -0.03   0.00
     6   6     0.04   0.01  -0.00     0.01   0.00  -0.00    -0.01  -0.00   0.00
     7   6     0.07   0.02   0.02    -0.01   0.01   0.02    -0.03   0.00  -0.01
     8   6    -0.01  -0.06  -0.11    -0.04  -0.04   0.03     0.05   0.01   0.05
     9   6     0.06   0.06   0.02    -0.02   0.01  -0.03    -0.02  -0.02  -0.04
    10   6    -0.08  -0.05  -0.02    -0.00   0.05   0.00     0.03   0.05   0.00
    11   1     0.52   0.07  -0.09     0.24   0.19  -0.04     0.58   0.36  -0.13
    12   1    -0.37  -0.08   0.11    -0.02  -0.04   0.10     0.32   0.00   0.17
    13   1     0.06  -0.01  -0.01     0.01  -0.00  -0.02    -0.02   0.01  -0.00
    14   1     0.01  -0.08  -0.14     0.24  -0.15  -0.13    -0.07   0.06   0.05
    15   1    -0.27   0.09   0.32    -0.18   0.08   0.14     0.17  -0.07  -0.16
    16   1     0.03   0.03  -0.07     0.29   0.50   0.36    -0.28  -0.16  -0.29
    17   1    -0.04  -0.10  -0.05    -0.00   0.07   0.05    -0.06  -0.03   0.18
    18   1    -0.18   0.05   0.26    -0.11  -0.17   0.22     0.01  -0.11   0.02
    19   1    -0.03  -0.16   0.12     0.10  -0.28  -0.22     0.06  -0.06  -0.16
    20   1     0.08   0.22   0.01     0.02  -0.06  -0.07    -0.02  -0.06  -0.02
                     31                     32                     33
                      A                      A                      A
 Frequencies --   1231.2615              1266.8321              1272.9554
 Red. masses --      1.2863                 1.5229                 1.4556
 Frc consts  --      1.1489                 1.4400                 1.3897
 IR Inten    --      0.2977                 0.3405                 0.4842
  Atom  AN      X      Y      Z        X      Y      Z        X      Y      Z
     1   8    -0.00  -0.01   0.00     0.01   0.02   0.00    -0.02  -0.01  -0.01
     2   6    -0.01   0.02  -0.00     0.02  -0.03  -0.01    -0.00  -0.00  -0.00
     3   6     0.08  -0.02   0.01    -0.08  -0.04   0.01     0.07  -0.00   0.06
     4   6    -0.02   0.05  -0.01    -0.03   0.02  -0.03    -0.01   0.00  -0.06
     5   6     0.00  -0.01  -0.00     0.01  -0.01   0.01    -0.00   0.01   0.00
     6   6    -0.00  -0.00  -0.00     0.00   0.00  -0.00     0.00   0.00  -0.00
     7   6    -0.02   0.00   0.02     0.07  -0.05   0.01    -0.01  -0.06   0.01
     8   6    -0.02  -0.05  -0.01    -0.08   0.08  -0.05     0.07   0.11   0.00
     9   6     0.06   0.02  -0.00     0.04  -0.06   0.07    -0.05  -0.06   0.01
    10   6    -0.08   0.01  -0.02     0.01   0.04  -0.03    -0.02   0.02  -0.03
    11   1    -0.31   0.23  -0.14     0.19   0.20  -0.08    -0.20   0.21  -0.06
    12   1     0.14   0.02   0.27     0.09   0.01   0.05    -0.19  -0.03   0.49
    13   1    -0.01   0.01   0.00     0.00   0.01  -0.01     0.00  -0.01  -0.01
    14   1    -0.18   0.09   0.10    -0.18   0.11   0.16     0.20  -0.09   0.05
    15   1     0.42  -0.22  -0.22    -0.22   0.14   0.14    -0.21   0.15  -0.01
    16   1     0.06   0.04   0.07     0.24  -0.30   0.29     0.01  -0.37  -0.04
    17   1     0.07  -0.02  -0.19     0.10  -0.05  -0.24     0.15   0.18  -0.24
    18   1    -0.24  -0.08   0.38     0.02   0.18  -0.12     0.02  -0.11  -0.01
    19   1    -0.03  -0.08   0.14    -0.08   0.33   0.24     0.08  -0.26  -0.12
    20   1     0.18  -0.10  -0.24     0.11  -0.30  -0.28    -0.06   0.32   0.15
                     34                     35                     36
                      A                      A                      A
 Frequencies --   1290.5327              1311.9385              1331.3868
 Red. masses --      1.2925                 1.2962                 1.4185
 Frc consts  --      1.2683                 1.3144                 1.4814
 IR Inten    --      1.2367                 0.2349                 0.4108
  Atom  AN      X      Y      Z        X      Y      Z        X      Y      Z
     1   8    -0.01  -0.00  -0.00     0.00   0.00   0.00     0.01   0.01   0.01
     2   6     0.01  -0.01  -0.02     0.00  -0.01  -0.00     0.01  -0.01  -0.00
     3   6    -0.06   0.03  -0.00    -0.02   0.09  -0.01    -0.05   0.04   0.04
     4   6     0.03  -0.03   0.01     0.01  -0.00  -0.08    -0.00  -0.01  -0.04
     5   6    -0.00   0.00   0.00     0.00  -0.00   0.01     0.00  -0.01   0.00
     6   6    -0.00  -0.00   0.00    -0.00  -0.00   0.00     0.00   0.00  -0.00
     7   6    -0.05   0.01  -0.02     0.02  -0.03  -0.02    -0.07   0.03   0.06
     8   6     0.10   0.03   0.06     0.01  -0.06   0.00    -0.03   0.00  -0.08
     9   6     0.01   0.00   0.00    -0.03   0.00   0.05     0.01   0.03   0.00
    10   6    -0.03  -0.02  -0.02    -0.01  -0.01   0.01     0.03  -0.09  -0.06
    11   1     0.14  -0.15   0.10     0.20  -0.38   0.23     0.19   0.01   0.08
    12   1    -0.03  -0.02  -0.10     0.13  -0.05   0.59     0.20  -0.04   0.24
    13   1    -0.00  -0.01   0.00    -0.01  -0.00  -0.01     0.00   0.00  -0.00
    14   1     0.30  -0.14  -0.13    -0.26   0.14   0.14     0.31  -0.19  -0.14
    15   1    -0.14   0.07   0.02     0.00   0.01  -0.04     0.33  -0.17  -0.16
    16   1    -0.15   0.01  -0.20    -0.08   0.35  -0.10     0.26  -0.12   0.23
    17   1     0.20   0.17  -0.37     0.10   0.12  -0.21    -0.08  -0.08   0.09
    18   1    -0.21  -0.19   0.40     0.09   0.10  -0.16     0.03   0.03  -0.02
    19   1    -0.12   0.29   0.29    -0.00  -0.03  -0.00    -0.10   0.32   0.23
    20   1     0.09  -0.17  -0.17     0.01  -0.05  -0.02    -0.13   0.31   0.25
                     37                     38                     39
                      A                      A                      A
 Frequencies --   1352.0368              1354.9522              1373.6566
 Red. masses --      1.4999                 1.3876                 1.4608
 Frc consts  --      1.6154                 1.5009                 1.6241
 IR Inten    --      4.4519                 4.2721                 7.5830
  Atom  AN      X      Y      Z        X      Y      Z        X      Y      Z
     1   8    -0.01  -0.00   0.01     0.00   0.00   0.01    -0.01  -0.00   0.00
     2   6     0.03  -0.01  -0.05     0.01   0.00  -0.03     0.01  -0.01  -0.02
     3   6    -0.03   0.03   0.01    -0.01  -0.07   0.07     0.04   0.04   0.02
     4   6     0.06   0.01  -0.04     0.01   0.02   0.01    -0.16  -0.02   0.00
     5   6    -0.01   0.02   0.01     0.00   0.00   0.00     0.01  -0.03  -0.00
     6   6    -0.01  -0.00   0.00    -0.00  -0.00  -0.00     0.02   0.01  -0.00
     7   6     0.04  -0.05  -0.03     0.04  -0.01  -0.04     0.05  -0.00  -0.02
     8   6    -0.04   0.05   0.07     0.02  -0.07   0.04     0.01   0.02   0.04
     9   6     0.06   0.05  -0.11    -0.02   0.02   0.03     0.01   0.02  -0.04
    10   6     0.01  -0.05   0.00     0.03  -0.06  -0.08    -0.01  -0.03  -0.02
    11   1     0.03  -0.13   0.08    -0.07   0.44  -0.17    -0.11  -0.03   0.04
    12   1    -0.34   0.00   0.26    -0.16   0.04  -0.10     0.83  -0.05  -0.06
    13   1    -0.01  -0.01  -0.00    -0.00  -0.00   0.00     0.02   0.03  -0.00
    14   1    -0.24   0.17   0.21    -0.26   0.13   0.08    -0.05   0.02  -0.03
    15   1    -0.13   0.05   0.06    -0.11   0.06   0.04    -0.29   0.17   0.18
    16   1    -0.07  -0.20   0.05    -0.14   0.38  -0.13    -0.07  -0.03  -0.05
    17   1    -0.22  -0.23   0.44     0.07   0.13  -0.12    -0.05  -0.03   0.11
    18   1    -0.21  -0.18   0.37     0.03   0.07  -0.05    -0.09  -0.08   0.15
    19   1    -0.05   0.13   0.10    -0.09   0.33   0.21    -0.01  -0.03   0.06
    20   1    -0.03   0.04   0.08    -0.09   0.39   0.22    -0.05   0.15   0.10
                     40                     41                     42
                      A                      A                      A
 Frequencies --   1515.8642              1525.5903              1541.1083
 Red. masses --      1.0792                 1.0849                 1.0932
 Frc consts  --      1.4610                 1.4877                 1.5298
 IR Inten    --      0.0504                 4.7306                 2.7647
  Atom  AN      X      Y      Z        X      Y      Z        X      Y      Z
     1   8    -0.00  -0.00  -0.00    -0.00   0.00   0.00     0.00   0.00   0.00
     2   6    -0.00   0.00   0.00     0.00  -0.00  -0.01    -0.01  -0.00   0.00
     3   6    -0.00   0.00  -0.01    -0.01   0.00   0.00     0.00   0.00   0.00
     4   6     0.01  -0.00   0.01     0.00  -0.00   0.00    -0.01   0.00  -0.01
     5   6    -0.00   0.00   0.00    -0.00   0.00   0.00     0.00  -0.00  -0.00
     6   6     0.00  -0.00  -0.00     0.00   0.00  -0.00    -0.00   0.00   0.00
     7   6     0.01  -0.01   0.04     0.03  -0.01   0.05    -0.02   0.01  -0.03
     8   6     0.00  -0.00   0.00    -0.00   0.01   0.01     0.00  -0.00  -0.01
     9   6     0.01  -0.05  -0.02    -0.00   0.01   0.00     0.01  -0.06  -0.01
    10   6     0.01   0.02  -0.03    -0.02  -0.03   0.04    -0.02  -0.04   0.03
    11   1     0.00  -0.02   0.00     0.01  -0.01   0.01     0.00  -0.01   0.01
    12   1    -0.03   0.00   0.01    -0.01  -0.00   0.00     0.03  -0.00   0.01
    13   1     0.00  -0.00   0.00     0.00  -0.00  -0.00    -0.00   0.00  -0.00
    14   1    -0.21  -0.16  -0.27    -0.29  -0.21  -0.37     0.17   0.11   0.20
    15   1     0.01   0.26  -0.29    -0.01   0.36  -0.37     0.01  -0.20   0.20
    16   1     0.00  -0.00   0.00    -0.00  -0.02   0.01     0.02  -0.01  -0.00
    17   1     0.20   0.34   0.30    -0.04  -0.07  -0.05     0.20   0.35   0.28
    18   1    -0.34   0.36   0.01     0.06  -0.08   0.01    -0.33   0.36  -0.01
    19   1     0.08  -0.16   0.27    -0.13   0.24  -0.39    -0.11   0.21  -0.35
    20   1    -0.27  -0.15   0.09     0.39   0.21  -0.13     0.35   0.19  -0.11
                     43                     44                     45
                      A                      A                      A
 Frequencies --   1874.9564              2232.3755              3045.0271
 Red. masses --     12.1720                 6.0111                 1.0841
 Frc consts  --     25.2113                17.6498                 5.9224
 IR Inten    --    287.3637                 2.3384                10.6639
  Atom  AN      X      Y      Z        X      Y      Z        X      Y      Z
     1   8    -0.42  -0.26  -0.14    -0.00  -0.00  -0.00     0.00   0.00   0.00
     2   6     0.66   0.40   0.22     0.00  -0.00   0.00    -0.00  -0.00   0.00
     3   6    -0.03  -0.02  -0.01    -0.01   0.00  -0.00    -0.00   0.00   0.00
     4   6    -0.02   0.00  -0.01    -0.08  -0.03   0.01    -0.00  -0.08  -0.01
     5   6    -0.00  -0.00   0.00     0.52   0.16  -0.05    -0.00  -0.00   0.00
     6   6     0.00   0.00  -0.00    -0.37  -0.11   0.04     0.00   0.00  -0.00
     7   6    -0.02   0.00  -0.01    -0.00   0.00   0.00     0.00   0.01  -0.01
     8   6    -0.03  -0.02  -0.01     0.00  -0.00  -0.00    -0.00   0.00   0.00
     9   6    -0.01  -0.02   0.00    -0.00   0.00   0.00     0.00  -0.00  -0.00
    10   6    -0.01  -0.02  -0.00     0.00   0.00   0.00    -0.00   0.00  -0.00
    11   1     0.17   0.07  -0.01     0.01  -0.01  -0.00     0.01  -0.02  -0.03
    12   1     0.04   0.00   0.01    -0.04  -0.01   0.00     0.04   0.98   0.07
    13   1     0.01   0.00  -0.00    -0.70  -0.21   0.07     0.00   0.00  -0.00
    14   1     0.04   0.02   0.02     0.01  -0.01  -0.01    -0.02  -0.11   0.07
    15   1     0.00  -0.03  -0.00     0.01   0.00  -0.00     0.00   0.00   0.00
    16   1     0.12   0.10   0.11     0.00  -0.00   0.00     0.00  -0.00  -0.00
    17   1     0.03   0.03   0.02    -0.00  -0.00   0.00    -0.01   0.01  -0.00
    18   1    -0.02   0.02  -0.02     0.00  -0.00  -0.00     0.00   0.00   0.00
    19   1    -0.03   0.02  -0.01    -0.00  -0.00   0.00     0.00   0.00  -0.00
    20   1     0.04   0.03   0.00    -0.00  -0.00  -0.00     0.00  -0.00   0.01
                     46                     47                     48
                      A                      A                      A
 Frequencies --   3067.5155              3079.4279              3081.0495
 Red. masses --      1.0594                 1.0598                 1.0618
 Frc consts  --      5.8735                 5.9213                 5.9385
 IR Inten    --     28.0412                33.9515                22.6192
  Atom  AN      X      Y      Z        X      Y      Z        X      Y      Z
     1   8     0.00   0.00   0.00     0.00   0.00   0.00     0.00   0.00   0.00
     2   6    -0.00  -0.00  -0.00    -0.00  -0.00  -0.00    -0.00  -0.00  -0.00
     3   6     0.00  -0.00  -0.00    -0.00   0.00  -0.00    -0.00   0.00   0.00
     4   6    -0.00  -0.00  -0.00     0.00  -0.01  -0.00     0.00  -0.00   0.00
     5   6    -0.00   0.00  -0.00     0.00  -0.00   0.00     0.00  -0.00   0.00
     6   6    -0.00   0.00  -0.00    -0.00  -0.00  -0.00     0.00  -0.00   0.00
     7   6     0.00  -0.00   0.00     0.02  -0.02   0.06     0.00  -0.00   0.01
     8   6     0.00  -0.00  -0.00     0.00   0.00  -0.00     0.00  -0.00  -0.00
     9   6    -0.01   0.06   0.02    -0.00  -0.01  -0.00     0.00   0.02   0.01
    10   6    -0.00  -0.01   0.02    -0.00  -0.01   0.01     0.01   0.04  -0.05
    11   1    -0.00   0.00   0.01     0.00  -0.00  -0.00     0.01  -0.02  -0.06
    12   1     0.00   0.02   0.00     0.00   0.10   0.01     0.00   0.02   0.00
    13   1    -0.00  -0.00   0.00    -0.00  -0.00   0.00    -0.00  -0.00   0.00
    14   1     0.00   0.02  -0.01     0.14   0.59  -0.39     0.03   0.13  -0.08
    15   1    -0.01  -0.00  -0.00    -0.39  -0.41  -0.32    -0.08  -0.08  -0.06
    16   1    -0.04   0.00   0.04    -0.04  -0.00   0.04    -0.03   0.00   0.03
    17   1     0.56  -0.36   0.11    -0.03   0.02  -0.01     0.16  -0.10   0.03
    18   1    -0.41  -0.32  -0.39     0.06   0.05   0.06    -0.18  -0.14  -0.17
    19   1     0.19   0.06  -0.00     0.09   0.03  -0.00    -0.48  -0.16   0.01
    20   1    -0.15   0.11  -0.22    -0.08   0.06  -0.12     0.40  -0.29   0.58
                     49                     50                     51
                      A                      A                      A
 Frequencies --   3106.5747              3126.7320              3129.4661
 Red. masses --      1.1073                 1.1077                 1.1058
 Frc consts  --      6.2960                 6.3804                 6.3806
 IR Inten    --      9.2725                14.1384                23.7337
  Atom  AN      X      Y      Z        X      Y      Z        X      Y      Z
     1   8     0.00  -0.00   0.00     0.00   0.00  -0.00     0.00   0.00   0.00
     2   6    -0.00   0.00   0.00     0.00  -0.00   0.00    -0.00   0.00  -0.00
     3   6     0.00   0.00  -0.00     0.00  -0.00  -0.00    -0.00   0.00   0.00
     4   6     0.00   0.00  -0.00    -0.00  -0.01  -0.00    -0.00  -0.00  -0.00
     5   6    -0.00  -0.00   0.00     0.00   0.00  -0.00     0.00   0.00  -0.00
     6   6     0.00  -0.00   0.00     0.00   0.00   0.00    -0.00   0.00  -0.00
     7   6     0.00   0.00  -0.00    -0.04  -0.08  -0.00    -0.02  -0.03  -0.00
     8   6     0.00  -0.00  -0.00     0.00  -0.00  -0.01     0.00  -0.00  -0.01
     9   6    -0.08   0.00  -0.04     0.01  -0.00   0.00    -0.03   0.00  -0.02
    10   6     0.04   0.01   0.01     0.03   0.00   0.01    -0.07  -0.00  -0.03
    11   1    -0.00   0.00   0.00    -0.00   0.00   0.00     0.00  -0.02  -0.04
    12   1    -0.00   0.00   0.00     0.00   0.09   0.01     0.00   0.02   0.00
    13   1     0.00  -0.00   0.00     0.00  -0.00  -0.00    -0.00  -0.00  -0.00
    14   1    -0.01  -0.04   0.03     0.11   0.50  -0.34     0.04   0.16  -0.11
    15   1    -0.00  -0.01  -0.00     0.42   0.43   0.37     0.15   0.15   0.13
    16   1    -0.03   0.00   0.03    -0.06   0.00   0.06    -0.06   0.00   0.06
    17   1     0.52  -0.35   0.10    -0.08   0.05  -0.01     0.24  -0.16   0.04
    18   1     0.38   0.33   0.37    -0.04  -0.03  -0.04     0.18   0.16   0.18
    19   1    -0.38  -0.14   0.02    -0.23  -0.08   0.01     0.65   0.23  -0.03
    20   1    -0.08   0.07  -0.13    -0.09   0.07  -0.14     0.24  -0.19   0.37
                     52                     53                     54
                      A                      A                      A
 Frequencies --   3146.7333              3155.0274              3493.8569
 Red. masses --      1.0892                 1.0895                 1.1591
 Frc consts  --      6.3544                 6.3900                 8.3362
 IR Inten    --     25.3492                15.1872                63.7922
  Atom  AN      X      Y      Z        X      Y      Z        X      Y      Z
     1   8     0.00   0.00   0.00     0.00   0.00   0.00     0.00   0.00  -0.00
     2   6    -0.00  -0.00  -0.00    -0.00  -0.00   0.00    -0.00  -0.00   0.00
     3   6    -0.00   0.00   0.01     0.01  -0.04  -0.08    -0.00   0.00  -0.00
     4   6     0.00  -0.00  -0.00     0.00  -0.00   0.00    -0.00  -0.00   0.00
     5   6    -0.00  -0.00  -0.00     0.00   0.00  -0.00     0.03   0.01  -0.00
     6   6     0.00   0.00   0.00    -0.00  -0.00   0.00    -0.11  -0.03   0.01
     7   6    -0.00  -0.01   0.00    -0.00  -0.00   0.00    -0.00   0.00   0.00
     8   6    -0.06   0.00   0.06    -0.01   0.00   0.01     0.00   0.00  -0.00
     9   6    -0.01   0.00  -0.00    -0.00   0.00  -0.00    -0.00   0.00   0.00
    10   6    -0.00   0.00  -0.00    -0.00   0.00  -0.01    -0.00   0.00  -0.00
    11   1     0.01  -0.04  -0.08    -0.08   0.41   0.90     0.00   0.00   0.00
    12   1     0.00   0.01   0.00    -0.00   0.04   0.00    -0.00  -0.00  -0.00
    13   1    -0.00  -0.00   0.00    -0.00  -0.00   0.00     0.95   0.29  -0.09
    14   1     0.02   0.09  -0.06     0.00   0.02  -0.01     0.00   0.00  -0.00
    15   1     0.02   0.02   0.02     0.00   0.00   0.00    -0.00  -0.00  -0.00
    16   1     0.71  -0.01  -0.68     0.06  -0.00  -0.06     0.00  -0.00  -0.00
    17   1     0.07  -0.05   0.01     0.02  -0.01   0.00     0.00  -0.00   0.00
    18   1     0.00   0.00   0.00     0.00   0.00   0.00    -0.00  -0.00  -0.00
    19   1     0.01   0.00  -0.00     0.00   0.00  -0.00     0.00   0.00  -0.00
    20   1     0.01  -0.01   0.02     0.04  -0.03   0.06     0.00  -0.00   0.00

 -------------------
 - Thermochemistry -
 -------------------
 Temperature   298.150 Kelvin.  Pressure   1.00000 Atm.
 Atom     1 has atomic number  8 and mass  15.99491
 Atom     2 has atomic number  6 and mass  12.00000
 Atom     3 has atomic number  6 and mass  12.00000
 Atom     4 has atomic number  6 and mass  12.00000
 Atom     5 has atomic number  6 and mass  12.00000
 Atom     6 has atomic number  6 and mass  12.00000
 Atom     7 has atomic number  6 and mass  12.00000
 Atom     8 has atomic number  6 and mass  12.00000
 Atom     9 has atomic number  6 and mass  12.00000
 Atom    10 has atomic number  6 and mass  12.00000
 Atom    11 has atomic number  1 and mass   1.00783
 Atom    12 has atomic number  1 and mass   1.00783
 Atom    13 has atomic number  1 and mass   1.00783
 Atom    14 has atomic number  1 and mass   1.00783
 Atom    15 has atomic number  1 and mass   1.00783
 Atom    16 has atomic number  1 and mass   1.00783
 Atom    17 has atomic number  1 and mass   1.00783
 Atom    18 has atomic number  1 and mass   1.00783
 Atom    19 has atomic number  1 and mass   1.00783
 Atom    20 has atomic number  1 and mass   1.00783
 Molecular mass:   134.07317 amu.
 Principal axes and moments of inertia in atomic units:
                           1         2         3
     Eigenvalues --   723.030701676.076581754.30976
           X            0.99980  -0.01714  -0.00997
           Y            0.01615   0.99556  -0.09273
           Z            0.01152   0.09255   0.99564
 This molecule is an asymmetric top.
 Rotational symmetry number  1.
 Warning -- assumption of classical behavior for rotation
           may cause significant error
 Rotational temperatures (Kelvin)      0.11979     0.05168     0.04937
 Rotational constants (GHZ):           2.49608     1.07677     1.02875
 Zero-point vibrational energy     439579.9 (Joules/Mol)
                                  105.06212 (Kcal/Mol)
 Warning -- explicit consideration of  12 degrees of freedom as
           vibrations may cause significant error
 Vibrational temperatures:    104.47   187.62   224.15   304.74   429.92
          (Kelvin)            523.44   623.81   677.48   774.81   804.85
                              876.04   882.96   924.07  1035.51  1084.21
                             1130.29  1198.42  1246.80  1263.43  1271.59
                             1375.77  1424.25  1447.54  1485.55  1516.12
                             1557.65  1637.02  1645.61  1679.93  1718.18
                             1771.51  1822.69  1831.50  1856.79  1887.59
                             1915.57  1945.28  1949.47  1976.39  2180.99
                             2194.98  2217.31  2697.64  3211.89  4381.11
                             4413.47  4430.61  4432.94  4469.67  4498.67
                             4502.60  4527.45  4539.38  5026.88
 
 Zero-point correction=                           0.167427 (Hartree/Particle)
 Thermal correction to Energy=                    0.175947
 Thermal correction to Enthalpy=                  0.176891
 Thermal correction to Gibbs Free Energy=         0.134024
 Sum of electronic and zero-point Energies=           -423.944161
 Sum of electronic and thermal Energies=              -423.935641
 Sum of electronic and thermal Enthalpies=            -423.934697
 Sum of electronic and thermal Free Energies=         -423.977565
 
                     E (Thermal)             CV                S
                      KCal/Mol        Cal/Mol-Kelvin    Cal/Mol-Kelvin
 Total                  110.408             33.754             90.222
 Electronic               0.000              0.000              0.000
 Translational            0.889              2.981             40.592
 Rotational               0.889              2.981             29.143
 Vibrational            108.631             27.792             20.487
 Vibration     1          0.599              1.967              4.081
 Vibration     2          0.612              1.923              2.940
 Vibration     3          0.620              1.896              2.600
 Vibration     4          0.643              1.823              2.028
 Vibration     5          0.692              1.676              1.424
 Vibration     6          0.737              1.547              1.106
 Vibration     7          0.794              1.397              0.847
 Vibration     8          0.828              1.315              0.735
 Vibration     9          0.894              1.165              0.568
 Vibration    10          0.915              1.119              0.525
 Vibration    11          0.968              1.013              0.435
 Vibration    12          0.973              1.003              0.427
                       Q            Log10(Q)             Ln(Q)
 Total Bot       0.225627D-61        -61.646608       -141.946561
 Total V=0       0.231453D+16         15.364463         35.377984
 Vib (Bot)       0.708437D-75        -75.149699       -173.038577
 Vib (Bot)    1  0.283929D+01          0.453210          1.043556
 Vib (Bot)    2  0.156324D+01          0.194024          0.446757
 Vib (Bot)    3  0.129931D+01          0.113713          0.261834
 Vib (Bot)    4  0.937037D+00         -0.028243         -0.065033
 Vib (Bot)    5  0.636869D+00         -0.195950         -0.451191
 Vib (Bot)    6  0.502531D+00         -0.298837         -0.688098
 Vib (Bot)    7  0.400746D+00         -0.397131         -0.914427
 Vib (Bot)    8  0.357956D+00         -0.446171         -1.027346
 Vib (Bot)    9  0.294617D+00         -0.530742         -1.222079
 Vib (Bot)   10  0.278001D+00         -0.555953         -1.280129
 Vib (Bot)   11  0.242995D+00         -0.614403         -1.414714
 Vib (Bot)   12  0.239886D+00         -0.619996         -1.427593
 Vib (V=0)       0.726729D+02          1.861372          4.285968
 Vib (V=0)    1  0.338298D+01          0.529300          1.218758
 Vib (V=0)    2  0.214125D+01          0.330668          0.761390
 Vib (V=0)    3  0.189220D+01          0.276966          0.637738
 Vib (V=0)    4  0.156209D+01          0.193706          0.446025
 Vib (V=0)    5  0.130969D+01          0.117169          0.269793
 Vib (V=0)    6  0.120890D+01          0.082390          0.189710
 Vib (V=0)    7  0.114078D+01          0.057201          0.131711
 Vib (V=0)    8  0.111492D+01          0.047245          0.108787
 Vib (V=0)    9  0.108034D+01          0.033562          0.077280
 Vib (V=0)   10  0.107209D+01          0.030230          0.069608
 Vib (V=0)   11  0.105592D+01          0.023631          0.054412
 Vib (V=0)   12  0.105457D+01          0.023074          0.053131
 Electronic      0.100000D+01          0.000000          0.000000
 Translational   0.610192D+08          7.785467         17.926700
 Rotational      0.521944D+06          5.717624         13.165316
 ***** Axes restored to original set *****
 -------------------------------------------------------------------
 Center     Atomic                   Forces (Hartrees/Bohr)
 Number     Number              X              Y              Z
 -------------------------------------------------------------------
      1        8          -0.000029079   -0.000006943    0.000041425
      2        6           0.000071752    0.000031856    0.000013404
      3        6           0.000012765   -0.000042202   -0.000006906
      4        6          -0.000044671    0.000042560    0.000023637
      5        6           0.000028109   -0.000038240   -0.000066045
      6        6          -0.000012112    0.000057257    0.000045007
      7        6           0.000021380   -0.000019136   -0.000020248
      8        6          -0.000009577   -0.000026078    0.000032778
      9        6           0.000000597   -0.000038825   -0.000040843
     10        6          -0.000004694    0.000026883    0.000033145
     11        1          -0.000000942   -0.000007115   -0.000003732
     12        1           0.000002399    0.000004199   -0.000013598
     13        1          -0.000000915   -0.000027275   -0.000001671
     14        1          -0.000015295    0.000003656   -0.000002898
     15        1          -0.000012416    0.000014482    0.000000285
     16        1          -0.000012184    0.000012669   -0.000017581
     17        1           0.000001184    0.000001927   -0.000009082
     18        1           0.000000007    0.000006851   -0.000000551
     19        1           0.000001372   -0.000003565   -0.000002644
     20        1           0.000002319    0.000007039   -0.000003883
 -------------------------------------------------------------------
 Cartesian Forces:  Max     0.000071752 RMS     0.000025153

 GradGradGradGradGradGradGradGradGradGradGradGradGradGradGradGradGradGrad
 Berny optimization.
 Search for a local minimum.
 Step number   1 out of a maximum of    2
 All quantities printed in internal units (Hartrees-Bohrs-Radians)
 Second derivative matrix not updated -- analytic derivatives used.
 ITU=  0
     Eigenvalues ---    0.00066   0.00291   0.00432   0.00607   0.00830
     Eigenvalues ---    0.01587   0.03192   0.03639   0.03654   0.03813
     Eigenvalues ---    0.03921   0.04298   0.04570   0.04913   0.04955
     Eigenvalues ---    0.05108   0.05375   0.05475   0.06022   0.06211
     Eigenvalues ---    0.07508   0.08232   0.09686   0.10391   0.12327
     Eigenvalues ---    0.12793   0.13796   0.15381   0.15843   0.17803
     Eigenvalues ---    0.18539   0.22254   0.23732   0.28802   0.32942
     Eigenvalues ---    0.35133   0.39214   0.42410   0.45443   0.47707
     Eigenvalues ---    0.51472   0.53907   0.72069   0.75624   0.76533
     Eigenvalues ---    0.77040   0.77617   0.81434   0.87694   0.91575
     Eigenvalues ---    0.94631   0.95734   1.78320   2.64046
 Angle between quadratic step and forces=  77.97 degrees.
 Linear search not attempted -- first point.
 B after Tr=     0.000001    0.000001    0.000686
         Rot=    1.000000    0.000002    0.000054    0.000025 Ang=   0.01 deg.
 Variable       Old X    -DE/DX   Delta X   Delta X   Delta X     New X
                                 (Linear)    (Quad)   (Total)
    X1        2.27999  -0.00003   0.00000   0.00039   0.00039   2.28038
    Y1       -0.00000  -0.00001   0.00000   0.00127   0.00115   0.00115
    Z1        0.00000   0.00004   0.00000   0.00638   0.00731   0.00731
    X2        0.00000   0.00007   0.00000   0.00044   0.00044   0.00044
    Y2       -0.00000   0.00003   0.00000   0.00048   0.00048   0.00048
    Z2       -0.00000   0.00001   0.00000   0.00075   0.00143   0.00143
    X3       -1.89827   0.00001   0.00000   0.00114   0.00103  -1.89724
    Y3       -2.19690  -0.00004   0.00000  -0.00035  -0.00026  -2.19716
    Z3        0.00101  -0.00001   0.00000  -0.00206  -0.00158  -0.00056
    X4       -3.39657  -0.00004   0.00000   0.00024   0.00043  -3.39614
    Y4       -1.50602   0.00004   0.00000   0.00021   0.00037  -1.50564
    Z4       -2.45058   0.00002   0.00000  -0.00155  -0.00123  -2.45180
    X5       -5.87577   0.00003   0.00000  -0.00029  -0.00014  -5.87591
    Y5       -2.69382  -0.00004   0.00000   0.00098   0.00127  -2.69255
    Z5       -2.65972  -0.00007   0.00000   0.00031   0.00037  -2.65935
    X6       -7.93498  -0.00001   0.00000  -0.00177  -0.00164  -7.93663
    Y6       -3.66507   0.00006   0.00000   0.00324   0.00363  -3.66145
    Z6       -2.83604   0.00005   0.00000   0.00508   0.00492  -2.83112
    X7       -3.47564   0.00002   0.00000   0.00110   0.00143  -3.47420
[...]
 0,0.00003249,-0.08035782,0.02503518,-0.00023761,0.00998542,-0.00851342
 ,-0.00026038,-0.00261355,-0.00873795,-0.00289081,0.00025106,-0.0006141
 3,0.00099755,0.00019678,-0.00002637,-0.00005265,-0.09772592,-0.0090292
 8,-0.03213312,0.41717133,0.01252949,0.01743606,-0.00021236,0.01231892,
 -0.14263047,0.00012877,0.00861079,-0.04441739,0.00039501,-0.01651026,-
 0.02119694,-0.02324700,0.00219386,-0.00327924,-0.00109977,-0.00149967,
 -0.00004987,0.00003417,-0.01191379,-0.08418241,-0.01506286,0.10248745,
 0.66239791,-0.00036524,-0.00004547,0.02111712,0.00012133,0.00011263,-0
 .07521038,-0.00002378,-0.00007911,0.01849679,-0.00094442,-0.00695374,-
 0.00092998,0.00040637,0.00030122,0.00094775,0.00088532,0.00041801,-0.0
 0009949,-0.04689623,-0.00662418,-0.12977231,0.00129637,-0.00023241,0.3
 8849034,-0.00015728,0.00343541,-0.00400964,-0.02927346,0.00528440,0.03
 018893,-0.00286284,0.01634732,0.00034333,-0.00011186,-0.00044894,0.000
 28653,-0.00002034,-0.00008858,-0.00019714,-0.00030102,0.00011887,-0.00
 012469,0.01055312,0.00368337,-0.01430626,-0.09727158,-0.01192961,0.045
 98870,0.58048992,0.00365560,-0.00402074,0.00175330,0.00633735,0.011101
 08,-0.01605107,0.00860378,-0.02151842,-0.00752296,0.00003780,0.0003754
 7,0.00038876,0.00012899,-0.00019795,-0.00017837,0.00009893,0.00000784,
 0.00017093,0.00346706,0.00402885,-0.00330376,-0.00955309,-0.08430354,0
 .00670290,-0.05163562,0.42489841,-0.00502565,0.00217533,-0.00105834,0.
 01621252,-0.01204398,-0.00457827,0.00314088,-0.02449016,-0.00084304,-0
 .00026924,0.00011834,0.00058663,-0.00016108,-0.00000054,0.00003758,0.0
 0026614,0.00010212,-0.00007025,0.01369342,0.00337857,-0.03572195,0.031
 48461,0.01470717,-0.12860473,0.05596855,0.07055356,0.52420778,-0.00044
 529,-0.00359756,-0.00385956,-0.02830540,-0.00428720,0.02960774,-0.1012
 7250,0.01115831,0.04537345,0.01326087,-0.00293243,-0.01211226,0.001175
 07,-0.00098167,-0.00183052,-0.00020347,-0.00004002,0.00012961,-0.00001
 824,0.00017142,0.00039285,-0.00274845,-0.01576678,-0.00012015,-0.07584
 692,0.00082761,-0.00499833,0.58227455,-0.00362735,-0.00400303,-0.00160
 194,-0.00628958,0.01107210,0.01564276,0.01008512,-0.08465942,-0.007283
 22,-0.00378803,0.00304642,0.00354237,-0.00018294,0.00007118,-0.0007403
 4,0.00040569,0.00042266,0.00012918,-0.00064069,0.00068268,0.00011210,-
 0.00852815,-0.02162445,0.00706786,-0.00171839,-0.14391205,-0.00148670,
 0.05127173,0.42909553,-0.00479982,-0.00211421,-0.00103214,0.01560567,0
 .01169745,-0.00414776,0.03363221,-0.01420901,-0.12887497,0.01339628,-0
 .00292374,-0.03359077,0.00153776,-0.00098244,-0.00016454,0.00064363,0.
 00022424,-0.00046889,-0.00022694,-0.00072384,0.00088186,0.00327865,0.0
 2441918,-0.00044166,-0.00481745,0.00050139,-0.07459575,0.05736615,-0.0
 7089685,0.52485122,0.00110945,0.00390582,0.00000203,0.01335115,-0.0202
 4579,0.00020872,-0.09335782,0.10433426,0.00112022,-0.00618316,0.014340
 81,0.00054806,0.00099967,0.00087378,0.00018545,-0.00038474,-0.00059738
 ,0.00006519,-0.00098119,-0.00076807,-0.00281710,-0.00203508,-0.0051395
 2,0.00005320,-0.00139003,-0.00079520,0.00289818,-0.00487568,0.01523438
 ,-0.00161476,0.09137460,-0.00124981,0.00357952,0.00000685,0.01406036,-
 0.01571248,0.00007192,0.10088135,-0.28506674,-0.00093282,-0.00075491,-
 0.00111862,-0.00088501,-0.00008951,0.00033585,0.00015364,0.00019442,0.
 00004279,0.00000070,-0.00054106,-0.00033893,-0.00051452,-0.00143203,-0
 .00417323,-0.00003788,-0.00038716,-0.00015863,0.00056965,-0.00071161,-
 0.00078810,0.00060076,-0.11100876,0.30357334,-0.00006133,-0.00001372,-
 0.00070852,0.00018428,0.00002978,-0.00157223,0.00097892,-0.00205794,-0
 .04784398,-0.00837389,0.02340918,0.00044359,0.00135255,0.00075860,0.00
 027900,-0.00055344,-0.00051046,0.00004223,-0.00252160,0.00162456,-0.00
 333757,0.00002820,-0.00001093,-0.00093188,0.00303073,-0.00150543,-0.00
 314523,0.00650540,-0.02308329,0.00191687,-0.00065341,0.00118659,0.0525
 0068,-0.00003765,0.00039265,0.00021442,0.00134738,-0.00014138,-0.00058
 201,0.00977645,-0.00472357,-0.01435738,-0.12629534,0.04005235,0.112542
 56,-0.02655240,0.00421939,0.02455748,-0.00045549,-0.00102509,-0.000965
 12,-0.00047193,0.00047965,0.00147443,-0.00009331,0.00004742,0.00013428
 ,-0.00011618,0.00038211,0.00013386,-0.00219685,0.00073784,-0.00288728,
 0.00071800,-0.00004917,0.00072276,0.14146718,-0.00077272,0.00013249,0.
 00025945,0.00085268,-0.00047764,-0.00096577,-0.00494086,0.00298626,0.0
 0838659,0.03858325,-0.06477694,-0.05946138,-0.01029550,0.00456276,0.01
 277356,-0.00124774,-0.00059478,-0.00067477,0.01681006,-0.01340478,-0.0
 2198401,0.00015950,-0.00228084,0.00078334,-0.00002845,0.00010469,0.000
 43475,0.00149614,0.00018914,0.00171101,-0.00068837,0.00023376,-0.00018
 329,-0.03954335,0.07623272,-0.00123721,0.00013334,0.00047502,0.0027174
 3,0.00044996,-0.00058523,0.01253375,-0.00802029,-0.02350466,0.11048539
 ,-0.05973156,-0.20452245,0.00098475,0.00303489,0.00499951,-0.00130164,
 -0.00091123,-0.00023875,-0.00165838,0.00150052,0.00157033,-0.00004134,
 -0.00046793,0.00002947,-0.00002778,0.00051632,0.00052389,-0.00459598,0
 .00201959,-0.00404490,0.00031491,0.00052527,0.00119675,-0.11832557,0.0
 6097036,0.22323279,0.00020565,0.00010778,-0.00002611,-0.00025431,-0.00
 031780,0.00007789,0.00018702,0.00027334,-0.00006050,0.00188991,-0.0019
 6222,-0.00047021,0.00247881,0.00198569,0.00041114,-0.34532133,-0.15567
 346,-0.03020652,-0.00040917,-0.00039125,-0.00001467,-0.00000007,-0.000
 01023,-0.00001510,0.00003096,-0.00004183,-0.00001393,-0.00002493,-0.00
 002129,-0.00002634,-0.00000157,-0.00000415,0.00001436,0.00039955,0.000
 20544,0.00010627,0.34081608,0.00006083,-0.00010836,0.00002099,-0.00011
 903,0.00034231,-0.00011686,-0.00061974,-0.00026795,-0.00010471,-0.0023
 2911,0.00515821,-0.00002267,0.00234181,-0.00082030,0.00009523,-0.15589
 714,-0.09045011,-0.01420759,0.00098305,0.00038152,0.00004010,0.0000672
 3,0.00014478,-0.00003213,-0.00003279,0.00002359,0.00000462,0.00006500,
 -0.00000988,0.00005845,-0.00000399,-0.00001330,-0.00000997,-0.00051555
 ,-0.00021432,-0.00008834,0.15580470,0.08580260,0.00019701,0.00012412,-
 0.00010890,-0.00000154,-0.00038339,0.00034792,0.00107303,0.00074140,0.
 00008348,-0.00057231,-0.00001677,0.00654346,0.00081432,0.00001193,-0.0
 0177803,-0.03056485,-0.01420706,-0.01968212,-0.00005050,0.00007836,0.0
 0008808,-0.00004091,0.00004088,-0.00004733,0.00000264,0.00000291,-0.00
 000511,-0.00005687,-0.00002017,-0.00015207,0.00000292,-0.00001157,0.00
 001465,-0.00104604,-0.00057218,-0.00017836,0.03028268,0.01428940,0.015
 01009,-0.00026166,-0.00020354,0.00022660,0.00142952,-0.00045331,-0.000
 36331,0.00004698,0.00099128,-0.00011505,-0.00029098,0.00261846,-0.0009
 3082,-0.00012450,-0.00047074,-0.00058370,0.00006997,-0.00021034,-0.000
 11161,-0.09988344,-0.04136726,0.09309002,0.00835462,0.00787775,-0.0155
 9028,-0.00239074,-0.00047324,-0.00224121,-0.00014582,-0.00012211,0.000
 19294,-0.00005927,0.00008352,-0.00014142,0.00148149,0.00035507,-0.0003
 0546,0.00000846,0.00004399,0.00004268,0.10096294,0.00061243,0.00031404
 ,-0.00023562,-0.00086621,-0.00115856,0.00040781,0.00039978,-0.00354205
 ,-0.00063671,-0.01213730,-0.01418967,0.02365425,0.00183028,-0.00257496
 ,0.00097307,-0.00114376,-0.00023796,-0.00038543,-0.04057704,-0.0826472
 7,0.08389452,0.00514359,0.00390546,-0.00839167,-0.00154456,0.00008978,
 -0.00227500,0.00007477,-0.00001948,-0.00044633,0.00051039,-0.00013814,
 0.00096127,-0.00043792,0.00143149,0.00020605,-0.00002959,0.00017076,-0
 .00001239,0.04369980,0.09264927,-0.00105818,0.00011827,0.00031530,0.00
 204945,-0.00111423,-0.00039482,0.00016718,0.00024403,0.00037499,-0.002
 13148,-0.00299331,0.00337381,0.00024571,-0.00014984,0.00028812,-0.0003
 7575,-0.00009429,-0.00008555,0.09244430,0.08374925,-0.23307011,0.01115
 486,0.00962355,-0.01950205,-0.00429774,-0.00191243,-0.00406497,0.00010
 454,-0.00050725,0.00045857,0.00007236,0.00006017,-0.00004527,-0.000358
 56,-0.00010821,0.00178021,-0.00002919,0.00003783,-0.00003007,-0.099705
 50,-0.08761469,0.25126256,-0.00081799,0.00129963,0.00035170,-0.0009535
 2,-0.00404891,-0.00249682,0.00020696,-0.00016934,0.00073034,0.00201099
 ,-0.00204418,-0.00017341,0.00141832,-0.00113624,-0.00018984,0.00042426
 ,0.00001403,0.00001395,-0.28700904,0.08626554,0.02157260,-0.01500635,0
 .00652271,-0.00160027,0.00153095,-0.00048625,0.00249355,-0.00014130,0.
 00009124,0.00018658,0.00003681,-0.00001095,0.00004028,0.00041408,-0.00
 037436,-0.00052778,-0.00003204,0.00006763,0.00000922,-0.01143307,0.004
 04333,0.00099254,0.30828502,-0.00097048,0.00090350,0.00032463,0.000490
 03,-0.00272915,-0.00156803,0.00005487,-0.00270593,-0.00076936,0.027286
 31,-0.01186841,-0.00365540,0.00254256,0.00175122,0.00000729,-0.0010723
 8,0.00037449,0.00003822,0.08233808,-0.07506626,-0.00466421,-0.00995697
 ,0.00506276,-0.00051155,0.00022441,0.00023988,0.00087722,0.00034394,-0
 .00014297,0.00000857,0.00048465,0.00012321,0.00099037,0.00041075,-0.00
 432829,0.00062947,0.00002546,-0.00015647,-0.00001899,-0.01227293,0.005
 04434,0.00035776,-0.08978855,0.08353839,-0.00165199,0.00191219,0.00133
 735,-0.00205630,-0.00450540,-0.00504308,0.00061617,0.00063489,0.000617
 93,0.00136317,-0.00015940,-0.00194735,0.00022031,-0.00011138,0.0013892
 6,-0.00020490,0.00003729,-0.00024317,0.02226110,-0.00495233,-0.0500567
 7,-0.02578339,0.01081758,-0.00260009,-0.00226843,0.00053944,0.00259052
 ,-0.00005314,0.00020221,0.00004697,0.00007774,0.00008919,-0.00009351,-
 0.00031669,-0.00107293,0.00018230,0.00001189,-0.00001756,-0.00003515,0
 .02660076,-0.00971512,-0.00081158,-0.02015274,0.00708901,0.05465952,0.
 00117098,-0.00398431,-0.00002275,0.01336835,0.02075840,0.00011076,-0.0
 0220291,0.00523293,-0.00006985,-0.00139722,0.00091222,-0.00258911,0.00
 005523,-0.00062399,0.00000153,-0.00008512,-0.00006696,0.00001793,-0.00
 499520,-0.01506321,0.00133362,-0.09284103,-0.10393207,-0.00012133,-0.0
 0490011,-0.01511246,-0.00160414,-0.00138049,0.00089706,0.00296694,0.00
 108223,0.00083882,-0.00000390,-0.00000041,-0.00035494,0.00000851,0.000
 00597,0.00003743,-0.00000708,0.00095993,0.00062177,0.00024448,-0.00043
 391,0.00008705,0.00000935,0.09105166,0.00122326,0.00362393,0.00003447,
 -0.01402240,-0.01637243,-0.00006595,0.00162966,-0.00429801,0.00018789,
 0.00042754,0.00012458,0.00055545,-0.00007476,0.00012563,-0.00000539,-0
 .00003915,-0.00001838,-0.00003991,0.00056736,-0.00105885,0.00052437,-0
 .09959633,-0.28291892,-0.00024654,0.00057271,-0.00098206,-0.00054703,0
 .00036160,-0.00017622,-0.00053362,-0.00083107,-0.00064910,-0.00000881,
 -0.00004749,-0.00015148,-0.00009740,0.00003100,-0.00000487,0.00001065,
 -0.00001849,0.00038917,-0.00051375,-0.00008808,-0.00012583,-0.00024932
 ,0.11006496,0.30230131,-0.00004665,0.00007777,-0.00073848,0.00008590,-
 0.00028402,-0.00154643,0.00003528,0.00004959,-0.00083258,-0.00306440,-
 0.00168500,-0.00312136,0.00062616,-0.00101500,-0.00009874,-0.00052638,
 -0.00019999,0.00007917,-0.00667285,-0.02343982,0.00150636,-0.00017536,
 -0.00004160,-0.04820469,0.00653570,0.02353315,0.00199456,0.00297219,0.
 00155052,-0.00330950,-0.00000550,0.00000111,0.00038700,0.00003877,-0.0
 0063571,-0.00012711,0.00000205,0.00008738,-0.00000848,0.00092953,0.000
 26014,0.00108858,-0.00034940,0.00018726,0.00000200,0.00022009,0.000099
 06,0.05198842,-0.00015819,-0.00025981,-0.00025156,0.00139230,-0.000312
 43,0.00048765,-0.00011848,0.00071001,0.00010599,-0.00014106,-0.0001811
 2,-0.00018228,-0.00006543,0.00006020,0.00003233,0.00008513,-0.00002755
 ,-0.00006411,-0.00237762,-0.00043432,0.00240820,0.00860050,0.00728510,
 0.01583141,-0.10582160,-0.03960534,-0.09809475,-0.00069811,0.00122947,
 0.00061506,-0.00004730,0.00007433,0.00008989,-0.00004221,-0.00006200,-
 0.00006531,0.00001144,0.00001114,0.00001424,0.00092236,0.00012669,0.00
 086836,0.00038392,-0.00026944,0.00014491,0.00094536,0.00000331,-0.0009
 2929,0.10797916,0.00070269,0.00029538,0.00025886,-0.00093075,-0.000978
 86,-0.00065770,-0.00018093,-0.00337673,0.00077980,0.00007572,-0.000052
 64,0.00049780,-0.00006608,0.00008493,0.00003593,0.00002363,0.00006135,
 -0.00010732,-0.00144128,0.00015318,0.00245498,0.00546307,0.00362081,0.
 00852505,-0.03941732,-0.07807474,-0.07726420,-0.01372154,-0.01244975,-
 0.02425896,0.00052659,-0.00013322,-0.00086909,-0.00000593,0.00009853,-
 0.00004666,0.00002176,-0.00001042,0.00001111,0.00012275,0.00035330,0.0
 0079142,-0.00036646,-0.00005549,-0.00018345,0.00068311,0.00032290,-0.0
 0028752,0.04315616,0.08728526,0.00122348,-0.00005534,0.00040669,-0.002
 35398,0.00092673,-0.00049287,-0.00004732,-0.00029040,0.00009095,-0.000
 05756,0.00046751,0.00045508,0.00013852,-0.00004221,0.00000883,-0.00013
 971,-0.00008647,0.00003096,0.00413012,0.00199020,-0.00420273,-0.011502
 19,-0.00919441,-0.02037761,-0.09718182,-0.07663129,-0.22942714,0.00192
 271,0.00197412,0.00310484,-0.00006407,-0.00006332,-0.00007782,0.000048
 98,-0.00002704,0.00006204,0.00001557,0.00001961,-0.00000784,-0.0008502
 7,-0.00081236,-0.00139634,0.00035748,0.00015032,0.00042380,-0.00027313
 ,0.00051700,0.00109990,0.10480802,0.08050416,0.24864713,-0.00080976,0.
 00134848,-0.00039958,-0.00108887,-0.00422401,0.00272296,0.00049714,-0.
 00034957,-0.00092821,-0.00014028,0.00003806,-0.00020077,0.00004088,0.0
 0005802,0.00006319,0.00007726,-0.00001852,0.00002437,0.00150776,-0.000
 45536,-0.00248299,-0.01558963,0.00718894,0.00162430,-0.27593739,0.0933
 2076,-0.01505088,0.00420441,-0.00215703,0.00012649,0.00005787,-0.00003
 744,-0.00007157,0.00002853,-0.00007855,0.00004482,-0.00001647,0.000011
 76,-0.00000101,0.00036259,-0.00034899,-0.00031224,0.00098859,0.0002276
 3,0.00116507,-0.00043489,-0.00012114,0.00033839,-0.01286413,0.00487212
 ,-0.00097684,0.29720193,-0.00082727,0.00095893,-0.00033001,0.00016065,
 -0.00285487,0.00169484,0.00025886,-0.00357163,0.00089105,0.00032061,-0
 .00021327,-0.00004867,0.00019900,0.00015291,-0.00003670,-0.00024484,0.
 00003552,0.00007466,0.00024114,0.00008466,-0.00082786,-0.01026229,0.00
 534025,0.00084827,0.09169902,-0.08338228,0.00361549,0.02736610,-0.0116
 7403,0.00215091,0.00060872,0.00010240,-0.00115352,-0.00011652,0.000056
 71,-0.00011167,0.00000912,-0.00003030,-0.00001761,-0.00029475,-0.00003
 164,-0.00013558,0.00017561,0.00014803,-0.00037586,0.00010435,-0.000076
 56,-0.00027360,-0.01108095,0.00491811,-0.00001097,-0.09888190,0.091749
 07,0.00169081,-0.00190897,0.00131772,0.00198265,0.00450010,-0.00512445
 ,-0.00055817,-0.00082285,0.00056390,0.00008596,-0.00025520,0.00006502,
 0.00013384,0.00000251,-0.00007788,-0.00009067,0.00003521,0.00005849,0.
 00217453,-0.00049414,0.00271507,0.02547777,-0.01162310,-0.00318095,-0.
 01661276,0.00420774,-0.04960800,-0.00047308,-0.00061040,-0.00145304,-0
 .00006611,-0.00007946,-0.00010974,0.00001966,0.00010315,0.00001032,-0.
 00001028,-0.00001363,0.00000967,-0.00013025,0.00019116,0.00043479,-0.0
 0119115,0.00029280,-0.00031184,-0.00009521,0.00023731,0.00008530,-0.02
 635783,0.01067258,-0.00018083,0.01372686,-0.00527393,0.05344541,-0.000
 67975,-0.00130308,-0.00037674,-0.00140084,0.00379771,0.00263357,-0.015
 28891,-0.00683144,0.00245305,0.00027340,0.00018694,-0.00207099,0.00045
 088,-0.00015366,-0.00036489,0.00003972,0.00014763,-0.00062853,-0.00014
 675,-0.00006854,-0.00013813,0.00047198,0.00045078,-0.00071293,0.004539
 71,0.00227469,0.00022794,-0.27960701,-0.09376068,-0.01822293,-0.000378
 45,0.00009337,0.00034469,-0.00003700,0.00009876,-0.00011851,0.00000895
 ,0.00000496,-0.00011256,0.00000859,0.00000450,-0.00000800,0.00008077,-
 0.00005654,-0.00001415,0.00009624,0.00003011,-0.00013249,0.00040860,0.
 00061092,0.00054241,0.00154649,-0.00002875,0.00005650,0.30174058,0.000
 84737,0.00092297,0.00031643,-0.00037324,-0.00291611,-0.00166288,0.0101
 6141,0.00536984,0.00049293,-0.00115894,0.00032341,0.00047142,0.0001567
 6,0.00021885,-0.00032494,-0.00005507,-0.00043403,-0.00011916,-0.000307
 40,-0.00020544,-0.00000660,-0.00022322,-0.00336190,-0.00074251,-0.0273
 5006,-0.01143618,-0.00270756,-0.09179702,-0.08445499,-0.00481189,-0.00
 007280,-0.00005771,0.00021850,0.00011131,-0.00010538,0.00018513,-0.000
 02137,0.00005242,-0.00004979,0.00013233,0.00008178,0.00010381,0.000081
 77,-0.00007433,0.00010211,-0.00057325,0.00009064,0.00107277,-0.0005756
 7,-0.00391076,0.00063311,0.00006650,0.00213366,0.00003741,0.09904346,0
 .09261302,0.00189108,0.00195701,0.00131988,0.00164162,-0.00485134,-0.0
 0510501,0.02644147,0.01185516,-0.00164195,0.00071238,0.00032554,0.0018
 9581,0.00018213,0.00038141,-0.00113655,-0.00079714,-0.00036151,0.00008
 429,0.00012016,0.00032860,0.00005273,-0.00056754,0.00084032,0.00071439
 ,-0.00053444,0.00038594,-0.00162843,-0.02056525,-0.00583248,-0.0497336
 3,-0.00005250,-0.00021862,-0.00001200,-0.00005756,-0.00027405,0.000551
 73,-0.00007590,-0.00007660,-0.00003929,-0.00006750,-0.00006036,-0.0000
 3181,-0.00003536,0.00014112,-0.00010428,-0.00004721,0.00008598,-0.0001
 7330,0.00025778,-0.00080722,0.00006059,0.00000832,0.00002600,0.0012685
 2,0.01786159,0.00668244,0.05430244,-0.00014929,0.00027659,-0.00025402,
 0.00130351,0.00022360,0.00049585,0.00851779,-0.00745703,0.01649650,-0.
 00263936,0.00044512,0.00279426,-0.00043908,-0.00012628,-0.00037278,0.0
 0043610,0.00008775,-0.00031909,-0.00018686,0.00021952,-0.00018144,-0.0
 0009902,-0.00081129,0.00004847,-0.00074331,-0.00143167,0.00093954,-0.1
 0300447,0.04088372,-0.09695285,0.00096452,0.00005039,-0.00091151,0.000
 66610,-0.00017405,0.00100914,0.00001707,0.00001782,0.00001493,-0.00001
 795,0.00001803,-0.00006715,0.00004653,-0.00012845,0.00003127,-0.000064
 68,-0.00007259,0.00011826,0.00160534,-0.00012823,0.00025962,0.00036798
 ,0.00059406,0.00023692,-0.01212718,0.01190712,-0.02631612,0.10554627,-
 0.00073709,0.00030813,-0.00026131,0.00097717,-0.00101576,0.00061361,-0
 .00521696,0.00352717,-0.00827924,0.00139502,0.00015128,-0.00236209,0.0
 0032982,0.00004431,-0.00001603,-0.00000009,-0.00001514,-0.00006359,-0.
 00004016,-0.00003254,-0.00043503,0.00012029,-0.00348884,-0.00086208,0.
 01321599,-0.01288303,0.02427835,0.04069921,-0.08066535,0.08052893,-0.0
 0066845,0.00035731,0.00022761,-0.00022751,0.00030587,-0.00069581,0.000
 00890,0.00001007,-0.00000085,-0.00003825,0.00011035,0.00005746,-0.0000
 4818,0.00006731,-0.00008118,-0.00052690,-0.00014544,0.00094350,0.00015
 222,0.00184883,0.00003105,-0.00045975,-0.00384568,0.00080171,-0.004541
 14,0.00515022,-0.01052731,-0.04439414,0.09021091,0.00112892,0.00002242
 ,0.00038377,-0.00220074,-0.00081579,-0.00045556,-0.01129296,0.00933335
 ,-0.02089995,0.00429785,-0.00161493,-0.00363379,0.00090573,0.00018405,
 0.00033381,-0.00034676,-0.00015624,0.00006716,-0.00002566,-0.00050368,
 0.00052577,-0.00006521,0.00018574,0.00010728,0.00203306,-0.00215103,0.
 00341024,-0.09570950,0.07982194,-0.22925070,-0.00027550,-0.00052265,0.
 00109699,-0.00099099,0.00053713,-0.00141288,0.00002692,0.00003647,-0.0
 0002458,0.00005387,0.00003743,0.00005565,-0.00003146,0.00009353,-0.000
 00282,-0.00007950,0.00005555,-0.00007062,0.00028130,-0.00004958,0.0017
 7238,0.00057933,-0.00070526,0.00007254,-0.00121890,0.00010927,-0.00064
 415,0.10293020,-0.08389771,0.24856945\\0.00002908,0.00000694,-0.000041
 43,-0.00007175,-0.00003186,-0.00001340,-0.00001276,0.00004220,0.000006
 91,0.00004467,-0.00004256,-0.00002364,-0.00002811,0.00003824,0.0000660
 5,0.00001211,-0.00005726,-0.00004501,-0.00002138,0.00001914,0.00002025
 ,0.00000958,0.00002608,-0.00003278,-0.00000060,0.00003882,0.00004084,0
 .00000469,-0.00002688,-0.00003315,0.00000094,0.00000712,0.00000373,-0.
 00000240,-0.00000420,0.00001360,0.00000092,0.00002728,0.00000167,0.000
 01530,-0.00000366,0.00000290,0.00001242,-0.00001448,-0.00000028,0.0000
 1218,-0.00001267,0.00001758,-0.00000118,-0.00000193,0.00000908,0.,-0.0
 0000685,0.00000055,-0.00000137,0.00000357,0.00000264,-0.00000232,-0.00
 000704,0.00000388\\\@


 Spring appears, and we are once more children.
                                  -- Anonymous
 Job cpu time:       0 days  0 hours  1 minutes 30.1 seconds.
 Elapsed time:       0 days  0 hours  1 minutes 31.0 seconds.
 File lengths (MBytes):  RWF=     74 Int=      0 D2E=      0 Chk=      5 Scr=      1
 Normal termination of Gaussian 16 at Wed Feb 21 19:07:47 2024.
