 Entering Gaussian System, Link 0=g16
 Input=/Volumes/SSD-PMU3/b3lyp_6-31gd_freq/UOBWWIKVCWWDAZ-HLTSFMKQSA-N_calculating/gaussianinput0.gjf
 Output=/Volumes/SSD-PMU3/b3lyp_6-31gd_freq/UOBWWIKVCWWDAZ-HLTSFMKQSA-N_calculating/gaussianinput0.log
 Initial command:
 /Applications/g16/l1.exe "/Users/macmini_m1_2022/PycharmProjects/sphere_model/sphere_model_lib/Gau-86998.inp" -scrdir="/Users/macmini_m1_2022/PycharmProjects/sphere_model/sphere_model_lib/"
 Entering Link 1 = /Applications/g16/l1.exe PID=     86999.
  
 Copyright (c) 1988,1990,1992,1993,1995,1998,2003,2009,2016,
            Gaussian, Inc.  All Rights Reserved.
  
 This is part of the Gaussian(R) 16 program.  It is based on
 the Gaussian(R) 09 system (copyright 2009, Gaussian, Inc.),
 the Gaussian(R) 03 system (copyright 2003, Gaussian, Inc.),
 the Gaussian(R) 98 system (copyright 1998, Gaussian, Inc.),
 the Gaussian(R) 94 system (copyright 1995, Gaussian, Inc.),
 the Gaussian 92(TM) system (copyright 1992, Gaussian, Inc.),
 the Gaussian 90(TM) system (copyright 1990, Gaussian, Inc.),
 the Gaussian 88(TM) system (copyright 1988, Gaussian, Inc.),
 the Gaussian 86(TM) system (copyright 1986, Carnegie Mellon
 University), and the Gaussian 82(TM) system (copyright 1983,
 Carnegie Mellon University). Gaussian is a federally registered
 trademark of Gaussian, Inc.
  
 This software contains proprietary and confidential information,
 including trade secrets, belonging to Gaussian, Inc.
  
 This software is provided under written license and may be
 used, copied, transmitted, or stored only in accord with that
 written license.
  
 The following legend is applicable only to US Government
 contracts under FAR:
  
                    RESTRICTED RIGHTS LEGEND
  
 Use, reproduction and disclosure by the US Government is
 subject to restrictions as set forth in subparagraphs (a)
 and (c) of the Commercial Computer Software - Restricted
 Rights clause in FAR 52.227-19.
  
 Gaussian, Inc.
 340 Quinnipiac St., Bldg. 40, Wallingford CT 06492
  
  
 ---------------------------------------------------------------
 Warning -- This program may not be used in any manner that
 competes with the business of Gaussian, Inc. or will provide
 assistance to any competitor of Gaussian, Inc.  The licensee
 of this program is prohibited from giving any competitor of
 Gaussian, Inc. access to this program.  By using this program,
 the user acknowledges that Gaussian, Inc. is engaged in the
 business of creating and licensing software in the field of
 computational chemistry and represents and warrants to the
 licensee that it is not a competitor of Gaussian, Inc. and that
 it will not use this program in any manner prohibited above.
 ---------------------------------------------------------------
  

 Cite this work as:
 Gaussian 16, Revision A.03,
 M. J. Frisch, G. W. Trucks, H. B. Schlegel, G. E. Scuseria, 
 M. A. Robb, J. R. Cheeseman, G. Scalmani, V. Barone, 
 G. A. Petersson, H. Nakatsuji, X. Li, M. Caricato, A. V. Marenich, 
 J. Bloino, B. G. Janesko, R. Gomperts, B. Mennucci, H. P. Hratchian, 
 J. V. Ortiz, A. F. Izmaylov, J. L. Sonnenberg, D. Williams-Young, 
 F. Ding, F. Lipparini, F. Egidi, J. Goings, B. Peng, A. Petrone, 
 T. Henderson, D. Ranasinghe, V. G. Zakrzewski, J. Gao, N. Rega, 
 G. Zheng, W. Liang, M. Hada, M. Ehara, K. Toyota, R. Fukuda, 
 J. Hasegawa, M. Ishida, T. Nakajima, Y. Honda, O. Kitao, H. Nakai, 
 T. Vreven, K. Throssell, J. A. Montgomery, Jr., J. E. Peralta, 
 F. Ogliaro, M. J. Bearpark, J. J. Heyd, E. N. Brothers, K. N. Kudin, 
 V. N. Staroverov, T. A. Keith, R. Kobayashi, J. Normand, 
 K. Raghavachari, A. P. Rendell, J. C. Burant, S. S. Iyengar, 
 J. Tomasi, M. Cossi, J. M. Millam, M. Klene, C. Adamo, R. Cammi, 
 J. W. Ochterski, R. L. Martin, K. Morokuma, O. Farkas, 
 J. B. Foresman, and D. J. Fox, Gaussian, Inc., Wallingford CT, 2016.
 
 ******************************************
 Gaussian 16:  EM64M-G16RevA.03 25-Dec-2016
                24-Feb-2024 
 ******************************************
 %nprocshared=10
 Will use up to   10 processors via shared memory.
 %mem=12GB
 %chk= 0.chk
 ---------------------
 # freq b3lyp/6-31g(d)
 ---------------------
 1/10=4,30=1,38=1/1,3;
 2/12=2,17=6,18=5,40=1/2;
 3/5=1,6=6,7=1,11=2,25=1,30=1,71=2,74=-5,140=1/1,2,3;
 4//1;
 5/5=2,38=5,98=1/2;
 8/6=4,10=90,11=11/1;
 11/6=1,8=1,9=11,15=111,16=1/1,2,10;
 10/6=1/2;
 6/7=2,8=2,9=2,10=2,28=1/1;
 7/8=1,10=1,25=1/1,2,3,16;
 1/10=4,30=1/3;
 99//99;
 ---------
 good luck
 ---------
 Symbolic Z-matrix:
 Charge =  0 Multiplicity = 1
 O                     1.21702   0.        0. 
 C                     0.        0.        0. 
 C                    -0.80694  -1.29205   0.0003 
 C                    -1.89211  -1.28826   1.09275 
 C                    -2.75539  -0.02653   1.06 
 Cl                   -3.84084  -0.0689   -0.43535 
 C                    -1.90748   1.25253   1.1098 
 C                    -2.73027   2.55195   1.12854 
 C                    -1.83232   3.79159   1.2532 
 C                    -0.7755    3.82862   0.13982 
 C                     0.06191   2.5429    0.11884 
 C                    -0.81971   1.29161   0.0003 
 H                    -0.1188   -2.13276   0.12407 
 H                    -1.29077  -1.39254  -0.98092 
 H                    -2.5212   -2.18014   1.01059 
 H                    -1.41528  -1.32426   2.08278 
 H                    -3.46698  -0.03055   1.88941 
 H                    -1.38085   1.18485   2.07784 
 H                    -3.45096   2.51653   1.95673 
 H                    -3.31727   2.61639   0.20374 
 H                    -1.32919   3.78329   2.23144 
 H                    -2.44833   4.69894   1.22711 
 H                    -0.11976   4.69881   0.26764 
 H                    -1.27728   3.95579  -0.83078 
 H                     0.6577    2.47129   1.03889 
 H                     0.78324   2.5582   -0.70478 
 H                    -1.35384   1.31732  -0.96387 
 

 GradGradGradGradGradGradGradGradGradGradGradGradGradGradGradGradGradGrad
 Berny optimization.
 Initialization pass.
 Trust Radius=3.00D-01 FncErr=1.00D-07 GrdErr=1.00D-07 EigMax=2.50D+02 EigMin=1.00D-04
 Number of steps in this run=      2 maximum allowed number of steps=      2.
 GradGradGradGradGradGradGradGradGradGradGradGradGradGradGradGradGradGrad

                          Input orientation:                          
 ---------------------------------------------------------------------
 Center     Atomic      Atomic             Coordinates (Angstroms)
 Number     Number       Type             X           Y           Z
 ---------------------------------------------------------------------
      1          8           0        1.217017    0.000000    0.000000
      2          6           0        0.000000    0.000000    0.000000
      3          6           0       -0.806938   -1.292048    0.000297
      4          6           0       -1.892112   -1.288256    1.092753
      5          6           0       -2.755386   -0.026530    1.059999
      6         17           0       -3.840836   -0.068896   -0.435349
      7          6           0       -1.907482    1.252527    1.109796
      8          6           0       -2.730271    2.551946    1.128536
      9          6           0       -1.832318    3.791594    1.253201
     10          6           0       -0.775495    3.828615    0.139820
     11          6           0        0.061913    2.542900    0.118844
     12          6           0       -0.819706    1.291610    0.000297
     13          1           0       -0.118797   -2.132759    0.124069
     14          1           0       -1.290767   -1.392540   -0.980921
     15          1           0       -2.521195   -2.180143    1.010588
     16          1           0       -1.415282   -1.324263    2.082785
     17          1           0       -3.466977   -0.030552    1.889406
     18          1           0       -1.380845    1.184845    2.077838
     19          1           0       -3.450958    2.516526    1.956726
     20          1           0       -3.317275    2.616391    0.203735
     21          1           0       -1.329189    3.783285    2.231439
     22          1           0       -2.448329    4.698935    1.227114
     23          1           0       -0.119760    4.698813    0.267642
     24          1           0       -1.277282    3.955787   -0.830775
     25          1           0        0.657702    2.471292    1.038886
     26          1           0        0.783244    2.558201   -0.704781
     27          1           0       -1.353838    1.317324   -0.963871
 ---------------------------------------------------------------------
                    Distance matrix (angstroms):
                    1          2          3          4          5
     1  O    0.000000
     2  C    1.217017   0.000000
     3  C    2.401204   1.523331   0.000000
     4  C    3.538417   2.536494   1.539830   0.000000
     5  C    4.111482   2.952364   2.553616   1.529139   0.000000
     6  Cl   5.077022   3.866044   3.300064   2.760337   1.848259
     7  C    3.544427   2.537510   2.986143   2.540887   1.535385
     8  C    4.833953   3.903896   4.443920   3.930769   2.579509
     9  C    5.024454   4.393642   5.335222   5.082735   3.932868
    10  C    4.318327   3.908866   5.122660   5.323278   4.430445
    11  C    2.795484   2.546428   3.933927   4.409588   3.927457
    12  C    2.411741   1.529763   2.583690   2.999871   2.570470
    13  H    2.519614   2.139665   1.093459   2.190018   3.501966
    14  H    3.031560   2.137160   1.098625   2.161623   2.859449
    15  H    4.443933   3.482921   2.179008   1.094513   2.166872
    16  H    3.608416   2.845117   2.169764   1.099467   2.127459
    17  H    5.050801   3.948508   3.497987   2.167181   1.092838
    18  H    3.531311   2.761884   3.283374   2.710722   2.095898
    19  H    5.652581   4.697956   5.032265   4.201525   2.784793
    20  H    5.238971   4.229814   4.649632   4.250613   2.834420
    21  H    5.076980   4.589042   5.568639   5.228194   4.233320
    22  H    6.084452   5.438760   6.331755   6.014473   4.738379
    23  H    4.892591   4.707953   6.036067   6.298177   5.468384
    24  H    4.749733   4.239090   5.334011   5.619427   4.649588
    25  H    2.738504   2.760279   4.169720   4.542979   4.229507
    26  H    2.688730   2.766691   4.224953   5.018355   4.724107
    27  H    3.045273   2.120676   2.835056   3.362810   2.804698
                    6          7          8          9         10
     6  Cl   0.000000
     7  C    2.805617   0.000000
     8  C    3.247754   1.538123   0.000000
     9  C    4.667840   2.544224   1.535770   0.000000
    10  C    4.991766   2.976319   2.535467   1.535533   0.000000
    11  C    4.728642   2.554519   2.969150   2.536555   1.534521
    12  C    3.341854   1.554275   2.551789   2.974066   2.541223
    13  H    4.292558   3.953633   5.456667   6.269693   5.997456
    14  H    2.924472   3.427508   4.699037   5.670963   5.364888
    15  H    2.879158   3.488511   4.738174   6.016233   6.317506
    16  H    3.714870   2.798002   4.202949   5.199435   5.544059
    17  H    2.354937   2.164742   2.791228   4.205433   5.019790
    18  H    3.733568   1.104098   2.142683   2.771100   3.333449
    19  H    3.543788   2.167326   1.098428   2.177324   3.490104
    20  H    2.809504   2.160692   1.097262   2.165082   2.816774
    21  H    5.315960   2.827940   2.166938   1.100072   2.164140
    22  H    5.237850   3.490560   2.167665   1.097004   2.176704
    23  H    6.088649   3.972664   3.487828   2.174219   1.097074
    24  H    4.788136   3.386825   2.814400   2.162864   1.100008
    25  H    5.372408   2.840878   3.390118   2.826540   2.169032
    26  H    5.325068   3.498211   3.963064   3.492294   2.181048
    27  H    2.895876   2.147281   2.792316   3.356540   2.803426
                   11         12         13         14         15
    11  C    0.000000
    12  C    1.535263   0.000000
    13  H    4.679153   3.497556   0.000000
    14  H    4.304290   2.896437   1.772693   0.000000
    15  H    5.456628   3.996101   2.561187   2.469895   0.000000
    16  H    4.581934   3.396212   2.484171   3.066995   1.762152
    17  H    4.712813   3.510682   4.329665   3.850932   2.507502
    18  H    2.786310   2.154635   4.051725   4.000879   3.709793
    19  H    3.964690   3.500217   6.006478   5.345745   4.880403
    20  H    3.381053   2.834481   5.726346   4.645608   4.928640
    21  H    2.817229   3.383196   6.395751   6.091789   6.202728
    22  H    3.489708   3.970813   7.301744   6.581902   6.882871
    23  H    2.168665   3.488614   6.833081   6.327302   7.323858
    24  H    2.165980   2.828055   6.270902   5.350451   6.525916
    25  H    1.098440   2.157093   4.757849   4.775495   5.634007
    26  H    1.094948   2.161212   4.848276   4.470585   6.026086
    27  H    2.163021   1.102533   3.822566   2.710651   4.182522
                   16         17         18         19         20
    16  H    0.000000
    17  H    2.433215   0.000000
    18  H    2.509349   2.421703   0.000000
    19  H    4.348739   2.548018   2.464429   0.000000
    20  H    4.762054   3.141688   3.051450   1.760915   0.000000
    21  H    5.110436   4.385485   2.603488   2.486373   3.070132
    22  H    6.170760   4.883065   3.769892   2.510081   2.477773
    23  H    6.422660   6.016716   4.149110   4.325767   3.816368
    24  H    6.032148   5.299533   4.018566   3.816609   2.650616
    25  H    4.448958   4.898529   2.624889   4.210174   4.064354
    26  H    5.260947   5.612114   3.783168   5.001382   4.200362
    27  H    4.032849   3.797804   3.044712   3.790235   2.627920
                   21         22         23         24         25
    21  H    0.000000
    22  H    1.760556   0.000000
    23  H    2.481413   2.518496   0.000000
    24  H    3.067508   2.481638   1.760246   0.000000
    25  H    2.662939   3.826912   2.482159   3.073031   0.000000
    26  H    3.818978   4.331053   2.518579   2.492968   1.750340
    27  H    4.036283   4.175359   3.804476   2.642927   3.064143
                   26         27
    26  H    0.000000
    27  H    2.484758   0.000000
 Stoichiometry    C10H15ClO
 Framework group  C1[X(C10H15ClO)]
 Deg. of freedom    75
 Full point group                 C1      NOp   1
 Largest Abelian subgroup         C1      NOp   1
 Largest concise Abelian subgroup C1      NOp   1
                         Standard orientation:                         
 ---------------------------------------------------------------------
 Center     Atomic      Atomic             Coordinates (Angstroms)
 Number     Number       Type             X           Y           Z
 ---------------------------------------------------------------------
      1          8           0        0.107505    2.987939   -0.059187
      2          6           0        0.477680    1.832130   -0.149773
      3          6           0        1.948397    1.446221   -0.057017
      4          6           0        2.176342    0.298167    0.943528
      5          6           0        1.245329   -0.889750    0.697893
      6         17           0        1.750533   -1.748888   -0.858614
      7          6           0       -0.230046   -0.466445    0.659324
      8          6           0       -1.213763   -1.632496    0.463243
      9          6           0       -2.673741   -1.158027    0.507186
     10          6           0       -2.929880   -0.046688   -0.521007
     11          6           0       -1.963404    1.129450   -0.327670
     12          6           0       -0.497905    0.673270   -0.362965
     13          1           0        2.525204    2.334141    0.216009
     14          1           0        2.279360    1.120812   -1.052783
     15          1           0        3.220910   -0.027888    0.920628
     16          1           0        1.976159    0.656186    1.963614
     17          1           0        1.390778   -1.652696    1.466692
     18          1           0       -0.413356   -0.049454    1.665082
     19          1           0       -1.035661   -2.394705    1.233867
     20          1           0       -1.012921   -2.110470   -0.503808
     21          1           0       -2.907126   -0.781932    1.514282
     22          1           0       -3.344486   -2.007469    0.328393
     23          1           0       -3.966104    0.306203   -0.448353
     24          1           0       -2.810315   -0.457325   -1.534466
     25          1           0       -2.159695    1.618382    0.636168
     26          1           0       -2.123034    1.897708   -1.091350
     27          1           0       -0.272865    0.261107   -1.360491
 ---------------------------------------------------------------------
 Rotational constants (GHZ):           0.9961390           0.7745607           0.5058429
 Standard basis: 6-31G(d) (6D, 7F)
 There are   214 symmetry adapted cartesian basis functions of A   symmetry.
 There are   214 symmetry adapted basis functions of A   symmetry.
   214 basis functions,   420 primitive gaussians,   214 cartesian basis functions
    50 alpha electrons       50 beta electrons
       nuclear repulsion energy       852.1852142856 Hartrees.
 NAtoms=   27 NActive=   27 NUniq=   27 SFac= 1.00D+00 NAtFMM=   60 NAOKFM=F Big=F
 Integral buffers will be    131072 words long.
 Raffenetti 2 integral format.
 Two-electron integral symmetry is turned on.
 One-electron integrals computed using PRISM.
 NBasis=   214 RedAO= T EigKep=  2.29D-03  NBF=   214
 NBsUse=   214 1.00D-06 EigRej= -1.00D+00 NBFU=   214
 ExpMin= 1.43D-01 ExpMax= 2.52D+04 ExpMxC= 3.78D+03 IAcc=3 IRadAn=         5 AccDes= 0.00D+00
 Harris functional with IExCor=  402 and IRadAn=       5 diagonalized for initial guess.
 HarFok:  IExCor=  402 AccDes= 0.00D+00 IRadAn=         5 IDoV= 1 UseB2=F ITyADJ=14
 ICtDFT=  3500011 ScaDFX=  1.000000  1.000000  1.000000  1.000000
 FoFCou: FMM=F IPFlag=           0 FMFlag=      100000 FMFlg1=           0
         NFxFlg=           0 DoJE=T BraDBF=F KetDBF=T FulRan=T
         wScrn=  0.000000 ICntrl=       500 IOpCl=  0 I1Cent=   200000004 NGrid=           0
         NMat0=    1 NMatS0=      1 NMatT0=    0 NMatD0=    1 NMtDS0=    0 NMtDT0=    0
 Petite list used in FoFCou.
 Requested convergence on RMS density matrix=1.00D-08 within 128 cycles.
 Requested convergence on MAX density matrix=1.00D-06.
 Requested convergence on             energy=1.00D-06.
 No special actions if energy rises.
 Integral accuracy reduced to 1.0D-05 until final iterations.
 Initial convergence to 1.0D-05 achieved.  Increase integral accuracy.
 SCF Done:  E(RB3LYP) =  -925.541934528     A.U. after   14 cycles
            NFock= 14  Conv=0.40D-08     -V/T= 2.0064
 DoSCS=F DFT=T ScalE2(SS,OS)=  1.000000  1.000000
 Range of M.O.s used for correlation:     1   214
 NBasis=   214 NAE=    50 NBE=    50 NFC=     0 NFV=     0
 NROrb=    214 NOA=    50 NOB=    50 NVA=   164 NVB=   164
 Symmetrizing basis deriv contribution to polar:
 IMax=3 JMax=2 DiffMx= 0.00D+00
 G2DrvN: will do    28 centers at a time, making    1 passes.
 Calling FoFCou, ICntrl=  3107 FMM=F I1Cent=   0 AccDes= 0.00D+00.
 End of G2Drv F.D. properties file   721 does not exist.
 End of G2Drv F.D. properties file   722 does not exist.
 End of G2Drv F.D. properties file   788 does not exist.
          IDoAtm=111111111111111111111111111
          Differentiating once with respect to electric field.
                with respect to dipole field.
          Differentiating once with respect to nuclear coordinates.
 Keep R1 ints in memory in canonical form, NReq=275044634.
          There are    84 degrees of freedom in the 1st order CPHF.  IDoFFX=6 NUNeed=     3.
     81 vectors produced by pass  0 Test12= 9.76D-15 1.19D-09 XBig12= 8.26D+01 2.83D+00.
 AX will form    81 AO Fock derivatives at one time.
     81 vectors produced by pass  1 Test12= 9.76D-15 1.19D-09 XBig12= 7.47D+00 5.34D-01.
     81 vectors produced by pass  2 Test12= 9.76D-15 1.19D-09 XBig12= 7.66D-02 3.26D-02.
     81 vectors produced by pass  3 Test12= 9.76D-15 1.19D-09 XBig12= 2.55D-04 1.53D-03.
     81 vectors produced by pass  4 Test12= 9.76D-15 1.19D-09 XBig12= 3.08D-07 5.76D-05.
     44 vectors produced by pass  5 Test12= 9.76D-15 1.19D-09 XBig12= 2.18D-10 1.47D-06.
      4 vectors produced by pass  6 Test12= 9.76D-15 1.19D-09 XBig12= 1.35D-13 3.19D-08.
 InvSVY:  IOpt=1 It=  1 EMax= 1.07D-14
 Solved reduced A of dimension   453 with    84 vectors.
 Isotropic polarizability for W=    0.000000      109.60 Bohr**3.
 End of Minotr F.D. properties file   721 does not exist.
 End of Minotr F.D. properties file   722 does not exist.
 End of Minotr F.D. properties file   788 does not exist.

 **********************************************************************

            Population analysis using the SCF density.

 **********************************************************************

 Orbital symmetries:
       Occupied  (A) (A) (A) (A) (A) (A) (A) (A) (A) (A) (A) (A)
                 (A) (A) (A) (A) (A) (A) (A) (A) (A) (A) (A) (A)
                 (A) (A) (A) (A) (A) (A) (A) (A) (A) (A) (A) (A)
                 (A) (A) (A) (A) (A) (A) (A) (A) (A) (A) (A) (A)
                 (A) (A)
       Virtual   (A) (A) (A) (A) (A) (A) (A) (A) (A) (A) (A) (A)
                 (A) (A) (A) (A) (A) (A) (A) (A) (A) (A) (A) (A)
                 (A) (A) (A) (A) (A) (A) (A) (A) (A) (A) (A) (A)
                 (A) (A) (A) (A) (A) (A) (A) (A) (A) (A) (A) (A)
                 (A) (A) (A) (A) (A) (A) (A) (A) (A) (A) (A) (A)
                 (A) (A) (A) (A) (A) (A) (A) (A) (A) (A) (A) (A)
                 (A) (A) (A) (A) (A) (A) (A) (A) (A) (A) (A) (A)
                 (A) (A) (A) (A) (A) (A) (A) (A) (A) (A) (A) (A)
                 (A) (A) (A) (A) (A) (A) (A) (A) (A) (A) (A) (A)
                 (A) (A) (A) (A) (A) (A) (A) (A) (A) (A) (A) (A)
                 (A) (A) (A) (A) (A) (A) (A) (A) (A) (A) (A) (A)
                 (A) (A) (A) (A) (A) (A) (A) (A) (A) (A) (A) (A)
                 (A) (A) (A) (A) (A) (A) (A) (A) (A) (A) (A) (A)
                 (A) (A) (A) (A) (A) (A) (A) (A)
 The electronic state is 1-A.
 Alpha  occ. eigenvalues -- -101.53367 -19.13908 -10.27286 -10.25992 -10.21307
 Alpha  occ. eigenvalues --  -10.21055 -10.19903 -10.19658 -10.18894 -10.18569
 Alpha  occ. eigenvalues --  -10.18292 -10.18128  -9.44999  -7.21355  -7.20434
 Alpha  occ. eigenvalues --   -7.20429  -1.03791  -0.88041  -0.82966  -0.79524
 Alpha  occ. eigenvalues --   -0.75572  -0.75138  -0.70789  -0.63106  -0.62687
 Alpha  occ. eigenvalues --   -0.58220  -0.56463  -0.53058  -0.49056  -0.47665
 Alpha  occ. eigenvalues --   -0.47269  -0.45244  -0.45133  -0.43598  -0.42207
 Alpha  occ. eigenvalues --   -0.41639  -0.40401  -0.38049  -0.37565  -0.37214
 Alpha  occ. eigenvalues --   -0.36173  -0.35510  -0.34880  -0.33994  -0.32653
 Alpha  occ. eigenvalues --   -0.31672  -0.31168  -0.29644  -0.29389  -0.24043
 Alpha virt. eigenvalues --   -0.01794   0.01796   0.07274   0.09106   0.10193
 Alpha virt. eigenvalues --    0.12256   0.13251   0.13667   0.14876   0.15123
 Alpha virt. eigenvalues --    0.16048   0.16745   0.17191   0.17587   0.17863
 Alpha virt. eigenvalues --    0.18164   0.18608   0.19073   0.19521   0.22015
 Alpha virt. eigenvalues --    0.23621   0.24278   0.25488   0.26320   0.27084
 Alpha virt. eigenvalues --    0.28379   0.29255   0.34338   0.36607   0.40671
 Alpha virt. eigenvalues --    0.43265   0.46765   0.48037   0.50482   0.52151
 Alpha virt. eigenvalues --    0.52310   0.53191   0.55032   0.55990   0.56948
 Alpha virt. eigenvalues --    0.57841   0.59610   0.61796   0.62643   0.63243
 Alpha virt. eigenvalues --    0.65037   0.66627   0.67237   0.69240   0.69702
 Alpha virt. eigenvalues --    0.71422   0.72314   0.73530   0.76049   0.77754
 Alpha virt. eigenvalues --    0.79330   0.81159   0.82197   0.83073   0.84796
 Alpha virt. eigenvalues --    0.84841   0.85684   0.86585   0.87340   0.88081
 Alpha virt. eigenvalues --    0.89518   0.89882   0.90002   0.90841   0.91656
 Alpha virt. eigenvalues --    0.92594   0.92992   0.94737   0.95191   0.96219
 Alpha virt. eigenvalues --    0.97438   0.98027   1.01099   1.03152   1.06567
 Alpha virt. eigenvalues --    1.09918   1.10143   1.12029   1.16439   1.18725
 Alpha virt. eigenvalues --    1.21530   1.21988   1.25055   1.32277   1.33613
 Alpha virt. eigenvalues --    1.39423   1.41091   1.45068   1.47206   1.50803
 Alpha virt. eigenvalues --    1.56196   1.58511   1.64577   1.65141   1.69256
 Alpha virt. eigenvalues --    1.71198   1.72038   1.73921   1.76485   1.78283
 Alpha virt. eigenvalues --    1.81056   1.81575   1.84495   1.85825   1.87382
 Alpha virt. eigenvalues --    1.88613   1.91081   1.92459   1.94637   1.95422
 Alpha virt. eigenvalues --    1.96190   1.99259   1.99488   2.01690   2.02380
 Alpha virt. eigenvalues --    2.04131   2.07287   2.08478   2.10152   2.13093
 Alpha virt. eigenvalues --    2.17229   2.20555   2.24687   2.27463   2.30412
 Alpha virt. eigenvalues --    2.32156   2.33800   2.36425   2.38258   2.39891
 Alpha virt. eigenvalues --    2.41404   2.44537   2.46736   2.51772   2.55568
 Alpha virt. eigenvalues --    2.59090   2.59255   2.61520   2.63190   2.68298
 Alpha virt. eigenvalues --    2.72537   2.74759   2.77866   2.83577   2.85994
 Alpha virt. eigenvalues --    2.98493   3.04504   4.00387   4.09614   4.18684
 Alpha virt. eigenvalues --    4.22164   4.28792   4.30123   4.37060   4.49932
 Alpha virt. eigenvalues --    4.54521   4.58229   4.60655   4.69601
          Condensed to atoms (all electrons):
               1          2          3          4          5          6
     1  O    8.007193   0.584478  -0.075228   0.001525   0.000054  -0.000018
     2  C    0.584478   4.516421   0.344672  -0.028420  -0.012607  -0.002017
     3  C   -0.075228   0.344672   5.291880   0.333311  -0.043683  -0.005485
     4  C    0.001525  -0.028420   0.333311   5.100367   0.339268  -0.062853
     5  C    0.000054  -0.012607  -0.043683   0.339268   5.204767   0.232588
     6  Cl  -0.000018  -0.002017  -0.005485  -0.062853   0.232588  17.036085
     7  C    0.000659  -0.017544  -0.010354  -0.036502   0.325821  -0.057806
     8  C   -0.000055   0.002274  -0.000056   0.004303  -0.039340  -0.009171
     9  C   -0.000011  -0.000042  -0.000017  -0.000116   0.003989   0.000142
    10  C    0.000655   0.004389  -0.000067  -0.000017   0.000196  -0.000016
    11  C    0.006488  -0.027502   0.005941  -0.000016   0.004298   0.000023
    12  C   -0.093563   0.282248  -0.132597  -0.004657  -0.039121  -0.007029
    13  H    0.005329  -0.023045   0.344217  -0.026367   0.004276  -0.000036
    14  H    0.001071  -0.027819   0.355231  -0.034782  -0.004386   0.009214
    15  H   -0.000060   0.003181  -0.027831   0.369648  -0.031171  -0.001153
    16  H    0.000389  -0.002123  -0.040337   0.363424  -0.034300   0.005490
    17  H    0.000000  -0.000013   0.004729  -0.038562   0.365283  -0.049663
    18  H    0.000458  -0.002514  -0.000150  -0.003661  -0.044255   0.005293
    19  H    0.000000  -0.000072   0.000008   0.000042  -0.004151  -0.000008
    20  H    0.000000   0.000024  -0.000011   0.000113  -0.007719   0.008945
    21  H   -0.000000  -0.000041   0.000000  -0.000001  -0.000066  -0.000009
    22  H    0.000000   0.000007  -0.000000   0.000002  -0.000122   0.000010
    23  H    0.000002  -0.000078   0.000002  -0.000000   0.000007  -0.000000
    24  H   -0.000004  -0.000065   0.000000   0.000000  -0.000036  -0.000037
    25  H    0.003985  -0.004494   0.000272  -0.000043  -0.000028  -0.000007
    26  H    0.005068  -0.003220   0.000201  -0.000009  -0.000143   0.000009
    27  H    0.000957  -0.032487   0.002245  -0.001186  -0.005700   0.009667
               7          8          9         10         11         12
     1  O    0.000659  -0.000055  -0.000011   0.000655   0.006488  -0.093563
     2  C   -0.017544   0.002274  -0.000042   0.004389  -0.027502   0.282248
     3  C   -0.010354  -0.000056  -0.000017  -0.000067   0.005941  -0.132597
     4  C   -0.036502   0.004303  -0.000116  -0.000017  -0.000016  -0.004657
     5  C    0.325821  -0.039340   0.003989   0.000196   0.004298  -0.039121
     6  Cl  -0.057806  -0.009171   0.000142  -0.000016   0.000023  -0.007029
     7  C    5.046609   0.379989  -0.033046  -0.013120  -0.036322   0.346681
     8  C    0.379989   5.035498   0.373886  -0.045399  -0.011904  -0.037026
     9  C   -0.033046   0.373886   5.000579   0.380233  -0.042174  -0.013811
    10  C   -0.013120  -0.045399   0.380233   5.024228   0.356595  -0.034125
    11  C   -0.036322  -0.011904  -0.042174   0.356595   5.012518   0.353845
    12  C    0.346681  -0.037026  -0.013811  -0.034125   0.353845   5.320977
    13  H   -0.000081   0.000009   0.000000   0.000001  -0.000153   0.006583
    14  H   -0.001108  -0.000007   0.000000  -0.000002  -0.000072   0.003818
    15  H    0.004677  -0.000136   0.000001   0.000000   0.000009  -0.000340
    16  H   -0.003778  -0.000022  -0.000004  -0.000000  -0.000045   0.000455
    17  H   -0.039028  -0.003958  -0.000028   0.000005  -0.000120   0.005047
    18  H    0.362163  -0.045228  -0.003777  -0.000702  -0.004229  -0.050206
    19  H   -0.035941   0.365135  -0.031559   0.004771  -0.000015   0.004889
    20  H   -0.036765   0.373492  -0.037439  -0.004294  -0.000613  -0.006507
    21  H   -0.006092  -0.039823   0.371145  -0.041128  -0.003990  -0.000967
    22  H    0.004439  -0.032403   0.369882  -0.031757   0.004561   0.000209
    23  H    0.000252   0.004757  -0.033012   0.370914  -0.032807   0.004314
    24  H   -0.001127  -0.004249  -0.041283   0.370183  -0.037676  -0.005556
    25  H   -0.006802  -0.000707  -0.004646  -0.040642   0.375447  -0.042088
    26  H    0.004454   0.000076   0.004594  -0.031892   0.371866  -0.033076
    27  H   -0.043431  -0.006427  -0.000678  -0.002560  -0.038599   0.354211
              13         14         15         16         17         18
     1  O    0.005329   0.001071  -0.000060   0.000389   0.000000   0.000458
     2  C   -0.023045  -0.027819   0.003181  -0.002123  -0.000013  -0.002514
     3  C    0.344217   0.355231  -0.027831  -0.040337   0.004729  -0.000150
     4  C   -0.026367  -0.034782   0.369648   0.363424  -0.038562  -0.003661
     5  C    0.004276  -0.004386  -0.031171  -0.034300   0.365283  -0.044255
     6  Cl  -0.000036   0.009214  -0.001153   0.005490  -0.049663   0.005293
     7  C   -0.000081  -0.001108   0.004677  -0.003778  -0.039028   0.362163
     8  C    0.000009  -0.000007  -0.000136  -0.000022  -0.003958  -0.045228
     9  C    0.000000   0.000000   0.000001  -0.000004  -0.000028  -0.003777
    10  C    0.000001  -0.000002   0.000000  -0.000000   0.000005  -0.000702
    11  C   -0.000153  -0.000072   0.000009  -0.000045  -0.000120  -0.004229
    12  C    0.006583   0.003818  -0.000340   0.000455   0.005047  -0.050206
    13  H    0.552790  -0.024882  -0.002308  -0.003539  -0.000111  -0.000056
    14  H   -0.024882   0.543243  -0.005613   0.005221   0.000069   0.000045
    15  H   -0.002308  -0.005613   0.557590  -0.032364  -0.002474  -0.000025
    16  H   -0.003539   0.005221  -0.032364   0.583598  -0.002861   0.003449
    17  H   -0.000111   0.000069  -0.002474  -0.002861   0.573327  -0.003267
    18  H   -0.000056   0.000045  -0.000025   0.003449  -0.003267   0.628101
    19  H   -0.000000   0.000000   0.000001  -0.000007   0.005321  -0.004267
    20  H   -0.000000  -0.000009   0.000005  -0.000008  -0.000156   0.005912
    21  H   -0.000000  -0.000000   0.000000  -0.000000  -0.000003   0.005197
    22  H    0.000000  -0.000000  -0.000000  -0.000000  -0.000003  -0.000047
    23  H   -0.000000  -0.000000   0.000000  -0.000000  -0.000000  -0.000034
    24  H    0.000000  -0.000001  -0.000000  -0.000000   0.000000   0.000173
    25  H   -0.000002  -0.000004   0.000000  -0.000008  -0.000002   0.005306
    26  H   -0.000005  -0.000016   0.000000  -0.000000   0.000003  -0.000046
    27  H   -0.000093   0.000471  -0.000017   0.000029   0.000103   0.006605
              19         20         21         22         23         24
     1  O    0.000000   0.000000  -0.000000   0.000000   0.000002  -0.000004
     2  C   -0.000072   0.000024  -0.000041   0.000007  -0.000078  -0.000065
     3  C    0.000008  -0.000011   0.000000  -0.000000   0.000002   0.000000
     4  C    0.000042   0.000113  -0.000001   0.000002  -0.000000   0.000000
     5  C   -0.004151  -0.007719  -0.000066  -0.000122   0.000007  -0.000036
     6  Cl  -0.000008   0.008945  -0.000009   0.000010  -0.000000  -0.000037
     7  C   -0.035941  -0.036765  -0.006092   0.004439   0.000252  -0.001127
     8  C    0.365135   0.373492  -0.039823  -0.032403   0.004757  -0.004249
     9  C   -0.031559  -0.037439   0.371145   0.369882  -0.033012  -0.041283
    10  C    0.004771  -0.004294  -0.041128  -0.031757   0.370914   0.370183
    11  C   -0.000015  -0.000613  -0.003990   0.004561  -0.032807  -0.037676
    12  C    0.004889  -0.006507  -0.000967   0.000209   0.004314  -0.005556
    13  H   -0.000000  -0.000000  -0.000000   0.000000  -0.000000   0.000000
    14  H    0.000000  -0.000009  -0.000000  -0.000000  -0.000000  -0.000001
    15  H    0.000001   0.000005   0.000000  -0.000000   0.000000  -0.000000
    16  H   -0.000007  -0.000008  -0.000000  -0.000000  -0.000000  -0.000000
    17  H    0.005321  -0.000156  -0.000003  -0.000003  -0.000000   0.000000
    18  H   -0.004267   0.005912   0.005197  -0.000047  -0.000034   0.000173
    19  H    0.604990  -0.034531  -0.004085  -0.002388  -0.000160  -0.000041
    20  H   -0.034531   0.572136   0.005559  -0.004070  -0.000040   0.004703
    21  H   -0.004085   0.005559   0.614505  -0.036706  -0.004258   0.006020
    22  H   -0.002388  -0.004070  -0.036706   0.598247  -0.002317  -0.004262
    23  H   -0.000160  -0.000040  -0.004258  -0.002317   0.598578  -0.036414
    24  H   -0.000041   0.004703   0.006020  -0.004262  -0.036414   0.611244
    25  H   -0.000024   0.000130   0.004809  -0.000050  -0.004077   0.005706
    26  H    0.000013  -0.000019  -0.000047  -0.000149  -0.002147  -0.003986
    27  H   -0.000002   0.004343   0.000151  -0.000029  -0.000050   0.004640
              25         26         27
     1  O    0.003985   0.005068   0.000957
     2  C   -0.004494  -0.003220  -0.032487
     3  C    0.000272   0.000201   0.002245
     4  C   -0.000043  -0.000009  -0.001186
     5  C   -0.000028  -0.000143  -0.005700
     6  Cl  -0.000007   0.000009   0.009667
     7  C   -0.006802   0.004454  -0.043431
     8  C   -0.000707   0.000076  -0.006427
     9  C   -0.004646   0.004594  -0.000678
    10  C   -0.040642  -0.031892  -0.002560
    11  C    0.375447   0.371866  -0.038599
    12  C   -0.042088  -0.033076   0.354211
    13  H   -0.000002  -0.000005  -0.000093
    14  H   -0.000004  -0.000016   0.000471
    15  H    0.000000   0.000000  -0.000017
    16  H   -0.000008  -0.000000   0.000029
    17  H   -0.000002   0.000003   0.000103
    18  H    0.005306  -0.000046   0.006605
    19  H   -0.000024   0.000013  -0.000002
    20  H    0.000130  -0.000019   0.004343
    21  H    0.004809  -0.000047   0.000151
    22  H   -0.000050  -0.000149  -0.000029
    23  H   -0.004077  -0.002147  -0.000050
    24  H    0.005706  -0.003986   0.004640
    25  H    0.595678  -0.033301   0.005788
    26  H   -0.033301   0.573895  -0.003825
    27  H    0.005788  -0.003825   0.583161
 Mulliken charges:
               1
     1  O   -0.449372
     2  C    0.446409
     3  C   -0.346892
     4  C   -0.274811
     5  C   -0.213718
     6  Cl  -0.112159
     7  C   -0.096897
     8  C   -0.263507
     9  C   -0.262805
    10  C   -0.266449
    11  C   -0.255356
    12  C   -0.182611
    13  H    0.167472
    14  H    0.180318
    15  H    0.168381
    16  H    0.157343
    17  H    0.186362
    18  H    0.139763
    19  H    0.132081
    20  H    0.156816
    21  H    0.129830
    22  H    0.136947
    23  H    0.136570
    24  H    0.132067
    25  H    0.139802
    26  H    0.151703
    27  H    0.162712
 Sum of Mulliken charges =  -0.00000
 Mulliken charges with hydrogens summed into heavy atoms:
               1
     1  O   -0.449372
     2  C    0.446409
     3  C    0.000898
     4  C    0.050913
     5  C   -0.027356
     6  Cl  -0.112159
     7  C    0.042866
     8  C    0.025391
     9  C    0.003971
    10  C    0.002187
    11  C    0.036150
    12  C   -0.019898
 APT charges:
               1
     1  O   -0.641696
     2  C    0.726269
     3  C   -0.075670
     4  C    0.072134
     5  C    0.425976
     6  Cl  -0.382531
     7  C    0.050745
     8  C    0.087111
     9  C    0.127453
    10  C    0.121642
    11  C    0.104112
    12  C   -0.092097
    13  H   -0.018859
    14  H    0.019738
    15  H   -0.026596
    16  H   -0.029513
    17  H   -0.061559
    18  H   -0.051990
    19  H   -0.057882
    20  H   -0.014603
    21  H   -0.050956
    22  H   -0.058879
    23  H   -0.059846
    24  H   -0.046768
    25  H   -0.032068
    26  H   -0.031234
    27  H   -0.002436
 Sum of APT charges =   0.00000
 APT charges with hydrogens summed into heavy atoms:
               1
     1  O   -0.641696
     2  C    0.726269
     3  C   -0.074790
     4  C    0.016024
     5  C    0.364418
     6  Cl  -0.382531
     7  C   -0.001245
     8  C    0.014626
     9  C    0.017618
    10  C    0.015029
    11  C    0.040810
    12  C   -0.094532
 Electronic spatial extent (au):  <R**2>=           2339.4168
 Charge=             -0.0000 electrons
 Dipole moment (field-independent basis, Debye):
    X=             -0.1066    Y=             -1.5723    Z=              1.5138  Tot=              2.1852
 Quadrupole moment (field-independent basis, Debye-Ang):
   XX=            -77.2381   YY=            -92.9130   ZZ=            -76.9911
   XY=              3.9303   XZ=              2.7095   YZ=             -2.3169
 Traceless Quadrupole moment (field-independent basis, Debye-Ang):
   XX=              5.1426   YY=            -10.5323   ZZ=              5.3897
   XY=              3.9303   XZ=              2.7095   YZ=             -2.3169
 Octapole moment (field-independent basis, Debye-Ang**2):
  XXX=              8.3133  YYY=            -32.6382  ZZZ=             -2.3232  XYY=             -0.5460
  XXY=             10.2089  XXZ=              3.3018  XZZ=              4.4075  YZZ=              2.2264
  YYZ=              1.8979  XYZ=             -3.1119
 Hexadecapole moment (field-independent basis, Debye-Ang**3):
 XXXX=          -1625.2108 YYYY=          -1259.8970 ZZZZ=           -306.2275 XXXY=              5.4902
 XXXZ=              4.9482 YYYX=              4.2954 YYYZ=              0.1256 ZZZX=             -5.1833
 ZZZY=              5.3893 XXYY=           -457.5101 XXZZ=           -323.9184 YYZZ=           -228.2105
 XXYZ=             -1.6565 YYXZ=              3.9831 ZZXY=             -6.5520
 N-N= 8.521852142856D+02 E-N=-3.877349289432D+03  KE= 9.196440405131D+02
  Exact polarizability: 119.606  -0.796 114.702  -0.496   2.761  94.496
 Approx polarizability: 150.301  -8.648 168.629  -5.847  11.981 155.554
 Calling FoFJK, ICntrl=    100127 FMM=F ISym2X=0 I1Cent= 0 IOpClX= 0 NMat=1 NMatS=1 NMatT=0.
 Full mass-weighted force constant matrix:
 Low frequencies ---   -8.2579   -2.1092   -0.0030   -0.0027   -0.0011    8.2640
 Low frequencies ---   70.1121   89.2843  135.7818
 Diagonal vibrational polarizability:
       10.5757179       7.8976969      23.4696854
 Harmonic frequencies (cm**-1), IR intensities (KM/Mole), Raman scattering
 activities (A**4/AMU), depolarization ratios for plane and unpolarized
 incident light, reduced masses (AMU), force constants (mDyne/A),
 and normal coordinates:
                      1                      2                      3
                      A                      A                      A
 Frequencies --     70.1104                89.2840               135.7817
 Red. masses --      6.2244                 3.6123                 3.5544
 Frc consts  --      0.0180                 0.0170                 0.0386
 IR Inten    --      3.7181                 1.0495                 0.6516
  Atom  AN      X      Y      Z        X      Y      Z        X      Y      Z
     1   8    -0.07  -0.01   0.43    -0.01  -0.03  -0.02    -0.04  -0.06   0.08
     2   6    -0.03   0.03   0.05     0.02  -0.03   0.03    -0.01  -0.05  -0.03
     3   6    -0.01   0.03  -0.20     0.02   0.01   0.13    -0.01  -0.02   0.03
     4   6     0.06   0.07  -0.17     0.03  -0.06   0.05    -0.06  -0.02   0.05
     5   6     0.02   0.06  -0.02     0.00  -0.03  -0.00    -0.02  -0.03  -0.04
     6  17    -0.04  -0.11   0.06    -0.09   0.10  -0.10     0.15   0.01  -0.01
     7   6     0.02   0.07  -0.01     0.01   0.01   0.06    -0.02  -0.03  -0.11
     8   6     0.02   0.05   0.07    -0.02   0.02   0.20    -0.07   0.01  -0.05
     9   6     0.02   0.05  -0.01    -0.01   0.06   0.09    -0.03   0.12   0.17
    10   6     0.04  -0.06  -0.12     0.07  -0.10  -0.10    -0.10   0.06   0.12
    11   6     0.00  -0.02  -0.16     0.04  -0.06  -0.17     0.01   0.01  -0.14
    12   6     0.02   0.02  -0.07     0.05  -0.05  -0.01    -0.00  -0.04  -0.13
    13   1     0.05   0.02  -0.30    -0.03   0.02   0.23    -0.04  -0.01   0.07
    14   1    -0.16  -0.03  -0.23     0.10   0.10   0.12     0.05  -0.02   0.06
    15   1     0.06   0.05  -0.25     0.02  -0.07   0.01    -0.05   0.01   0.13
    16   1     0.16   0.13  -0.17     0.05  -0.12   0.08    -0.15  -0.03   0.04
    17   1     0.04   0.14   0.06     0.02  -0.09  -0.07    -0.07  -0.04  -0.04
    18   1     0.04   0.13  -0.03     0.07   0.09   0.04    -0.02   0.01  -0.12
    19   1     0.01   0.12   0.14    -0.06   0.13   0.32    -0.01  -0.02  -0.09
    20   1     0.04  -0.03   0.12    -0.01  -0.13   0.28    -0.21   0.03  -0.09
    21   1    -0.01   0.14  -0.05    -0.03   0.23   0.02     0.19   0.22   0.19
    22   1     0.03   0.02   0.05    -0.02   0.05   0.20    -0.13   0.16   0.36
    23   1     0.03  -0.08  -0.21     0.06  -0.09  -0.23    -0.06   0.15   0.26
    24   1     0.11  -0.14  -0.08     0.16  -0.24  -0.03    -0.30  -0.05   0.14
    25   1    -0.05   0.04  -0.21    -0.04   0.06  -0.25     0.10   0.18  -0.21
    26   1     0.01  -0.07  -0.22     0.09  -0.16  -0.28     0.00  -0.10  -0.25
    27   1     0.10   0.01  -0.04     0.14  -0.09   0.03     0.03  -0.04  -0.13
                      4                      5                      6
                      A                      A                      A
 Frequencies --    171.4554               213.6588               265.2877
 Red. masses --      4.2375                 3.5957                 4.5395
 Frc consts  --      0.0734                 0.0967                 0.1882
 IR Inten    --      2.1738                 0.6436                 6.8218
  Atom  AN      X      Y      Z        X      Y      Z        X      Y      Z
     1   8     0.13  -0.10   0.09    -0.05   0.00  -0.03     0.25   0.20   0.01
     2   6     0.06  -0.10  -0.08    -0.05   0.00   0.03     0.02   0.12   0.04
     3   6     0.04  -0.18  -0.22    -0.05  -0.00  -0.02    -0.01  -0.08   0.01
     4   6    -0.06   0.03   0.05    -0.00  -0.04  -0.06    -0.08  -0.06   0.04
     5   6    -0.04   0.02   0.07     0.01  -0.05  -0.06    -0.08  -0.01  -0.05
     6  17     0.02   0.19   0.01     0.17  -0.04  -0.04     0.05  -0.04  -0.02
     7   6    -0.05  -0.01   0.05    -0.01  -0.02   0.04    -0.05   0.07  -0.07
     8   6    -0.04  -0.02   0.05    -0.11   0.03   0.18     0.02   0.02   0.02
     9   6    -0.05  -0.03  -0.04    -0.11   0.09  -0.04     0.01  -0.07   0.10
    10   6    -0.01   0.00  -0.02     0.02   0.05  -0.11    -0.01  -0.20  -0.02
    11   6    -0.01  -0.01   0.04    -0.03   0.04   0.11    -0.16  -0.03  -0.03
    12   6    -0.03  -0.05   0.00    -0.05   0.00   0.07    -0.08   0.16   0.00
    13   1     0.14  -0.18  -0.47    -0.04  -0.01  -0.01     0.10  -0.13  -0.07
    14   1    -0.08  -0.48  -0.16    -0.09   0.04  -0.04    -0.10  -0.17   0.01
    15   1    -0.06   0.02   0.23     0.00  -0.02  -0.12    -0.08  -0.06   0.11
    16   1    -0.18   0.23  -0.05     0.04  -0.07  -0.04    -0.15  -0.06   0.03
    17   1    -0.01  -0.02   0.03     0.03  -0.05  -0.07    -0.18  -0.04  -0.06
    18   1    -0.07   0.02   0.03     0.13   0.00   0.05    -0.01   0.04  -0.05
    19   1    -0.09   0.01   0.10    -0.23   0.17   0.35     0.15   0.06   0.03
    20   1     0.01  -0.07   0.09    -0.05  -0.18   0.30    -0.03  -0.00   0.01
    21   1    -0.13  -0.07  -0.05    -0.24   0.16  -0.10     0.06   0.03   0.08
    22   1    -0.03  -0.03  -0.11    -0.10   0.08  -0.07     0.03  -0.11   0.22
    23   1    -0.01   0.00  -0.04    -0.01   0.01  -0.30    -0.06  -0.31  -0.18
    24   1     0.02   0.03  -0.03     0.23   0.07  -0.10     0.16  -0.29   0.04
    25   1     0.00  -0.05   0.06    -0.07  -0.13   0.19    -0.27  -0.03  -0.05
    26   1    -0.00   0.03   0.07     0.01   0.17   0.24    -0.27  -0.09  -0.07
    27   1    -0.09  -0.12   0.02    -0.10   0.02   0.05    -0.05   0.24  -0.03
                      7                      8                      9
                      A                      A                      A
 Frequencies --    295.9967               312.4998               352.0053
 Red. masses --      2.2744                 2.1272                 2.1715
 Frc consts  --      0.1174                 0.1224                 0.1585
 IR Inten    --      1.0856                 0.7701                 0.8760
  Atom  AN      X      Y      Z        X      Y      Z        X      Y      Z
     1   8    -0.01   0.03  -0.05    -0.05  -0.01   0.01    -0.01  -0.06   0.00
     2   6    -0.03   0.01   0.09     0.00   0.01  -0.03    -0.00  -0.06  -0.03
     3   6    -0.04  -0.03  -0.06    -0.01   0.01  -0.03     0.02  -0.02   0.04
     4   6     0.04  -0.02  -0.06    -0.13   0.08   0.08     0.11  -0.08  -0.05
     5   6     0.03  -0.03   0.04     0.00  -0.01  -0.02    -0.02   0.02   0.01
     6  17     0.02   0.03   0.01    -0.04  -0.03  -0.02    -0.01   0.06   0.06
     7   6    -0.00  -0.08   0.11     0.02  -0.05  -0.04    -0.01   0.03  -0.08
     8   6    -0.03  -0.02  -0.12     0.01  -0.04  -0.04    -0.01   0.03  -0.07
     9   6     0.01   0.08   0.04     0.06   0.08   0.07     0.01   0.06   0.05
    10   6     0.00  -0.01  -0.05     0.14  -0.01  -0.05     0.02  -0.05  -0.06
    11   6    -0.01  -0.00  -0.06     0.06   0.01   0.09    -0.05  -0.02   0.09
    12   6    -0.01  -0.01   0.18     0.03  -0.00  -0.00    -0.04   0.00  -0.09
    13   1     0.05  -0.06  -0.18     0.02   0.00  -0.09    -0.07   0.01   0.13
    14   1    -0.21  -0.09  -0.10    -0.00  -0.10   0.01     0.08   0.11   0.02
    15   1     0.04  -0.03  -0.16    -0.10   0.18   0.35     0.07  -0.19  -0.29
    16   1     0.15   0.01  -0.04    -0.41   0.12   0.01     0.36  -0.12   0.01
    17   1     0.10  -0.03   0.03     0.02  -0.00  -0.02    -0.10   0.03   0.03
    18   1    -0.02  -0.22   0.17    -0.01  -0.07  -0.04    -0.05   0.07  -0.10
    19   1    -0.04  -0.22  -0.32     0.03  -0.06  -0.06     0.05  -0.01  -0.12
    20   1    -0.10   0.22  -0.25    -0.08  -0.02  -0.06    -0.09   0.08  -0.11
    21   1     0.18   0.21   0.04     0.20   0.25   0.04     0.13   0.22   0.02
    22   1    -0.09   0.12   0.22    -0.05   0.14   0.25    -0.05   0.06   0.24
    23   1    -0.00  -0.02  -0.14     0.10  -0.07  -0.26    -0.01  -0.12  -0.23
    24   1     0.07  -0.10  -0.01     0.35  -0.07  -0.00     0.21  -0.10  -0.02
    25   1    -0.16   0.14  -0.17     0.06  -0.15   0.17    -0.01  -0.27   0.23
    26   1     0.13  -0.11  -0.20     0.03   0.12   0.20    -0.13   0.15   0.28
    27   1     0.08  -0.01   0.20    -0.02   0.03  -0.03    -0.12   0.03  -0.12
                     10                     11                     12
                      A                      A                      A
 Frequencies --    384.7239               415.6531               456.2904
 Red. masses --      3.9327                 3.5256                 3.0055
 Frc consts  --      0.3430                 0.3589                 0.3687
 IR Inten    --      0.2704                 1.5996                 2.3473
  Atom  AN      X      Y      Z        X      Y      Z        X      Y      Z
     1   8    -0.11  -0.05  -0.02    -0.07   0.07  -0.02     0.10  -0.09   0.01
     2   6    -0.11  -0.06   0.01    -0.02   0.08   0.05     0.01  -0.11  -0.02
     3   6    -0.13  -0.19   0.03    -0.07  -0.03  -0.03     0.04   0.07   0.02
     4   6     0.01  -0.10   0.11    -0.07  -0.12  -0.11     0.01   0.06  -0.03
     5   6     0.02  -0.04   0.03    -0.13  -0.06  -0.02    -0.01   0.08  -0.04
     6  17     0.00  -0.02  -0.03     0.00   0.06   0.06    -0.00  -0.01   0.01
     7   6     0.07   0.12   0.02    -0.07  -0.06  -0.09    -0.06  -0.07  -0.00
     8   6     0.19   0.12   0.02     0.00  -0.16   0.05     0.04  -0.16   0.02
     9   6     0.20   0.06  -0.06     0.06  -0.06   0.02     0.10   0.02  -0.02
    10   6     0.01   0.06  -0.01     0.18   0.05   0.09     0.02   0.04  -0.01
    11   6    -0.08   0.11  -0.02     0.12   0.09  -0.03    -0.13   0.17  -0.03
    12   6    -0.09   0.04  -0.02     0.04   0.04  -0.04    -0.15   0.00   0.06
    13   1    -0.02  -0.19  -0.20     0.09  -0.13  -0.04    -0.20   0.17   0.22
    14   1    -0.28  -0.38   0.04    -0.22  -0.02  -0.08     0.27   0.26   0.03
    15   1     0.03  -0.03   0.06    -0.10  -0.21  -0.31     0.00   0.03   0.03
    16   1     0.01  -0.11   0.11     0.15  -0.13  -0.06    -0.03   0.06  -0.03
    17   1    -0.12  -0.11  -0.02    -0.16  -0.04   0.02     0.03   0.11  -0.02
    18   1     0.11   0.14   0.02    -0.12  -0.05  -0.10    -0.08  -0.15   0.03
    19   1     0.17   0.14   0.06     0.03   0.02   0.21    -0.03  -0.05   0.15
    20   1     0.29   0.10   0.05     0.01  -0.35   0.14     0.08  -0.29   0.10
    21   1     0.18   0.04  -0.05     0.05  -0.15   0.05     0.21   0.07  -0.02
    22   1     0.25   0.02  -0.04    -0.04   0.04  -0.12    -0.02   0.10   0.06
    23   1    -0.02  -0.07   0.10     0.17   0.02   0.05    -0.04  -0.15  -0.03
    24   1    -0.02   0.12  -0.04     0.20   0.06   0.08     0.11   0.08  -0.01
    25   1    -0.09   0.15  -0.05     0.17   0.22  -0.08    -0.22   0.33  -0.13
    26   1    -0.03   0.08  -0.06     0.08  -0.01  -0.13    -0.04   0.03  -0.20
    27   1    -0.13   0.01  -0.01     0.08   0.15  -0.08    -0.25  -0.02   0.04
                     13                     14                     15
                      A                      A                      A
 Frequencies --    474.4317               528.5166               571.3851
 Red. masses --      2.3785                 2.7335                 3.2403
 Frc consts  --      0.3154                 0.4499                 0.6233
 IR Inten    --      1.4871                 3.5215                 6.8877
  Atom  AN      X      Y      Z        X      Y      Z        X      Y      Z
     1   8    -0.06  -0.08   0.01    -0.07  -0.03  -0.04    -0.19  -0.02  -0.03
     2   6     0.04  -0.04  -0.06     0.01  -0.01   0.09     0.13   0.07   0.05
     3   6     0.07   0.01  -0.02     0.05  -0.04   0.03     0.27  -0.00  -0.05
     4   6    -0.05  -0.04  -0.03     0.18   0.09   0.14     0.01  -0.07   0.01
     5   6    -0.11   0.03  -0.01     0.07   0.11   0.04    -0.08   0.01  -0.05
     6  17     0.04  -0.02  -0.03    -0.01  -0.03  -0.04     0.00   0.00   0.01
     7   6    -0.08   0.11   0.09    -0.02  -0.01  -0.11    -0.04   0.02  -0.03
     8   6    -0.01   0.11  -0.02    -0.08  -0.06  -0.02     0.02  -0.03   0.00
     9   6    -0.04  -0.07   0.05    -0.10  -0.05   0.04     0.05   0.01  -0.03
    10   6     0.11  -0.03   0.06     0.05  -0.00   0.04    -0.09  -0.03  -0.04
    11   6     0.02   0.06   0.01    -0.02   0.07  -0.01    -0.06  -0.01   0.00
    12   6    -0.00   0.03   0.05    -0.02   0.05  -0.04     0.03   0.07   0.09
    13   1    -0.00   0.01   0.14     0.19  -0.00  -0.38     0.45  -0.11  -0.07
    14   1     0.21   0.11  -0.00    -0.23  -0.37   0.04     0.18  -0.08  -0.06
    15   1    -0.07  -0.11   0.01     0.16   0.03   0.03    -0.03  -0.21   0.22
    16   1    -0.06  -0.01  -0.04     0.26   0.07   0.16    -0.13  -0.00  -0.04
    17   1    -0.12   0.01  -0.03     0.02   0.07   0.01    -0.12   0.00  -0.05
    18   1    -0.03   0.09   0.11    -0.09   0.01  -0.12    -0.03  -0.07   0.01
    19   1     0.14  -0.09  -0.25    -0.02  -0.02   0.01    -0.02   0.12   0.16
    20   1    -0.02   0.40  -0.17    -0.17  -0.11  -0.01     0.09  -0.19   0.10
    21   1    -0.19  -0.25   0.08    -0.17  -0.15   0.06     0.20   0.18  -0.06
    22   1     0.06  -0.10  -0.19    -0.10  -0.01  -0.12    -0.02   0.01   0.22
    23   1     0.07  -0.09  -0.21     0.02  -0.04  -0.19    -0.07  -0.01   0.18
    24   1     0.36  -0.10   0.11     0.25  -0.06   0.09    -0.29   0.03  -0.09
    25   1    -0.01   0.22  -0.08    -0.01   0.18  -0.06    -0.17  -0.08   0.02
    26   1    -0.00  -0.08  -0.14    -0.06  -0.03  -0.10    -0.06   0.03   0.04
    27   1    -0.05  -0.11   0.09    -0.03   0.17  -0.09     0.05   0.12   0.07
                     16                     17                     18
                      A                      A                      A
 Frequencies --    584.9206               619.4050               748.0524
 Red. masses --      3.0561                 5.3642                 2.7909
 Frc consts  --      0.6160                 1.2126                 0.9202
 IR Inten    --     24.0902                 1.2565                15.7949
  Atom  AN      X      Y      Z        X      Y      Z        X      Y      Z
     1   8    -0.04  -0.00   0.00     0.09  -0.15  -0.09     0.01  -0.06  -0.04
     2   6    -0.00   0.01  -0.03     0.00  -0.18   0.33     0.01  -0.06   0.14
     3   6     0.03  -0.02  -0.02    -0.06  -0.00   0.04    -0.00   0.01  -0.08
     4   6     0.00  -0.05  -0.02    -0.06   0.08  -0.09    -0.04   0.00  -0.08
     5   6     0.18  -0.15  -0.17    -0.07   0.15  -0.28     0.01  -0.10   0.27
     6  17    -0.04   0.05   0.09    -0.01   0.01   0.05     0.00  -0.00  -0.04
     7   6     0.15  -0.06  -0.08    -0.03   0.08  -0.12     0.04  -0.01  -0.11
     8   6    -0.02   0.06   0.01     0.03   0.11   0.00     0.01   0.07  -0.03
     9   6    -0.07  -0.01   0.02     0.01   0.00   0.00    -0.00   0.01   0.01
    10   6    -0.01  -0.00   0.02     0.01  -0.01  -0.00    -0.03  -0.02   0.02
    11   6    -0.07   0.06  -0.00     0.09  -0.09  -0.00    -0.04   0.02   0.01
    12   6    -0.02   0.04   0.02     0.03  -0.03   0.10     0.05   0.07   0.00
    13   1     0.01  -0.04   0.09    -0.05   0.05  -0.17    -0.14  -0.00   0.25
    14   1     0.11   0.06  -0.02    -0.38  -0.02  -0.06     0.05   0.40  -0.18
    15   1     0.08   0.15   0.26    -0.07   0.04   0.08    -0.02   0.06   0.13
    16   1    -0.33  -0.09  -0.07    -0.25  -0.01  -0.10    -0.13   0.30  -0.19
    17   1     0.14  -0.09  -0.09    -0.13   0.23  -0.20     0.01  -0.08   0.29
    18   1     0.32  -0.10  -0.03     0.10   0.05  -0.08    -0.14   0.05  -0.16
    19   1    -0.00   0.01  -0.04     0.10   0.18   0.05     0.01   0.22   0.12
    20   1    -0.14   0.06  -0.02     0.01   0.05   0.03    -0.02  -0.13   0.07
    21   1    -0.26  -0.18   0.04    -0.05  -0.01  -0.01    -0.04  -0.06   0.02
    22   1     0.06  -0.08  -0.20     0.09  -0.05  -0.02     0.09  -0.05  -0.04
    23   1    -0.05  -0.08  -0.21     0.05   0.11   0.10    -0.05  -0.06  -0.08
    24   1     0.21  -0.06   0.07    -0.13  -0.02  -0.01     0.07  -0.05   0.04
    25   1    -0.13   0.26  -0.12     0.06  -0.13   0.02    -0.06   0.07  -0.02
    26   1    -0.02  -0.10  -0.18     0.13  -0.04   0.04    -0.05  -0.03  -0.04
    27   1    -0.11   0.11  -0.03     0.22   0.18   0.05     0.12   0.32  -0.09
                     19                     20                     21
                      A                      A                      A
 Frequencies --    786.2228               822.8584               843.1218
 Red. masses --      1.9920                 2.1233                 2.9754
 Frc consts  --      0.7255                 0.8471                 1.2462
 IR Inten    --      0.1148                 2.0340                 8.5355
  Atom  AN      X      Y      Z        X      Y      Z        X      Y      Z
     1   8     0.00  -0.01   0.03    -0.01  -0.01   0.00    -0.00  -0.10   0.01
     2   6    -0.01   0.00  -0.11    -0.07  -0.03  -0.03     0.12  -0.03  -0.08
     3   6    -0.04  -0.01  -0.01    -0.05  -0.10  -0.04    -0.10   0.03   0.05
     4   6     0.00   0.01   0.05     0.10  -0.04   0.01    -0.12   0.06  -0.01
     5   6    -0.03   0.03   0.00     0.07   0.01  -0.02     0.02  -0.04   0.01
     6  17    -0.00  -0.00  -0.00     0.00  -0.00   0.00    -0.00   0.00   0.00
     7   6     0.04   0.02  -0.10    -0.04   0.10   0.03     0.06   0.01   0.00
     8   6    -0.02   0.07  -0.08    -0.05  -0.06  -0.01     0.03  -0.03   0.01
     9   6    -0.02   0.02  -0.06    -0.06  -0.07  -0.01    -0.08  -0.13   0.05
    10   6     0.01  -0.03   0.05     0.09  -0.02  -0.02    -0.08  -0.03  -0.10
    11   6     0.05  -0.10   0.09     0.07  -0.00  -0.03     0.02   0.15  -0.01
    12   6     0.01   0.01   0.13    -0.01   0.14   0.03     0.12   0.15   0.04
    13   1    -0.13   0.05   0.01    -0.31  -0.01   0.23     0.00   0.01  -0.11
    14   1     0.14  -0.07   0.07     0.19   0.22  -0.06    -0.10  -0.23   0.14
    15   1    -0.02  -0.04  -0.17     0.16   0.12   0.32    -0.11   0.12  -0.47
    16   1     0.19  -0.04   0.11    -0.22   0.08  -0.10     0.25  -0.14   0.13
    17   1    -0.13  -0.00  -0.01    -0.03  -0.02  -0.04     0.11  -0.01   0.02
    18   1     0.00  -0.11  -0.04    -0.05   0.05   0.05     0.12  -0.03   0.03
    19   1    -0.10   0.36   0.23     0.04  -0.02   0.01     0.19  -0.03  -0.02
    20   1     0.04  -0.30   0.12     0.02  -0.05  -0.00     0.03  -0.00  -0.00
    21   1     0.13   0.09  -0.05     0.12   0.16  -0.05     0.06   0.10   0.00
    22   1    -0.04   0.00   0.11    -0.27   0.05   0.21    -0.12  -0.16   0.34
    23   1     0.04   0.06  -0.02     0.18   0.19   0.28    -0.05   0.04   0.00
    24   1     0.08   0.04   0.02    -0.25   0.06  -0.09    -0.19   0.02  -0.12
    25   1    -0.11   0.29  -0.14    -0.01  -0.13   0.02    -0.07   0.03   0.03
    26   1     0.18  -0.41  -0.25    -0.05   0.06   0.06     0.03   0.23   0.07
    27   1    -0.12   0.02   0.10     0.09   0.13   0.05     0.06   0.13   0.03
                     22                     23                     24
                      A                      A                      A
 Frequencies --    861.5327               875.7818               903.6995
 Red. masses --      1.7312                 2.3596                 2.8138
 Frc consts  --      0.7571                 1.0663                 1.3539
 IR Inten    --      2.2172                 5.4801                 4.4253
  Atom  AN      X      Y      Z        X      Y      Z        X      Y      Z
     1   8     0.00  -0.03   0.00    -0.01   0.04   0.01    -0.03  -0.01   0.00
     2   6     0.01  -0.02  -0.04    -0.06   0.01  -0.04     0.04   0.02  -0.02
     3   6    -0.00   0.03  -0.02     0.01  -0.08  -0.04    -0.01  -0.19   0.11
     4   6    -0.01   0.04   0.04    -0.00  -0.03   0.03    -0.12   0.01  -0.13
     5   6    -0.02  -0.04   0.01    -0.05   0.12   0.02     0.09   0.20   0.03
     6  17    -0.00   0.00   0.00    -0.00  -0.00  -0.01     0.00  -0.00  -0.01
     7   6     0.00  -0.07  -0.04     0.07  -0.04  -0.10     0.07  -0.01   0.04
     8   6    -0.07   0.04   0.04     0.11  -0.05   0.04    -0.03  -0.04  -0.02
     9   6     0.08   0.08   0.00    -0.03   0.00   0.13    -0.01   0.08  -0.04
    10   6     0.11  -0.05   0.01    -0.07   0.09  -0.10     0.02  -0.02   0.06
    11   6    -0.03  -0.03  -0.05     0.05  -0.01  -0.04    -0.05  -0.05   0.00
    12   6    -0.02   0.08   0.05    -0.03  -0.02   0.10     0.03   0.06  -0.03
    13   1    -0.06   0.08  -0.06    -0.15  -0.06   0.21     0.16  -0.37   0.35
    14   1     0.09  -0.07   0.04     0.27   0.09  -0.00     0.11  -0.11   0.13
    15   1    -0.03  -0.02  -0.17    -0.05  -0.17   0.02    -0.12   0.01  -0.17
    16   1     0.19  -0.01   0.09     0.06   0.07   0.01    -0.07  -0.03  -0.11
    17   1    -0.04  -0.05  -0.00    -0.16   0.10   0.02     0.37   0.33   0.10
    18   1     0.06  -0.12  -0.01     0.04  -0.14  -0.05    -0.02  -0.02   0.03
    19   1    -0.07  -0.07  -0.07     0.33  -0.09  -0.05    -0.20  -0.04   0.02
    20   1    -0.28   0.11  -0.04    -0.13  -0.01  -0.04    -0.02  -0.09   0.00
    21   1    -0.26  -0.07  -0.03    -0.29  -0.22   0.14    -0.05  -0.02  -0.01
    22   1     0.19   0.06  -0.34     0.15  -0.08  -0.17    -0.04   0.13  -0.17
    23   1     0.16   0.01   0.42    -0.04   0.20  -0.20     0.01  -0.03   0.02
    24   1    -0.32  -0.09  -0.02    -0.05  -0.10  -0.02     0.05  -0.07   0.08
    25   1    -0.20  -0.25   0.03    -0.05  -0.16   0.02    -0.05  -0.04  -0.01
    26   1    -0.14   0.08   0.08     0.32   0.18   0.09    -0.21  -0.11  -0.02
    27   1    -0.01   0.15   0.02     0.03   0.07   0.07     0.06   0.04  -0.01
                     25                     26                     27
                      A                      A                      A
 Frequencies --    910.9948               974.7512               987.8086
 Red. masses --      1.4066                 2.3227                 1.8018
 Frc consts  --      0.6878                 1.3003                 1.0359
 IR Inten    --      9.9505                 0.9139                 0.7523
  Atom  AN      X      Y      Z        X      Y      Z        X      Y      Z
     1   8    -0.00   0.01  -0.00    -0.01   0.04   0.01    -0.01   0.01  -0.01
     2   6     0.00   0.01   0.03    -0.01   0.03  -0.02    -0.04  -0.01   0.02
     3   6     0.03   0.00   0.01     0.00  -0.08   0.05    -0.02  -0.05  -0.08
     4   6    -0.03  -0.00  -0.02     0.03   0.02  -0.05     0.01   0.01   0.08
     5   6    -0.01   0.02   0.04     0.05   0.03   0.01    -0.06   0.06  -0.05
     6  17    -0.00   0.00  -0.01    -0.00   0.00  -0.00    -0.00  -0.00   0.00
     7   6     0.05  -0.01  -0.05    -0.08  -0.06  -0.04     0.06  -0.05   0.02
     8   6     0.01  -0.02   0.09    -0.11   0.13  -0.01    -0.06  -0.02   0.06
     9   6    -0.03  -0.03  -0.02     0.09  -0.08   0.03     0.05   0.01  -0.06
    10   6     0.05  -0.01  -0.05    -0.02  -0.09  -0.06    -0.08  -0.05   0.03
    11   6     0.00  -0.02   0.08     0.08   0.13   0.01     0.00   0.05   0.03
    12   6    -0.05  -0.03  -0.03    -0.03  -0.08   0.02     0.10   0.03  -0.03
    13   1     0.10  -0.05   0.03     0.09  -0.16   0.14    -0.28   0.06   0.10
    14   1    -0.04   0.01  -0.01     0.01  -0.01   0.03     0.22   0.12  -0.05
    15   1    -0.05  -0.06  -0.00     0.05   0.09   0.06    -0.04  -0.17  -0.02
    16   1    -0.00   0.04  -0.03    -0.07   0.06  -0.08     0.15   0.10   0.07
    17   1    -0.02   0.05   0.07     0.15   0.09   0.05    -0.12  -0.02  -0.12
    18   1     0.13   0.18  -0.11    -0.18  -0.11  -0.03     0.21   0.03   0.02
    19   1     0.16  -0.28  -0.20    -0.11   0.20   0.06    -0.23  -0.22  -0.10
    20   1    -0.09   0.30  -0.10    -0.28  -0.02   0.03    -0.08   0.16  -0.04
    21   1    -0.10   0.28  -0.16     0.01   0.02  -0.03     0.04   0.12  -0.11
    22   1    -0.08  -0.02   0.15     0.33  -0.30   0.19     0.10  -0.06   0.08
    23   1     0.09   0.07   0.21    -0.04  -0.23   0.20    -0.18  -0.33  -0.05
    24   1    -0.13   0.28  -0.18    -0.16   0.02  -0.12     0.15   0.09  -0.00
    25   1    -0.11   0.26  -0.09     0.11   0.12   0.03     0.25   0.18   0.01
    26   1     0.09  -0.27  -0.19     0.31   0.20   0.04    -0.07  -0.02  -0.02
    27   1    -0.26   0.10  -0.13    -0.16  -0.15   0.02     0.36   0.16  -0.03
                     28                     29                     30
                      A                      A                      A
 Frequencies --   1024.0428              1039.5422              1060.5456
 Red. masses --      2.0986                 2.2400                 1.5776
 Frc consts  --      1.2966                 1.4262                 1.0455
 IR Inten    --      1.1111                10.9734                 3.4913
  Atom  AN      X      Y      Z        X      Y      Z        X      Y      Z
     1   8    -0.00   0.03  -0.01     0.02   0.01  -0.00     0.01  -0.01  -0.00
     2   6    -0.08  -0.01   0.09    -0.07  -0.02   0.01    -0.04  -0.02  -0.01
     3   6     0.10  -0.07  -0.04     0.03   0.09  -0.03     0.02   0.05  -0.02
     4   6    -0.08   0.12   0.04    -0.05  -0.11   0.02    -0.01  -0.07   0.00
     5   6     0.02  -0.07  -0.03    -0.01   0.11   0.05     0.04   0.04   0.01
     6  17    -0.00  -0.00   0.00    -0.00  -0.00  -0.01     0.00  -0.00   0.00
     7   6    -0.02  -0.05   0.01     0.17  -0.03   0.01    -0.07  -0.08   0.05
     8   6     0.02   0.09  -0.01    -0.02   0.05  -0.06     0.01   0.04   0.01
     9   6    -0.04  -0.08  -0.00    -0.08  -0.05  -0.02     0.03  -0.02   0.03
    10   6     0.06   0.05   0.02     0.08  -0.05   0.03    -0.02   0.04  -0.03
    11   6    -0.01  -0.01  -0.05    -0.01   0.09  -0.05     0.03  -0.06   0.03
    12   6    -0.09  -0.03  -0.03    -0.02  -0.04  -0.00    -0.01   0.10  -0.04
    13   1     0.03  -0.09   0.18     0.02   0.14  -0.18    -0.11   0.19  -0.20
    14   1     0.43  -0.08   0.08    -0.15   0.04  -0.08     0.04  -0.10   0.04
    15   1    -0.12  -0.01  -0.36    -0.18  -0.52   0.17    -0.07  -0.25   0.09
    16   1     0.36   0.14   0.11    -0.08  -0.17   0.04    -0.11  -0.30   0.07
    17   1     0.14  -0.08  -0.06     0.03   0.17   0.11     0.39   0.11   0.01
    18   1     0.12  -0.04   0.03     0.30  -0.14   0.08    -0.27  -0.08   0.01
    19   1     0.05   0.15   0.05    -0.11   0.15   0.07    -0.05   0.02   0.01
    20   1     0.21   0.05   0.04     0.06  -0.11   0.04    -0.05   0.01   0.01
    21   1     0.19   0.04   0.01     0.07   0.07  -0.02    -0.02  -0.02   0.02
    22   1    -0.12  -0.06   0.21    -0.19   0.01   0.11     0.27  -0.23   0.12
    23   1     0.11   0.19  -0.04     0.09  -0.03   0.17     0.05   0.26  -0.14
    24   1     0.07   0.10  -0.00    -0.11  -0.07   0.02     0.06   0.15  -0.07
    25   1     0.11  -0.11   0.02     0.01  -0.10   0.05     0.05   0.08  -0.04
    26   1    -0.14   0.06   0.04    -0.08   0.21   0.08    -0.12  -0.17  -0.06
    27   1     0.07   0.07  -0.03    -0.03  -0.19   0.06     0.06   0.28  -0.10
                     31                     32                     33
                      A                      A                      A
 Frequencies --   1073.1042              1088.4947              1105.6187
 Red. masses --      1.3747                 1.5508                 2.6487
 Frc consts  --      0.9327                 1.0826                 1.9077
 IR Inten    --      0.6101                 1.3323                 0.3764
  Atom  AN      X      Y      Z        X      Y      Z        X      Y      Z
     1   8    -0.00   0.01   0.00    -0.00  -0.01   0.00    -0.01  -0.01  -0.00
     2   6     0.02   0.01  -0.02     0.04   0.01  -0.02     0.02   0.00  -0.01
     3   6    -0.03  -0.02   0.01    -0.02  -0.02   0.05     0.00  -0.03   0.04
     4   6     0.04   0.00  -0.00     0.05   0.03  -0.02     0.05   0.04  -0.01
     5   6    -0.02   0.01  -0.01    -0.09   0.01  -0.00    -0.08  -0.01  -0.02
     6  17    -0.00   0.00   0.00     0.00  -0.00  -0.00     0.00  -0.00   0.00
     7   6    -0.04  -0.06  -0.01     0.07  -0.05   0.03    -0.02  -0.14   0.07
     8   6     0.07   0.04  -0.00    -0.05   0.02  -0.01     0.14   0.03  -0.01
     9   6    -0.05   0.01   0.01     0.04  -0.06   0.03    -0.10   0.10  -0.04
    10   6     0.04   0.01   0.01     0.02   0.07  -0.03    -0.04  -0.14   0.03
    11   6    -0.08   0.01   0.00    -0.03  -0.04  -0.01     0.14   0.05   0.03
    12   6     0.07  -0.03  -0.00    -0.00   0.04  -0.03    -0.07   0.10  -0.08
    13   1    -0.02  -0.03   0.03     0.06  -0.08   0.05    -0.00  -0.02   0.02
    14   1    -0.06   0.05  -0.02    -0.24   0.13  -0.07    -0.16   0.11  -0.06
    15   1     0.05   0.03   0.06     0.05   0.02   0.11     0.02  -0.05   0.09
    16   1    -0.03   0.07  -0.04    -0.01   0.31  -0.13     0.03   0.28  -0.09
    17   1    -0.03  -0.01  -0.03    -0.25  -0.03  -0.01     0.00  -0.07  -0.10
    18   1    -0.16  -0.34   0.08     0.29  -0.15   0.11     0.01  -0.30   0.14
    19   1     0.39   0.15   0.03    -0.29  -0.03   0.01    -0.01   0.03   0.02
    20   1    -0.14  -0.05   0.00    -0.04  -0.03   0.02     0.33   0.03   0.03
    21   1    -0.26   0.25  -0.13     0.19  -0.15   0.10    -0.20   0.12  -0.07
    22   1    -0.01  -0.03   0.05     0.21  -0.22   0.17    -0.02   0.04  -0.06
    23   1     0.02  -0.05   0.10     0.11   0.36  -0.15     0.02   0.03   0.03
    24   1     0.04   0.31  -0.11     0.05   0.12  -0.05    -0.17  -0.37   0.11
    25   1     0.10   0.05   0.02    -0.12  -0.06  -0.02     0.13   0.11  -0.00
    26   1    -0.38  -0.08  -0.02    -0.20  -0.09  -0.03     0.08  -0.01  -0.01
    27   1     0.28  -0.26   0.14    -0.11  -0.12   0.01    -0.38   0.14  -0.16
                     34                     35                     36
                      A                      A                      A
 Frequencies --   1129.8824              1155.5762              1168.6749
 Red. masses --      1.9626                 2.0185                 2.3853
 Frc consts  --      1.4762                 1.5881                 1.9194
 IR Inten    --     12.8436                 7.1168                25.7650
  Atom  AN      X      Y      Z        X      Y      Z        X      Y      Z
     1   8    -0.01   0.01  -0.01     0.01  -0.01  -0.01     0.01   0.03   0.00
     2   6     0.10   0.03   0.07    -0.07  -0.03   0.05    -0.13  -0.03  -0.01
     3   6    -0.06  -0.02  -0.10     0.06   0.02  -0.01     0.04  -0.03   0.05
     4   6    -0.05  -0.04   0.12    -0.05   0.03  -0.01     0.05   0.07  -0.07
     5   6     0.06   0.05  -0.05     0.00  -0.04   0.00    -0.11  -0.04  -0.02
     6  17    -0.00  -0.01   0.01     0.00  -0.00   0.00     0.00   0.00   0.00
     7   6    -0.02   0.02   0.05     0.08   0.13   0.07     0.04  -0.02   0.08
     8   6     0.00  -0.01  -0.05    -0.01  -0.09  -0.08     0.00  -0.01  -0.06
     9   6    -0.00   0.01   0.05     0.02   0.04   0.06    -0.02   0.01   0.07
    10   6     0.03  -0.01  -0.05    -0.02  -0.04  -0.05     0.04  -0.01  -0.08
    11   6    -0.03   0.02   0.06     0.05  -0.01   0.04    -0.07   0.06   0.09
    12   6     0.05  -0.05  -0.06    -0.08   0.07  -0.06     0.15  -0.06  -0.06
    13   1    -0.11  -0.08   0.21     0.14  -0.02  -0.01    -0.10   0.12  -0.14
    14   1    -0.10   0.37  -0.24     0.07  -0.07   0.03     0.23  -0.28   0.20
    15   1    -0.09  -0.15  -0.11    -0.04   0.05  -0.12     0.03  -0.02   0.09
    16   1     0.21   0.10   0.12     0.07   0.01   0.02    -0.10   0.01  -0.08
    17   1     0.20  -0.17  -0.30    -0.15  -0.12  -0.04     0.06  -0.02  -0.04
    18   1    -0.17   0.10  -0.01     0.01  -0.18   0.19    -0.06   0.22  -0.04
    19   1    -0.05   0.08   0.05    -0.03   0.05   0.06    -0.02   0.11   0.06
    20   1    -0.00  -0.13   0.01    -0.42  -0.37  -0.03     0.15  -0.12   0.03
    21   1    -0.05  -0.12   0.09    -0.33   0.06  -0.03    -0.02  -0.18   0.14
    22   1     0.06  -0.01  -0.07     0.21  -0.09  -0.08    -0.05   0.08  -0.12
    23   1     0.08   0.13   0.07    -0.02  -0.05   0.06     0.07   0.03   0.16
    24   1    -0.16  -0.07  -0.05    -0.03   0.17  -0.13    -0.23  -0.09  -0.07
    25   1    -0.32   0.07  -0.03     0.32   0.17  -0.00    -0.45   0.15  -0.03
    26   1     0.01  -0.08  -0.06    -0.01  -0.10  -0.04     0.12  -0.06  -0.07
    27   1    -0.25  -0.14  -0.09     0.01  -0.24   0.09     0.19   0.20  -0.15
                     37                     38                     39
                      A                      A                      A
 Frequencies --   1203.1609              1234.5520              1254.9306
 Red. masses --      1.2565                 1.3277                 1.4645
 Frc consts  --      1.0716                 1.1922                 1.3588
 IR Inten    --      3.7882                 8.8828                 7.1828
  Atom  AN      X      Y      Z        X      Y      Z        X      Y      Z
     1   8    -0.01   0.01  -0.01     0.03  -0.02   0.01     0.00   0.02   0.00
     2   6     0.04   0.01   0.05    -0.09  -0.02  -0.07    -0.04  -0.01  -0.02
     3   6    -0.03   0.01  -0.06     0.01   0.06   0.02     0.03  -0.03   0.03
     4   6     0.01  -0.03  -0.01    -0.01  -0.02   0.01    -0.02   0.03   0.00
     5   6    -0.00   0.03   0.01     0.02   0.03   0.00     0.04  -0.07  -0.02
     6  17     0.00   0.00  -0.00    -0.00  -0.00   0.01    -0.00   0.00  -0.00
     7   6     0.01  -0.01  -0.00     0.01  -0.00  -0.00    -0.05   0.05  -0.07
     8   6     0.04  -0.00  -0.01     0.03  -0.01  -0.00     0.01  -0.05   0.02
     9   6    -0.04   0.03  -0.00    -0.02   0.01  -0.01     0.00   0.05  -0.03
    10   6     0.02  -0.04   0.01     0.01  -0.02   0.02    -0.02  -0.05   0.00
    11   6     0.00   0.05   0.01    -0.01   0.02  -0.02     0.02   0.06   0.03
    12   6    -0.01  -0.05  -0.00     0.00  -0.03   0.06     0.03  -0.01   0.04
    13   1    -0.04  -0.01   0.05     0.45  -0.26   0.12    -0.09   0.09  -0.08
    14   1     0.28  -0.15   0.10    -0.17   0.07  -0.05    -0.09   0.05  -0.03
    15   1     0.14   0.42  -0.10     0.00   0.03  -0.02    -0.13  -0.32   0.05
    16   1    -0.13  -0.37   0.09     0.05   0.17  -0.05     0.11   0.19  -0.03
    17   1    -0.36   0.06   0.11    -0.07  -0.34  -0.37     0.14   0.17   0.21
    18   1    -0.05   0.00  -0.02    -0.24   0.22  -0.14     0.06   0.18  -0.11
    19   1    -0.31  -0.10  -0.02    -0.18  -0.07  -0.01    -0.06  -0.13  -0.05
    20   1     0.10   0.01   0.00     0.01  -0.00  -0.01     0.03   0.04  -0.02
    21   1    -0.07   0.03  -0.01    -0.09   0.08  -0.05     0.00  -0.01  -0.01
    22   1     0.20  -0.18   0.11     0.13  -0.13   0.10     0.20  -0.12   0.04
    23   1     0.11   0.25  -0.03     0.05   0.10  -0.02     0.11   0.37  -0.13
    24   1    -0.07  -0.09   0.02     0.01   0.01   0.02    -0.10  -0.23   0.06
    25   1    -0.01   0.02   0.02     0.02  -0.02   0.01    -0.00   0.07   0.02
    26   1    -0.23  -0.02  -0.01    -0.07   0.05   0.02    -0.35  -0.07  -0.02
    27   1    -0.01  -0.03  -0.01     0.20   0.29  -0.03     0.10  -0.35   0.20
                     40                     41                     42
                      A                      A                      A
 Frequencies --   1266.2023              1280.4517              1297.4584
 Red. masses --      1.3853                 1.4383                 1.2684
 Frc consts  --      1.3085                 1.3894                 1.2581
 IR Inten    --      2.6314                 8.7366                13.2038
  Atom  AN      X      Y      Z        X      Y      Z        X      Y      Z
     1   8     0.02  -0.02   0.00    -0.01  -0.00   0.01     0.01  -0.01   0.00
     2   6    -0.06  -0.02  -0.02     0.08   0.03  -0.03    -0.04  -0.01  -0.02
     3   6    -0.00   0.04  -0.03    -0.01  -0.03   0.02     0.02  -0.01  -0.01
     4   6    -0.01  -0.02   0.04     0.00   0.01   0.01    -0.00   0.02   0.05
     5   6     0.05   0.02  -0.00    -0.00  -0.03  -0.02     0.01  -0.05  -0.06
     6  17    -0.00   0.00  -0.00    -0.00   0.00  -0.00     0.00   0.00  -0.01
     7   6    -0.06  -0.03  -0.02    -0.02  -0.00   0.01    -0.01   0.01   0.06
     8   6    -0.03   0.01   0.02     0.03  -0.02  -0.07     0.02  -0.01  -0.01
     9   6     0.02   0.01   0.04    -0.03   0.03   0.09    -0.01  -0.01  -0.02
    10   6    -0.01  -0.01  -0.08     0.03  -0.02  -0.04     0.00   0.02   0.05
    11   6     0.00   0.00   0.07    -0.03  -0.02  -0.03    -0.01  -0.00  -0.02
    12   6    -0.00   0.02  -0.02    -0.06  -0.04   0.05     0.04  -0.01  -0.02
    13   1     0.35  -0.24   0.15    -0.14   0.08  -0.06     0.15  -0.12   0.08
    14   1    -0.09   0.12  -0.08    -0.10   0.09  -0.05    -0.15   0.21  -0.14
    15   1     0.03   0.11  -0.03    -0.03  -0.09   0.03    -0.01  -0.01  -0.03
    16   1     0.04  -0.09   0.07     0.04   0.10  -0.01     0.08  -0.07   0.10
    17   1    -0.20   0.17   0.20     0.05   0.19   0.19    -0.20   0.44   0.48
    18   1     0.24  -0.19   0.10     0.15   0.29  -0.08    -0.11  -0.07   0.07
    19   1     0.09   0.04   0.01    -0.31   0.01   0.04    -0.00   0.01   0.01
    20   1     0.27   0.13   0.02     0.33  -0.05   0.01    -0.14  -0.08  -0.01
    21   1     0.18  -0.26   0.17    -0.20  -0.03   0.07    -0.14   0.18  -0.12
    22   1    -0.14   0.18  -0.17     0.09  -0.05  -0.03     0.09  -0.11   0.10
    23   1     0.00  -0.02   0.06    -0.01  -0.17   0.15    -0.02  -0.02  -0.02
    24   1    -0.13  -0.06  -0.08     0.03   0.35  -0.18     0.08  -0.00   0.07
    25   1     0.14   0.18  -0.00     0.36   0.04   0.02    -0.30  -0.11  -0.02
    26   1    -0.08  -0.14  -0.05    -0.03   0.02   0.01     0.19   0.07   0.02
    27   1     0.26  -0.00   0.05     0.12   0.28  -0.04    -0.05   0.22  -0.14
                     43                     44                     45
                      A                      A                      A
 Frequencies --   1322.9693              1336.4743              1343.8714
 Red. masses --      1.2643                 1.2906                 1.3726
 Frc consts  --      1.3038                 1.3582                 1.4605
 IR Inten    --      1.1585                 9.7773                 1.4535
  Atom  AN      X      Y      Z        X      Y      Z        X      Y      Z
     1   8    -0.00  -0.00  -0.00     0.01  -0.01  -0.00     0.00  -0.00  -0.00
     2   6    -0.00  -0.00   0.00    -0.04  -0.02   0.01     0.01   0.00   0.02
     3   6     0.02  -0.01   0.02    -0.01   0.01  -0.04    -0.06   0.06  -0.01
     4   6    -0.02  -0.00  -0.01     0.04   0.02   0.02    -0.01  -0.06  -0.02
     5   6     0.04  -0.00   0.01    -0.08   0.00   0.02     0.07   0.02   0.01
     6  17    -0.00   0.00   0.00     0.00   0.00   0.00    -0.00  -0.00   0.00
     7   6    -0.02   0.01  -0.06    -0.02  -0.03  -0.03    -0.09   0.03   0.00
     8   6     0.05   0.01   0.03    -0.02  -0.03  -0.03    -0.03  -0.04  -0.03
     9   6    -0.04  -0.00   0.02    -0.01   0.02   0.01     0.00   0.02   0.00
    10   6     0.03   0.01   0.01    -0.01   0.00   0.03    -0.00   0.01   0.03
    11   6    -0.04  -0.03   0.02     0.01  -0.01  -0.02     0.01  -0.00  -0.00
    12   6    -0.01   0.06  -0.05     0.02   0.07  -0.00     0.02  -0.02  -0.03
    13   1    -0.07   0.08  -0.07     0.19  -0.17   0.14     0.04  -0.01   0.03
    14   1    -0.03   0.00  -0.01    -0.00   0.08  -0.06     0.24  -0.33   0.22
    15   1    -0.04  -0.05  -0.03     0.08   0.16   0.02    -0.03  -0.14   0.08
    16   1     0.02   0.05  -0.02    -0.06  -0.28   0.11     0.07   0.40  -0.17
    17   1    -0.10  -0.08  -0.04     0.43   0.01  -0.06    -0.11  -0.05  -0.02
    18   1    -0.17  -0.23   0.01     0.35   0.27  -0.09     0.46  -0.14   0.17
    19   1    -0.44  -0.17  -0.04     0.06   0.03   0.00     0.13   0.06   0.03
    20   1     0.21   0.11   0.01     0.21  -0.03   0.01     0.16  -0.01  -0.00
    21   1    -0.05   0.01   0.01    -0.17   0.10  -0.05    -0.17   0.13  -0.08
    22   1     0.01  -0.06   0.08     0.17  -0.12   0.05     0.20  -0.14   0.07
    23   1     0.00  -0.09   0.10    -0.04  -0.09   0.03    -0.02  -0.04   0.01
    24   1     0.04   0.08  -0.01     0.10   0.14  -0.01     0.06   0.02   0.03
    25   1    -0.21   0.01  -0.03    -0.16  -0.08  -0.02    -0.21  -0.09  -0.01
    26   1     0.50   0.08   0.02     0.09   0.04   0.02     0.06   0.00  -0.01
    27   1     0.31  -0.33   0.18    -0.08  -0.33   0.14    -0.03   0.13  -0.10
                     46                     47                     48
                      A                      A                      A
 Frequencies --   1346.0847              1366.6078              1384.3639
[...]
 00009580,-0.00009660,-0.00011304,-0.00021325,0.00015774,-0.00018201,-0
 .00005650,-0.00013235,-0.00002755,0.00310037,-0.00506322,-0.00014868,0
 .00051557,-0.00041464,0.00103167,-0.00895527,0.05837390,0.00000344,0.0
 0007508,-0.00009256,0.00000288,-0.00015461,0.00029748,0.00000908,0.000
 04168,-0.00005117,0.00008760,0.00017487,0.00003994,-0.00110021,0.00007
 278,-0.00078009,0.00024609,-0.00222621,0.00011929,0.00034922,0.0012315
 5,-0.00025446,-0.11254934,0.01456152,-0.23531755,-0.00119240,-0.000730
 40,-0.00236990,0.00059340,0.00030081,0.00079458,-0.00005339,-0.0000524
 9,0.00006698,0.00034891,0.00002627,0.00082236,0.00000519,0.00001385,0.
 00000928,-0.00004331,0.00000580,0.00002737,-0.00004550,0.00009578,-0.0
 0003026,0.00006955,-0.00002822,0.00003782,-0.00005154,0.00000880,0.000
 03666,0.00007514,-0.00017883,0.00125881,-0.01300552,0.00160860,-0.0210
 7276,0.12657144,-0.01380903,0.25392399,0.00011159,-0.00003884,0.000026
 10,-0.00004675,0.00011087,-0.00006845,-0.00000835,0.00001100,0.0000253
 1,-0.00004795,-0.00002011,-0.00000803,-0.00010028,0.00006695,0.0000092
 7,0.00014189,-0.00021360,0.00013836,0.00025091,0.00130987,0.00015732,-
 0.01125997,-0.00039525,-0.01872176,-0.10250488,0.00377681,-0.10203147,
 0.01059560,-0.00042963,0.02260436,0.00145981,-0.00065721,0.00016046,-0
 .00007692,-0.00007965,0.00007482,0.00001471,-0.00000185,-0.00000334,-0
 .00001397,0.00000915,0.00001017,0.00000680,-0.00001973,-0.00001190,0.0
 0002384,-0.00001440,0.00000479,-0.00001069,0.00000222,0.00001421,0.000
 64993,-0.00050149,0.00036712,0.00029465,0.00060038,0.00022061,-0.00143
 880,-0.00407669,0.00018262,0.11278754,0.00009792,0.00005529,0.00002994
 ,-0.00005414,-0.00004098,-0.00006155,0.00000218,0.00001633,0.00000390,
 0.00002477,0.00002875,0.00002032,-0.00037519,0.00014958,-0.00004202,0.
 00019733,-0.00033517,0.00014351,-0.00074950,0.00188710,-0.00116459,-0.
 01396011,-0.00088085,-0.02553518,0.00402390,-0.05167423,0.00325287,0.0
 0068517,-0.00055578,0.00190239,-0.00047021,0.00014482,-0.00089135,0.00
 002766,-0.00024426,0.00003395,0.00000856,0.00000860,-0.00000154,-0.000
 01107,0.00000761,0.00000874,0.00000505,0.00002377,-0.00000095,0.000029
 84,-0.00003048,0.00001873,0.00001277,0.00001612,0.00000521,0.00043099,
 -0.00038641,0.00049435,0.00073290,0.00110907,0.00047116,-0.00322640,-0
 .00424088,-0.00047285,0.00043898,0.05356835,0.00013411,-0.00006405,0.0
 0004387,-0.00018869,0.00004724,-0.00003231,0.00003346,-0.00004047,0.00
 000114,-0.00004542,-0.00002522,-0.00004930,0.00002850,-0.00021995,0.00
 009543,0.00014880,0.00005130,0.00015872,-0.00003478,0.00049787,-0.0001
 0460,-0.00127285,-0.00009315,-0.00190743,-0.10196173,0.00277119,-0.244
 77961,-0.01097314,0.00121625,-0.02407147,-0.00156230,0.00063221,0.0006
 3126,0.00028675,-0.00020298,0.00006655,-0.00000111,-0.00002017,-0.0000
 0318,-0.00000150,0.00000785,0.00000763,0.00000941,-0.00001705,0.000007
 28,0.00001251,-0.00001631,0.00002025,0.00000378,0.00002156,-0.00000259
 ,0.00035564,-0.00071065,0.00022926,-0.00024166,-0.00043766,0.00084335,
 -0.00016778,-0.00018845,0.00131432,0.11067404,-0.00396798,0.26893995,0
 .00023348,0.00024069,0.00001712,-0.00016541,-0.00011684,-0.00009630,-0
 .00004323,0.00012358,0.00004303,-0.00039954,-0.00030177,-0.00001817,0.
 00107111,-0.00099364,0.00003548,0.00001733,0.00008178,-0.00003406,-0.0
 0288652,-0.00302624,-0.00042564,0.01235022,-0.01872659,0.00063620,-0.1
 3149584,0.12116527,-0.00617618,-0.01308415,0.01924276,-0.00210454,-0.0
 0249131,-0.00188984,0.00469745,-0.00033041,-0.00054250,-0.00003812,0.0
 0003276,0.00003485,-0.00002012,0.00000041,0.00001139,-0.00000739,0.000
 10649,-0.00015719,-0.00001351,-0.00000710,0.00001520,-0.00000162,0.000
 04709,0.00005372,0.00000765,-0.00002722,-0.00000324,0.00016944,0.00083
 213,0.00083452,0.00015324,0.00091685,0.00078193,0.00009239,-0.00893068
 ,0.01236025,-0.00067081,0.14310921,0.00027606,-0.00005657,0.00003212,-
 0.00024254,0.00025817,-0.00004484,-0.00002680,0.00004099,0.00005866,-0
 .00060574,-0.00038908,-0.00010516,0.00188041,-0.00097782,0.00009284,-0
 .00018394,0.00000444,-0.00019451,-0.00550063,-0.00262477,-0.00062127,0
 .01538091,-0.02282526,0.00120043,0.12044278,-0.22439687,0.00737078,-0.
 00150324,0.00235607,-0.00034768,-0.00034967,0.00104020,0.00001106,-0.0
 0035631,0.00022808,0.00033390,0.00003736,-0.00001052,-0.00002151,-0.00
 000841,0.00001001,-0.00000293,0.00013889,-0.00023161,0.00000110,0.0000
 0219,0.00003732,0.00000508,-0.00001017,0.00002851,-0.00000238,-0.00018
 948,0.00032125,0.00011226,0.00002152,0.00076813,0.00058599,0.00018919,
 0.00108440,-0.00049125,0.00007773,0.00016620,0.00086226,-0.12976085,0.
 24443217,-0.00011736,-0.00015979,0.00003397,0.00009197,0.00004740,0.00
 003962,0.00002383,-0.00005145,-0.00001027,-0.00002085,-0.00002587,-0.0
 0007005,0.00009188,-0.00005860,0.00037201,0.00003610,0.00008840,0.0000
 4490,-0.00035766,-0.00006837,0.00028771,0.00139817,-0.00322634,-0.0007
 5741,-0.00671183,0.00814123,-0.05064859,0.01484701,-0.02219500,0.00051
 213,0.00288151,0.00163629,-0.00389747,0.00005445,0.00053311,0.00007570
 ,-0.00001445,-0.00002128,0.00000219,-0.00000057,-0.00000857,0.00000041
 ,-0.00000188,-0.00001095,0.00000547,-0.00000871,0.00000814,0.00001055,
 -0.00003125,-0.00002039,-0.00000151,0.00031357,-0.00037147,0.00024414,
 -0.00022959,0.00030499,0.00001819,0.00047983,-0.00013421,0.00020420,-0
 .01666031,0.02502373,-0.00069967,0.00428484,-0.00812352,0.05216512,-0.
 00000671,-0.00016099,0.00001063,0.00102684,0.00083842,0.00006665,-0.00
 029369,0.00030045,-0.00002461,-0.00012505,-0.00004926,0.00002111,0.000
 19825,-0.00004223,-0.00006631,0.00001927,-0.00008625,-0.00002998,-0.00
 042926,0.00050107,0.00017503,-0.00235332,0.00142236,0.00470258,-0.0140
 5885,-0.01812815,-0.00415638,-0.14250966,-0.12304501,-0.02067193,0.012
 49434,0.01676754,0.00256804,-0.00226551,0.00305368,-0.00011534,0.00008
 205,0.00013511,-0.00002393,-0.00001749,-0.00000759,0.00000493,0.000033
 94,-0.00004296,-0.00002065,0.00000796,0.00000171,-0.00001397,0.0000701
 1,0.00009322,-0.00003173,0.00005117,-0.00007839,-0.00001237,-0.0007495
 9,-0.00159013,0.00014730,0.00039761,0.00046295,0.00003280,0.00114693,0
 .00027192,0.00005150,0.00020045,0.00034153,-0.00067750,0.15495713,0.00
 059703,0.00004286,-0.00000554,-0.00244818,-0.00053222,0.00003710,0.000
 55982,-0.00049007,0.00003042,0.00006669,0.00004775,-0.00013171,0.00007
 125,0.00013394,0.00014988,-0.00010313,-0.00001579,-0.00005145,0.000501
 70,0.00038672,-0.00046606,0.00025074,0.00111602,0.00030627,0.00044643,
 0.00059069,0.00042501,-0.12254104,-0.20921451,-0.02553507,-0.01707158,
 -0.02276505,-0.00393166,0.00551386,-0.00350054,0.00035198,-0.00011253,
 -0.00024665,0.00000784,-0.00000454,0.00000484,-0.00000119,-0.00004258,
 -0.00001161,0.00002884,-0.00000440,0.00001800,0.00002323,-0.00007906,-
 0.00003966,-0.00000113,-0.00005241,-0.00004031,0.00009207,0.00001250,0
 .00002934,-0.00018028,-0.00002391,-0.00004601,-0.00007991,0.00001932,0
 .00009142,0.00040045,-0.00025568,0.00054207,0.00038891,0.13234329,0.22
 812804,0.00011826,-0.00006795,-0.00009756,-0.00026564,0.00006529,0.000
 41387,0.00002126,-0.00005580,-0.00008364,0.00008273,0.00002737,0.00001
 249,-0.00015528,0.00005837,-0.00000087,-0.00001426,0.00001735,0.000053
 15,0.00014576,-0.00043289,-0.00009184,0.00289726,-0.00110130,-0.003962
 11,0.01610590,0.02137491,0.00289758,-0.02129172,-0.02633411,-0.0546041
 9,-0.00044649,0.00070402,-0.00078075,0.00039375,-0.00041675,0.00063774
 ,-0.00001780,-0.00001834,0.00000470,-0.00000619,-0.00002689,0.00000287
 ,-0.00002442,0.00002507,0.00000673,0.00000053,-0.00000121,0.00000549,-
 0.00003122,-0.00006962,0.00003421,-0.00003647,0.00003878,-0.00001664,0
 .00101296,0.00123367,0.00018721,0.00027483,0.00004897,0.00019947,-0.00
 083671,0.00025436,0.00096662,-0.00072490,-0.00037501,0.00083686,0.0199
 2938,0.02843150,0.05645198,0.00028321,0.00025991,0.00010020,-0.0004008
 1,-0.00011098,0.00022189,0.00001644,0.00003724,-0.00005407,-0.00001386
 ,0.00001017,0.00003512,0.00001433,-0.00006067,-0.00009640,0.00004229,0
 .00000489,0.00002865,-0.00013372,0.00005380,0.00015810,0.00142764,0.00
 053094,0.00028910,0.01043994,-0.00269517,0.02257642,-0.10253085,0.0103
 1145,-0.10161599,-0.01048166,0.00268522,-0.01737567,0.00037647,-0.0012
 8505,0.00025736,0.00000688,0.00001697,-0.00001316,0.00000645,0.0000043
 9,-0.00000273,0.00001833,0.00000376,-0.00000837,-0.00000308,-0.0000083
 2,0.00000466,0.00003666,0.00002324,0.00000197,-0.00014184,0.00003307,-
 0.00001826,0.00011047,0.00032628,-0.00022938,-0.00016888,0.00003250,-0
 .00040384,-0.00280698,-0.00061764,0.00429075,0.00114152,0.00002446,-0.
 00084593,-0.00943447,0.00240659,-0.01766636,0.11245129,-0.00049936,-0.
 00036374,-0.00015365,0.00085290,0.00000961,-0.00033944,-0.00006404,0.0
 0004927,0.00007322,0.00000077,-0.00002517,-0.00000982,0.00000019,0.000
 00364,0.00011419,-0.00004052,0.00003228,-0.00005903,0.00000256,-0.0002
 3569,-0.00005313,0.00054942,0.00008355,0.00078935,0.00000448,-0.000511
 18,-0.00024615,0.01013570,-0.05429504,0.02361979,0.01430967,-0.0042771
 2,0.02629092,0.00054577,0.00197446,0.00117229,-0.00000351,0.00002426,0
 .00000748,-0.00000935,-0.00000948,-0.00000956,-0.00001293,0.00000348,0
 .00000687,-0.00000091,0.00000851,-0.00000970,-0.00002592,-0.00001695,-
 0.00000390,0.00001087,0.00005741,-0.00020673,-0.00003890,0.00000548,-0
 .00015107,-0.00021156,0.00006706,0.00002830,0.00031237,0.00096136,-0.0
 0002843,-0.00033939,0.00018209,-0.00030082,-0.01168088,0.00351330,-0.0
 2375528,-0.01579454,0.05663204,0.00018149,-0.00004584,-0.00005493,-0.0
 0002992,0.00026190,0.00020113,-0.00003779,0.00002159,-0.00006551,0.000
 04705,0.00003921,0.00002756,-0.00016336,0.00003480,-0.00014238,0.00007
 765,0.00001158,0.00012278,0.00022056,0.00010281,0.00008330,-0.00145082
 ,-0.00056031,0.00062719,-0.01094161,0.00204528,-0.02420985,-0.10128472
 ,0.02393183,-0.24233924,0.00021879,-0.00007397,0.00114280,0.00017232,-
 0.00034324,0.00018819,0.00000898,0.00001741,0.00000011,0.00000109,-0.0
 0000007,0.00000797,-0.00000629,0.00002252,-0.00000379,0.00000910,-0.00
 001534,0.00000897,0.00001621,0.00000428,0.00002272,0.00000615,-0.00021
 598,0.00004993,0.00022056,-0.00021986,0.00045278,0.00084927,0.00075756
 ,0.00054548,0.00431714,0.00023983,-0.00277285,-0.00000986,-0.00048903,
 0.00088296,-0.00207117,-0.00034747,-0.00350019,0.10943024,-0.02575754,
 0.26645143,0.00089404,0.00018175,0.00015888,-0.00072930,0.00128090,0.0
 0036106,-0.00004165,-0.00016151,-0.00002889,0.00007719,0.00002485,-0.0
 0009725,0.00000423,-0.00016475,-0.00003385,0.00004228,0.00001494,0.000
 31306,0.00065160,0.00078585,-0.00165015,-0.00019446,-0.00003527,0.0002
 8460,0.00035706,-0.00071208,-0.00138869,-0.01012773,0.00195101,-0.0151
 4227,-0.12239062,0.00789869,-0.11325954,-0.01174658,-0.00114437,-0.017
 00966,-0.00000139,-0.00005434,0.00004436,0.00002083,0.00004783,0.00004
 814,-0.00001677,0.00001761,0.00002957,0.00000887,-0.00002979,0.0000505
 9,-0.00002992,-0.00000709,0.00001886,-0.00022285,-0.00018831,0.0008472
 0,-0.00007209,0.00000667,0.00003585,0.00023194,0.00000531,0.00006110,-
 0.00016647,0.00012888,0.00085823,0.00036980,-0.00002202,0.00029760,0.0
 0084774,-0.00019367,0.00045562,-0.00107815,0.00305854,0.00024136,0.132
 66458,0.00130630,-0.00010858,0.00040682,-0.00222569,0.00121177,-0.0010
 0014,0.00001033,-0.00000299,0.00003415,0.00001905,0.00007105,-0.000014
 01,0.00011611,-0.00002890,-0.00019850,-0.00010489,-0.00007976,0.000247
 88,0.00086846,0.00094522,-0.00108892,-0.00000106,-0.00019834,-0.000001
 88,-0.00098092,0.00100216,0.00093541,0.01638667,-0.00339518,0.02571377
 ,0.00808284,-0.04888985,0.01468267,-0.01529434,-0.00029561,-0.02432301
 ,0.00004067,-0.00006255,0.00005391,0.00009643,0.00009420,0.00008619,0.
 00002172,-0.00000866,-0.00000172,-0.00000709,-0.00002501,0.00003911,-0
 .00001112,-0.00002782,0.00002453,0.00003261,0.00008964,0.00062461,-0.0
 0000355,0.00013629,-0.00000786,-0.00004406,-0.00014527,-0.00000249,0.0
 0001562,0.00016423,-0.00085307,-0.00045198,-0.00002460,-0.00010480,-0.
 00078834,0.00106800,0.00019589,0.00395171,-0.00464669,-0.00046491,-0.0
 0847317,0.05807290,0.00159711,0.00097813,0.00082311,-0.00255991,0.0007
 4095,0.00011816,0.00034250,-0.00019711,-0.00021395,0.00002339,0.000098
 42,-0.00000840,-0.00009815,-0.00000765,0.00019361,0.00012701,0.0000053
 0,0.00008964,0.00054205,0.00017188,0.00045829,-0.00002128,0.00003281,0
 .00009956,0.00043494,-0.00021908,0.00076528,0.00079101,0.00054629,0.00
 027261,-0.11272488,0.01325593,-0.23052911,-0.00100069,-0.00136459,-0.0
 0265996,-0.00003031,-0.00010225,0.00000355,0.00002893,0.00004287,0.000
 01910,0.00003920,-0.00000603,-0.00001733,-0.00000794,-0.00001569,0.000
 03130,-0.00003513,-0.00006095,0.00000083,-0.00034193,0.00001641,0.0005
 8226,-0.00003938,-0.00001162,-0.00000023,0.00008140,0.00001574,-0.0001
 1043,-0.00042711,-0.00004864,0.00052168,-0.00005748,0.00004931,0.00023
 348,0.00001712,0.00063249,0.00030049,0.00053572,-0.00003966,0.00136682
 ,0.12661316,-0.01546441,0.24839487,0.00106067,0.00083567,-0.00042929,-
 0.00098027,0.00073535,-0.00011359,0.00001866,0.00001792,0.00012896,-0.
 00014820,0.00010581,-0.00004640,-0.00037402,0.00045454,0.00126697,0.00
 001307,-0.00000369,-0.00013211,-0.00099569,-0.00333432,-0.00200872,0.0
 0060583,-0.00005067,-0.00020109,-0.00065048,0.00356856,-0.00134612,-0.
 01181415,-0.00012038,0.01308706,-0.15993198,-0.00384648,0.13014478,-0.
 01377758,-0.00228922,0.01486517,0.00005127,-0.00003073,-0.00002524,-0.
 00001372,0.00003201,-0.00001751,0.00003109,-0.00005145,-0.00001186,0.0
 0000473,-0.00000142,-0.00000506,-0.00027017,-0.00036075,-0.00002911,0.
 00008508,-0.00007265,0.00018980,-0.00001975,0.00001487,0.00004070,-0.0
 0005698,0.00001153,-0.00001547,0.00007857,0.00001281,0.00023826,-0.000
 59852,-0.00007870,0.00089638,0.00075258,0.00000217,-0.00023046,0.00023
 394,-0.00061881,-0.00026162,0.01228197,0.00054066,-0.01366179,0.174079
 81,0.00155534,-0.00019224,-0.00047457,-0.00207882,0.00063119,0.0008197
 6,0.00012585,0.00012996,-0.00005252,-0.00010890,0.00027307,0.00005781,
 -0.00113741,0.00059621,0.00156868,-0.00004967,-0.00001818,-0.00015684,
 -0.00205867,-0.00525044,-0.00183134,0.00002852,-0.00053362,-0.00011902
 ,0.00257090,-0.00543224,0.00146680,0.01896764,0.00108495,-0.02332998,-
 0.00308035,-0.04769828,0.00213098,-0.01782572,-0.00116697,0.02201539,0
 .00006004,-0.00000029,-0.00004437,-0.00000500,0.00004437,0.00001364,0.
 00007245,-0.00003808,-0.00005502,0.00001103,-0.00000550,-0.00001400,-0
 .00037480,-0.00058053,0.00002049,0.00026782,-0.00004180,-0.00018380,0.
 00000502,0.00020307,0.00002248,-0.00000544,0.00011298,0.00000482,-0.00
 028534,-0.00002605,0.00014166,0.00154377,0.00006419,-0.00125552,-0.000
 84921,0.00089868,-0.00022236,-0.00059407,0.00118230,0.00044623,-0.0010
 9877,-0.00023134,0.00154332,0.00389563,0.05485456,-0.00128181,-0.00132
 492,0.00046795,0.00213008,-0.00023697,0.00017291,-0.00036817,0.0000940
 9,-0.00016688,0.00005259,-0.00005004,-0.00005844,-0.00005037,-0.000281
 86,0.00025520,0.00011117,0.00010303,0.00007274,-0.00022193,-0.00046627
 ,0.00061605,-0.00020904,0.00001043,-0.00003111,-0.00020372,-0.00037784
 ,0.00094901,-0.00221717,0.00012712,0.00109215,0.13031982,0.00389900,-0
 .20320934,-0.00379708,0.00028193,0.00292656,0.00002173,0.00008591,-0.0
 0000371,-0.00004747,-0.00008292,-0.00001071,-0.00002710,0.00001985,0.0
 0003361,-0.00000094,-0.00000585,0.00002255,-0.00007107,-0.00002154,-0.
 00000227,-0.00018978,-0.00010037,0.00043681,0.00001721,0.00000595,-0.0
 0003717,0.00003328,0.00001693,-0.00000544,-0.00023181,0.00010345,0.000
 49081,0.00026168,0.00016380,0.00012905,0.00004943,-0.00047208,-0.00007
 188,0.00012442,-0.00047046,0.00077800,0.01799405,0.00069362,-0.0218440
 8,-0.14225352,-0.00225753,0.21618543,-0.00086687,0.00304668,0.00259806
 ,-0.01238217,0.00106086,-0.01775765,0.00037225,-0.00008879,0.00126887,
 -0.00013040,-0.00040421,0.00007769,0.00140827,-0.00004452,0.00024193,-
 0.00160674,-0.00068801,-0.00024491,0.00949852,-0.00136744,0.02270716,0
 .00151670,-0.00028791,-0.00003807,-0.00004902,0.00002112,0.00004197,0.
 00059932,0.00103095,0.00033214,-0.01062689,-0.00075719,-0.01684391,-0.
 10087038,0.00445882,-0.10975355,-0.00010049,-0.00011061,0.00032098,0.0
 0051525,0.00038753,0.00018803,-0.00002992,-0.00002167,0.00005607,-0.00
 010594,0.00006202,-0.00000982,0.00008459,0.00037106,-0.00029527,-0.003
 12990,-0.00033994,0.00365845,0.00015487,-0.00032288,-0.00024583,-0.000
 16952,0.00012400,-0.00027035,-0.00015009,-0.00002762,-0.00000396,0.000
 03106,0.00002547,-0.00001922,-0.00004278,0.00014132,0.00030968,0.00058
 842,-0.00044263,0.00023920,-0.00163414,-0.00310298,-0.00016752,0.00033
 425,0.00044815,0.00005551,0.11679173,0.00295170,-0.00326139,-0.0035905
 9,0.01335428,0.00282401,0.02742293,-0.00148147,-0.00054831,-0.00334283
 ,0.00036170,0.00018882,-0.00009246,0.00042632,0.00008595,0.00104277,-0
 .00052628,-0.00020373,-0.00016598,-0.00075456,0.00067288,0.00081598,-0
 .00055423,0.00013436,-0.00099249,0.00006415,-0.00020727,0.00005587,-0.
 00043341,0.00166790,-0.00106916,-0.01468635,-0.00056364,-0.02477291,0.
 00665155,-0.05132299,0.01166192,0.00006230,0.00043764,-0.00033742,-0.0
 0024233,-0.00170102,0.00014924,0.00003176,-0.00003562,-0.00001137,-0.0
 0001185,0.00010857,-0.00006722,-0.00001677,0.00004994,-0.00011760,-0.0
 0021140,0.00059589,-0.00019326,-0.00001804,-0.00002403,0.00009611,0.00
 016591,0.00020697,-0.00002422,-0.00001747,0.00001649,0.00023578,0.0000
 7604,-0.00002721,-0.00003524,0.00001611,0.00029074,0.00040197,0.000449
 84,-0.00040904,0.00059674,-0.00311769,-0.00468433,-0.00059218,0.000631
 73,0.00114005,0.00054357,-0.00317155,0.05456838,0.00091594,0.00029723,
 -0.00094821,-0.00127853,0.00049430,0.00025800,-0.00058011,-0.00010625,
 -0.00045713,0.00035639,0.00014091,-0.00013390,-0.00170162,-0.00072300,
 -0.00120013,-0.00030746,-0.00035374,0.00161613,-0.00901066,0.00214659,
 -0.02668095,-0.00160470,0.00060348,0.00100292,0.00014808,-0.00022259,-
 0.00001604,0.00006717,0.00034281,0.00006453,-0.00144300,-0.00026629,-0
 .00171506,-0.10450184,0.00653223,-0.23019881,0.00003826,0.00015432,0.0
 0020612,0.00018414,-0.00005597,0.00048021,-0.00002267,0.00007711,0.000
 02577,0.00004373,-0.00013867,0.00014282,0.00003726,-0.00009296,0.00018
 370,0.00405038,0.00018614,-0.00300270,0.00010419,0.00027390,0.00041030
 ,0.00069351,-0.00071283,0.00038660,0.00001418,0.00018022,0.00008488,0.
 00000021,-0.00006051,-0.00001368,0.00013938,-0.00010243,0.00019818,0.0
 0027554,-0.00050803,0.00012863,-0.00010298,-0.00021282,0.00110885,-0.0
 0006910,-0.00025519,0.00081220,0.11355433,-0.00761794,0.25725677\\0.00
 002671,0.00000726,-0.00001593,-0.00004135,-0.00001209,-0.00001530,-0.0
 0001973,-0.00001145,0.00004713,0.00004854,-0.00003219,-0.00006087,0.00
 005163,0.00001636,0.00006767,-0.00005844,0.00005002,-0.00001807,0.0000
 0465,0.00004629,0.00000295,0.00001876,-0.00002161,-0.00000677,-0.00001
 532,0.00002121,0.00000791,0.00001237,-0.00002157,-0.00002900,-0.000018
 38,0.00002361,0.00000891,-0.00000780,-0.00002540,0.00001876,0.00000797
 ,-0.00000866,-0.00000515,0.00001895,-0.00000578,0.00001217,-0.00000074
 ,-0.00000158,-0.00000164,-0.00001175,-0.00000478,0.00000263,-0.0000016
 3,0.00001027,-0.00001796,-0.00001068,-0.00000806,0.00001458,0.00000122
 ,-0.00000792,-0.00000207,-0.00001724,-0.00001536,-0.00002110,-0.000002
 78,-0.00000543,0.00000323,-0.00000379,-0.00000084,-0.00000506,0.000001
 36,-0.00000817,0.00000042,-0.00000231,0.00000324,-0.00000207,0.0000055
 9,0.00000425,0.00000823,-0.00000355,-0.00000452,0.00000752,0.00001774,
 0.00001290,-0.00000112\\\@


 Boundary, n.  In political geography, an imaginary
 line between two nations, separating the imaginary
 rights of one from the imaginary rights of another.
                               -- Ambrose Bierce
 Job cpu time:       0 days  0 hours  2 minutes 41.0 seconds.
 Elapsed time:       0 days  0 hours  2 minutes 45.4 seconds.
 File lengths (MBytes):  RWF=    157 Int=      0 D2E=      0 Chk=     16 Scr=      1
 Normal termination of Gaussian 16 at Sat Feb 24 02:43:37 2024.
