 Entering Gaussian System, Link 0=g16
 Input=/Volumes/SSD-PMU3/b3lyp_6-31gd_freq/POSWICCRDBKBMH-ZETCQYMHSA-N_calculating/gaussianinput0.gjf
 Output=/Volumes/SSD-PMU3/b3lyp_6-31gd_freq/POSWICCRDBKBMH-ZETCQYMHSA-N_calculating/gaussianinput0.log
 Initial command:
 /Applications/g16/l1.exe "/Users/macmini_m1_2022/PycharmProjects/sphere_model/sphere_model_lib/Gau-55734.inp" -scrdir="/Users/macmini_m1_2022/PycharmProjects/sphere_model/sphere_model_lib/"
 Entering Link 1 = /Applications/g16/l1.exe PID=     55735.
  
 Copyright (c) 1988,1990,1992,1993,1995,1998,2003,2009,2016,
            Gaussian, Inc.  All Rights Reserved.
  
 This is part of the Gaussian(R) 16 program.  It is based on
 the Gaussian(R) 09 system (copyright 2009, Gaussian, Inc.),
 the Gaussian(R) 03 system (copyright 2003, Gaussian, Inc.),
 the Gaussian(R) 98 system (copyright 1998, Gaussian, Inc.),
 the Gaussian(R) 94 system (copyright 1995, Gaussian, Inc.),
 the Gaussian 92(TM) system (copyright 1992, Gaussian, Inc.),
 the Gaussian 90(TM) system (copyright 1990, Gaussian, Inc.),
 the Gaussian 88(TM) system (copyright 1988, Gaussian, Inc.),
 the Gaussian 86(TM) system (copyright 1986, Carnegie Mellon
 University), and the Gaussian 82(TM) system (copyright 1983,
 Carnegie Mellon University). Gaussian is a federally registered
 trademark of Gaussian, Inc.
  
 This software contains proprietary and confidential information,
 including trade secrets, belonging to Gaussian, Inc.
  
 This software is provided under written license and may be
 used, copied, transmitted, or stored only in accord with that
 written license.
  
 The following legend is applicable only to US Government
 contracts under FAR:
  
                    RESTRICTED RIGHTS LEGEND
  
 Use, reproduction and disclosure by the US Government is
 subject to restrictions as set forth in subparagraphs (a)
 and (c) of the Commercial Computer Software - Restricted
 Rights clause in FAR 52.227-19.
  
 Gaussian, Inc.
 340 Quinnipiac St., Bldg. 40, Wallingford CT 06492
  
  
 ---------------------------------------------------------------
 Warning -- This program may not be used in any manner that
 competes with the business of Gaussian, Inc. or will provide
 assistance to any competitor of Gaussian, Inc.  The licensee
 of this program is prohibited from giving any competitor of
 Gaussian, Inc. access to this program.  By using this program,
 the user acknowledges that Gaussian, Inc. is engaged in the
 business of creating and licensing software in the field of
 computational chemistry and represents and warrants to the
 licensee that it is not a competitor of Gaussian, Inc. and that
 it will not use this program in any manner prohibited above.
 ---------------------------------------------------------------
  

 Cite this work as:
 Gaussian 16, Revision A.03,
 M. J. Frisch, G. W. Trucks, H. B. Schlegel, G. E. Scuseria, 
 M. A. Robb, J. R. Cheeseman, G. Scalmani, V. Barone, 
 G. A. Petersson, H. Nakatsuji, X. Li, M. Caricato, A. V. Marenich, 
 J. Bloino, B. G. Janesko, R. Gomperts, B. Mennucci, H. P. Hratchian, 
 J. V. Ortiz, A. F. Izmaylov, J. L. Sonnenberg, D. Williams-Young, 
 F. Ding, F. Lipparini, F. Egidi, J. Goings, B. Peng, A. Petrone, 
 T. Henderson, D. Ranasinghe, V. G. Zakrzewski, J. Gao, N. Rega, 
 G. Zheng, W. Liang, M. Hada, M. Ehara, K. Toyota, R. Fukuda, 
 J. Hasegawa, M. Ishida, T. Nakajima, Y. Honda, O. Kitao, H. Nakai, 
 T. Vreven, K. Throssell, J. A. Montgomery, Jr., J. E. Peralta, 
 F. Ogliaro, M. J. Bearpark, J. J. Heyd, E. N. Brothers, K. N. Kudin, 
 V. N. Staroverov, T. A. Keith, R. Kobayashi, J. Normand, 
 K. Raghavachari, A. P. Rendell, J. C. Burant, S. S. Iyengar, 
 J. Tomasi, M. Cossi, J. M. Millam, M. Klene, C. Adamo, R. Cammi, 
 J. W. Ochterski, R. L. Martin, K. Morokuma, O. Farkas, 
 J. B. Foresman, and D. J. Fox, Gaussian, Inc., Wallingford CT, 2016.
 
 ******************************************
 Gaussian 16:  EM64M-G16RevA.03 25-Dec-2016
                21-Feb-2024 
 ******************************************
 %nprocshared=8
 Will use up to    8 processors via shared memory.
 %mem=4GB
 %chk= 0.chk
 ---------------------
 # freq b3lyp/6-31g(d)
 ---------------------
 1/10=4,30=1,38=1/1,3;
 2/12=2,17=6,18=5,40=1/2;
 3/5=1,6=6,7=1,11=2,25=1,30=1,71=2,74=-5,140=1/1,2,3;
 4//1;
 5/5=2,38=5,98=1/2;
 8/6=4,10=90,11=11/1;
 11/6=1,8=1,9=11,15=111,16=1/1,2,10;
 10/6=1/2;
 6/7=2,8=2,9=2,10=2,28=1/1;
 7/8=1,10=1,25=1/1,2,3,16;
 1/10=4,30=1/3;
 99//99;
 ---------
 good luck
 ---------
 Symbolic Z-matrix:
 Charge =  0 Multiplicity = 1
 O                     1.21699   0.        0. 
 C                     0.        0.        0. 
 C                    -0.82123  -1.28189  -0.0039 
 C                    -1.87364  -1.30972  -1.14689 
 C                    -1.15697  -1.44596  -2.50605 
 C                    -2.80219  -2.52077  -0.95083 
 C                    -2.7112   -0.00799  -1.08713 
 C                    -1.88545   1.29074  -1.12351 
 C                    -2.78079   2.53174  -1.02409 
 C                    -0.81932   1.28293  -0.0039 
 H                    -1.34804  -1.34452   0.96088 
 H                    -0.13867  -2.13562  -0.06751 
 H                    -1.87929  -1.42182  -3.33114 
 H                    -0.61616  -2.39799  -2.56204 
 H                    -0.42536  -0.64884  -2.6766 
 H                    -3.54695  -2.57773  -1.75433 
 H                    -2.2336   -3.4586   -0.95554 
 H                    -3.34138  -2.45928   0.00247 
 H                    -3.43285  -0.00547  -1.91576 
 H                    -3.30729  -0.0164   -0.16101 
 H                    -1.35632   1.33894  -2.08548 
 H                    -3.51122   2.5586   -1.84143 
 H                    -3.33711   2.54058  -0.07784 
 H                    -2.18893   3.45323  -1.0722 
 H                    -0.1379    2.13552  -0.08536 
 H                    -1.33361   1.35663   0.96798 
 

 GradGradGradGradGradGradGradGradGradGradGradGradGradGradGradGradGradGrad
 Berny optimization.
 Initialization pass.
 Trust Radius=3.00D-01 FncErr=1.00D-07 GrdErr=1.00D-07 EigMax=2.50D+02 EigMin=1.00D-04
 Number of steps in this run=      2 maximum allowed number of steps=      2.
 GradGradGradGradGradGradGradGradGradGradGradGradGradGradGradGradGradGrad

                          Input orientation:                          
 ---------------------------------------------------------------------
 Center     Atomic      Atomic             Coordinates (Angstroms)
 Number     Number       Type             X           Y           Z
 ---------------------------------------------------------------------
      1          8           0        1.216987    0.000000    0.000000
      2          6           0        0.000000    0.000000    0.000000
      3          6           0       -0.821228   -1.281888   -0.003896
      4          6           0       -1.873644   -1.309724   -1.146894
      5          6           0       -1.156971   -1.445961   -2.506051
      6          6           0       -2.802186   -2.520771   -0.950829
      7          6           0       -2.711204   -0.007987   -1.087132
      8          6           0       -1.885451    1.290741   -1.123508
      9          6           0       -2.780791    2.531736   -1.024093
     10          6           0       -0.819317    1.282932   -0.003896
     11          1           0       -1.348036   -1.344522    0.960878
     12          1           0       -0.138672   -2.135618   -0.067505
     13          1           0       -1.879287   -1.421822   -3.331137
     14          1           0       -0.616160   -2.397992   -2.562041
     15          1           0       -0.425357   -0.648835   -2.676599
     16          1           0       -3.546947   -2.577729   -1.754332
     17          1           0       -2.233599   -3.458595   -0.955542
     18          1           0       -3.341378   -2.459277    0.002469
     19          1           0       -3.432854   -0.005469   -1.915756
     20          1           0       -3.307291   -0.016398   -0.161006
     21          1           0       -1.356323    1.338944   -2.085482
     22          1           0       -3.511216    2.558601   -1.841426
     23          1           0       -3.337108    2.540576   -0.077843
     24          1           0       -2.188933    3.453231   -1.072202
     25          1           0       -0.137899    2.135520   -0.085356
     26          1           0       -1.333605    1.356634    0.967980
 ---------------------------------------------------------------------
                    Distance matrix (angstroms):
                    1          2          3          4          5
     1  O    0.000000
     2  C    1.216987   0.000000
     3  C    2.407815   1.522389   0.000000
     4  C    3.547216   2.557594   1.553962   0.000000
     5  C    3.742562   3.116035   2.529906   1.542559   0.000000
     6  C    4.838607   3.887237   2.521053   1.538592   2.506125
     7  C    4.075856   2.921052   2.523536   1.549063   2.548870
     8  C    3.543078   2.546214   3.000754   2.600597   3.151451
     9  C    4.841558   3.897596   4.407314   3.949027   4.544784
    10  C    2.406754   1.522238   2.564821   3.023229   3.717748
    11  H    3.051290   2.132657   1.101017   2.172597   3.473671
    12  H    2.530461   2.141180   1.094890   2.203930   2.731129
    13  H    4.764973   4.080413   3.494224   2.187125   1.096855
    14  H    3.959147   3.562874   2.798544   2.183629   1.096346
    15  H    3.206628   2.786772   2.775034   2.207783   1.095334
    16  H    5.693631   4.722626   3.488950   2.185580   2.749175
    17  H    4.978100   4.226571   2.763779   2.187197   2.759330
    18  H    5.179454   4.148838   2.781626   2.190149   3.477228
    19  H    5.029033   3.931239   3.479230   2.173331   2.757374
    20  H    4.527172   3.311248   2.794040   2.167951   3.488089
    21  H    3.572664   2.825176   3.389408   2.857273   2.823529
    22  H    5.682710   4.718678   5.036061   4.257694   4.692623
    23  H    5.215397   4.194863   4.576718   4.255515   5.151861
    24  H    4.967365   4.226801   5.043139   4.773963   5.207970
    25  H    2.530503   2.141669   3.486008   4.001172   4.441315
    26  H    3.046795   2.134466   2.858124   3.445838   4.467061
                    6          7          8          9         10
     6  C    0.000000
     7  C    2.518122   0.000000
     8  C    3.924009   1.539443   0.000000
     9  C    5.053083   2.541458   1.533488   0.000000
    10  C    4.392790   2.533596   1.546038   2.539231   0.000000
    11  H    2.674460   2.799803   3.402659   4.584569   2.848482
    12  H    2.832474   3.490612   3.988272   5.447940   3.486231
    13  H    2.779442   2.779672   3.497379   4.665381   4.416986
    14  H    2.718417   3.503811   4.157791   5.599387   4.487157
    15  H    3.483065   2.856954   2.882000   4.288925   3.321185
    16  H    1.097055   2.783379   4.257178   5.217938   5.040704
    17  H    1.096735   3.485989   4.765041   6.015662   5.038641
    18  H    1.096944   2.755571   4.177342   5.126236   4.512755
    19  H    2.766870   1.098819   2.168473   2.767247   3.485077
    20  H    2.674105   1.101408   2.157928   2.741370   2.811220
    21  H    4.274969   2.155604   1.098951   2.139722   2.150468
    22  H    5.205373   2.792195   2.183114   1.096483   3.500024
    23  H    5.163863   2.811689   2.182387   1.097705   2.815388
    24  H    6.006622   3.500431   2.184284   1.096250   2.779806
    25  H    5.434015   3.495723   2.201215   2.832506   1.094474
    26  H    4.568679   2.825501   2.164070   2.728290   1.102029
                   11         12         13         14         15
    11  H    0.000000
    12  H    1.773687   0.000000
    13  H    4.325459   3.767033   0.000000
    14  H    3.749187   2.553340   1.771978   0.000000
    15  H    3.816616   3.016634   1.771960   1.763258   0.000000
    16  H    3.705182   3.828470   2.569732   3.045359   3.783587
    17  H    2.987673   2.632033   3.149196   2.514324   3.758527
    18  H    2.476820   3.219779   3.785096   3.742630   4.354111
    19  H    3.796650   4.336496   2.534350   3.751748   3.168255
    20  H    2.619393   3.813133   3.750219   4.321938   3.877335
    21  H    4.059725   4.198510   3.073593   3.839224   2.273188
    22  H    5.269405   6.046201   4.552603   5.785192   4.528541
    23  H    4.486573   5.665412   5.330081   6.161514   5.040255
    24  H    5.278158   6.037236   5.381896   6.239395   4.744601
    25  H    3.830108   4.271175   5.120762   5.188009   3.814421
    26  H    2.701204   3.833526   5.147814   5.203171   4.257908
                   16         17         18         19         20
    16  H    0.000000
    17  H    1.771687   0.000000
    18  H    1.772749   1.773019   0.000000
    19  H    2.579844   3.779458   3.115947   0.000000
    20  H    3.025977   3.692265   2.448580   1.759271   0.000000
    21  H    4.499869   5.006272   4.767228   2.479563   3.057260
    22  H    5.137193   6.214800   5.348635   2.566344   3.081561
    23  H    5.389962   6.162641   5.000500   3.141566   2.558500
    24  H    6.219484   6.912955   6.118889   3.771144   3.757569
    25  H    6.051595   6.036829   5.601977   4.334850   3.831647
    26  H    5.271535   5.262733   4.418658   3.818128   2.656174
                   21         22         23         24         25
    21  H    0.000000
    22  H    2.488110   0.000000
    23  H    3.065623   1.772248   0.000000
    24  H    2.488008   1.772146   1.772003   0.000000
    25  H    2.473781   3.826493   3.224758   2.630013   0.000000
    26  H    3.053598   3.752263   2.551370   3.047892   1.773667
                   26
    26  H    0.000000
 Stoichiometry    C9H16O
 Framework group  C1[X(C9H16O)]
 Deg. of freedom    72
 Full point group                 C1      NOp   1
 Largest Abelian subgroup         C1      NOp   1
 Largest concise Abelian subgroup C1      NOp   1
                         Standard orientation:                         
 ---------------------------------------------------------------------
 Center     Atomic      Atomic             Coordinates (Angstroms)
 Number     Number       Type             X           Y           Z
 ---------------------------------------------------------------------
      1          8           0        0.346842    2.741241    0.245088
      2          6           0        0.313063    1.610755   -0.204266
      3          6           0       -0.977031    0.950646   -0.670719
      4          6           0       -1.206205   -0.437615   -0.011166
      5          6           0       -1.526009   -0.251811    1.486395
      6          6           0       -2.399106   -1.130930   -0.692025
      7          6           0        0.065892   -1.299820   -0.206019
      8          6           0        1.366677   -0.651424    0.301354
      9          6           0        2.583130   -1.548043    0.040774
     10          6           0        1.557480    0.744027   -0.336253
     11          1           0       -0.907979    0.814898   -1.761152
     12          1           0       -1.811308    1.631074   -0.471260
     13          1           0       -1.646694   -1.222811    1.982060
     14          1           0       -2.460208    0.307687    1.613715
     15          1           0       -0.743746    0.301423    2.017198
     16          1           0       -2.597294   -2.108394   -0.235061
     17          1           0       -3.310758   -0.528261   -0.599785
     18          1           0       -2.209471   -1.292412   -1.760318
     19          1           0       -0.076674   -2.269723    0.290333
     20          1           0        0.180771   -1.518290   -1.279413
     21          1           0        1.283851   -0.511338    1.388188
     22          1           0        2.466083   -2.523996    0.526665
     23          1           0        2.719196   -1.723701   -1.034208
     24          1           0        3.502885   -1.090505    0.423492
     25          1           0        2.406597    1.278310    0.101255
     26          1           0        1.762673    0.611398   -1.410857
 ---------------------------------------------------------------------
 Rotational constants (GHZ):           1.4897407           1.2612326           0.8337650
 Standard basis: 6-31G(d) (6D, 7F)
 There are   182 symmetry adapted cartesian basis functions of A   symmetry.
 There are   182 symmetry adapted basis functions of A   symmetry.
   182 basis functions,   344 primitive gaussians,   182 cartesian basis functions
    39 alpha electrons       39 beta electrons
       nuclear repulsion energy       572.0906478866 Hartrees.
 NAtoms=   26 NActive=   26 NUniq=   26 SFac= 1.00D+00 NAtFMM=   60 NAOKFM=F Big=F
 Integral buffers will be    131072 words long.
 Raffenetti 2 integral format.
 Two-electron integral symmetry is turned on.
 One-electron integrals computed using PRISM.
 NBasis=   182 RedAO= T EigKep=  2.81D-03  NBF=   182
 NBsUse=   182 1.00D-06 EigRej= -1.00D+00 NBFU=   182
 ExpMin= 1.61D-01 ExpMax= 5.48D+03 ExpMxC= 8.25D+02 IAcc=3 IRadAn=         5 AccDes= 0.00D+00
 Harris functional with IExCor=  402 and IRadAn=       5 diagonalized for initial guess.
 HarFok:  IExCor=  402 AccDes= 0.00D+00 IRadAn=         5 IDoV= 1 UseB2=F ITyADJ=14
 ICtDFT=  3500011 ScaDFX=  1.000000  1.000000  1.000000  1.000000
 FoFCou: FMM=F IPFlag=           0 FMFlag=      100000 FMFlg1=           0
         NFxFlg=           0 DoJE=T BraDBF=F KetDBF=T FulRan=T
         wScrn=  0.000000 ICntrl=       500 IOpCl=  0 I1Cent=   200000004 NGrid=           0
         NMat0=    1 NMatS0=      1 NMatT0=    0 NMatD0=    1 NMtDS0=    0 NMtDT0=    0
 Petite list used in FoFCou.
 Requested convergence on RMS density matrix=1.00D-08 within 128 cycles.
 Requested convergence on MAX density matrix=1.00D-06.
 Requested convergence on             energy=1.00D-06.
 No special actions if energy rises.
 Integral accuracy reduced to 1.0D-05 until final iterations.
 Initial convergence to 1.0D-05 achieved.  Increase integral accuracy.
 SCF Done:  E(RB3LYP) =  -427.833832022     A.U. after   14 cycles
            NFock= 14  Conv=0.27D-08     -V/T= 2.0098
 DoSCS=F DFT=T ScalE2(SS,OS)=  1.000000  1.000000
 Range of M.O.s used for correlation:     1   182
 NBasis=   182 NAE=    39 NBE=    39 NFC=     0 NFV=     0
 NROrb=    182 NOA=    39 NOB=    39 NVA=   143 NVB=   143
 Symmetrizing basis deriv contribution to polar:
 IMax=3 JMax=2 DiffMx= 0.00D+00
 G2DrvN: will do    27 centers at a time, making    1 passes.
 Calling FoFCou, ICntrl=  3107 FMM=F I1Cent=   0 AccDes= 0.00D+00.
 End of G2Drv F.D. properties file   721 does not exist.
 End of G2Drv F.D. properties file   722 does not exist.
 End of G2Drv F.D. properties file   788 does not exist.
          IDoAtm=11111111111111111111111111
          Differentiating once with respect to electric field.
                with respect to dipole field.
          Differentiating once with respect to nuclear coordinates.
 Keep R1 ints in memory in canonical form, NReq=146744168.
          There are    81 degrees of freedom in the 1st order CPHF.  IDoFFX=6 NUNeed=     3.
     78 vectors produced by pass  0 Test12= 6.89D-15 1.23D-09 XBig12= 7.07D+01 2.89D+00.
 AX will form    78 AO Fock derivatives at one time.
     78 vectors produced by pass  1 Test12= 6.89D-15 1.23D-09 XBig12= 1.06D+01 1.01D+00.
     78 vectors produced by pass  2 Test12= 6.89D-15 1.23D-09 XBig12= 9.32D-02 4.00D-02.
     78 vectors produced by pass  3 Test12= 6.89D-15 1.23D-09 XBig12= 2.60D-04 1.91D-03.
     78 vectors produced by pass  4 Test12= 6.89D-15 1.23D-09 XBig12= 2.71D-07 5.40D-05.
     34 vectors produced by pass  5 Test12= 6.89D-15 1.23D-09 XBig12= 1.66D-10 1.20D-06.
      3 vectors produced by pass  6 Test12= 6.89D-15 1.23D-09 XBig12= 1.02D-13 2.74D-08.
 InvSVY:  IOpt=1 It=  1 EMax= 7.11D-15
 Solved reduced A of dimension   427 with    81 vectors.
 Isotropic polarizability for W=    0.000000       93.39 Bohr**3.
 End of Minotr F.D. properties file   721 does not exist.
 End of Minotr F.D. properties file   722 does not exist.
 End of Minotr F.D. properties file   788 does not exist.

 **********************************************************************

            Population analysis using the SCF density.

 **********************************************************************

 Orbital symmetries:
       Occupied  (A) (A) (A) (A) (A) (A) (A) (A) (A) (A) (A) (A)
                 (A) (A) (A) (A) (A) (A) (A) (A) (A) (A) (A) (A)
                 (A) (A) (A) (A) (A) (A) (A) (A) (A) (A) (A) (A)
                 (A) (A) (A)
       Virtual   (A) (A) (A) (A) (A) (A) (A) (A) (A) (A) (A) (A)
                 (A) (A) (A) (A) (A) (A) (A) (A) (A) (A) (A) (A)
                 (A) (A) (A) (A) (A) (A) (A) (A) (A) (A) (A) (A)
                 (A) (A) (A) (A) (A) (A) (A) (A) (A) (A) (A) (A)
                 (A) (A) (A) (A) (A) (A) (A) (A) (A) (A) (A) (A)
                 (A) (A) (A) (A) (A) (A) (A) (A) (A) (A) (A) (A)
                 (A) (A) (A) (A) (A) (A) (A) (A) (A) (A) (A) (A)
                 (A) (A) (A) (A) (A) (A) (A) (A) (A) (A) (A) (A)
                 (A) (A) (A) (A) (A) (A) (A) (A) (A) (A) (A) (A)
                 (A) (A) (A) (A) (A) (A) (A) (A) (A) (A) (A) (A)
                 (A) (A) (A) (A) (A) (A) (A) (A) (A) (A) (A) (A)
                 (A) (A) (A) (A) (A) (A) (A) (A) (A) (A) (A)
 The electronic state is 1-A.
 Alpha  occ. eigenvalues --  -19.13098 -10.26683 -10.20742 -10.19945 -10.18757
 Alpha  occ. eigenvalues --  -10.18626 -10.18611 -10.18088 -10.17892 -10.17744
 Alpha  occ. eigenvalues --   -1.02957  -0.84731  -0.79291  -0.73668  -0.69004
 Alpha  occ. eigenvalues --   -0.68759  -0.68424  -0.58268  -0.55550  -0.52310
 Alpha  occ. eigenvalues --   -0.47732  -0.46293  -0.45731  -0.44486  -0.43493
 Alpha  occ. eigenvalues --   -0.41478  -0.40731  -0.39606  -0.38279  -0.38029
 Alpha  occ. eigenvalues --   -0.37594  -0.36807  -0.35640  -0.35365  -0.33564
 Alpha  occ. eigenvalues --   -0.31967  -0.31442  -0.30996  -0.23313
 Alpha virt. eigenvalues --   -0.01038   0.07285   0.09974   0.10633   0.12369
 Alpha virt. eigenvalues --    0.13245   0.14034   0.14527   0.15364   0.15817
 Alpha virt. eigenvalues --    0.16276   0.17218   0.17813   0.18334   0.19334
 Alpha virt. eigenvalues --    0.20897   0.21207   0.22174   0.22910   0.24072
 Alpha virt. eigenvalues --    0.24619   0.26211   0.26679   0.26964   0.28313
 Alpha virt. eigenvalues --    0.32926   0.36156   0.48681   0.50562   0.51140
 Alpha virt. eigenvalues --    0.51762   0.53103   0.54772   0.55849   0.57724
 Alpha virt. eigenvalues --    0.61181   0.61513   0.64580   0.66046   0.67263
 Alpha virt. eigenvalues --    0.68473   0.69307   0.70486   0.73123   0.74297
 Alpha virt. eigenvalues --    0.76779   0.77416   0.78766   0.81502   0.83192
 Alpha virt. eigenvalues --    0.85151   0.86246   0.87050   0.87378   0.88344
 Alpha virt. eigenvalues --    0.89415   0.90436   0.90918   0.91542   0.91981
 Alpha virt. eigenvalues --    0.92376   0.93310   0.94235   0.95278   0.96625
 Alpha virt. eigenvalues --    0.97061   0.98428   0.99590   1.02290   1.06219
 Alpha virt. eigenvalues --    1.07227   1.11817   1.13728   1.19479   1.21745
 Alpha virt. eigenvalues --    1.31706   1.33799   1.38027   1.46510   1.46597
 Alpha virt. eigenvalues --    1.48514   1.50422   1.53941   1.60198   1.64861
 Alpha virt. eigenvalues --    1.67124   1.71372   1.74597   1.75534   1.77555
 Alpha virt. eigenvalues --    1.78796   1.80574   1.83440   1.85954   1.86801
 Alpha virt. eigenvalues --    1.90705   1.91086   1.93220   1.94669   1.96489
 Alpha virt. eigenvalues --    1.99726   2.01493   2.01932   2.03772   2.06375
 Alpha virt. eigenvalues --    2.09297   2.10423   2.13456   2.16058   2.21251
 Alpha virt. eigenvalues --    2.21616   2.23285   2.24184   2.24664   2.25696
 Alpha virt. eigenvalues --    2.28733   2.32925   2.40675   2.44695   2.47042
 Alpha virt. eigenvalues --    2.51000   2.52960   2.56597   2.58467   2.61995
 Alpha virt. eigenvalues --    2.68490   2.72425   2.73812   2.76665   2.81985
 Alpha virt. eigenvalues --    2.82500   2.99055   3.02281   4.02977   4.14398
 Alpha virt. eigenvalues --    4.22153   4.24395   4.30644   4.33991   4.41016
 Alpha virt. eigenvalues --    4.58067   4.64415   4.71652
          Condensed to atoms (all electrons):
               1          2          3          4          5          6
     1  O    8.008861   0.583511  -0.077593   0.000290   0.000231  -0.000065
     2  C    0.583511   4.472388   0.320143  -0.019043  -0.001334   0.002701
     3  C   -0.077593   0.320143   5.380695   0.352795  -0.067554  -0.049847
     4  C    0.000290  -0.019043   0.352795   4.776297   0.384306   0.375656
     5  C    0.000231  -0.001334  -0.067554   0.384306   5.166716  -0.065304
     6  C   -0.000065   0.002701  -0.049847   0.375656  -0.065304   5.162763
     7  C    0.000069  -0.013508  -0.056000   0.382060  -0.058466  -0.051607
     8  C    0.000758  -0.021292  -0.007291  -0.026880  -0.005090   0.004377
     9  C   -0.000056   0.002539  -0.000027   0.003954   0.000101  -0.000135
    10  C   -0.077787   0.323001  -0.132679  -0.005441  -0.001299   0.000035
    11  H    0.001720  -0.026263   0.338163  -0.030973   0.006477  -0.008496
    12  H    0.004438  -0.022758   0.338428  -0.026784  -0.005807  -0.004141
    13  H    0.000005   0.000085   0.005534  -0.029895   0.367680  -0.004242
    14  H    0.000014  -0.000297  -0.004327  -0.028489   0.367293  -0.005761
    15  H    0.000495   0.005511  -0.005954  -0.027684   0.366845   0.005559
    16  H    0.000001  -0.000084   0.005185  -0.028249  -0.004176   0.364856
    17  H   -0.000001   0.000025  -0.004549  -0.027639  -0.004641   0.364949
    18  H    0.000000   0.000048  -0.005703  -0.027658   0.005765   0.364460
    19  H    0.000001   0.000241   0.005665  -0.030592  -0.006751  -0.004021
    20  H    0.000000  -0.000522  -0.004804  -0.037813   0.006271  -0.006666
    21  H    0.000475  -0.001834   0.000284  -0.006588   0.003309   0.000011
    22  H    0.000001  -0.000079   0.000011   0.000030  -0.000010   0.000003
    23  H    0.000000   0.000018   0.000009  -0.000013   0.000002  -0.000006
    24  H   -0.000001   0.000024  -0.000005  -0.000125   0.000003   0.000002
    25  H    0.004694  -0.022388   0.006594   0.000037  -0.000050   0.000011
    26  H    0.001597  -0.026901   0.003189  -0.001434   0.000084  -0.000048
               7          8          9         10         11         12
     1  O    0.000069   0.000758  -0.000056  -0.077787   0.001720   0.004438
     2  C   -0.013508  -0.021292   0.002539   0.323001  -0.026263  -0.022758
     3  C   -0.056000  -0.007291  -0.000027  -0.132679   0.338163   0.338428
     4  C    0.382060  -0.026880   0.003954  -0.005441  -0.030973  -0.026784
     5  C   -0.058466  -0.005090   0.000101  -0.001299   0.006477  -0.005807
     6  C   -0.051607   0.004377  -0.000135   0.000035  -0.008496  -0.004141
     7  C    5.114505   0.375705  -0.042566  -0.048361  -0.003799   0.005110
     8  C    0.375705   4.906783   0.368229   0.347183  -0.001101  -0.000039
     9  C   -0.042566   0.368229   5.111463  -0.043375  -0.000026   0.000011
    10  C   -0.048361   0.347183  -0.043375   5.344332   0.002474   0.006707
    11  H   -0.003799  -0.001101  -0.000026   0.002474   0.593178  -0.027742
    12  H    0.005110  -0.000039   0.000011   0.006707  -0.027742   0.569472
    13  H   -0.005548  -0.000212  -0.000025   0.000079  -0.000176   0.000004
    14  H    0.005357   0.000091  -0.000000   0.000013  -0.000072   0.004063
    15  H   -0.004874   0.001577  -0.000047  -0.000142   0.000023  -0.000025
    16  H   -0.005224   0.000015   0.000001   0.000012   0.000072  -0.000043
    17  H    0.005266  -0.000144   0.000002  -0.000003  -0.000176   0.003578
    18  H   -0.005941   0.000014  -0.000004  -0.000014   0.004993  -0.000199
    19  H    0.356205  -0.032074  -0.003546   0.005259  -0.000080  -0.000157
    20  H    0.360940  -0.042640  -0.005313  -0.005849   0.004064  -0.000082
    21  H   -0.045579   0.380533  -0.045622  -0.050805   0.000048  -0.000035
    22  H   -0.004052  -0.028454   0.368452   0.004593  -0.000001  -0.000000
    23  H   -0.006424  -0.033505   0.372159  -0.006369  -0.000003  -0.000000
    24  H    0.004591  -0.028603   0.369393  -0.003074   0.000000  -0.000000
    25  H    0.004564  -0.026273  -0.003467   0.341063  -0.000123  -0.000182
    26  H   -0.004414  -0.036134  -0.007879   0.340069   0.001397  -0.000137
              13         14         15         16         17         18
     1  O    0.000005   0.000014   0.000495   0.000001  -0.000001   0.000000
     2  C    0.000085  -0.000297   0.005511  -0.000084   0.000025   0.000048
     3  C    0.005534  -0.004327  -0.005954   0.005185  -0.004549  -0.005703
     4  C   -0.029895  -0.028489  -0.027684  -0.028249  -0.027639  -0.027658
     5  C    0.367680   0.367293   0.366845  -0.004176  -0.004641   0.005765
     6  C   -0.004242  -0.005761   0.005559   0.364856   0.364949   0.364460
     7  C   -0.005548   0.005357  -0.004874  -0.005224   0.005266  -0.005941
     8  C   -0.000212   0.000091   0.001577   0.000015  -0.000144   0.000014
     9  C   -0.000025  -0.000000  -0.000047   0.000001   0.000002  -0.000004
    10  C    0.000079   0.000013  -0.000142   0.000012  -0.000003  -0.000014
    11  H   -0.000176  -0.000072   0.000023   0.000072  -0.000176   0.004993
    12  H    0.000004   0.004063  -0.000025  -0.000043   0.003578  -0.000199
    13  H    0.576475  -0.029713  -0.030162   0.003895  -0.000179  -0.000050
    14  H   -0.029713   0.569504  -0.029202  -0.000159   0.004469  -0.000013
    15  H   -0.030162  -0.029202   0.560385  -0.000055  -0.000051  -0.000189
    16  H    0.003895  -0.000159  -0.000055   0.577882  -0.030248  -0.029835
    17  H   -0.000179   0.004469  -0.000051  -0.030248   0.575388  -0.030052
    18  H   -0.000050  -0.000013  -0.000189  -0.029835  -0.030052   0.580258
    19  H    0.004713  -0.000036  -0.000199   0.004220  -0.000090  -0.000194
    20  H   -0.000001  -0.000170  -0.000064  -0.000155   0.000016   0.005488
    21  H    0.000383  -0.000091   0.003533  -0.000006   0.000003  -0.000001
    22  H   -0.000001  -0.000000   0.000002  -0.000002   0.000000   0.000000
    23  H    0.000001   0.000000   0.000000   0.000000   0.000000  -0.000000
    24  H    0.000000  -0.000000   0.000006   0.000000  -0.000000   0.000000
    25  H   -0.000002  -0.000001   0.000036  -0.000000  -0.000000  -0.000000
    26  H    0.000000   0.000001   0.000019  -0.000001   0.000001  -0.000002
              19         20         21         22         23         24
     1  O    0.000001   0.000000   0.000475   0.000001   0.000000  -0.000001
     2  C    0.000241  -0.000522  -0.001834  -0.000079   0.000018   0.000024
     3  C    0.005665  -0.004804   0.000284   0.000011   0.000009  -0.000005
     4  C   -0.030592  -0.037813  -0.006588   0.000030  -0.000013  -0.000125
     5  C   -0.006751   0.006271   0.003309  -0.000010   0.000002   0.000003
     6  C   -0.004021  -0.006666   0.000011   0.000003  -0.000006   0.000002
     7  C    0.356205   0.360940  -0.045579  -0.004052  -0.006424   0.004591
     8  C   -0.032074  -0.042640   0.380533  -0.028454  -0.033505  -0.028603
     9  C   -0.003546  -0.005313  -0.045622   0.368452   0.372159   0.369393
    10  C    0.005259  -0.005849  -0.050805   0.004593  -0.006369  -0.003074
    11  H   -0.000080   0.004064   0.000048  -0.000001  -0.000003   0.000000
    12  H   -0.000157  -0.000082  -0.000035  -0.000000  -0.000000  -0.000000
    13  H    0.004713  -0.000001   0.000383  -0.000001   0.000001   0.000000
    14  H   -0.000036  -0.000170  -0.000091  -0.000000   0.000000  -0.000000
    15  H   -0.000199  -0.000064   0.003533   0.000002   0.000000   0.000006
    16  H    0.004220  -0.000155  -0.000006  -0.000002   0.000000   0.000000
    17  H   -0.000090   0.000016   0.000003   0.000000   0.000000  -0.000000
    18  H   -0.000194   0.005488  -0.000001   0.000000  -0.000000   0.000000
    19  H    0.606640  -0.036078  -0.004446   0.004337  -0.000280  -0.000055
    20  H   -0.036078   0.623548   0.006341  -0.000232   0.005507  -0.000016
    21  H   -0.004446   0.006341   0.620316  -0.002836   0.005545  -0.003044
    22  H    0.004337  -0.000232  -0.002836   0.573689  -0.030652  -0.029654
    23  H   -0.000280   0.005507   0.005545  -0.030652   0.578838  -0.031086
    24  H   -0.000055  -0.000016  -0.003044  -0.029654  -0.031086   0.571061
    25  H   -0.000153  -0.000048  -0.004164  -0.000028  -0.000226   0.003516
    26  H   -0.000059   0.004947   0.006366   0.000053   0.005734  -0.000257
              25         26
     1  O    0.004694   0.001597
     2  C   -0.022388  -0.026901
     3  C    0.006594   0.003189
     4  C    0.000037  -0.001434
     5  C   -0.000050   0.000084
     6  C    0.000011  -0.000048
     7  C    0.004564  -0.004414
     8  C   -0.026273  -0.036134
     9  C   -0.003467  -0.007879
    10  C    0.341063   0.340069
    11  H   -0.000123   0.001397
    12  H   -0.000182  -0.000137
    13  H   -0.000002   0.000000
    14  H   -0.000001   0.000001
    15  H    0.000036   0.000019
    16  H   -0.000000  -0.000001
    17  H   -0.000000   0.000001
    18  H   -0.000000  -0.000002
    19  H   -0.000153  -0.000059
    20  H   -0.000048   0.004947
    21  H   -0.004164   0.006366
    22  H   -0.000028   0.000053
    23  H   -0.000226   0.005734
    24  H    0.003516  -0.000257
    25  H    0.565158  -0.027805
    26  H   -0.027805   0.594685
 Mulliken charges:
               1
     1  O   -0.451659
     2  C    0.446067
     3  C   -0.340361
     4  C    0.079878
     5  C   -0.454602
     6  C   -0.445044
     7  C   -0.258010
     8  C   -0.095532
     9  C   -0.444216
    10  C   -0.339624
    11  H    0.146420
    12  H    0.156320
    13  H    0.141350
    14  H    0.147523
    15  H    0.154656
    16  H    0.142099
    17  H    0.144074
    18  H    0.138828
    19  H    0.131530
    20  H    0.123330
    21  H    0.137904
    22  H    0.144830
    23  H    0.140753
    24  H    0.147323
    25  H    0.159235
    26  H    0.146927
 Sum of Mulliken charges =  -0.00000
 Mulliken charges with hydrogens summed into heavy atoms:
               1
     1  O   -0.451659
     2  C    0.446067
     3  C   -0.037622
     4  C    0.079878
     5  C   -0.011072
     6  C   -0.020043
     7  C   -0.003150
     8  C    0.042372
     9  C   -0.011311
    10  C   -0.033462
 APT charges:
               1
     1  O   -0.651712
     2  C    0.743662
     3  C   -0.094239
     4  C    0.149526
     5  C    0.033946
     6  C    0.061769
     7  C    0.060202
     8  C    0.140427
     9  C    0.083236
    10  C   -0.079126
    11  H   -0.013599
    12  H   -0.023691
    13  H   -0.021943
    14  H   -0.020685
    15  H   -0.012908
    16  H   -0.029388
    17  H   -0.028343
    18  H   -0.027015
    19  H   -0.045469
    20  H   -0.046594
    21  H   -0.057715
    22  H   -0.031187
    23  H   -0.026030
    24  H   -0.030942
    25  H   -0.024482
    26  H   -0.007702
 Sum of APT charges =  -0.00000
 APT charges with hydrogens summed into heavy atoms:
               1
     1  O   -0.651712
     2  C    0.743662
     3  C   -0.131529
     4  C    0.149526
     5  C   -0.021590
     6  C   -0.022977
     7  C   -0.031861
     8  C    0.082712
     9  C   -0.004923
    10  C   -0.111309
 Electronic spatial extent (au):  <R**2>=           1576.8736
 Charge=             -0.0000 electrons
 Dipole moment (field-independent basis, Debye):
    X=             -0.1461    Y=             -2.9298    Z=             -0.7962  Tot=              3.0396
 Quadrupole moment (field-independent basis, Debye-Ang):
   XX=            -61.1938   YY=            -73.4472   ZZ=            -61.7062
   XY=             -1.1908   XZ=             -0.2562   YZ=             -2.3491
 Traceless Quadrupole moment (field-independent basis, Debye-Ang):
   XX=              4.2553   YY=             -7.9981   ZZ=              3.7429
   XY=             -1.1908   XZ=             -0.2562   YZ=             -2.3491
 Octapole moment (field-independent basis, Debye-Ang**2):
  XXX=              2.1515  YYY=            -25.3565  ZZZ=             -1.8386  XYY=             -4.2287
  XXY=              6.7758  XXZ=              1.7023  XZZ=              1.9481  YZZ=              3.9041
  YYZ=             -3.1692  XYZ=             -0.2858
 Hexadecapole moment (field-independent basis, Debye-Ang**3):
 XXXX=          -1051.5476 YYYY=           -857.5622 ZZZZ=           -280.1755 XXXY=              2.4376
 XXXZ=              1.0146 YYYX=             -6.8543 YYYZ=            -17.7811 ZZZX=              0.9521
 ZZZY=              2.9120 XXYY=           -304.9844 XXZZ=           -225.1751 YYZZ=           -171.8947
 XXYZ=             -0.4362 YYXZ=             -2.7444 ZZXY=              1.1027
 N-N= 5.720906478866D+02 E-N=-2.136135766555D+03  KE= 4.236943029557D+02
  Exact polarizability: 101.043  -0.393  97.590   0.503   2.056  81.530
 Approx polarizability: 127.182   0.247 143.164   0.335   7.287 125.263
 Calling FoFJK, ICntrl=    100127 FMM=F ISym2X=0 I1Cent= 0 IOpClX= 0 NMat=1 NMatS=1 NMatT=0.
 Full mass-weighted force constant matrix:
 Low frequencies ---   -5.9721   -0.0004   -0.0002    0.0007    3.6697   11.9723
 Low frequencies ---   87.1012  111.8966  153.6707
 Diagonal vibrational polarizability:
        6.5544365       4.1575458      10.1141436
 Harmonic frequencies (cm**-1), IR intensities (KM/Mole), Raman scattering
 activities (A**4/AMU), depolarization ratios for plane and unpolarized
 incident light, reduced masses (AMU), force constants (mDyne/A),
 and normal coordinates:
                      1                      2                      3
                      A                      A                      A
 Frequencies --     87.0961               111.8935               153.6700
 Red. masses --      4.5600                 2.6464                 2.4870
 Frc consts  --      0.0204                 0.0195                 0.0346
 IR Inten    --      2.8703                 0.9902                 0.1536
  Atom  AN      X      Y      Z        X      Y      Z        X      Y      Z
     1   8    -0.09  -0.18   0.31    -0.11   0.04  -0.06    -0.03  -0.03   0.04
     2   6    -0.01  -0.05  -0.03    -0.03  -0.00   0.04    -0.02  -0.01  -0.03
     3   6     0.04  -0.04  -0.18     0.05  -0.05  -0.10    -0.02   0.01  -0.05
     4   6     0.01   0.03  -0.03     0.02   0.00  -0.02     0.01   0.00  -0.05
     5   6     0.00   0.23  -0.05     0.08   0.11  -0.02     0.19  -0.02  -0.01
     6   6     0.01  -0.03   0.05    -0.02  -0.00   0.06    -0.08   0.04   0.08
     7   6     0.00  -0.00   0.08    -0.00  -0.02  -0.03    -0.00   0.01  -0.18
     8   6     0.03   0.04  -0.03     0.00  -0.07   0.03    -0.05  -0.01  -0.03
     9   6     0.02   0.02  -0.03    -0.01  -0.04  -0.13    -0.00   0.00   0.19
    10   6     0.00  -0.00  -0.14     0.02   0.02   0.24    -0.01  -0.00  -0.01
    11   1     0.16  -0.16  -0.16     0.18  -0.12  -0.08    -0.05   0.03  -0.05
    12   1     0.02  -0.03  -0.32     0.01  -0.05  -0.24    -0.02   0.01  -0.01
    13   1    -0.04   0.30   0.07     0.07   0.14   0.05     0.41  -0.03   0.02
    14   1     0.02   0.28  -0.14     0.09   0.13  -0.02     0.12  -0.16   0.11
    15   1     0.01   0.27  -0.12     0.10   0.13  -0.08     0.17   0.11  -0.12
    16   1    -0.00   0.02   0.16    -0.03   0.03   0.13    -0.07   0.05   0.12
    17   1     0.01  -0.01  -0.02    -0.00   0.03   0.06    -0.04   0.07   0.17
    18   1     0.01  -0.15   0.06    -0.06  -0.08   0.07    -0.20   0.01   0.06
    19   1    -0.00   0.06   0.21    -0.03  -0.04  -0.07    -0.01  -0.05  -0.31
    20   1    -0.02  -0.15   0.11     0.01   0.03  -0.04     0.03   0.17  -0.21
    21   1     0.08   0.12  -0.04     0.02  -0.24   0.06    -0.20   0.00  -0.05
    22   1     0.04   0.05   0.05    -0.00  -0.12  -0.30    -0.09   0.01   0.18
    23   1    -0.04  -0.06  -0.02    -0.03   0.14  -0.17     0.20  -0.01   0.22
    24   1     0.03   0.04  -0.10     0.00  -0.11  -0.07    -0.08   0.01   0.36
    25   1     0.03   0.01  -0.21    -0.08   0.01   0.46    -0.03  -0.01   0.03
    26   1    -0.08  -0.07  -0.15     0.23   0.16   0.27     0.03   0.00  -0.01
                      4                      5                      6
                      A                      A                      A
 Frequencies --    223.5401               240.9102               244.8524
 Red. masses --      1.1529                 1.0850                 1.4565
 Frc consts  --      0.0339                 0.0371                 0.0514
 IR Inten    --      0.1157                 0.0766                 0.0522
  Atom  AN      X      Y      Z        X      Y      Z        X      Y      Z
     1   8     0.02   0.01   0.01     0.03  -0.01  -0.00     0.01   0.02   0.01
     2   6     0.00   0.01   0.01     0.00  -0.01  -0.00    -0.00   0.02   0.00
     3   6    -0.02   0.03   0.02    -0.01  -0.00   0.01    -0.02   0.03  -0.00
     4   6    -0.00   0.01  -0.00    -0.01  -0.00   0.01     0.00   0.02  -0.01
     5   6    -0.01   0.02  -0.00    -0.03   0.02   0.00     0.00   0.04  -0.01
     6   6     0.04  -0.06  -0.01    -0.01  -0.00   0.01     0.07  -0.11   0.02
     7   6     0.00   0.03  -0.00    -0.01  -0.01   0.01     0.00   0.05  -0.02
     8   6    -0.00   0.00   0.01    -0.00  -0.01  -0.00    -0.00   0.02  -0.00
     9   6    -0.04  -0.04  -0.02     0.03   0.04  -0.01    -0.08  -0.08   0.01
    10   6     0.00   0.00   0.01    -0.01  -0.02  -0.02     0.01   0.02  -0.01
    11   1    -0.06   0.06   0.01    -0.02   0.01   0.01    -0.03   0.05  -0.00
    12   1    -0.01   0.03   0.07    -0.00   0.00   0.02    -0.01   0.04   0.02
    13   1     0.47   0.03   0.12    -0.02   0.02   0.02    -0.03   0.05   0.00
    14   1    -0.27  -0.40  -0.02    -0.04   0.00  -0.03     0.03   0.08  -0.02
    15   1    -0.24   0.46  -0.12    -0.05   0.04   0.00     0.02   0.02  -0.01
    16   1    -0.05   0.04   0.15    -0.05   0.03   0.05     0.47  -0.31  -0.23
    17   1     0.06  -0.01  -0.23     0.01   0.03  -0.06    -0.10  -0.43   0.36
    18   1     0.17  -0.27   0.04     0.02  -0.07   0.02    -0.08   0.25  -0.06
    19   1    -0.01   0.01  -0.03    -0.01   0.00   0.04     0.00   0.04  -0.04
    20   1     0.01   0.06  -0.01    -0.02  -0.04   0.02     0.01   0.08  -0.02
    21   1     0.00  -0.00   0.01    -0.00  -0.01  -0.00    -0.00   0.02  -0.00
    22   1    -0.06  -0.03  -0.01    -0.16  -0.17  -0.47    -0.25  -0.11  -0.09
    23   1    -0.09  -0.05  -0.03     0.37   0.51  -0.04    -0.02  -0.01   0.00
    24   1    -0.00  -0.07  -0.07    -0.07  -0.17   0.49    -0.05  -0.24   0.12
    25   1     0.00   0.00  -0.00     0.01  -0.02  -0.06     0.01   0.03  -0.01
    26   1    -0.01  -0.01   0.01    -0.05  -0.04  -0.03     0.01   0.02  -0.01
                      7                      8                      9
                      A                      A                      A
 Frequencies --    274.5313               290.8483               317.0223
 Red. masses --      1.4324                 2.0205                 2.5337
 Frc consts  --      0.0636                 0.1007                 0.1500
 IR Inten    --      0.2214                 1.0973                 0.3497
  Atom  AN      X      Y      Z        X      Y      Z        X      Y      Z
     1   8     0.05  -0.02  -0.01    -0.12  -0.00  -0.01    -0.02   0.03  -0.01
     2   6     0.00  -0.03   0.01    -0.01   0.00  -0.04    -0.08   0.01   0.04
     3   6    -0.00  -0.00  -0.00     0.05  -0.05  -0.03    -0.08   0.05   0.05
     4   6    -0.02  -0.00  -0.01     0.03  -0.00   0.03     0.04  -0.00  -0.03
     5   6    -0.02   0.04  -0.01     0.05  -0.08   0.05     0.19   0.09  -0.01
     6   6    -0.04   0.03  -0.01     0.00   0.15  -0.06     0.10   0.02  -0.13
     7   6    -0.03  -0.05   0.01     0.02  -0.01   0.10    -0.01  -0.07   0.06
     8   6    -0.02  -0.05   0.02     0.03   0.04   0.01    -0.03  -0.07   0.05
     9   6     0.08   0.10  -0.02    -0.05  -0.07  -0.00    -0.00  -0.01   0.00
    10   6    -0.03  -0.05   0.03     0.03   0.04  -0.04    -0.14  -0.07  -0.00
    11   1     0.01   0.01  -0.00     0.10  -0.16  -0.02    -0.15   0.18   0.03
    12   1     0.00   0.00  -0.00     0.02  -0.05  -0.14    -0.11  -0.03   0.19
    13   1     0.24   0.06   0.09     0.34  -0.12   0.04     0.12   0.14   0.07
    14   1    -0.17  -0.19  -0.05    -0.08  -0.32   0.13     0.30   0.25   0.08
    15   1    -0.15   0.30  -0.09    -0.05   0.11   0.01     0.35   0.01  -0.15
    16   1     0.18  -0.14  -0.28    -0.02   0.04  -0.31     0.03   0.01  -0.19
    17   1    -0.11  -0.13   0.35     0.03   0.16   0.12     0.09   0.02  -0.27
    18   1    -0.21   0.39  -0.10    -0.04   0.42  -0.11     0.26   0.04  -0.11
    19   1    -0.06  -0.03   0.04     0.04   0.05   0.23    -0.09  -0.02   0.14
    20   1    -0.02  -0.08   0.02     0.01  -0.15   0.13     0.03  -0.18   0.08
    21   1    -0.02  -0.07   0.02     0.08   0.09   0.01     0.01  -0.07   0.05
    22   1     0.28   0.10   0.02    -0.22  -0.10  -0.10     0.04  -0.03  -0.01
    23   1     0.05   0.09  -0.02    -0.03   0.01  -0.01    -0.02   0.01  -0.00
    24   1     0.03   0.27  -0.09    -0.01  -0.24   0.09    -0.01   0.01  -0.01
    25   1    -0.02  -0.06   0.03     0.03   0.05  -0.07    -0.06  -0.07  -0.15
    26   1    -0.02  -0.06   0.03     0.00   0.01  -0.04    -0.29  -0.13  -0.02
                     10                     11                     12
                      A                      A                      A
 Frequencies --    361.2205               390.7420               416.6373
 Red. masses --      2.8434                 2.9509                 2.5045
 Frc consts  --      0.2186                 0.2654                 0.2561
 IR Inten    --      0.7917                 0.4343                 0.3142
  Atom  AN      X      Y      Z        X      Y      Z        X      Y      Z
     1   8     0.13   0.03   0.04    -0.01   0.18   0.02     0.00   0.03  -0.00
     2   6     0.05   0.06  -0.01     0.01   0.12   0.14     0.04   0.01   0.03
     3   6     0.07   0.01  -0.12     0.08  -0.01   0.05     0.11  -0.10   0.03
     4   6    -0.02   0.01  -0.06     0.04  -0.08  -0.07    -0.02  -0.03   0.12
     5   6     0.10  -0.13  -0.03    -0.02   0.01  -0.11    -0.00   0.05   0.14
     6   6    -0.02  -0.08   0.02    -0.07  -0.04   0.05     0.09  -0.02  -0.07
     7   6    -0.06  -0.02   0.08     0.00  -0.16   0.01    -0.09  -0.04  -0.08
     8   6    -0.12   0.06   0.08     0.01  -0.02  -0.13    -0.12  -0.01  -0.13
     9   6    -0.14   0.12  -0.04     0.02  -0.07   0.03    -0.06   0.07   0.02
    10   6    -0.04   0.00   0.02    -0.02   0.06  -0.04     0.01   0.02  -0.03
    11   1     0.23  -0.09  -0.10     0.24   0.10   0.05     0.30  -0.30   0.07
    12   1     0.02   0.01  -0.30    -0.01  -0.11  -0.02     0.06  -0.08  -0.25
    13   1     0.17  -0.22  -0.17     0.01   0.06  -0.00    -0.01   0.10   0.24
    14   1     0.12  -0.16   0.18    -0.06  -0.03  -0.22     0.01   0.09   0.11
    15   1     0.17  -0.23  -0.03    -0.09   0.13  -0.12     0.01   0.10   0.08
    16   1     0.06  -0.04   0.14    -0.06  -0.00   0.14     0.06  -0.07  -0.19
    17   1    -0.05  -0.13   0.00    -0.02   0.01   0.16     0.04  -0.08  -0.23
    18   1    -0.06  -0.19   0.03    -0.23  -0.11   0.03     0.34   0.06  -0.04
    19   1    -0.09   0.06   0.24     0.03  -0.02   0.30     0.01  -0.10  -0.17
    20   1     0.02  -0.19   0.13    -0.06  -0.45   0.07    -0.23   0.09  -0.12
    21   1    -0.09   0.07   0.08    -0.01   0.01  -0.14    -0.19  -0.01  -0.13
    22   1    -0.06   0.07  -0.12    -0.09  -0.01   0.13    -0.01   0.09   0.07
    23   1    -0.25   0.23  -0.07     0.14  -0.21   0.07     0.06   0.02   0.04
    24   1    -0.12   0.12  -0.10    -0.00  -0.08   0.10    -0.14   0.18   0.07
    25   1     0.01  -0.05  -0.02     0.08  -0.06  -0.10     0.04  -0.11   0.07
    26   1    -0.06  -0.09   0.03    -0.19   0.20  -0.09     0.04   0.12  -0.04
                     13                     14                     15
                      A                      A                      A
 Frequencies --    435.7447               454.2953               507.1462
 Red. masses --      2.2770                 1.9270                 2.5492
 Frc consts  --      0.2547                 0.2343                 0.3863
 IR Inten    --      0.7885                 0.4472                 0.6558
  Atom  AN      X      Y      Z        X      Y      Z        X      Y      Z
     1   8     0.03  -0.07  -0.01     0.00   0.01  -0.02    -0.07  -0.04   0.01
     2   6     0.05  -0.06  -0.03     0.01  -0.02   0.07     0.03   0.01  -0.11
     3   6    -0.03  -0.05   0.10     0.06  -0.09   0.06     0.03   0.03   0.04
     4   6    -0.07  -0.10  -0.03     0.04  -0.10  -0.01     0.16   0.00  -0.01
     5   6     0.06   0.05  -0.03    -0.01   0.04  -0.05    -0.03  -0.01  -0.06
     6   6    -0.11  -0.05  -0.08    -0.04   0.02   0.01     0.16   0.08   0.10
     7   6    -0.01  -0.02   0.04     0.09   0.02  -0.05     0.01  -0.11  -0.03
     8   6    -0.01   0.10  -0.04    -0.01   0.06   0.12    -0.11  -0.02  -0.02
     9   6    -0.07   0.05  -0.00    -0.09   0.04  -0.02    -0.11   0.07  -0.01
    10   6     0.12   0.09   0.02    -0.02  -0.02  -0.03     0.01  -0.02   0.00
    11   1    -0.24   0.14   0.06     0.13  -0.05   0.06    -0.30   0.19   0.00
    12   1     0.06  -0.02   0.36     0.01  -0.14   0.02     0.07  -0.02   0.40
    13   1     0.06   0.14   0.15    -0.08   0.13   0.10    -0.14  -0.01  -0.10
    14   1     0.13   0.15   0.01     0.01   0.10  -0.20    -0.08  -0.04  -0.29
    15   1     0.17   0.09  -0.22    -0.03   0.11  -0.08    -0.18   0.02   0.13
    16   1    -0.17  -0.06  -0.14    -0.13   0.02  -0.04     0.16   0.10   0.14
    17   1    -0.08  -0.00  -0.08     0.04   0.12   0.11     0.19   0.11   0.18
    18   1    -0.09  -0.00  -0.09    -0.13   0.07  -0.02     0.05   0.06   0.09
    19   1     0.10   0.05   0.20     0.16  -0.13  -0.31    -0.02  -0.05   0.09
    20   1    -0.01  -0.19   0.07     0.22   0.31  -0.10    -0.00  -0.22  -0.00
    21   1    -0.01   0.13  -0.04    -0.03   0.06   0.12    -0.20  -0.01  -0.03
    22   1    -0.13   0.06   0.00    -0.10   0.00  -0.11    -0.05   0.05  -0.03
    23   1    -0.06   0.04   0.00    -0.27   0.13  -0.06    -0.14   0.11  -0.02
    24   1    -0.04  -0.00   0.01    -0.00  -0.06  -0.12    -0.12   0.10  -0.03
    25   1    -0.02   0.10   0.28     0.12  -0.01  -0.32    -0.04  -0.09   0.19
    26   1     0.38   0.20   0.06    -0.30  -0.22  -0.06     0.22  -0.01   0.04
                     16                     17                     18
                      A                      A                      A
 Frequencies --    532.5185               619.9652               776.5170
 Red. masses --      3.0668                 4.2370                 2.8321
 Frc consts  --      0.5124                 0.9595                 1.0061
 IR Inten    --     12.6902                 1.1694                 0.1209
  Atom  AN      X      Y      Z        X      Y      Z        X      Y      Z
     1   8     0.22  -0.02   0.03     0.02  -0.14  -0.13    -0.02  -0.04  -0.04
     2   6    -0.15   0.02  -0.05    -0.07  -0.26   0.26     0.02  -0.07   0.05
     3   6    -0.13  -0.06  -0.08     0.03  -0.03   0.07     0.05   0.15  -0.11
     4   6     0.07  -0.08   0.04     0.01   0.11  -0.06     0.03   0.01  -0.04
     5   6    -0.02   0.01   0.02     0.02  -0.00  -0.11    -0.04   0.03   0.22
     6   6     0.04   0.06   0.02     0.09   0.06   0.06    -0.07  -0.04  -0.05
     7   6     0.09  -0.04  -0.01    -0.03   0.13   0.01     0.15  -0.11  -0.09
     8   6     0.03   0.05  -0.05     0.01   0.08  -0.13     0.03   0.04  -0.03
     9   6    -0.02  -0.02   0.00    -0.05   0.05   0.00    -0.04   0.05   0.00
    10   6    -0.14   0.08   0.04    -0.05  -0.00   0.04    -0.05  -0.01   0.07
    11   1    -0.01  -0.20  -0.05     0.35   0.03   0.08    -0.05   0.33  -0.14
    12   1    -0.29  -0.22  -0.23     0.05   0.04  -0.12     0.18   0.25   0.09
    13   1    -0.09   0.05   0.09     0.07  -0.08  -0.25    -0.08   0.01   0.17
    14   1    -0.04   0.02  -0.14    -0.01  -0.07  -0.04    -0.06   0.00   0.17
    15   1    -0.09   0.05   0.07    -0.00  -0.05  -0.02    -0.10   0.02   0.33
    16   1    -0.11   0.04  -0.08     0.19   0.10   0.16    -0.06  -0.04  -0.04
    17   1     0.13   0.18   0.06     0.06   0.02   0.06    -0.09  -0.06  -0.06
    18   1     0.03   0.15   0.00     0.05  -0.02   0.06    -0.09  -0.07  -0.05
    19   1     0.17  -0.05  -0.00    -0.05   0.26   0.27     0.22  -0.00   0.14
    20   1     0.06  -0.04  -0.02    -0.11  -0.15   0.06     0.16  -0.33  -0.04
    21   1     0.00   0.03  -0.05     0.02   0.09  -0.12    -0.10  -0.03  -0.03
    22   1    -0.19   0.02   0.05    -0.15   0.11   0.10    -0.21   0.08   0.03
    23   1    -0.01  -0.11   0.02     0.07  -0.06   0.04    -0.11  -0.02   0.01
    24   1     0.02  -0.14   0.03    -0.08   0.06   0.08     0.04  -0.10  -0.02
    25   1    -0.36   0.23   0.28    -0.08   0.06  -0.00     0.03  -0.00  -0.10
    26   1     0.12   0.25   0.07    -0.23   0.25  -0.03    -0.26  -0.00   0.02
                     19                     20                     21
                      A                      A                      A
 Frequencies --    839.8727               851.9716               864.5724
 Red. masses --      2.6511                 1.7581                 2.2656
 Frc consts  --      1.1018                 0.7519                 0.9978
 IR Inten    --      2.5023                 1.5986                 0.3927
  Atom  AN      X      Y      Z        X      Y      Z        X      Y      Z
     1   8     0.00  -0.07  -0.01    -0.02   0.01  -0.01     0.03  -0.01  -0.01
     2   6    -0.01  -0.03  -0.09    -0.07  -0.01   0.05    -0.01  -0.02   0.04
     3   6     0.20   0.05   0.11    -0.06   0.09   0.08    -0.08  -0.06  -0.02
     4   6    -0.01   0.03   0.00    -0.00   0.03  -0.02    -0.04   0.04  -0.03
     5   6    -0.00   0.01  -0.02    -0.00   0.01   0.02    -0.01   0.01   0.02
     6   6    -0.03   0.00  -0.02    -0.01   0.00  -0.01     0.05   0.06   0.03
     7   6    -0.05  -0.09   0.03     0.08  -0.05  -0.02    -0.09  -0.12  -0.13
     8   6    -0.01   0.01   0.07     0.01  -0.02   0.04     0.01   0.02   0.10
     9   6     0.07  -0.04   0.00    -0.02   0.01   0.03     0.06  -0.03   0.04
    10   6    -0.18   0.13  -0.05     0.07  -0.09  -0.12     0.11   0.15  -0.00
    11   1     0.24   0.07   0.10     0.41  -0.07   0.12    -0.08  -0.05  -0.02
    12   1     0.27   0.14   0.08    -0.18   0.07  -0.36    -0.09  -0.07  -0.02
    13   1     0.05  -0.02  -0.05    -0.01   0.02   0.03    -0.01  -0.02  -0.04
    14   1     0.00  -0.01   0.06     0.00   0.01   0.01    -0.02  -0.01   0.04
    15   1     0.03  -0.02  -0.05    -0.01   0.02   0.01    -0.02  -0.01   0.05
    16   1     0.16   0.02   0.10     0.05   0.02   0.05     0.18   0.04   0.05
    17   1    -0.14  -0.16  -0.04    -0.05  -0.04  -0.01    -0.06  -0.09  -0.08
    18   1    -0.03  -0.12  -0.00    -0.04  -0.05  -0.01     0.18   0.02   0.06
    19   1    -0.11  -0.23  -0.25     0.00  -0.03   0.00    -0.19   0.00   0.08
    20   1     0.03   0.20  -0.03     0.16  -0.09  -0.01    -0.11  -0.33  -0.08
    21   1     0.05   0.10   0.06    -0.09   0.19  -0.00    -0.26  -0.00   0.08
    22   1    -0.01  -0.06  -0.05     0.10  -0.09  -0.13     0.13  -0.14  -0.16
    23   1    -0.04  -0.02  -0.01    -0.22   0.19  -0.03    -0.28   0.17  -0.03
    24   1     0.15  -0.17  -0.05     0.04  -0.00  -0.11     0.23  -0.17  -0.19
    25   1    -0.40   0.32   0.13    -0.14  -0.08   0.27     0.16   0.31  -0.29
    26   1     0.06   0.20  -0.01     0.49   0.06  -0.05    -0.16  -0.03  -0.03
                     22                     23                     24
                      A                      A                      A
 Frequencies --    903.8670               929.9400               944.6231
 Red. masses --      1.8402                 1.9839                 1.7929
 Frc consts  --      0.8858                 1.0108                 0.9426
 IR Inten    --      3.2623                 1.3207                 0.1536
  Atom  AN      X      Y      Z        X      Y      Z        X      Y      Z
     1   8    -0.00  -0.02   0.02     0.01   0.01  -0.00    -0.01  -0.03  -0.02
     2   6    -0.00   0.04  -0.12    -0.03  -0.01   0.04     0.01  -0.03   0.00
     3   6     0.03  -0.03   0.13     0.04  -0.07  -0.03    -0.00   0.16  -0.03
     4   6     0.03   0.03  -0.00     0.12  -0.00  -0.08     0.00  -0.11   0.06
     5   6     0.02  -0.01   0.01     0.02   0.03   0.12     0.03  -0.08  -0.03
     6   6    -0.04  -0.01  -0.04    -0.01  -0.05  -0.07     0.04  -0.06   0.05
     7   6     0.04   0.11  -0.11    -0.05   0.11   0.02    -0.05   0.04  -0.01
     8   6    -0.01   0.01   0.00    -0.06  -0.05   0.03    -0.03  -0.00   0.02
     9   6     0.03  -0.01  -0.01     0.01  -0.08   0.02     0.01  -0.04   0.01
    10   6    -0.06  -0.03   0.06    -0.00   0.05  -0.07     0.01   0.05   0.00
    11   1     0.14  -0.31   0.17    -0.03   0.21  -0.07     0.16   0.04  -0.00
    12   1    -0.01  -0.01  -0.13    -0.03  -0.23   0.20     0.10   0.34  -0.20
    13   1    -0.08   0.04   0.09    -0.08  -0.01   0.01    -0.12   0.12   0.34
    14   1     0.02   0.02  -0.18    -0.04  -0.04  -0.05     0.08   0.08  -0.34
    15   1    -0.06   0.07   0.05    -0.12   0.02   0.34    -0.02   0.11  -0.17
    16   1     0.05   0.01   0.05    -0.11   0.02   0.04    -0.33  -0.09  -0.19
    17   1    -0.08  -0.07  -0.03     0.12   0.11   0.15     0.23   0.23   0.07
    18   1    -0.09  -0.09  -0.03    -0.32  -0.11  -0.12     0.07   0.18   0.02
    19   1    -0.01   0.37   0.38    -0.20   0.16   0.06    -0.04   0.08   0.08
    20   1    -0.03  -0.41  -0.00     0.03   0.02   0.04    -0.12  -0.05   0.01
    21   1    -0.19  -0.21   0.02    -0.09   0.10   0.01    -0.09  -0.02   0.01
    22   1    -0.02   0.00   0.01     0.39  -0.19  -0.11     0.17  -0.09  -0.05
    23   1     0.01  -0.05  -0.00    -0.01   0.16  -0.02    -0.01   0.06  -0.01
    24   1     0.05  -0.05  -0.02    -0.10   0.19  -0.05    -0.01   0.06  -0.03
    25   1    -0.04   0.06  -0.08    -0.09   0.08   0.06    -0.01   0.15  -0.09
    26   1    -0.04  -0.32   0.10     0.08   0.20  -0.07    -0.08   0.02  -0.01
                     25                     26                     27
                      A                      A                      A
 Frequencies --    957.7065               979.1879              1000.4281
 Red. masses --      1.4745                 1.7019                 1.6310
 Frc consts  --      0.7968                 0.9614                 0.9618
 IR Inten    --      0.3668                 0.2352                 1.0746
  Atom  AN      X      Y      Z        X      Y      Z        X      Y      Z
     1   8    -0.00   0.00  -0.00    -0.01   0.03   0.01     0.00   0.01   0.01
     2   6     0.00  -0.01   0.02     0.02   0.01   0.02     0.03   0.00   0.00
     3   6    -0.00   0.00  -0.01     0.03  -0.03  -0.04     0.03  -0.04  -0.03
     4   6     0.05   0.04   0.08    -0.00  -0.03  -0.01    -0.08  -0.00   0.03
     5   6     0.10   0.04  -0.06    -0.00  -0.01   0.01    -0.05   0.01  -0.05
     6   6    -0.11  -0.05   0.03     0.03  -0.02   0.01    -0.00   0.02   0.05
     7   6    -0.00  -0.01   0.01    -0.08   0.04  -0.02     0.13   0.05  -0.01
     8   6     0.00   0.00  -0.00    -0.00   0.10  -0.01    -0.07  -0.01  -0.03
     9   6     0.00   0.00   0.01     0.12   0.03   0.03     0.01  -0.09   0.04
    10   6    -0.00  -0.01  -0.01    -0.06  -0.12   0.00    -0.06  -0.00  -0.01
    11   1    -0.04  -0.01  -0.01    -0.09   0.11  -0.06    -0.14   0.00  -0.04
    12   1     0.01  -0.00   0.03     0.04  -0.06   0.13     0.14   0.06   0.11
    13   1    -0.09  -0.10  -0.37    -0.01   0.02   0.07     0.12  -0.03  -0.08
    14   1    -0.06  -0.16  -0.35     0.01   0.02  -0.00     0.00   0.02   0.25
    15   1    -0.20  -0.00   0.43     0.01   0.01  -0.03     0.12  -0.07  -0.20
    16   1    -0.19  -0.18  -0.28    -0.08  -0.01  -0.04     0.01  -0.04  -0.07
    17   1    -0.18  -0.11  -0.28     0.11   0.10   0.05    -0.06  -0.04  -0.10
    18   1     0.32   0.17   0.07    -0.01   0.05  -0.00     0.23   0.11   0.08
    19   1    -0.01  -0.02  -0.01    -0.09   0.07   0.03     0.36   0.10   0.15
    20   1    -0.05   0.03  -0.00    -0.18  -0.01  -0.02     0.09  -0.09   0.01
    21   1    -0.04   0.05  -0.01    -0.15   0.29  -0.05    -0.27   0.11  -0.06
    22   1    -0.00  -0.02  -0.03    -0.23   0.01  -0.10     0.38  -0.23  -0.16
    23   1    -0.06   0.04  -0.00    -0.27   0.00  -0.02    -0.12   0.21  -0.03
    24   1     0.04  -0.03  -0.03     0.43  -0.43  -0.18    -0.04   0.13  -0.11
    25   1    -0.01  -0.03   0.03    -0.06  -0.30   0.22    -0.05  -0.09   0.08
    26   1     0.00   0.06  -0.01     0.11   0.03   0.02    -0.08   0.18  -0.03
                     28                     29                     30
                      A                      A                      A
 Frequencies --   1036.1010              1065.4802              1090.0471
 Red. masses --      1.2884                 1.5029                 2.4315
 Frc consts  --      0.8149                 1.0052                 1.7022
 IR Inten    --      0.5482                 0.5975                 0.1633
  Atom  AN      X      Y      Z        X      Y      Z        X      Y      Z
     1   8    -0.00  -0.01   0.00     0.00   0.02   0.00     0.00   0.04   0.01
     2   6    -0.02   0.01  -0.03    -0.05   0.00   0.02    -0.01   0.01   0.01
     3   6     0.01   0.01   0.04     0.05  -0.03  -0.02     0.07  -0.05  -0.03
     4   6     0.01   0.00   0.01    -0.05  -0.06  -0.07    -0.01   0.02   0.02
     5   6    -0.05   0.09  -0.02    -0.01   0.00   0.03    -0.03  -0.04  -0.01
     6   6     0.04  -0.09   0.01     0.00   0.03   0.09    -0.02  -0.01   0.03
     7   6     0.01  -0.01  -0.02    -0.03   0.03  -0.05    -0.00   0.05  -0.06
     8   6     0.01  -0.02  -0.00    -0.01   0.04   0.07     0.22  -0.16   0.00
     9   6    -0.00   0.02   0.01     0.00  -0.01  -0.06    -0.11   0.10   0.08
    10   6     0.01   0.02   0.00     0.00  -0.02  -0.05    -0.04  -0.03  -0.05
    11   1     0.17   0.08   0.04     0.20   0.42  -0.07    -0.17  -0.00  -0.05
    12   1    -0.03  -0.01  -0.04    -0.01  -0.14   0.12     0.14  -0.01   0.17
    13   1     0.18  -0.13  -0.40    -0.02   0.00   0.03     0.01   0.05   0.18
    14   1    -0.08  -0.07   0.43    -0.02  -0.01   0.04     0.04   0.07   0.01
    15   1     0.09  -0.16   0.04    -0.01  -0.00   0.02     0.06   0.02  -0.22
    16   1    -0.36  -0.08  -0.15     0.01  -0.08  -0.13    -0.07  -0.06  -0.09
    17   1     0.28   0.27   0.14    -0.06  -0.03  -0.17    -0.02   0.00  -0.07
    18   1    -0.11   0.13  -0.05     0.36   0.18   0.13     0.12   0.09   0.04
    19   1     0.02   0.01   0.02     0.00   0.09   0.08    -0.35   0.16   0.07
    20   1    -0.17  -0.03  -0.03     0.16  -0.14   0.00    -0.12  -0.16  -0.03
    21   1    -0.10  -0.16   0.01     0.13  -0.11   0.09     0.25  -0.16   0.00
    22   1    -0.07   0.03   0.00    -0.03   0.08   0.12    -0.13   0.04  -0.04
    23   1    -0.05  -0.01   0.00     0.27  -0.18   0.00    -0.35   0.24   0.03
    24   1     0.04  -0.05  -0.01    -0.11   0.06   0.12    -0.04   0.06  -0.05
    25   1    -0.02   0.12  -0.07    -0.14   0.13   0.05    -0.22   0.20   0.03
    26   1     0.05  -0.16   0.03     0.29  -0.29   0.05     0.04   0.25  -0.07
                     31                     32                     33
                      A                      A                      A
 Frequencies --   1107.6597              1163.0477              1187.6806
 Red. masses --      1.4953                 2.0192                 1.6599
 Frc consts  --      1.0809                 1.6092                 1.3796
 IR Inten    --     12.6809                 1.4229                 1.4412
  Atom  AN      X      Y      Z        X      Y      Z        X      Y      Z
     1   8    -0.01   0.00   0.00    -0.00  -0.02   0.01    -0.00  -0.05  -0.01
     2   6     0.11  -0.01   0.01    -0.02   0.03  -0.08     0.01   0.02  -0.08
     3   6    -0.05  -0.04   0.03     0.01   0.02   0.05    -0.02   0.01   0.05
     4   6    -0.04   0.04  -0.06    -0.02  -0.04  -0.05     0.04  -0.00  -0.10
     5   6    -0.00   0.01   0.02     0.00   0.04   0.02    -0.03  -0.02   0.03
     6   6     0.03  -0.04   0.04     0.02  -0.01   0.02    -0.04   0.01   0.06
     7   6     0.03  -0.01  -0.04    -0.08  -0.05  -0.06     0.02   0.04   0.07
     8   6    -0.05  -0.02   0.06     0.12   0.12  -0.03    -0.03  -0.07  -0.07
     9   6     0.02   0.01  -0.04    -0.07  -0.07   0.03     0.02   0.03   0.04
    10   6    -0.05   0.04  -0.03    -0.01  -0.08   0.11     0.02   0.05   0.05
    11   1    -0.13  -0.30   0.06     0.10  -0.01   0.06     0.35   0.31   0.02
    12   1     0.11   0.20  -0.10    -0.04  -0.01  -0.07    -0.30  -0.30  -0.08
    13   1    -0.02  -0.00  -0.01     0.01  -0.03  -0.11     0.01   0.03   0.14
    14   1    -0.01  -0.00   0.02    -0.05  -0.05   0.05     0.02   0.05   0.08
    15   1    -0.02   0.01   0.06    -0.01  -0.03   0.12     0.03   0.01  -0.08
    16   1    -0.20  -0.06  -0.11    -0.02  -0.02  -0.03    -0.01  -0.08  -0.12
    17   1     0.15   0.15   0.02     0.05   0.05   0.00    -0.09  -0.04  -0.16
    18   1     0.04   0.14   0.01     0.05   0.05   0.02     0.24   0.12   0.09
    19   1    -0.37   0.06  -0.01    -0.10  -0.04  -0.06    -0.18  -0.00  -0.07
    20   1     0.48  -0.13   0.03     0.06  -0.08  -0.04     0.16   0.13   0.06
    21   1     0.16   0.12   0.06     0.41   0.51  -0.06    -0.07  -0.03  -0.08
    22   1    -0.10   0.08   0.07     0.34  -0.14  -0.04    -0.10  -0.00  -0.07
    23   1     0.14  -0.14   0.00     0.04   0.23  -0.01    -0.18   0.04   0.01
    24   1    -0.00  -0.05   0.08    -0.20   0.27  -0.03     0.14  -0.11  -0.07
    25   1     0.01  -0.19   0.12     0.08  -0.10  -0.04     0.24  -0.21  -0.07
    26   1    -0.06   0.30  -0.07    -0.22   0.10   0.04    -0.22   0.18  -0.02
                     34                     35                     36
                      A                      A                      A
 Frequencies --   1208.9675              1251.8237              1262.7250
 Red. masses --      2.1626                 1.8914                 1.9683
 Frc consts  --      1.8623                 1.7463                 1.8491
 IR Inten    --      1.5626                39.0128                10.7447
  Atom  AN      X      Y      Z        X      Y      Z        X      Y      Z
     1   8     0.00  -0.01  -0.01    -0.04  -0.01  -0.01    -0.02   0.02   0.01
     2   6    -0.04  -0.02   0.04     0.22  -0.01   0.01     0.10  -0.01   0.03
     3   6     0.04   0.05  -0.02    -0.05   0.07  -0.00    -0.02  -0.05   0.01
     4   6     0.21   0.10   0.08     0.03  -0.06  -0.01    -0.03   0.18  -0.09
     5   6    -0.11  -0.04  -0.04    -0.01   0.02  -0.00     0.01  -0.07   0.02
     6   6    -0.07  -0.04   0.01    -0.01   0.03  -0.00     0.01  -0.05   0.03
     7   6     0.00  -0.03  -0.05    -0.05   0.02  -0.03     0.02  -0.06   0.06
     8   6    -0.03   0.08   0.05     0.02  -0.01   0.07     0.01   0.04  -0.09
     9   6     0.00  -0.03  -0.05    -0.00   0.00  -0.02    -0.01  -0.03   0.03
    10   6     0.03  -0.01   0.00    -0.05  -0.05  -0.02    -0.04  -0.02   0.03
    11   1    -0.17  -0.20   0.00     0.03  -0.04   0.01    -0.05  -0.05   0.01
    12   1    -0.17  -0.25   0.09    -0.46  -0.40  -0.12    -0.10  -0.14   0.00
    13   1     0.19   0.05   0.20     0.03  -0.02  -0.06    -0.09   0.06   0.23
    14   1     0.07   0.17   0.28    -0.02  -0.02   0.09     0.08   0.09  -0.12
    15   1     0.17  -0.06  -0.41     0.01  -0.04   0.04    -0.07   0.13  -0.06
    16   1    -0.14  -0.10  -0.15     0.08   0.01   0.01    -0.19  -0.06  -0.10
    17   1    -0.12  -0.08  -0.14    -0.06  -0.06  -0.02     0.11   0.12  -0.04
    18   1     0.03   0.02   0.01     0.03  -0.04   0.01     0.00   0.16  -0.01
    19   1    -0.31   0.04   0.00     0.35   0.02   0.09     0.07  -0.15  -0.11
    20   1    -0.06  -0.06  -0.04    -0.21  -0.04  -0.03     0.02   0.15   0.01
    21   1    -0.01   0.22   0.03     0.03  -0.02   0.07    -0.10   0.05  -0.11
    22   1     0.08   0.01   0.06    -0.02   0.04   0.05     0.09  -0.08  -0.06
    23   1     0.20  -0.09  -0.01     0.04  -0.03  -0.00    -0.04   0.09  -0.00
    24   1    -0.08   0.05   0.06    -0.03   0.01   0.05    -0.02   0.07  -0.07
    25   1     0.05  -0.06   0.02    -0.29   0.29   0.03    -0.27   0.44  -0.07
    26   1     0.00  -0.01  -0.00    -0.09   0.34  -0.07     0.15  -0.47   0.12
                     37                     38                     39
                      A                      A                      A
 Frequencies --   1298.1132              1306.3204              1323.7557
 Red. masses --      1.7169                 1.8290                 1.3388
 Frc consts  --      1.7046                 1.8389                 1.3822
 IR Inten    --      5.5925                34.7585                 1.1875
  Atom  AN      X      Y      Z        X      Y      Z        X      Y      Z
     1   8     0.00  -0.03  -0.00     0.01   0.00   0.01     0.00  -0.02  -0.02
     2   6     0.01   0.02  -0.04    -0.12   0.02  -0.03    -0.01  -0.01   0.03
     3   6    -0.01  -0.07  -0.01     0.11   0.04   0.01     0.06   0.07  -0.01
     4   6    -0.08   0.14   0.09    -0.08   0.07   0.01    -0.03   0.02   0.02
     5   6     0.03  -0.05  -0.01     0.02  -0.02  -0.00     0.01   0.00   0.00
     6   6     0.03  -0.04  -0.03     0.02  -0.04   0.00     0.01  -0.02  -0.00
     7   6     0.04  -0.04  -0.05    -0.04  -0.00  -0.01    -0.05   0.01  -0.03
     8   6     0.03   0.01   0.08    -0.05  -0.04   0.01    -0.02  -0.00  -0.03
     9   6    -0.02  -0.01  -0.03     0.02   0.03  -0.03    -0.00   0.00   0.06
    10   6    -0.03   0.03  -0.01     0.11  -0.11   0.03    -0.03   0.08  -0.03
    11   1     0.29   0.51  -0.06    -0.16  -0.15   0.02    -0.17  -0.23   0.02
    12   1    -0.10  -0.18   0.03    -0.12  -0.27   0.12    -0.23  -0.32   0.07
    13   1    -0.09   0.02   0.08    -0.06   0.01   0.01    -0.02  -0.00  -0.02
    14   1     0.06   0.05  -0.19     0.02   0.00  -0.08    -0.02  -0.03  -0.05
    15   1    -0.05   0.12  -0.09    -0.04   0.06   0.00     0.01  -0.00  -0.01
    16   1    -0.14   0.04   0.06    -0.10  -0.00   0.01    -0.06   0.00  -0.00
    17   1     0.09   0.06   0.08     0.10   0.09   0.06     0.04   0.03   0.03
    18   1    -0.16   0.05  -0.07    -0.04   0.07  -0.02    -0.03   0.02  -0.01
    19   1     0.18  -0.00   0.07     0.29  -0.03   0.04     0.27  -0.00   0.04
    20   1    -0.31  -0.06  -0.08     0.37  -0.03   0.04     0.26  -0.08   0.02
    21   1     0.06   0.02   0.09    -0.15   0.12  -0.01     0.48  -0.26   0.05
    22   1     0.05   0.02   0.07    -0.11   0.07   0.03     0.06  -0.08  -0.09
    23   1     0.09  -0.02  -0.00     0.03  -0.10  -0.00    -0.11   0.08   0.02
    24   1    -0.07   0.03   0.06     0.04  -0.07   0.04     0.08  -0.04  -0.09
    25   1     0.16  -0.36   0.09    -0.08   0.36  -0.17     0.15  -0.33   0.10
    26   1    -0.05   0.22  -0.04    -0.22   0.44  -0.11     0.13  -0.24   0.05
                     40                     41                     42
                      A                      A                      A
 Frequencies --   1335.8905              1358.6426              1385.7904
 Red. masses --      1.5683                 1.5569                 1.3698
 Frc consts  --      1.6490                 1.6933                 1.5499
 IR Inten    --      3.0499                 2.7060                 9.5306
  Atom  AN      X      Y      Z        X      Y      Z        X      Y      Z
     1   8    -0.01   0.00  -0.00     0.00   0.02   0.01     0.00   0.00  -0.00
     2   6     0.06  -0.01   0.00     0.00   0.01  -0.02    -0.02  -0.01   0.01
     3   6    -0.02  -0.01  -0.04    -0.08  -0.08   0.01     0.01   0.01   0.00
     4   6    -0.03  -0.03   0.17     0.12   0.05   0.01     0.00   0.00  -0.04
     5   6     0.00   0.01  -0.03    -0.04  -0.01   0.01    -0.00  -0.00   0.00
     6   6     0.01   0.01  -0.05    -0.03  -0.01  -0.00    -0.01  -0.00   0.01
     7   6     0.02   0.01  -0.03    -0.09  -0.00  -0.03     0.01   0.03  -0.02
     8   6    -0.05  -0.03  -0.06    -0.07  -0.01  -0.01    -0.02  -0.15   0.03
     9   6     0.01   0.01   0.02     0.02   0.02   0.04     0.01   0.03  -0.03
    10   6    -0.00   0.00   0.04     0.02  -0.04   0.00    -0.01   0.07   0.02
    11   1     0.18   0.34  -0.07     0.18   0.18  -0.01    -0.04  -0.09   0.01
    12   1    -0.11  -0.14   0.03     0.27   0.37  -0.06     0.01   0.02   0.00
    13   1     0.04  -0.04  -0.12     0.11  -0.02   0.01     0.00   0.01   0.03
    14   1    -0.02  -0.03  -0.07     0.02   0.08  -0.03     0.01   0.01   0.03
    15   1     0.06  -0.04  -0.08     0.08  -0.03  -0.13    -0.02   0.01   0.03
    16   1    -0.01   0.08   0.10     0.01  -0.03  -0.04     0.03  -0.02  -0.01
    17   1    -0.04  -0.08   0.13    -0.02   0.00  -0.06     0.01   0.03  -0.04
    18   1    -0.10  -0.11  -0.04    -0.00  -0.00  -0.00     0.02   0.02   0.01
    19   1    -0.38   0.08   0.00     0.49  -0.02   0.09     0.30   0.00   0.03
    20   1     0.48  -0.11   0.05     0.18  -0.01   0.00    -0.25  -0.06  -0.03
    21   1     0.15   0.30  -0.09     0.50  -0.11   0.05     0.14   0.79  -0.08
    22   1    -0.05  -0.02  -0.06     0.01  -0.04  -0.07    -0.09   0.05   0.01
    23   1    -0.05  -0.01   0.00    -0.08  -0.00   0.02    -0.04  -0.13  -0.01
    24   1     0.04  -0.01  -0.04     0.10  -0.08  -0.05    -0.02  -0.04   0.11
    25   1    -0.11   0.27  -0.08    -0.07   0.16  -0.05     0.05  -0.02   0.01
    26   1     0.02  -0.22   0.07    -0.05   0.13  -0.03     0.04  -0.29   0.08
                     43                     44                     45
                      A                      A                      A
 Frequencies --   1411.4120              1431.0219              1439.0458
 Red. masses --      1.5633                 1.2342                 1.2356
 Frc consts  --      1.8349                 1.4891                 1.5075
 IR Inten    --      6.1498                 5.5776                 2.0720
  Atom  AN      X      Y      Z        X      Y      Z        X      Y      Z
     1   8     0.00   0.00   0.00    -0.00  -0.00  -0.00    -0.00   0.00   0.00
     2   6    -0.02   0.00  -0.00     0.00   0.00  -0.00     0.00   0.00  -0.00
     3   6     0.03   0.01   0.01    -0.00  -0.00  -0.00     0.00   0.00   0.00
     4   6    -0.04  -0.01  -0.03     0.00   0.01   0.02    -0.01  -0.01  -0.01
     5   6     0.02   0.00   0.01     0.02  -0.01  -0.08     0.00   0.00   0.01
     6   6     0.02   0.01   0.02    -0.08  -0.05  -0.05     0.02   0.01   0.01
     7   6     0.13  -0.01  -0.01     0.01  -0.01  -0.01     0.01   0.00   0.00
     8   6    -0.14   0.03  -0.01    -0.02   0.01  -0.00     0.01  -0.01  -0.00
     9   6     0.03  -0.01   0.03    -0.01   0.01   0.01    -0.11   0.08   0.02
    10   6     0.05  -0.04   0.01     0.00  -0.01   0.00     0.00  -0.00   0.00
    11   1    -0.08  -0.04   0.01     0.02   0.02  -0.01    -0.01   0.00   0.00
    12   1    -0.03  -0.05  -0.02    -0.00  -0.01   0.02    -0.00  -0.00  -0.01
    13   1    -0.08   0.02   0.02    -0.07   0.18   0.30    -0.01  -0.01  -0.02
    14   1    -0.03  -0.07  -0.01     0.04  -0.05   0.35    -0.00  -0.00  -0.02
    15   1    -0.01   0.01   0.04    -0.19  -0.04   0.28     0.01   0.01  -0.01
    16   1    -0.07  -0.01  -0.06     0.32   0.05   0.30    -0.06  -0.01  -0.06
    17   1    -0.05  -0.07  -0.08     0.20   0.31   0.23    -0.04  -0.06  -0.04
    18   1    -0.09  -0.02  -0.00     0.39   0.18   0.01    -0.07  -0.04   0.00
    19   1    -0.30   0.06  -0.00    -0.04   0.02   0.02    -0.04   0.02   0.01
    20   1    -0.54   0.03  -0.08    -0.02   0.01  -0.01    -0.04   0.03  -0.00
    21   1     0.63  -0.07   0.07     0.11  -0.03   0.01    -0.02   0.03  -0.01
    22   1    -0.04  -0.05  -0.08     0.07  -0.03  -0.05     0.51  -0.12  -0.21
    23   1    -0.11  -0.00   0.01     0.05  -0.04   0.02     0.45  -0.32   0.14
    24   1     0.04   0.01  -0.02     0.05  -0.06  -0.04     0.26  -0.46  -0.18
    25   1    -0.10   0.20  -0.00    -0.01   0.03  -0.01    -0.03   0.02   0.02
    26   1    -0.12   0.07  -0.04    -0.01   0.01  -0.00    -0.03  -0.00  -0.00
                     46                     47                     48
                      A                      A                      A
 Frequencies --   1451.4782              1489.9101              1496.1425
 Red. masses --      1.2220                 1.0997                 1.0872
 Frc consts  --      1.5168                 1.4383                 1.4338
 IR Inten    --      4.1300                 5.1501                 3.9675
  Atom  AN      X      Y      Z        X      Y      Z        X      Y      Z
     1   8     0.00   0.00   0.00    -0.00   0.00  -0.00     0.00   0.01   0.00
     2   6     0.00   0.00  -0.00     0.01  -0.00   0.00     0.00   0.00  -0.01
     3   6    -0.01  -0.01  -0.01    -0.04   0.02  -0.04    -0.04   0.01  -0.03
     4   6     0.00   0.00   0.01    -0.01  -0.00  -0.01    -0.00   0.00   0.00
     5   6     0.03  -0.01  -0.10     0.00   0.01   0.02     0.00   0.00   0.00
     6   6     0.07   0.04   0.03    -0.01  -0.01   0.00     0.00  -0.01   0.00
     7   6    -0.03  -0.00  -0.01     0.01  -0.00   0.00    -0.00   0.03   0.02
     8   6     0.01  -0.01  -0.00    -0.01   0.00   0.00     0.00   0.00   0.00
     9   6     0.01  -0.00   0.00     0.00   0.00  -0.00    -0.00  -0.01   0.00
    10   6    -0.01   0.00   0.00    -0.05  -0.02   0.03     0.05   0.01  -0.02
    11   1     0.11  -0.00   0.00     0.38  -0.29   0.04     0.37  -0.22   0.03
    12   1     0.05   0.03   0.09     0.06  -0.03   0.49     0.06  -0.02   0.43
    13   1    -0.13   0.23   0.36    -0.08  -0.02  -0.05    -0.04   0.01  -0.00
    14   1     0.03  -0.10   0.44    -0.05  -0.07  -0.04    -0.02  -0.03   0.01
    15   1    -0.22  -0.05   0.33     0.06   0.02  -0.09     0.01   0.01  -0.02
    16   1    -0.28  -0.02  -0.21     0.07  -0.01   0.03     0.02   0.01   0.04
    17   1    -0.16  -0.27  -0.15     0.03   0.06  -0.05     0.00   0.01  -0.06
    18   1    -0.31  -0.15  -0.01    -0.02   0.04  -0.01    -0.04   0.07  -0.02
    19   1     0.07   0.03   0.07    -0.03   0.01   0.00     0.02  -0.13  -0.26
    20   1     0.11   0.05   0.00    -0.05   0.01  -0.01    -0.02  -0.28   0.07
    21   1    -0.01  -0.00  -0.00     0.03   0.01   0.00    -0.02  -0.03   0.00
    22   1    -0.03   0.01   0.01     0.04  -0.01  -0.02    -0.02   0.02   0.05
    23   1    -0.03   0.02  -0.01    -0.02  -0.04   0.00     0.06   0.07  -0.00
    24   1    -0.01   0.03   0.01    -0.00  -0.02   0.04     0.02  -0.00  -0.06
    25   1     0.02  -0.01  -0.04     0.19   0.02  -0.45    -0.18  -0.01   0.42
    26   1     0.04   0.02   0.01     0.41   0.21   0.08    -0.41  -0.16  -0.08
                     49                     50                     51
                      A                      A                      A
 Frequencies --   1511.0076              1516.7543              1524.6691
 Red. masses --      1.0715                 1.0499                 1.0602
 Frc consts  --      1.4414                 1.4230                 1.4521
 IR Inten    --      0.4586                 0.1217                 2.4655
  Atom  AN      X      Y      Z        X      Y      Z        X      Y      Z
     1   8    -0.00   0.00   0.00    -0.00  -0.00  -0.00    -0.00  -0.00  -0.00
     2   6     0.00  -0.00  -0.00     0.00   0.00   0.00     0.00  -0.00   0.00
     3   6    -0.01   0.00  -0.01    -0.00   0.00  -0.00     0.01  -0.01   0.01
     4   6     0.00   0.00   0.01    -0.00  -0.00   0.00     0.01   0.01   0.02
[...]
 -0.01459576,0.00020921,-0.00094571,-0.00128883,0.00030755,-0.00104846,
 0.00023665,-0.15420540,0.00024109,-0.12412596,-0.01304960,-0.00053548,
 -0.01491500,0.00043111,0.00113852,0.00018782,-0.00128935,-0.00327594,0
 .00134901,0.00020546,0.00000608,-0.00011868,-0.00070056,0.00000270,-0.
 00099382,0.00011798,0.00034271,0.00103015,0.00042107,-0.00009182,0.000
 21712,-0.00006694,0.00009027,0.00004961,0.00066010,0.00035779,0.000136
 71,0.00005039,0.00000136,0.00029146,0.00004252,0.00006615,0.00010676,0
 .16824239,0.00000896,0.00080589,0.00000077,0.00001910,-0.00205625,0.00
 001646,0.00311941,-0.00466947,-0.00109515,0.01772200,-0.00116453,0.021
 28366,-0.00043997,0.00098399,0.00106505,0.00091530,0.00132309,0.000861
 17,0.00032430,-0.04761336,0.00048427,-0.01768114,-0.00086373,-0.022734
 09,-0.00084755,0.00140373,-0.00100973,-0.00302356,-0.00484902,0.001303
 71,-0.00034757,0.00001554,-0.00021801,0.00137839,0.00020286,0.00131298
 ,-0.00012105,0.00002962,-0.00063732,-0.00033975,0.00003579,0.00008831,
 -0.00000275,-0.00004361,-0.00012881,-0.00044112,-0.00041913,-0.0004288
 1,-0.00018756,0.00024745,-0.00030268,-0.00001869,-0.00009179,-0.000006
 75,-0.00044880,0.05597603,-0.00019955,-0.00002106,0.00002589,0.0004889
 2,0.00007498,-0.00007355,0.00044617,0.00034215,0.00100969,0.00108685,-
 0.00030924,-0.00020151,0.00083195,-0.00025889,0.00068226,-0.00008179,-
 0.00024105,-0.00017771,-0.12465309,0.00025039,-0.19739991,0.00179432,0
 .00063245,0.00077061,0.00000783,0.00023512,-0.00008803,0.00015745,-0.0
 0020690,0.00118297,0.00015965,-0.00014270,0.00037485,-0.00023889,-0.00
 002024,0.00020921,-0.00009804,-0.00004042,0.00044572,0.00004875,0.0001
 3161,0.00018871,0.00007015,-0.00000393,-0.00001609,0.00023177,0.000513
 04,0.00031934,0.00026088,0.00015442,0.00018617,-0.00011558,-0.00001978
 ,-0.00003260,0.13757026,-0.00021786,0.21215847,0.00024588,0.00001181,0
 .00006010,-0.00048280,-0.00004469,-0.00004310,0.00039239,-0.00055204,0
 .00114584,-0.01110469,0.00095958,0.01694185,-0.00127269,0.00323811,-0.
 00153593,0.00049480,-0.00152359,-0.00009683,-0.11944495,-0.00094180,0.
 10885062,-0.01151332,-0.00174654,0.01736220,0.00049194,0.00125599,-0.0
 0034154,0.00052483,0.00068610,0.00120419,-0.00015105,0.00028374,-0.000
 76099,0.00030549,0.00002814,-0.00023607,0.00021066,0.00000232,0.000202
 10,-0.00038566,0.00018036,0.00116911,0.00011947,-0.00017100,-0.0001151
 1,0.00004094,0.00007306,-0.00012797,-0.00006279,-0.00016884,-0.0003492
 3,0.00068025,0.00033988,-0.00039681,0.01240681,0.00024721,-0.01806685,
 0.12926254,-0.00006678,0.00013370,0.00002399,0.00009945,-0.00039528,-0
 .00001845,-0.00072912,0.00082715,-0.00052053,0.01439959,-0.00177801,-0
 .02412282,0.00280768,-0.00512252,0.00096733,0.00112223,0.00099805,-0.0
 0163190,-0.00121328,-0.04733486,0.00227468,-0.01597409,-0.00291240,0.0
 2527113,-0.00089621,0.00168745,0.00128927,0.00090120,0.00099717,0.0006
 0254,0.00003768,0.00004960,0.00054607,-0.00032401,-0.00003013,0.000042
 88,-0.00024646,-0.00000147,0.00025514,0.00114367,-0.00009541,-0.001620
 72,0.00014012,0.00012846,0.00007559,-0.00007868,-0.00008360,-0.0000161
 2,-0.00013993,0.00035978,0.00020770,-0.00026318,-0.00047541,0.00062921
 ,-0.00008272,-0.00031300,0.00007443,0.00174536,0.05816436,0.00002208,-
 0.00001028,-0.00005033,-0.00003504,0.00007810,0.00006752,-0.00033641,0
 .00024450,0.00038731,0.00032373,-0.00009987,-0.00287529,0.00027910,-0.
 00096340,0.00119602,-0.00009769,0.00078120,0.00006288,0.10857156,0.001
 38291,-0.22613587,0.00109887,0.00070229,-0.00247442,-0.00010327,-0.000
 53063,0.00022557,-0.00040840,-0.00017406,0.00076093,0.00016814,0.00001
 810,0.00052827,0.00004472,-0.00009062,0.00021964,-0.00006295,0.0001842
 3,0.00047672,0.00045521,-0.00008723,-0.00004262,-0.00000772,0.00005548
 ,-0.00003699,0.00009247,-0.00003375,-0.00009695,-0.00028842,-0.0000820
 3,0.00036237,-0.00035085,-0.00056896,0.00059013,0.01352710,0.00026225,
 -0.02142484,-0.12289003,-0.00236009,0.24535141,-0.00017484,-0.00020998
 ,0.00027097,0.00161625,-0.00075395,-0.00047021,0.00006373,0.00009907,-
 0.00019947,-0.00028092,0.00066374,-0.00002145,-0.00006228,0.00050287,0
 .00029075,0.00006127,-0.00007185,0.00006453,-0.01035244,-0.00237918,0.
 01695521,-0.10691710,-0.00596394,0.10523792,-0.01098818,0.00088404,0.0
 1805726,0.00938024,0.00132797,-0.02236075,-0.00009872,-0.00000698,-0.0
 0003002,0.00007697,0.00003259,0.00004904,-0.00010493,-0.00014670,-0.00
 007925,0.00012414,0.00017712,-0.00021674,0.00040506,0.00093327,0.00016
 400,-0.00001450,0.00002092,0.00001605,0.00005211,-0.00011168,-0.000071
 64,0.00006966,0.00006917,-0.00013992,0.00029175,0.00057333,-0.00014054
 ,-0.00159777,-0.00342310,0.00002504,0.12073321,0.00006893,-0.00000941,
 -0.00013437,-0.00040314,0.00004236,0.00074370,0.00018146,-0.00022342,-
 0.00009027,-0.00007552,0.00124112,0.00072872,-0.00013803,-0.00107031,-
 0.00019011,-0.00004853,-0.00001627,-0.00015622,-0.01514960,-0.00262974
 ,0.02567215,-0.00556075,-0.04972737,0.01012856,0.01537008,-0.00112017,
 -0.02490467,-0.00031481,-0.00001739,0.00007775,-0.00004523,0.00010035,
 -0.00016463,0.00006536,-0.00003742,0.00005805,-0.00001953,-0.00004401,
 -0.00009394,0.00018242,0.00025406,-0.00011613,0.00099959,-0.00126220,-
 0.00071253,-0.00002103,0.00002099,0.00001891,0.00011970,-0.00007999,-0
 .00011756,0.00015375,0.00016521,-0.00019480,0.00062066,0.00112514,-0.0
 0052733,-0.00324042,-0.00479459,0.00036436,0.00451384,0.05943843,-0.00
 137863,0.00040408,0.00041902,0.00218341,-0.00178471,-0.00062877,-0.000
 05488,0.00034405,-0.00015935,0.00063956,-0.00011611,-0.00058150,0.0012
 0924,-0.00041263,-0.00017130,-0.00012306,0.00018607,0.00012277,0.00054
 017,0.00090672,-0.00060606,0.10501464,0.01020353,-0.24036606,0.0014629
 3,-0.00023126,-0.00195951,0.00846633,0.00210968,-0.02319942,-0.0000419
 8,-0.00003811,0.00015140,-0.00001250,0.00012408,-0.00002838,-0.0000873
 4,0.00002354,-0.00003508,-0.00037862,-0.00039068,0.00014003,-0.0006419
 8,-0.00103897,0.00027740,0.00003212,0.00000207,-0.00000114,0.00002602,
 0.00009626,-0.00002818,-0.00008509,-0.00002235,0.00007478,0.00024309,0
 .00044750,0.00082303,-0.00011572,-0.00014820,0.00155513,-0.11310259,-0
 .00949696,0.26377125,-0.00094533,0.00071635,0.00030902,0.00045604,-0.0
 0182745,-0.00135254,0.00001758,0.00004697,0.00020473,-0.00002589,0.000
 10192,0.00017108,-0.00002920,-0.00003279,-0.00000259,0.00004188,0.0000
 0379,0.00007596,0.00043306,-0.00116905,0.00002988,-0.01340025,-0.00049
 485,-0.01466632,-0.16323537,0.00196537,-0.12941141,-0.00193372,0.00489
 459,0.00106618,-0.00001017,-0.00000808,0.00000277,0.00005510,0.0001123
 7,0.00004815,0.00003979,0.00004628,0.00005658,0.00001739,-0.00000788,0
 .00000967,-0.00001074,0.00001409,-0.00005237,0.00003751,0.00003732,0.0
 0001115,-0.00001018,-0.00000605,-0.00000592,-0.00000849,-0.00000478,0.
 00000131,0.00067354,0.00047645,0.00023340,0.00005542,0.00005532,0.0000
 7923,0.00022077,-0.00059880,0.00027016,0.17587417,0.00083234,-0.000801
 23,-0.00034669,0.00062143,0.00185180,0.00132059,-0.00021447,0.00004249
 ,-0.00019037,0.00016760,-0.00010142,-0.00008598,0.00001273,0.00006869,
 -0.00003735,-0.00011001,0.00004841,-0.00005030,0.00065577,0.00154113,0
 .00111662,0.01730926,-0.00056175,0.02177226,0.00157658,-0.04917056,0.0
 0226709,0.00264011,-0.00525845,-0.00061895,0.00002171,-0.00000480,0.00
 000473,-0.00006583,-0.00002064,-0.00006124,-0.00001014,-0.00003262,-0.
 00004947,-0.00003357,0.00001543,0.00001465,-0.00000616,-0.00001788,0.0
 0003642,-0.00003742,-0.00004916,-0.00001961,0.00001306,0.00005094,-0.0
 0000713,0.00000917,-0.00000692,0.00000332,-0.00044939,-0.00043800,-0.0
 0052168,-0.00007360,-0.00007815,0.00000370,-0.00071678,0.00106052,-0.0
 0027442,-0.00468012,0.05131794,-0.00027082,0.00028702,-0.00014854,0.00
 021927,-0.00075863,0.00049546,0.00000805,-0.00003798,-0.00011304,0.000
 22113,0.00015962,0.00020042,-0.00003477,-0.00001325,-0.00000373,-0.000
 04191,0.00004175,-0.00000306,0.00005385,-0.00028289,-0.00003614,0.0029
 6345,-0.00010245,0.00210172,-0.12955066,0.00291221,-0.19751703,0.00018
 856,0.00014963,0.00092332,0.00000246,-0.00000079,0.00001179,0.00002414
 ,0.00005515,0.00003563,0.00000748,0.00000578,0.00002322,0.00001200,0.0
 0001409,-0.00000761,0.00004031,0.00001020,-0.00002486,0.00001053,0.000
 02102,0.00002495,0.00001822,0.00000954,-0.00000277,-0.00000639,0.00000
 025,-0.00001085,0.00017727,0.00045634,0.00030048,-0.00010810,0.0000224
 3,-0.00007912,-0.00014656,0.00051219,0.00072708,0.14327643,-0.00240736
 ,0.21120659,0.00024256,-0.00016067,0.00006238,0.00006981,0.00027906,-0
 .00029991,-0.00002317,-0.00006761,0.00013705,0.00003037,-0.00000134,-0
 .00014502,-0.00017210,-0.00009918,0.00002629,-0.00003665,0.00003108,-0
 .00003656,0.00027167,-0.00135333,-0.00042673,-0.01157736,0.00033055,0.
 01778572,-0.11404872,-0.00131022,0.11108169,0.00073716,-0.00096758,0.0
 0144635,0.00001180,0.00000592,-0.00003407,-0.00000517,-0.00001372,-0.0
 0001746,0.00000972,-0.00000115,-0.00001088,0.00006632,0.00006346,-0.00
 003506,0.00015970,0.00004371,-0.00003432,-0.00000821,-0.00001075,-0.00
 000559,0.00000390,0.00002403,0.00000342,0.00001606,0.00000708,-0.00000
 769,0.00005594,0.00004661,-0.00009219,0.00064587,0.00044252,-0.0002897
 3,-0.00176988,0.00373867,-0.00015061,0.01288315,0.00017144,-0.01952139
 ,0.12179451,-0.00019778,0.00007584,-0.00000551,-0.00016071,-0.00005469
 ,-0.00009217,-0.00000702,0.00003661,-0.00002913,0.00013455,0.00005545,
 0.00017849,0.00016831,-0.00000333,-0.00008278,-0.00004552,0.00000071,0
 .00002514,0.00087802,0.00201176,-0.00144266,0.01444298,-0.00098753,-0.
 02485828,-0.00143234,-0.04919732,0.00157867,-0.00113135,0.00090255,-0.
 00095603,0.00000885,-0.00002353,0.00003689,-0.00002330,0.00000606,-0.0
 0000422,-0.00000565,0.00001037,0.00000213,-0.00010341,-0.00009280,0.00
 004473,-0.00021385,-0.00005007,0.00009672,0.00000528,-0.00000538,-0.00
 000209,-0.00000853,0.00003093,0.00000696,-0.00001802,-0.00003423,0.000
 02943,-0.00005382,-0.00010157,0.00001565,-0.00044179,-0.00028221,0.000
 70584,0.00353707,-0.00429161,-0.00037993,-0.00028116,-0.00095713,-0.00
 014025,-0.00204740,0.05177739,0.00005387,-0.00005477,-0.00010706,-0.00
 014206,0.00018111,0.00034815,0.00001025,-0.00003851,-0.00008997,-0.000
 20770,-0.00021967,0.00031116,-0.00002577,0.00018721,-0.00003004,0.0000
 6558,-0.00005422,-0.00003093,-0.00008879,0.00061254,0.00006405,0.00112
 809,-0.00049861,-0.00303582,0.11137065,0.00111851,-0.24300585,-0.00061
 040,0.00008691,0.00126293,0.00000527,-0.00000418,0.00002726,-0.0000047
 7,-0.00001856,0.00000859,0.00001046,0.00001495,0.00001041,-0.00002407,
 -0.00001049,0.00006178,-0.00007060,-0.00000952,0.00000953,0.00000048,-
 0.00000057,-0.00001047,-0.00002184,-0.00002440,0.00000982,-0.00000604,
 -0.00001461,0.00003151,0.00009520,0.00001526,-0.00004168,-0.00030860,-
 0.00073754,0.00035544,0.00004824,-0.00066563,0.00147920,0.01296310,0.0
 0059561,-0.02048525,-0.12431205,-0.00081862,0.26271887,0.00015297,-0.0
 0017605,-0.00003265,0.00004242,0.00027384,0.00023710,0.00015867,-0.000
 12157,0.00004697,0.00087582,0.00099885,-0.00006752,0.00008015,-0.00006
 912,-0.00008041,-0.00030423,0.00029447,0.00001096,-0.00264989,0.002471
 85,0.00005523,0.01181377,0.01811463,-0.00163605,-0.12928402,-0.1214885
 9,0.00679117,0.00132793,0.00021903,0.00034959,0.00000316,0.00001431,-0
 .00001339,-0.00000701,-0.00003898,0.00000020,-0.00000477,0.00000678,0.
 00001120,-0.00000925,-0.00000594,0.00001053,-0.00002476,-0.00001695,0.
 00001796,-0.00000777,-0.00001071,0.00001696,0.00009657,0.00013304,-0.0
 0001547,-0.00000207,-0.00000539,-0.00001838,0.00002901,0.00012691,0.00
 026917,-0.00001129,0.00012643,-0.00027010,0.00091444,-0.00086299,-0.00
 015102,-0.01184730,-0.01759229,0.00239986,-0.00923891,-0.01290308,-0.0
 0040004,0.13812301,0.00006097,0.00021586,-0.00003964,0.00020503,-0.000
 35149,-0.00020181,-0.00014242,0.00028256,-0.00007562,-0.00196527,-0.00
 049058,0.00000960,-0.00003083,-0.00010302,0.00018951,0.00062750,-0.000
 46324,-0.00002371,0.00573943,-0.00337137,-0.00064566,-0.01570464,-0.02
 238056,0.00160382,-0.12058833,-0.23084349,0.01033686,-0.00153235,0.001
 01954,-0.00032062,-0.00002341,0.00000837,0.00000651,0.00012268,0.00004
 711,0.00007735,-0.00001211,0.00001359,0.00000317,0.00007440,-0.0000511
 3,-0.00007699,0.00001723,0.00005168,-0.00002453,0.00000469,0.00004374,
 -0.00001456,-0.00012718,-0.00027482,0.00003351,-0.00001537,0.00003304,
 0.00001904,0.00005633,0.00028697,-0.00013120,0.00010779,0.00030749,0.0
 0013243,-0.00008413,0.00101257,-0.00041721,0.00075660,0.00151020,-0.00
 066347,0.00058077,0.00093256,0.00045057,0.13083590,0.25234432,0.000088
 63,-0.00004391,-0.00002428,-0.00014707,0.00000432,-0.00009002,0.000086
 32,-0.00010441,0.00000377,-0.00013437,-0.00012450,0.00060997,-0.000093
 72,0.00009254,0.00000097,0.00006625,-0.00005964,-0.00003258,0.00048031
 ,-0.00028641,0.00006256,-0.00171691,-0.00256030,-0.00133716,0.00664094
 ,0.01029674,-0.05048524,0.00044256,0.00051581,0.00005840,0.00000010,-0
 .00001422,0.00000715,0.00000453,-0.00002843,0.00002462,-0.00000340,0.0
 0000329,-0.00000244,-0.00000470,0.00000964,0.00002747,0.00002022,0.000
 00325,0.00000206,-0.00000899,0.00000462,-0.00000214,-0.00001472,-0.000
 02974,0.00000308,0.00000676,-0.00000094,0.00000625,0.00033852,0.000308
 07,0.00019250,-0.00032744,-0.00031365,0.00032831,-0.00048704,-0.000146
 89,0.00008137,-0.01351377,-0.02213874,0.00195082,0.01588679,0.02521830
 ,-0.00035806,-0.00751847,-0.01076615,0.04882228,0.00190423,-0.00140172
 ,0.00007033,0.01150560,0.01604956,-0.00196814,-0.00209637,0.00272523,0
 .00033032,-0.00040886,0.00029970,-0.00013059,0.00004027,-0.00009828,0.
 00007017,0.00016097,-0.00008484,0.00004808,-0.00206325,0.00167468,-0.0
 0414202,-0.01275215,-0.01637720,0.00346647,0.00043575,-0.00125594,0.00
 066562,-0.15331388,-0.13171746,0.01504220,-0.00007362,-0.00006053,-0.0
 0005149,0.00057604,0.00090488,0.00006568,-0.00000729,0.00002463,0.0000
 6266,0.00004832,-0.00004927,-0.00005729,-0.00000876,0.00000788,-0.0000
 1618,0.00005495,0.00006145,0.00002078,-0.00000666,-0.00011708,0.000004
 94,-0.00000407,0.00002085,-0.00000645,-0.00066876,-0.00140156,-0.00019
 836,0.00031504,0.00036979,0.00004786,0.00113770,0.00037334,0.00005336,
 0.00033504,0.00030292,-0.00005626,-0.00002709,0.00000743,-0.00006000,-
 0.00011266,0.00095599,-0.00021526,0.16392591,0.00009635,0.00598525,-0.
 00057826,-0.02221706,-0.02622821,0.00324872,0.00495976,-0.00325777,-0.
 00059926,0.00039902,0.00015584,0.00049573,-0.00017588,-0.00006555,0.00
 002504,-0.00004107,0.00009255,-0.00014548,0.00081172,0.00081792,0.0000
 4297,0.00140279,0.00107836,-0.00116182,0.00043166,0.00083016,0.0000280
 9,-0.12743401,-0.20939642,0.01853419,0.00009564,0.00044373,0.00014178,
 -0.00090108,-0.00150262,-0.00012123,0.00000281,0.00001024,-0.00008995,
 0.00001322,0.00003333,0.00003026,0.00003798,0.00000869,-0.00001732,-0.
 00011229,-0.00002227,-0.00005458,0.00003683,0.00004638,0.00002641,0.00
 001937,0.00000628,0.00000869,0.00002973,0.00017496,0.00010154,-0.00000
 408,-0.00003397,0.00006174,-0.00005703,0.00019772,-0.00040505,-0.00005
 040,0.00011277,-0.00009613,0.00004550,-0.00000739,-0.00000637,-0.00023
 144,0.00027545,0.00005587,0.14021993,0.22716579,-0.00055660,0.00025086
 ,-0.00120684,0.00065939,-0.00200332,-0.00065547,-0.00000206,0.00040087
 ,0.00124313,-0.00024941,0.00065751,-0.00012547,0.00000737,-0.00008621,
 0.00006133,0.00016815,-0.00008255,0.00002838,-0.00294182,0.00136297,-0
 .00375965,-0.01552830,-0.02022608,0.00225241,0.00076953,-0.00075510,0.
 00049324,0.01478052,0.01855470,-0.05222770,-0.00037476,-0.00040306,0.0
 0024465,0.00005329,0.00011738,0.00039329,0.00000949,0.00002201,0.00004
 836,0.00003745,-0.00002533,-0.00004855,0.00000038,0.00000861,-0.000015
 04,0.00004742,0.00006373,0.00003474,0.00000548,-0.00008777,0.00003097,
 -0.00001457,0.00000895,-0.00000042,-0.00096980,-0.00128550,0.00013966,
 -0.00030230,-0.00011322,0.00022896,0.00086076,-0.00035857,0.00096499,0
 .00025274,-0.00004886,-0.00008481,-0.00001179,0.00016355,-0.00001544,0
 .00005589,0.00046478,0.00019994,-0.01387220,-0.01977405,0.05353962,-0.
 00115191,0.00406186,-0.00305793,-0.01207883,-0.00067975,0.01724606,0.0
 0027476,-0.00024567,-0.00111397,-0.00005588,-0.00027940,-0.00003419,-0
 .00007455,0.00002047,-0.00001179,-0.00005459,0.00000008,-0.00002456,0.
 00143056,0.00036829,-0.00010307,0.00935267,-0.00169115,-0.02245892,0.0
 0174429,-0.00032765,-0.00059106,-0.10049617,0.00553697,0.10962221,0.00
 062670,0.00036458,-0.00032145,-0.00006008,-0.00009055,-0.00037164,0.00
 003653,0.00003400,-0.00001051,-0.00000961,-0.00002286,0.00004374,-0.00
 005345,0.00003856,-0.00001319,-0.00000954,-0.00002155,0.00000418,0.000
 00173,0.00002131,0.00000191,0.00000830,-0.00001203,0.00000532,0.000158
 38,0.00034312,0.00022738,-0.00016533,0.00004652,0.00040551,-0.00278575
 ,0.00009059,-0.00381700,0.00031618,-0.00034432,0.00011385,-0.00009129,
 -0.00010776,0.00053158,-0.00011400,0.00008074,0.00012392,-0.00889641,0
 .00262204,0.01711574,0.11214728,0.00275384,-0.00288689,0.00351055,0.01
 312332,0.00212553,-0.02802860,-0.00134618,-0.00035507,0.00315062,0.000
 38063,0.00025093,0.00011366,0.00003625,0.00017344,0.00000340,0.0000399
 7,-0.00000358,0.00000565,0.00058533,0.00007318,-0.00101458,-0.00088376
 ,0.00023376,0.00096059,-0.00059522,0.00023658,0.00105899,0.00714691,-0
 .05279590,-0.01954618,-0.00035453,-0.00161346,-0.00001923,0.00004200,0
 .00041656,0.00042266,-0.00003744,-0.00001260,0.00000804,-0.00000792,0.
 00001065,0.00001949,-0.00000299,-0.00001778,0.00006752,0.00001073,-0.0
 0000165,0.00000018,-0.00001700,0.00001776,0.00001589,-0.00001518,-0.00
 002936,0.00001544,-0.00002081,0.00001240,0.00013650,-0.00025106,0.0000
 7780,0.00002379,0.00059031,0.00066544,0.00030901,-0.00006603,-0.000121
 61,-0.00015402,0.00022258,0.00024856,-0.00008639,-0.00009295,-0.000055
 36,0.00010548,-0.01143439,0.00307876,0.02317370,-0.00980642,0.05027190
 ,-0.00061532,-0.00057755,-0.00090245,0.00052936,0.00043230,0.00094373,
 0.00062282,0.00017810,-0.00060814,-0.00038108,-0.00004304,-0.00012555,
 0.00018257,0.00013373,0.00001954,0.00004644,-0.00004313,-0.00001280,0.
 00141261,0.00066119,0.00067049,0.01029100,-0.00106436,-0.02711223,0.00
 180398,-0.00073981,0.00130034,0.10606276,-0.01451543,-0.23328205,-0.00
 031166,0.00003894,0.00055308,-0.00005590,-0.00014911,0.00023483,0.0000
 1185,0.00001736,0.00004272,-0.00004548,-0.00006901,0.00004209,-0.00014
 666,0.00003145,0.00006541,0.00000143,-0.00000038,0.00001441,-0.0000159
 5,-0.00001488,0.00000704,-0.00003664,-0.00002503,0.00003231,-0.0001582
 3,0.00015890,0.00044638,-0.00081340,-0.00067914,0.00051982,-0.00457357
 ,-0.00023377,-0.00282270,-0.00005664,-0.00027683,0.00051534,-0.0009986
 4,0.00070919,0.00051185,-0.00006929,0.00007401,-0.00004961,0.00082577,
 0.00024847,-0.00176428,-0.11351212,0.01574783,0.26076040\\-0.00000781,
 0.00001199,0.00001891,0.00013938,0.00002056,0.00000854,-0.00011858,-0.
 00007255,-0.00004485,-0.00001736,-0.00001578,-0.00001894,0.00002358,0.
 00002473,-0.00001216,0.00001906,0.00004066,0.00000896,0.00001600,0.000
 00562,0.00000693,0.00004157,0.00003793,0.00004242,-0.00000755,0.000005
 37,0.00000553,-0.00007277,-0.00004632,-0.00010126,-0.00000079,0.000007
 53,0.00000798,0.00000524,-0.00002497,0.00001469,-0.00000339,-0.0000035
 3,0.00000449,-0.00000440,0.00000757,-0.00000381,-0.00000435,-0.0000022
 7,-0.00000139,0.00000137,0.00000345,0.00000221,0.00000913,-0.00000352,
 0.00000724,-0.00001331,-0.00001042,0.00001149,-0.00000821,-0.00001367,
 0.00000085,-0.00000915,-0.00000185,0.00001162,-0.00000125,0.00000494,0
 .00000448,-0.00001979,-0.00000758,0.00000381,0.00000904,0.00000872,0.0
 0001874,0.00000625,0.00000753,-0.00002655,0.00001178,0.00002105,0.0000
 1421,0.00000630,-0.00000519,0.00001586\\\@


 EDUCATION DOESN'T COST 
           ... IT PAYS!

 -- POSTMARK, UNIV. OF MISSISSIPPI, DEC 78
 Job cpu time:       0 days  0 hours  2 minutes 22.3 seconds.
 Elapsed time:       0 days  0 hours 49 minutes 59.5 seconds.
 File lengths (MBytes):  RWF=    106 Int=      0 D2E=      0 Chk=      5 Scr=      1
 Normal termination of Gaussian 16 at Wed Feb 21 21:15:43 2024.
