 Entering Gaussian System, Link 0=g16
 Input=/Volumes/SSD-PMU3/b3lyp_6-31gd_freq/JPEOUSFBWXVGFX-RAFNTYLNSA-N_calculating/gaussianinput0.gjf
 Output=/Volumes/SSD-PMU3/b3lyp_6-31gd_freq/JPEOUSFBWXVGFX-RAFNTYLNSA-N_calculating/gaussianinput0.log
 Initial command:
 /Applications/g16/l1.exe "/Users/macmini_m1_2022/PycharmProjects/sphere_model/sphere_model_lib/Gau-87381.inp" -scrdir="/Users/macmini_m1_2022/PycharmProjects/sphere_model/sphere_model_lib/"
 Entering Link 1 = /Applications/g16/l1.exe PID=     87382.
  
 Copyright (c) 1988,1990,1992,1993,1995,1998,2003,2009,2016,
            Gaussian, Inc.  All Rights Reserved.
  
 This is part of the Gaussian(R) 16 program.  It is based on
 the Gaussian(R) 09 system (copyright 2009, Gaussian, Inc.),
 the Gaussian(R) 03 system (copyright 2003, Gaussian, Inc.),
 the Gaussian(R) 98 system (copyright 1998, Gaussian, Inc.),
 the Gaussian(R) 94 system (copyright 1995, Gaussian, Inc.),
 the Gaussian 92(TM) system (copyright 1992, Gaussian, Inc.),
 the Gaussian 90(TM) system (copyright 1990, Gaussian, Inc.),
 the Gaussian 88(TM) system (copyright 1988, Gaussian, Inc.),
 the Gaussian 86(TM) system (copyright 1986, Carnegie Mellon
 University), and the Gaussian 82(TM) system (copyright 1983,
 Carnegie Mellon University). Gaussian is a federally registered
 trademark of Gaussian, Inc.
  
 This software contains proprietary and confidential information,
 including trade secrets, belonging to Gaussian, Inc.
  
 This software is provided under written license and may be
 used, copied, transmitted, or stored only in accord with that
 written license.
  
 The following legend is applicable only to US Government
 contracts under FAR:
  
                    RESTRICTED RIGHTS LEGEND
  
 Use, reproduction and disclosure by the US Government is
 subject to restrictions as set forth in subparagraphs (a)
 and (c) of the Commercial Computer Software - Restricted
 Rights clause in FAR 52.227-19.
  
 Gaussian, Inc.
 340 Quinnipiac St., Bldg. 40, Wallingford CT 06492
  
  
 ---------------------------------------------------------------
 Warning -- This program may not be used in any manner that
 competes with the business of Gaussian, Inc. or will provide
 assistance to any competitor of Gaussian, Inc.  The licensee
 of this program is prohibited from giving any competitor of
 Gaussian, Inc. access to this program.  By using this program,
 the user acknowledges that Gaussian, Inc. is engaged in the
 business of creating and licensing software in the field of
 computational chemistry and represents and warrants to the
 licensee that it is not a competitor of Gaussian, Inc. and that
 it will not use this program in any manner prohibited above.
 ---------------------------------------------------------------
  

 Cite this work as:
 Gaussian 16, Revision A.03,
 M. J. Frisch, G. W. Trucks, H. B. Schlegel, G. E. Scuseria, 
 M. A. Robb, J. R. Cheeseman, G. Scalmani, V. Barone, 
 G. A. Petersson, H. Nakatsuji, X. Li, M. Caricato, A. V. Marenich, 
 J. Bloino, B. G. Janesko, R. Gomperts, B. Mennucci, H. P. Hratchian, 
 J. V. Ortiz, A. F. Izmaylov, J. L. Sonnenberg, D. Williams-Young, 
 F. Ding, F. Lipparini, F. Egidi, J. Goings, B. Peng, A. Petrone, 
 T. Henderson, D. Ranasinghe, V. G. Zakrzewski, J. Gao, N. Rega, 
 G. Zheng, W. Liang, M. Hada, M. Ehara, K. Toyota, R. Fukuda, 
 J. Hasegawa, M. Ishida, T. Nakajima, Y. Honda, O. Kitao, H. Nakai, 
 T. Vreven, K. Throssell, J. A. Montgomery, Jr., J. E. Peralta, 
 F. Ogliaro, M. J. Bearpark, J. J. Heyd, E. N. Brothers, K. N. Kudin, 
 V. N. Staroverov, T. A. Keith, R. Kobayashi, J. Normand, 
 K. Raghavachari, A. P. Rendell, J. C. Burant, S. S. Iyengar, 
 J. Tomasi, M. Cossi, J. M. Millam, M. Klene, C. Adamo, R. Cammi, 
 J. W. Ochterski, R. L. Martin, K. Morokuma, O. Farkas, 
 J. B. Foresman, and D. J. Fox, Gaussian, Inc., Wallingford CT, 2016.
 
 ******************************************
 Gaussian 16:  EM64M-G16RevA.03 25-Dec-2016
                24-Feb-2024 
 ******************************************
 %nprocshared=10
 Will use up to   10 processors via shared memory.
 %mem=12GB
 %chk= 0.chk
 ---------------------
 # freq b3lyp/6-31g(d)
 ---------------------
 1/10=4,30=1,38=1/1,3;
 2/12=2,17=6,18=5,40=1/2;
 3/5=1,6=6,7=1,11=2,25=1,30=1,71=2,74=-5,140=1/1,2,3;
 4//1;
 5/5=2,38=5,98=1/2;
 8/6=4,10=90,11=11/1;
 11/6=1,8=1,9=11,15=111,16=1/1,2,10;
 10/6=1/2;
 6/7=2,8=2,9=2,10=2,28=1/1;
 7/8=1,10=1,25=1/1,2,3,16;
 1/10=4,30=1/3;
 99//99;
 ---------
 good luck
 ---------
 Symbolic Z-matrix:
 Charge =  0 Multiplicity = 1
 O                     1.21503   0.        0. 
 C                     0.        0.        0. 
 C                    -0.85098  -1.26887  -0.00849 
 C                    -1.76895  -1.25858   1.24307 
 C                    -1.72329  -1.25904  -1.28931 
 C                    -2.61322   0.       -1.29985 
 C                    -1.72329   1.25904  -1.28931 
 C                    -0.85098   1.26887  -0.00849 
 C                    -1.76895   1.25858   1.24307 
 C                    -2.64939   0.        1.20757 
 Cl                   -3.73863   0.        2.69539 
 C                    -3.52713   0.       -0.052 
 H                    -0.18501  -2.13691   0.01208 
 H                    -2.39784  -2.15651   1.25016 
 H                    -1.16965  -1.27037   2.16041 
 H                    -2.34081  -2.16664  -1.3157 
 H                    -1.08258  -1.28005  -2.18001 
 H                    -3.23936   0.       -2.20077 
 H                    -1.08258   1.28005  -2.18001 
 H                    -2.34081   2.16665  -1.3157 
 H                    -0.18501   2.13691   0.01208 
 H                    -2.39784   2.15651   1.25016 
 H                    -1.16965   1.27037   2.16041 
 H                    -4.17627  -0.88346  -0.0509 
 H                    -4.17627   0.88346  -0.0509 
 

 GradGradGradGradGradGradGradGradGradGradGradGradGradGradGradGradGradGrad
 Berny optimization.
 Initialization pass.
 Trust Radius=3.00D-01 FncErr=1.00D-07 GrdErr=1.00D-07 EigMax=2.50D+02 EigMin=1.00D-04
 Number of steps in this run=      2 maximum allowed number of steps=      2.
 GradGradGradGradGradGradGradGradGradGradGradGradGradGradGradGradGradGrad

                          Input orientation:                          
 ---------------------------------------------------------------------
 Center     Atomic      Atomic             Coordinates (Angstroms)
 Number     Number       Type             X           Y           Z
 ---------------------------------------------------------------------
      1          8           0        1.215032    0.000000    0.000000
      2          6           0        0.000000    0.000000    0.000000
      3          6           0       -0.850978   -1.268875   -0.008486
      4          6           0       -1.768953   -1.258582    1.243066
      5          6           0       -1.723292   -1.259043   -1.289310
      6          6           0       -2.613217    0.000001   -1.299846
      7          6           0       -1.723291    1.259044   -1.289310
      8          6           0       -0.850977    1.268875   -0.008486
      9          6           0       -1.768952    1.258583    1.243066
     10          6           0       -2.649386    0.000001    1.207570
     11         17           0       -3.738629    0.000001    2.695392
     12          6           0       -3.527130    0.000001   -0.052002
     13          1           0       -0.185011   -2.136907    0.012077
     14          1           0       -2.397841   -2.156510    1.250155
     15          1           0       -1.169651   -1.270373    2.160407
     16          1           0       -2.340810   -2.166644   -1.315698
     17          1           0       -1.082583   -1.280049   -2.180006
     18          1           0       -3.239361    0.000001   -2.200766
     19          1           0       -1.082582    1.280050   -2.180007
     20          1           0       -2.340809    2.166646   -1.315698
     21          1           0       -0.185010    2.136907    0.012077
     22          1           0       -2.397840    2.156511    1.250155
     23          1           0       -1.169650    1.270374    2.160407
     24          1           0       -4.176269   -0.883461   -0.050896
     25          1           0       -4.176269    0.883463   -0.050896
 ---------------------------------------------------------------------
                    Distance matrix (angstroms):
                    1          2          3          4          5
     1  O    0.000000
     2  C    1.215032   0.000000
     3  C    2.424565   1.527835   0.000000
     4  C    3.468920   2.501687   1.552149   0.000000
     5  C    3.446920   2.493440   1.549690   2.532788   0.000000
     6  C    4.042906   2.918647   2.526488   2.960273   1.541840
     7  C    3.446920   2.493440   2.965099   3.571198   2.518087
     8  C    2.424564   1.527834   2.537750   2.965991   2.965099
     9  C    3.468920   2.501687   2.965991   2.517165   3.571198
    10  C    4.048698   2.911610   2.514579   1.536377   2.945718
    11  Cl   5.639494   4.608957   4.154459   2.751891   4.639464
    12  C    4.742447   3.527513   2.962048   2.520400   2.523877
    13  H    2.554729   2.144935   1.094264   2.189900   2.197854
    14  H    4.389336   3.458766   2.182856   1.096278   2.776571
    15  H    3.459468   2.765735   2.192180   1.095818   3.493880
    16  H    4.366855   3.450333   2.175866   2.774684   1.098073
    17  H    3.416136   2.750080   2.183865   3.491273   1.097401
    18  H    4.968399   3.916227   3.481452   3.950457   2.171269
    19  H    3.416137   2.750080   3.356510   4.316617   2.766016
    20  H    4.366855   3.450334   3.966258   4.313523   3.481001
    21  H    2.554728   2.144935   3.470344   3.943800   3.948721
    22  H    4.389336   3.458766   3.963613   3.472522   4.309281
    23  H    3.459468   2.765735   3.354614   2.756138   4.313353
    24  H    5.463444   4.268995   3.347821   2.758663   2.773414
    25  H    5.463444   4.268995   3.961303   3.472444   3.484408
                    6          7          8          9         10
     6  C    0.000000
     7  C    1.541839   0.000000
     8  C    2.526488   1.549690   0.000000
     9  C    2.960273   2.532788   1.552149   0.000000
    10  C    2.507677   2.945717   2.514579   1.536376   0.000000
    11  Cl   4.150720   4.639464   4.154459   2.751892   1.843926
    12  C    1.546723   2.523877   2.962048   2.520401   1.535238
    13  H    3.490516   3.948721   3.470344   3.943800   3.474007
    14  H    3.346555   4.309282   3.963613   3.472522   2.171550
    15  H    3.958672   4.313353   3.354613   2.756138   2.170568
    16  H    2.183760   3.481000   3.966257   4.313522   3.340127
    17  H    2.180837   2.766015   3.356509   4.316616   3.945766
    18  H    1.097139   2.171269   3.481452   3.950457   3.459021
    19  H    2.180838   1.097402   2.183866   3.491274   3.945767
    20  H    2.183760   1.098074   2.175867   2.774684   3.340128
    21  H    3.490515   2.197853   1.094264   2.189899   3.474006
    22  H    3.346555   2.776571   2.182856   1.096278   2.171549
    23  H    3.958672   3.493880   2.192180   1.095818   2.170568
    24  H    2.187124   3.484408   3.961302   3.472444   2.166936
    25  H    2.187124   2.773415   3.347821   2.758664   2.166936
                   11         12         13         14         15
    11  Cl   0.000000
    12  C    2.755523   0.000000
    13  H    4.939105   3.967397   0.000000
    14  H    2.921808   2.760697   2.535713   0.000000
    15  H    2.915426   3.473660   2.517085   1.766988   0.000000
    16  H    4.768343   2.774641   2.532062   2.566507   3.776006
    17  H    5.697597   3.484643   2.518942   3.776783   4.341297
    18  H    4.921548   2.167948   4.334986   4.155424   4.991731
    19  H    5.697598   3.484644   4.157699   5.030493   5.035021
    20  H    4.768343   2.774642   4.993097   5.027577   5.026730
    21  H    4.939105   3.967397   4.273814   4.986270   4.146613
    22  H    2.921808   2.760696   4.986270   4.313021   3.752405
    23  H    2.915426   3.473660   4.146613   3.752405   2.540747
    24  H    2.917898   1.096306   4.183926   2.544837   3.752241
    25  H    2.917898   1.096306   5.005671   3.754594   4.309132
                   16         17         18         19         20
    16  H    0.000000
    17  H    1.765280   0.000000
    18  H    2.507008   2.508117   0.000000
    19  H    3.769598   2.560099   2.508117   0.000000
    20  H    4.333290   3.769598   2.507008   1.765281   0.000000
    21  H    4.993096   4.157698   4.334986   2.518943   2.532062
    22  H    5.027576   5.030492   4.155424   3.776784   2.566507
    23  H    5.026730   5.035020   4.991731   4.341298   3.776006
    24  H    2.572002   3.776412   2.506041   4.334143   3.777802
    25  H    3.777802   4.334142   2.506041   3.776413   2.572002
                   21         22         23         24         25
    21  H    0.000000
    22  H    2.535713   0.000000
    23  H    2.517085   1.766988   0.000000
    24  H    5.005670   3.754594   4.309133   0.000000
    25  H    4.183926   2.544837   3.752242   1.766924   0.000000
 Stoichiometry    C10H13ClO
 Framework group  CS[SG(C4HClO),X(C6H12)]
 Deg. of freedom    38
 Full point group                 CS      NOp   2
 Largest Abelian subgroup         CS      NOp   2
 Largest concise Abelian subgroup CS      NOp   2
                         Standard orientation:                         
 ---------------------------------------------------------------------
 Center     Atomic      Atomic             Coordinates (Angstroms)
 Number     Number       Type             X           Y           Z
 ---------------------------------------------------------------------
      1          8           0       -2.246385    2.177257   -0.000000
      2          6           0       -1.266641    1.458645   -0.000000
      3          6           0       -0.575434    0.962189    1.268875
      4          6           0       -0.575434   -0.589925    1.258583
      5          6           0        0.885483    1.479068    1.259044
      6          6           0        1.609308    0.961231    0.000000
      7          6           0        0.885483    1.479068   -1.259044
      8          6           0       -0.575434    0.962189   -1.268875
      9          6           0       -0.575434   -0.589925   -1.258583
     10          6           0        0.155500   -1.082022    0.000000
     11         17           0        0.153864   -2.925948   -0.000000
     12          6           0        1.608226   -0.585491    0.000000
     13          1           0       -1.124600    1.339485    2.136907
     14          1           0       -0.072521   -0.967588    2.156511
     15          1           0       -1.601230   -0.975178    1.270373
     16          1           0        1.399027    1.135125    2.166645
     17          1           0        0.895634    2.576221    1.280049
     18          1           0        2.647037    1.317367    0.000000
     19          1           0        0.895634    2.576221   -1.280049
     20          1           0        1.399027    1.135125   -2.166645
     21          1           0       -1.124600    1.339485   -2.136907
     22          1           0       -0.072521   -0.967588   -2.156511
     23          1           0       -1.601230   -0.975178   -1.270373
     24          1           0        2.131006   -0.970307    0.883462
     25          1           0        2.131006   -0.970307   -0.883462
 ---------------------------------------------------------------------
 Rotational constants (GHZ):           1.4038952           0.7130930           0.6589426
 Standard basis: 6-31G(d) (6D, 7F)
 There are   128 symmetry adapted cartesian basis functions of A'  symmetry.
 There are    82 symmetry adapted cartesian basis functions of A"  symmetry.
 There are   128 symmetry adapted basis functions of A'  symmetry.
 There are    82 symmetry adapted basis functions of A"  symmetry.
   210 basis functions,   412 primitive gaussians,   210 cartesian basis functions
    49 alpha electrons       49 beta electrons
       nuclear repulsion energy       861.3005532053 Hartrees.
 NAtoms=   25 NActive=   25 NUniq=   16 SFac= 2.44D+00 NAtFMM=   60 NAOKFM=F Big=F
 Integral buffers will be    131072 words long.
 Raffenetti 2 integral format.
 Two-electron integral symmetry is turned on.
 One-electron integrals computed using PRISM.
 NBasis=   210 RedAO= T EigKep=  2.33D-03  NBF=   128    82
 NBsUse=   210 1.00D-06 EigRej= -1.00D+00 NBFU=   128    82
 ExpMin= 1.43D-01 ExpMax= 2.52D+04 ExpMxC= 3.78D+03 IAcc=3 IRadAn=         5 AccDes= 0.00D+00
 Harris functional with IExCor=  402 and IRadAn=       5 diagonalized for initial guess.
 HarFok:  IExCor=  402 AccDes= 0.00D+00 IRadAn=         5 IDoV= 1 UseB2=F ITyADJ=14
 ICtDFT=  3500011 ScaDFX=  1.000000  1.000000  1.000000  1.000000
 FoFCou: FMM=F IPFlag=           0 FMFlag=      100000 FMFlg1=           0
         NFxFlg=           0 DoJE=T BraDBF=F KetDBF=T FulRan=T
         wScrn=  0.000000 ICntrl=       500 IOpCl=  0 I1Cent=   200000004 NGrid=           0
         NMat0=    1 NMatS0=      1 NMatT0=    0 NMatD0=    1 NMtDS0=    0 NMtDT0=    0
 Petite list used in FoFCou.
 Initial guess orbital symmetries:
       Occupied  (A') (A') (A') (A") (A') (A") (A') (A') (A") (A')
                 (A') (A') (A') (A') (A') (A") (A') (A') (A') (A")
                 (A') (A") (A') (A') (A") (A') (A') (A') (A") (A')
                 (A') (A') (A") (A") (A') (A") (A') (A') (A") (A')
                 (A") (A") (A') (A") (A') (A') (A") (A') (A")
       Virtual   (A') (A') (A') (A') (A") (A') (A") (A') (A") (A')
                 (A') (A') (A") (A") (A') (A') (A") (A') (A") (A")
                 (A') (A') (A') (A") (A') (A") (A") (A') (A') (A")
                 (A') (A') (A") (A') (A") (A') (A') (A') (A") (A')
                 (A') (A") (A') (A") (A') (A") (A') (A") (A') (A')
                 (A") (A') (A") (A') (A") (A') (A') (A") (A') (A")
                 (A") (A') (A') (A') (A') (A") (A') (A") (A') (A')
                 (A") (A') (A") (A') (A") (A') (A") (A') (A") (A')
                 (A') (A") (A') (A") (A') (A") (A') (A') (A") (A')
                 (A') (A") (A") (A") (A') (A') (A') (A") (A") (A')
                 (A") (A') (A") (A") (A') (A') (A") (A') (A') (A")
                 (A') (A') (A") (A') (A') (A") (A") (A') (A') (A')
                 (A') (A") (A') (A") (A") (A') (A') (A") (A") (A')
                 (A") (A') (A") (A") (A') (A') (A") (A') (A') (A")
                 (A') (A') (A") (A') (A') (A") (A') (A') (A") (A')
                 (A') (A') (A") (A') (A') (A") (A') (A') (A') (A')
                 (A")
 The electronic state of the initial guess is 1-A'.
 Keep R1 ints in memory in symmetry-blocked form, NReq=368541906.
 Requested convergence on RMS density matrix=1.00D-08 within 128 cycles.
 Requested convergence on MAX density matrix=1.00D-06.
 Requested convergence on             energy=1.00D-06.
 No special actions if energy rises.
 Integral accuracy reduced to 1.0D-05 until final iterations.
 Initial convergence to 1.0D-05 achieved.  Increase integral accuracy.
 SCF Done:  E(RB3LYP) =  -924.337291970     A.U. after   14 cycles
            NFock= 14  Conv=0.43D-08     -V/T= 2.0063
 DoSCS=F DFT=T ScalE2(SS,OS)=  1.000000  1.000000
 Range of M.O.s used for correlation:     1   210
 NBasis=   210 NAE=    49 NBE=    49 NFC=     0 NFV=     0
 NROrb=    210 NOA=    49 NOB=    49 NVA=   161 NVB=   161
 Symmetrizing basis deriv contribution to polar:
 IMax=3 JMax=2 DiffMx= 0.00D+00
 G2DrvN: will do    26 centers at a time, making    1 passes.
 Calling FoFCou, ICntrl=  3107 FMM=F I1Cent=   0 AccDes= 0.00D+00.
 End of G2Drv F.D. properties file   721 does not exist.
 End of G2Drv F.D. properties file   722 does not exist.
 End of G2Drv F.D. properties file   788 does not exist.
          IDoAtm=1111111111111111111111111
          Differentiating once with respect to electric field.
                with respect to dipole field.
          Differentiating once with respect to nuclear coordinates.
 Keep R1 ints in memory in symmetry-blocked form, NReq=368552046.
          There are    51 degrees of freedom in the 1st order CPHF.  IDoFFX=4 NUNeed=    51.
     51 vectors produced by pass  0 Test12= 1.55D-14 1.96D-09 XBig12= 8.76D+01 2.75D+00.
 AX will form    51 AO Fock derivatives at one time.
     51 vectors produced by pass  1 Test12= 1.55D-14 1.96D-09 XBig12= 9.86D+00 8.47D-01.
     51 vectors produced by pass  2 Test12= 1.55D-14 1.96D-09 XBig12= 2.19D-01 6.52D-02.
     51 vectors produced by pass  3 Test12= 1.55D-14 1.96D-09 XBig12= 2.59D-03 9.73D-03.
     51 vectors produced by pass  4 Test12= 1.55D-14 1.96D-09 XBig12= 5.89D-06 4.00D-04.
     48 vectors produced by pass  5 Test12= 1.55D-14 1.96D-09 XBig12= 7.14D-09 9.85D-06.
     12 vectors produced by pass  6 Test12= 1.55D-14 1.96D-09 XBig12= 7.26D-12 3.44D-07.
      3 vectors produced by pass  7 Test12= 1.55D-14 1.96D-09 XBig12= 8.10D-15 1.02D-08.
 InvSVY:  IOpt=1 It=  1 EMax= 7.11D-15
 Solved reduced A of dimension   318 with    51 vectors.
 Isotropic polarizability for W=    0.000000      106.04 Bohr**3.
 End of Minotr F.D. properties file   721 does not exist.
 End of Minotr F.D. properties file   722 does not exist.
 End of Minotr F.D. properties file   788 does not exist.

 **********************************************************************

            Population analysis using the SCF density.

 **********************************************************************

 Orbital symmetries:
       Occupied  (A') (A') (A') (A') (A') (A") (A') (A") (A') (A")
                 (A') (A') (A') (A') (A') (A") (A') (A') (A') (A")
                 (A') (A') (A") (A') (A") (A') (A') (A') (A') (A")
                 (A') (A') (A") (A") (A') (A') (A") (A') (A") (A')
                 (A") (A') (A") (A") (A') (A') (A") (A') (A")
       Virtual   (A') (A') (A') (A') (A") (A') (A") (A') (A') (A")
                 (A') (A') (A") (A') (A") (A") (A') (A') (A") (A")
                 (A') (A') (A") (A') (A") (A') (A") (A') (A') (A')
                 (A') (A") (A") (A') (A") (A') (A') (A") (A') (A')
                 (A') (A") (A') (A") (A") (A') (A') (A') (A") (A')
                 (A") (A') (A") (A') (A") (A') (A') (A') (A") (A")
                 (A') (A") (A') (A') (A") (A') (A') (A') (A") (A')
                 (A") (A') (A") (A') (A") (A') (A') (A") (A') (A")
                 (A') (A') (A") (A") (A') (A") (A') (A') (A') (A")
                 (A') (A") (A") (A') (A") (A') (A') (A") (A') (A")
                 (A") (A") (A') (A') (A") (A') (A") (A') (A') (A")
                 (A') (A') (A") (A') (A') (A") (A") (A') (A') (A')
                 (A') (A") (A') (A") (A") (A') (A') (A") (A") (A')
                 (A") (A') (A") (A") (A') (A') (A') (A") (A') (A')
                 (A") (A') (A") (A') (A') (A') (A") (A') (A") (A')
                 (A') (A') (A") (A') (A') (A") (A') (A') (A') (A')
                 (A")
 The electronic state is 1-A'.
 Alpha  occ. eigenvalues -- -101.52860 -19.14219 -10.27357 -10.26297 -10.20857
 Alpha  occ. eigenvalues --  -10.20606 -10.20604 -10.20521 -10.20520 -10.20199
 Alpha  occ. eigenvalues --  -10.20198 -10.20040  -9.44492  -7.20848  -7.19926
 Alpha  occ. eigenvalues --   -7.19925  -1.04068  -0.89969  -0.83683  -0.79284
 Alpha  occ. eigenvalues --   -0.78025  -0.74919  -0.69075  -0.66068  -0.61601
 Alpha  occ. eigenvalues --   -0.59513  -0.58064  -0.51741  -0.47453  -0.47359
 Alpha  occ. eigenvalues --   -0.46539  -0.45432  -0.45260  -0.43135  -0.42898
 Alpha  occ. eigenvalues --   -0.41599  -0.41518  -0.40187  -0.37629  -0.37569
 Alpha  occ. eigenvalues --   -0.35915  -0.35611  -0.35256  -0.32451  -0.31800
 Alpha  occ. eigenvalues --   -0.31581  -0.29111  -0.29088  -0.23954
 Alpha virt. eigenvalues --   -0.02011   0.01301   0.07502   0.10855   0.10963
 Alpha virt. eigenvalues --    0.11959   0.12621   0.12704   0.13732   0.14980
 Alpha virt. eigenvalues --    0.15769   0.16438   0.17936   0.18229   0.18474
 Alpha virt. eigenvalues --    0.19000   0.19577   0.20431   0.20842   0.23001
 Alpha virt. eigenvalues --    0.23080   0.24693   0.25203   0.25993   0.27732
 Alpha virt. eigenvalues --    0.27800   0.32788   0.34779   0.40435   0.45464
 Alpha virt. eigenvalues --    0.47130   0.47176   0.49954   0.50055   0.52116
 Alpha virt. eigenvalues --    0.52620   0.54104   0.56113   0.57193   0.60016
 Alpha virt. eigenvalues --    0.62082   0.62903   0.63178   0.63431   0.64109
 Alpha virt. eigenvalues --    0.64349   0.68008   0.69529   0.69581   0.72230
 Alpha virt. eigenvalues --    0.73032   0.74043   0.76097   0.76671   0.78035
 Alpha virt. eigenvalues --    0.78991   0.83620   0.85028   0.85167   0.85745
 Alpha virt. eigenvalues --    0.85926   0.86014   0.87363   0.89860   0.90817
 Alpha virt. eigenvalues --    0.90888   0.91416   0.93499   0.93575   0.94813
 Alpha virt. eigenvalues --    0.95238   0.95965   0.97102   0.99618   1.03902
 Alpha virt. eigenvalues --    1.05006   1.08705   1.10519   1.13535   1.15289
 Alpha virt. eigenvalues --    1.15803   1.20106   1.21022   1.24428   1.27577
 Alpha virt. eigenvalues --    1.31658   1.34534   1.39961   1.41870   1.41915
 Alpha virt. eigenvalues --    1.51225   1.58359   1.60446   1.61962   1.64600
 Alpha virt. eigenvalues --    1.65003   1.67891   1.69973   1.71691   1.72460
 Alpha virt. eigenvalues --    1.75714   1.76403   1.77041   1.81694   1.81700
 Alpha virt. eigenvalues --    1.83623   1.84963   1.86654   1.88765   1.92844
 Alpha virt. eigenvalues --    1.97933   2.00372   2.03691   2.04489   2.05914
 Alpha virt. eigenvalues --    2.06601   2.07603   2.09650   2.12109   2.14285
 Alpha virt. eigenvalues --    2.18897   2.22102   2.24866   2.26113   2.30334
 Alpha virt. eigenvalues --    2.30810   2.31765   2.33477   2.37385   2.37884
 Alpha virt. eigenvalues --    2.40753   2.43504   2.44728   2.46612   2.51001
 Alpha virt. eigenvalues --    2.53996   2.62013   2.62199   2.66531   2.67743
 Alpha virt. eigenvalues --    2.68545   2.71636   2.72750   2.74242   2.74855
 Alpha virt. eigenvalues --    2.77398   2.77493   3.00407   3.02215   4.07927
 Alpha virt. eigenvalues --    4.10280   4.22787   4.26468   4.27920   4.32170
 Alpha virt. eigenvalues --    4.47757   4.54684   4.67032   4.74738   4.78786
 Alpha virt. eigenvalues --    4.81386
          Condensed to atoms (all electrons):
               1          2          3          4          5          6
     1  O    8.002773   0.580209  -0.072708   0.001012   0.000784   0.000059
     2  C    0.580209   4.520558   0.325910  -0.028217  -0.030100  -0.021108
     3  C   -0.072708   0.325910   5.249185   0.311826   0.337491  -0.027664
     4  C    0.001012  -0.028217   0.311826   5.158278  -0.039516  -0.014660
     5  C    0.000784  -0.030100   0.337491  -0.039516   5.098810   0.372131
     6  C    0.000059  -0.021108  -0.027664  -0.014660   0.372131   4.957544
     7  C    0.000784  -0.030100  -0.008423  -0.002292  -0.049306   0.372131
     8  C   -0.072708   0.325910  -0.124785  -0.006835  -0.008423  -0.027664
     9  C    0.001012  -0.028217  -0.006835  -0.053332  -0.002292  -0.014660
    10  C    0.000105  -0.020399  -0.018200   0.348992  -0.017221  -0.019572
    11  Cl  -0.000001  -0.000014   0.004692  -0.063574  -0.000113   0.004792
    12  C   -0.000033  -0.002485  -0.013017  -0.051721  -0.046325   0.349389
    13  H    0.004257  -0.030147   0.347186  -0.030665  -0.029689   0.004070
    14  H   -0.000076   0.003434  -0.029608   0.364869  -0.005468  -0.000797
    15  H    0.000651  -0.000778  -0.037040   0.371040   0.004884  -0.000018
    16  H   -0.000079   0.003600  -0.031606  -0.005395   0.362641  -0.033429
    17  H    0.000744  -0.001088  -0.038590   0.005070   0.367738  -0.034286
    18  H   -0.000000   0.000310   0.004501   0.000051  -0.036462   0.370802
    19  H    0.000744  -0.001088   0.000149   0.000047  -0.004544  -0.034286
    20  H   -0.000079   0.003600  -0.000322   0.000097   0.005193  -0.033429
    21  H    0.004257  -0.030147   0.006812  -0.000099  -0.000031   0.004070
    22  H   -0.000076   0.003434  -0.000363   0.005356   0.000122  -0.000797
    23  H    0.000651  -0.000778   0.000346  -0.005285   0.000006  -0.000018
    24  H    0.000000   0.000165  -0.001211  -0.004600  -0.003322  -0.033460
    25  H    0.000000   0.000165  -0.000129   0.005319   0.004944  -0.033460
               7          8          9         10         11         12
     1  O    0.000784  -0.072708   0.001012   0.000105  -0.000001  -0.000033
     2  C   -0.030100   0.325910  -0.028217  -0.020399  -0.000014  -0.002485
     3  C   -0.008423  -0.124785  -0.006835  -0.018200   0.004692  -0.013017
     4  C   -0.002292  -0.006835  -0.053332   0.348992  -0.063574  -0.051721
     5  C   -0.049306  -0.008423  -0.002292  -0.017221  -0.000113  -0.046325
     6  C    0.372131  -0.027664  -0.014660  -0.019572   0.004792   0.349389
     7  C    5.098810   0.337491  -0.039516  -0.017221  -0.000113  -0.046325
     8  C    0.337491   5.249185   0.311826  -0.018200   0.004692  -0.013017
     9  C   -0.039516   0.311826   5.158278   0.348992  -0.063574  -0.051721
    10  C   -0.017221  -0.018200   0.348992   5.094505   0.259212   0.353514
    11  Cl  -0.000113   0.004692  -0.063574   0.259212  17.013745  -0.065402
    12  C   -0.046325  -0.013017  -0.051721   0.353514  -0.065402   5.136486
    13  H   -0.000031   0.006812  -0.000099   0.003888  -0.000125   0.000107
    14  H    0.000122  -0.000363   0.005356  -0.035288  -0.000122  -0.004444
    15  H    0.000006   0.000346  -0.005285  -0.036533  -0.000300   0.005193
    16  H    0.005193  -0.000322   0.000097  -0.001324  -0.000083  -0.003317
    17  H   -0.004544   0.000149   0.000047   0.000223   0.000014   0.004954
    18  H   -0.036462   0.004501   0.000051   0.004527  -0.000137  -0.038089
    19  H    0.367738  -0.038590   0.005070   0.000223   0.000014   0.004954
    20  H    0.362641  -0.031606  -0.005395  -0.001324  -0.000083  -0.003317
    21  H   -0.029689   0.347186  -0.030665   0.003888  -0.000125   0.000107
    22  H   -0.005468  -0.029608   0.364869  -0.035288  -0.000122  -0.004444
    23  H    0.004884  -0.037040   0.371040  -0.036533  -0.000300   0.005193
    24  H    0.004944  -0.000129   0.005319  -0.037235  -0.000173   0.368566
    25  H   -0.003322  -0.001211  -0.004600  -0.037235  -0.000173   0.368566
              13         14         15         16         17         18
     1  O    0.004257  -0.000076   0.000651  -0.000079   0.000744  -0.000000
     2  C   -0.030147   0.003434  -0.000778   0.003600  -0.001088   0.000310
     3  C    0.347186  -0.029608  -0.037040  -0.031606  -0.038590   0.004501
     4  C   -0.030665   0.364869   0.371040  -0.005395   0.005070   0.000051
     5  C   -0.029689  -0.005468   0.004884   0.362641   0.367738  -0.036462
     6  C    0.004070  -0.000797  -0.000018  -0.033429  -0.034286   0.370802
     7  C   -0.000031   0.000122   0.000006   0.005193  -0.004544  -0.036462
     8  C    0.006812  -0.000363   0.000346  -0.000322   0.000149   0.004501
     9  C   -0.000099   0.005356  -0.005285   0.000097   0.000047   0.000051
    10  C    0.003888  -0.035288  -0.036533  -0.001324   0.000223   0.004527
    11  Cl  -0.000125  -0.000122  -0.000300  -0.000083   0.000014  -0.000137
    12  C    0.000107  -0.004444   0.005193  -0.003317   0.004954  -0.038089
    13  H    0.585015  -0.003995  -0.002789  -0.004047  -0.002248  -0.000145
    14  H   -0.003995   0.570716  -0.032248   0.005403  -0.000042  -0.000093
    15  H   -0.002789  -0.032248   0.563992  -0.000060  -0.000145   0.000017
    16  H   -0.004047   0.005403  -0.000060   0.591634  -0.034045  -0.003247
    17  H   -0.002248  -0.000042  -0.000145  -0.034045   0.584760  -0.003140
    18  H   -0.000145  -0.000093   0.000017  -0.003247  -0.003140   0.610180
    19  H   -0.000073   0.000001  -0.000005   0.000015   0.004151  -0.003140
    20  H    0.000021  -0.000005   0.000001  -0.000195   0.000015  -0.003247
    21  H   -0.000182   0.000022  -0.000087   0.000021  -0.000073  -0.000145
    22  H    0.000022  -0.000193  -0.000010  -0.000005   0.000001  -0.000093
    23  H   -0.000087  -0.000010   0.004286   0.000001  -0.000005   0.000017
    24  H   -0.000075   0.004669  -0.000056   0.004376  -0.000024  -0.003690
    25  H    0.000016  -0.000072  -0.000158  -0.000057  -0.000148  -0.003690
              19         20         21         22         23         24
     1  O    0.000744  -0.000079   0.004257  -0.000076   0.000651   0.000000
     2  C   -0.001088   0.003600  -0.030147   0.003434  -0.000778   0.000165
     3  C    0.000149  -0.000322   0.006812  -0.000363   0.000346  -0.001211
     4  C    0.000047   0.000097  -0.000099   0.005356  -0.005285  -0.004600
     5  C   -0.004544   0.005193  -0.000031   0.000122   0.000006  -0.003322
     6  C   -0.034286  -0.033429   0.004070  -0.000797  -0.000018  -0.033460
     7  C    0.367738   0.362641  -0.029689  -0.005468   0.004884   0.004944
     8  C   -0.038590  -0.031606   0.347186  -0.029608  -0.037040  -0.000129
     9  C    0.005070  -0.005395  -0.030665   0.364869   0.371040   0.005319
    10  C    0.000223  -0.001324   0.003888  -0.035288  -0.036533  -0.037235
    11  Cl   0.000014  -0.000083  -0.000125  -0.000122  -0.000300  -0.000173
    12  C    0.004954  -0.003317   0.000107  -0.004444   0.005193   0.368566
    13  H   -0.000073   0.000021  -0.000182   0.000022  -0.000087  -0.000075
    14  H    0.000001  -0.000005   0.000022  -0.000193  -0.000010   0.004669
    15  H   -0.000005   0.000001  -0.000087  -0.000010   0.004286  -0.000056
    16  H    0.000015  -0.000195   0.000021  -0.000005   0.000001   0.004376
    17  H    0.004151   0.000015  -0.000073   0.000001  -0.000005  -0.000024
    18  H   -0.003140  -0.003247  -0.000145  -0.000093   0.000017  -0.003690
    19  H    0.584760  -0.034045  -0.002248  -0.000042  -0.000145  -0.000148
    20  H   -0.034045   0.591634  -0.004047   0.005403  -0.000060  -0.000057
    21  H   -0.002248  -0.004047   0.585015  -0.003995  -0.002789   0.000016
    22  H   -0.000042   0.005403  -0.003995   0.570716  -0.032248  -0.000072
    23  H   -0.000145  -0.000060  -0.002789  -0.032248   0.563992  -0.000158
    24  H   -0.000148  -0.000057   0.000016  -0.000072  -0.000158   0.576270
    25  H   -0.000024   0.004376  -0.000075   0.004669  -0.000056  -0.032264
              25
     1  O    0.000000
     2  C    0.000165
     3  C   -0.000129
     4  C    0.005319
     5  C    0.004944
     6  C   -0.033460
     7  C   -0.003322
     8  C   -0.001211
     9  C   -0.004600
    10  C   -0.037235
    11  Cl  -0.000173
    12  C    0.368566
    13  H    0.000016
    14  H   -0.000072
    15  H   -0.000158
    16  H   -0.000057
    17  H   -0.000148
    18  H   -0.003690
    19  H   -0.000024
    20  H    0.004376
    21  H   -0.000075
    22  H    0.004669
    23  H   -0.000056
    24  H   -0.032264
    25  H    0.576270
 Mulliken charges:
               1
     1  O   -0.452281
     2  C    0.457366
     3  C   -0.177594
     4  C   -0.265766
     5  C   -0.281932
     6  C   -0.105680
     7  C   -0.281932
     8  C   -0.177594
     9  C   -0.265766
    10  C   -0.086495
    11  Cl  -0.092628
    12  C   -0.253370
    13  H    0.153003
    14  H    0.158233
    15  H    0.165096
    16  H    0.144229
    17  H    0.150514
    18  H    0.136823
    19  H    0.150514
    20  H    0.144229
    21  H    0.153003
    22  H    0.158233
    23  H    0.165096
    24  H    0.152348
    25  H    0.152348
 Sum of Mulliken charges =  -0.00000
 Mulliken charges with hydrogens summed into heavy atoms:
               1
     1  O   -0.452281
     2  C    0.457366
     3  C   -0.024591
     4  C    0.057564
     5  C    0.012811
     6  C    0.031143
     7  C    0.012811
     8  C   -0.024591
     9  C    0.057564
    10  C   -0.086495
    11  Cl  -0.092628
    12  C    0.051327
 APT charges:
               1
     1  O   -0.632435
     2  C    0.696778
     3  C   -0.042630
     4  C    0.046007
     5  C    0.111434
     6  C    0.110729
     7  C    0.111434
     8  C   -0.042630
     9  C    0.046007
    10  C    0.477507
    11  Cl  -0.452935
    12  C    0.018563
    13  H   -0.045924
    14  H   -0.023508
    15  H   -0.017134
    16  H   -0.041984
    17  H   -0.036262
    18  H   -0.067374
    19  H   -0.036262
    20  H   -0.041984
    21  H   -0.045924
    22  H   -0.023508
    23  H   -0.017134
    24  H   -0.025417
    25  H   -0.025417
 Sum of APT charges =  -0.00000
 APT charges with hydrogens summed into heavy atoms:
               1
     1  O   -0.632435
     2  C    0.696778
     3  C   -0.088553
     4  C    0.005365
     5  C    0.033189
     6  C    0.043356
     7  C    0.033189
     8  C   -0.088553
     9  C    0.005365
    10  C    0.477507
    11  Cl  -0.452935
    12  C   -0.032271
 Electronic spatial extent (au):  <R**2>=           1971.7587
 Charge=             -0.0000 electrons
 Dipole moment (field-independent basis, Debye):
    X=              2.5917    Y=              0.8212    Z=              0.0000  Tot=              2.7187
 Quadrupole moment (field-independent basis, Debye-Ang):
   XX=            -82.8208   YY=            -89.9761   ZZ=            -74.3364
   XY=              7.8740   XZ=              0.0000   YZ=             -0.0000
 Traceless Quadrupole moment (field-independent basis, Debye-Ang):
   XX=             -0.4430   YY=             -7.5984   ZZ=              8.0414
   XY=              7.8740   XZ=              0.0000   YZ=             -0.0000
 Octapole moment (field-independent basis, Debye-Ang**2):
  XXX=             12.0668  YYY=              8.7626  ZZZ=             -0.0000  XYY=             14.1176
  XXY=            -18.8831  XXZ=             -0.0000  XZZ=             -2.6553  YZZ=              0.7930
  YYZ=             -0.0000  XYZ=              0.0000
 Hexadecapole moment (field-independent basis, Debye-Ang**3):
 XXXX=           -698.9413 YYYY=          -1408.4129 ZZZZ=           -511.0385 XXXY=            115.7590
 XXXZ=              0.0000 YYYX=            112.3876 YYYZ=             -0.0000 ZZZX=              0.0000
 ZZZY=             -0.0000 XXYY=           -381.8162 XXZZ=           -193.4714 YYZZ=           -313.6372
 XXYZ=             -0.0000 YYXZ=             -0.0000 ZZXY=             19.0078
 N-N= 8.613005532053D+02 E-N=-3.892885459247D+03  KE= 9.185292208577D+02
 Symmetry A'   KE= 7.449271653076D+02
 Symmetry A"   KE= 1.736020555501D+02
  Exact polarizability: 100.623  -4.902 120.362   0.000   0.000  97.147
 Approx polarizability: 153.881 -11.295 173.900   0.000  -0.000 143.211
 Calling FoFJK, ICntrl=    100127 FMM=F ISym2X=1 I1Cent= 0 IOpClX= 0 NMat=1 NMatS=1 NMatT=0.
 Full mass-weighted force constant matrix:
 Low frequencies ---   -5.5504   -0.0026   -0.0017    0.0021    7.0562   11.1867
 Low frequencies ---   93.9287  203.3800  233.8831
 Diagonal vibrational polarizability:
        9.3810290      14.6289917       5.0317219
 Harmonic frequencies (cm**-1), IR intensities (KM/Mole), Raman scattering
 activities (A**4/AMU), depolarization ratios for plane and unpolarized
 incident light, reduced masses (AMU), force constants (mDyne/A),
 and normal coordinates:
                      1                      2                      3
                     A'                     A"                     A'
 Frequencies --     93.9279               203.3798               233.8831
 Red. masses --     10.8449                 3.8667                 4.4770
 Frc consts  --      0.0564                 0.0942                 0.1443
 IR Inten    --      4.2933                 1.5625                 0.5723
  Atom  AN      X      Y      Z        X      Y      Z        X      Y      Z
     1   8     0.36   0.56   0.00     0.00  -0.00   0.04    -0.08  -0.03   0.00
     2   6    -0.02   0.05  -0.00    -0.00  -0.00   0.00     0.02   0.10   0.00
     3   6    -0.14  -0.11  -0.00     0.00  -0.05  -0.02     0.01   0.08  -0.01
     4   6    -0.06  -0.11  -0.02    -0.05  -0.02  -0.14    -0.18   0.06  -0.03
     5   6    -0.15  -0.04   0.02     0.04  -0.15   0.06     0.08  -0.10   0.01
     6   6    -0.13   0.02   0.00    -0.00   0.00  -0.03     0.03  -0.12  -0.00
     7   6    -0.15  -0.04  -0.02    -0.04   0.15   0.06     0.08  -0.10  -0.01
     8   6    -0.14  -0.11   0.00    -0.00   0.05  -0.02     0.01   0.08   0.01
     9   6    -0.06  -0.11   0.02     0.05   0.02  -0.14    -0.18   0.06   0.03
    10   6    -0.01  -0.07  -0.00     0.00   0.00  -0.12    -0.15   0.02  -0.00
    11  17     0.18  -0.07   0.00    -0.00   0.00   0.19     0.20   0.03   0.00
    12   6    -0.04   0.03  -0.00     0.00   0.00  -0.17    -0.13  -0.08   0.00
    13   1    -0.15  -0.13   0.00     0.00  -0.08  -0.01     0.06   0.12   0.00
    14   1    -0.07  -0.09  -0.00    -0.13  -0.11  -0.14    -0.29  -0.01   0.01
    15   1    -0.04  -0.17  -0.05    -0.06  -0.00  -0.24    -0.23   0.19  -0.11
    16   1    -0.13  -0.04   0.00     0.01  -0.35  -0.00     0.04  -0.21  -0.01
    17   1    -0.22  -0.04   0.04     0.13  -0.16   0.24     0.21  -0.10   0.08
    18   1    -0.15   0.09   0.00    -0.00   0.00  -0.01     0.06  -0.20  -0.00
    19   1    -0.22  -0.04  -0.04    -0.13   0.16   0.24     0.21  -0.10  -0.08
    20   1    -0.13  -0.04  -0.00    -0.01   0.35  -0.00     0.04  -0.21   0.01
    21   1    -0.15  -0.13  -0.00    -0.00   0.08  -0.01     0.06   0.12  -0.00
    22   1    -0.07  -0.09   0.00     0.13   0.11  -0.14    -0.29  -0.01  -0.01
    23   1    -0.04  -0.17   0.05     0.06   0.00  -0.24    -0.23   0.19   0.11
    24   1    -0.02   0.06  -0.00     0.07  -0.07  -0.24    -0.17  -0.15  -0.00
    25   1    -0.02   0.06   0.00    -0.07   0.07  -0.24    -0.17  -0.15   0.00
                      4                      5                      6
                     A"                     A"                     A'
 Frequencies --    276.9803               319.1730               339.3595
 Red. masses --      2.3955                 2.7067                 7.6100
 Frc consts  --      0.1083                 0.1625                 0.5164
 IR Inten    --      0.9460                 1.0730                 9.0205
  Atom  AN      X      Y      Z        X      Y      Z        X      Y      Z
     1   8    -0.00   0.00   0.16    -0.00  -0.00  -0.10     0.12  -0.07   0.00
     2   6    -0.00   0.00   0.05    -0.00   0.00  -0.02     0.05  -0.15   0.00
     3   6     0.04   0.00   0.00     0.07   0.11   0.01    -0.03  -0.14   0.04
     4   6    -0.12   0.01  -0.09    -0.07   0.09   0.04    -0.02  -0.07   0.01
     5   6     0.02   0.05  -0.07     0.14  -0.07   0.06    -0.02  -0.18   0.08
     6   6     0.00   0.00  -0.05     0.00  -0.00  -0.03    -0.02  -0.00  -0.00
     7   6    -0.02  -0.05  -0.07    -0.14   0.07   0.06    -0.02  -0.18  -0.08
     8   6    -0.04  -0.00   0.00    -0.07  -0.11   0.01    -0.03  -0.14  -0.04
     9   6     0.12  -0.01  -0.09     0.07  -0.09   0.04    -0.02  -0.07  -0.01
    10   6     0.00  -0.00  -0.02    -0.00  -0.00   0.09     0.03   0.07   0.00
    11  17    -0.00  -0.00   0.01     0.00  -0.00  -0.07    -0.03   0.36  -0.00
    12   6     0.00  -0.00   0.15    -0.00  -0.00   0.03     0.04   0.05   0.00
    13   1     0.08  -0.00   0.02     0.09   0.17   0.00    -0.07  -0.09  -0.00
    14   1    -0.31  -0.13  -0.05    -0.20   0.06   0.10    -0.04  -0.15  -0.01
    15   1    -0.18   0.15  -0.28    -0.11   0.19  -0.06    -0.00  -0.13  -0.08
    16   1     0.08   0.14  -0.06     0.11  -0.31  -0.01     0.00  -0.38  -0.00
    17   1    -0.05   0.05  -0.13     0.30  -0.07   0.25     0.01  -0.19   0.31
    18   1     0.00  -0.00  -0.09     0.00  -0.00  -0.14    -0.06   0.10  -0.00
    19   1     0.05  -0.05  -0.13    -0.30   0.07   0.25     0.01  -0.19  -0.31
    20   1    -0.08  -0.14  -0.06    -0.11   0.31  -0.01     0.00  -0.38   0.00
    21   1    -0.08   0.00   0.02    -0.09  -0.17   0.00    -0.07  -0.09   0.00
    22   1     0.31   0.13  -0.05     0.20  -0.06   0.10    -0.04  -0.15   0.01
    23   1     0.18  -0.15  -0.28     0.11  -0.19  -0.06    -0.00  -0.13   0.08
    24   1    -0.15   0.14   0.30     0.05   0.06   0.03     0.02   0.02   0.00
    25   1     0.15  -0.14   0.30    -0.05  -0.06   0.03     0.02   0.02  -0.00
                      7                      8                      9
                     A'                     A"                     A'
 Frequencies --    369.9866               395.3199               403.9289
 Red. masses --      5.4378                 4.7966                 2.2783
 Frc consts  --      0.4386                 0.4417                 0.2190
 IR Inten    --      2.0393                 0.1282                 3.4294
  Atom  AN      X      Y      Z        X      Y      Z        X      Y      Z
     1   8     0.21  -0.16   0.00     0.00   0.00  -0.01    -0.01  -0.02   0.00
     2   6     0.21  -0.14  -0.00    -0.00  -0.00  -0.01     0.04   0.05  -0.00
     3   6     0.10  -0.05   0.07    -0.09  -0.13  -0.01     0.01   0.00  -0.00
     4   6    -0.10  -0.05   0.06    -0.12  -0.12   0.16    -0.06  -0.01  -0.09
     5   6     0.02   0.14   0.04    -0.06  -0.16  -0.15     0.01  -0.03   0.08
     6   6    -0.06   0.16  -0.00     0.00  -0.00  -0.19     0.01   0.13  -0.00
     7   6     0.02   0.14  -0.04     0.06   0.16  -0.15     0.01  -0.03  -0.08
     8   6     0.10  -0.05  -0.07     0.09   0.13  -0.01     0.01   0.00   0.00
     9   6    -0.10  -0.05  -0.06     0.12   0.12   0.16    -0.06  -0.01   0.09
    10   6    -0.19  -0.00   0.00    -0.00  -0.00   0.20     0.09   0.01   0.00
    11  17     0.01  -0.03   0.00     0.00   0.00  -0.00    -0.03  -0.07  -0.00
    12   6    -0.22   0.14   0.00    -0.00  -0.00   0.01     0.10   0.12   0.00
    13   1     0.00   0.02  -0.03     0.00   0.00  -0.01    -0.02  -0.04  -0.00
    14   1    -0.11  -0.19   0.00    -0.19  -0.05   0.23    -0.30  -0.08   0.00
    15   1    -0.17   0.13   0.09    -0.11  -0.16   0.06    -0.09   0.07  -0.35
    16   1     0.16   0.26   0.01     0.01  -0.23  -0.22     0.03  -0.24  -0.00
    17   1    -0.18   0.14  -0.00    -0.09  -0.16  -0.03     0.05  -0.03   0.31
    18   1    -0.01   0.01  -0.00     0.00  -0.00  -0.07    -0.02   0.20  -0.00
    19   1    -0.18   0.14   0.00     0.09   0.16  -0.03     0.05  -0.03  -0.31
    20   1     0.16   0.26  -0.01    -0.01   0.23  -0.22     0.03  -0.24   0.00
    21   1     0.00   0.02   0.03    -0.00  -0.00  -0.01    -0.02  -0.04   0.00
    22   1    -0.11  -0.19  -0.00     0.19   0.05   0.23    -0.30  -0.08  -0.00
    23   1    -0.17   0.13  -0.09     0.11   0.16   0.06    -0.09   0.07   0.35
    24   1    -0.22   0.13  -0.01     0.13   0.19   0.02     0.12   0.15   0.00
    25   1    -0.22   0.13   0.01    -0.13  -0.19   0.02     0.12   0.15  -0.00
                     10                     11                     12
                     A"                     A'                     A"
 Frequencies --    445.6525               451.7748               469.8200
 Red. masses --      1.8793                 1.8701                 4.0332
 Frc consts  --      0.2199                 0.2249                 0.5245
 IR Inten    --      2.0792                 3.2780                 8.5864
  Atom  AN      X      Y      Z        X      Y      Z        X      Y      Z
     1   8    -0.00   0.00   0.02    -0.01   0.00  -0.00    -0.00  -0.00   0.30
     2   6    -0.00   0.00  -0.07     0.01   0.03   0.00     0.00   0.00  -0.16
     3   6     0.03  -0.04  -0.08    -0.02   0.04   0.04    -0.03   0.06  -0.19
     4   6     0.09  -0.03  -0.01     0.07   0.03   0.08    -0.03   0.09   0.04
     5   6     0.04  -0.06   0.01     0.00  -0.05   0.09    -0.06  -0.01   0.02
     6   6    -0.00  -0.00  -0.02    -0.07   0.04  -0.00    -0.00  -0.00   0.07
     7   6    -0.04   0.06   0.01     0.00  -0.05  -0.09     0.06   0.01   0.02
     8   6    -0.03   0.04  -0.08    -0.02   0.04  -0.04     0.03  -0.06  -0.19
     9   6    -0.09   0.03  -0.01     0.07   0.03  -0.08     0.03  -0.09   0.04
    10   6    -0.00  -0.00  -0.04    -0.05   0.02   0.00    -0.00   0.00   0.09
    11  17     0.00  -0.00   0.01     0.01  -0.05  -0.00     0.00  -0.00  -0.02
    12   6    -0.00  -0.00   0.16    -0.07   0.04  -0.00    -0.00  -0.00  -0.05
    13   1     0.01  -0.04  -0.09    -0.05   0.05   0.01    -0.17   0.17  -0.33
    14   1     0.24   0.05  -0.06     0.29   0.13   0.00    -0.04   0.24   0.11
    15   1     0.12  -0.10   0.15     0.10  -0.06   0.31    -0.02   0.07   0.06
    16   1     0.00  -0.21  -0.03     0.00  -0.32  -0.01    -0.20  -0.09   0.07
    17   1     0.09  -0.07   0.15     0.14  -0.06   0.34     0.01  -0.01   0.07
    18   1    -0.00  -0.00  -0.06    -0.06   0.02  -0.00    -0.00   0.00   0.11
    19   1    -0.09   0.07   0.15     0.14  -0.06  -0.34    -0.01   0.01   0.07
    20   1    -0.00   0.21  -0.03     0.00  -0.32   0.01     0.20   0.09   0.07
    21   1    -0.01   0.04  -0.09    -0.05   0.05  -0.01     0.17  -0.17  -0.33
    22   1    -0.24  -0.05  -0.06     0.29   0.13  -0.00     0.04  -0.24   0.11
    23   1    -0.12   0.10   0.15     0.10  -0.06  -0.31     0.02  -0.07   0.06
    24   1    -0.26   0.17   0.40    -0.06   0.05  -0.00     0.17  -0.11  -0.19
    25   1     0.26  -0.17   0.40    -0.06   0.05   0.00    -0.17   0.11  -0.19
                     13                     14                     15
                     A'                     A"                     A'
 Frequencies --    611.4870               632.6930               673.8966
 Red. masses --      5.3886                 3.4905                 5.6806
 Frc consts  --      1.1871                 0.8232                 1.5200
 IR Inten    --      0.8041                 0.9966                13.0212
  Atom  AN      X      Y      Z        X      Y      Z        X      Y      Z
     1   8    -0.16   0.15   0.00     0.00  -0.00  -0.04    -0.12   0.03   0.00
     2   6    -0.23  -0.00  -0.00     0.00  -0.00  -0.14     0.06   0.25  -0.00
     3   6     0.05  -0.11  -0.05     0.15  -0.12  -0.10     0.09  -0.02   0.02
     4   6    -0.03  -0.15   0.03    -0.01  -0.14   0.05     0.12  -0.12  -0.15
     5   6     0.16   0.01  -0.06     0.12   0.06   0.08     0.02   0.09   0.11
     6   6     0.25   0.17   0.00    -0.00  -0.00   0.08    -0.21  -0.03   0.00
     7   6     0.16   0.01   0.06    -0.12  -0.06   0.08     0.02   0.09  -0.11
     8   6     0.05  -0.11   0.05    -0.15   0.12  -0.10     0.09  -0.02  -0.02
     9   6    -0.03  -0.15  -0.03     0.01   0.14   0.05     0.12  -0.12   0.15
    10   6    -0.12  -0.02   0.00     0.00   0.00   0.08     0.03  -0.24   0.00
    11  17    -0.02   0.02   0.00    -0.00  -0.00   0.01    -0.00   0.08   0.00
    12   6    -0.09   0.17  -0.00     0.00  -0.00   0.01    -0.20  -0.08  -0.00
    13   1     0.27  -0.12   0.09     0.06  -0.09  -0.17     0.01  -0.32   0.10
    14   1     0.12  -0.13  -0.04    -0.17  -0.23   0.10     0.05  -0.14  -0.12
    15   1    -0.03  -0.15   0.21    -0.07   0.00  -0.10     0.09  -0.03  -0.16
    16   1     0.10  -0.09  -0.06     0.13   0.28   0.15     0.16   0.08   0.03
    17   1     0.04   0.00   0.13    -0.07   0.07  -0.09     0.02   0.09   0.10
    18   1     0.31   0.03  -0.00    -0.00  -0.00  -0.18    -0.13  -0.28  -0.00
    19   1     0.04   0.00  -0.13     0.07  -0.07  -0.09     0.02   0.09  -0.10
    20   1     0.10  -0.09   0.06    -0.13  -0.28   0.15     0.16   0.08  -0.03
    21   1     0.27  -0.12  -0.09    -0.06   0.09  -0.17     0.01  -0.32  -0.10
    22   1     0.12  -0.13   0.04     0.17   0.23   0.10     0.05  -0.14   0.12
    23   1    -0.03  -0.15  -0.21     0.07  -0.00  -0.10     0.09  -0.03   0.16
    24   1    -0.12   0.10  -0.01     0.19  -0.15  -0.17    -0.12   0.01  -0.00
    25   1    -0.12   0.10   0.01    -0.19   0.15  -0.17    -0.12   0.01   0.00
                     16                     17                     18
                     A'                     A'                     A'
 Frequencies --    718.9167               787.6699               798.6320
 Red. masses --      3.9958                 3.7470                 3.1757
 Frc consts  --      1.2168                 1.3697                 1.1934
 IR Inten    --      3.6308                 0.3257                10.2769
  Atom  AN      X      Y      Z        X      Y      Z        X      Y      Z
     1   8    -0.07   0.06  -0.00    -0.05  -0.05   0.00     0.02  -0.03   0.00
     2   6    -0.08   0.03  -0.00     0.22   0.31   0.00     0.07   0.04   0.00
     3   6    -0.01   0.01   0.26     0.01  -0.01  -0.00    -0.08   0.01  -0.08
     4   6    -0.04  -0.05   0.14    -0.08  -0.08   0.07    -0.06  -0.03   0.01
     5   6     0.05   0.04   0.12    -0.05  -0.10  -0.08    -0.01   0.10   0.14
     6   6     0.00  -0.05   0.00    -0.01   0.02  -0.00     0.21   0.07   0.00
     7   6     0.05   0.04  -0.12    -0.05  -0.10   0.08    -0.01   0.10  -0.14
     8   6    -0.01   0.01  -0.26     0.01  -0.01   0.00    -0.08   0.01   0.08
     9   6    -0.04  -0.05  -0.14    -0.08  -0.08  -0.07    -0.06  -0.03  -0.01
    10   6     0.04   0.05   0.00    -0.02  -0.04   0.00    -0.05  -0.13  -0.00
    11  17     0.00  -0.00   0.00    -0.01   0.01   0.00     0.00   0.02   0.00
    12   6     0.13  -0.08   0.00     0.11   0.11  -0.00     0.09  -0.15  -0.00
    13   1    -0.04   0.05   0.23     0.09   0.09   0.00    -0.23  -0.01  -0.16
    14   1    -0.17  -0.30   0.11     0.13   0.10   0.04     0.07   0.16   0.02
    15   1    -0.06  -0.01  -0.07    -0.03  -0.20   0.28    -0.03  -0.11   0.19
    16   1     0.23   0.26   0.10     0.06   0.15  -0.05    -0.18   0.07   0.22
    17   1    -0.01   0.05  -0.10    -0.21  -0.09  -0.25    -0.09   0.10   0.22
    18   1    -0.02   0.03   0.00    -0.09   0.25  -0.00     0.21   0.07  -0.00
    19   1    -0.01   0.05   0.10    -0.21  -0.09   0.25    -0.09   0.10  -0.22
    20   1     0.23   0.26  -0.10     0.06   0.15   0.05    -0.18   0.07  -0.22
    21   1    -0.04   0.05  -0.23     0.09   0.09  -0.00    -0.23  -0.01   0.16
    22   1    -0.17  -0.30  -0.11     0.13   0.10  -0.04     0.07   0.16  -0.02
    23   1    -0.06  -0.01   0.07    -0.03  -0.20  -0.28    -0.03  -0.11  -0.19
    24   1     0.12  -0.09   0.00     0.13   0.13   0.00     0.04  -0.25  -0.01
    25   1     0.12  -0.09  -0.00     0.13   0.13  -0.00     0.04  -0.25   0.01
                     19                     20                     21
                     A'                     A"                     A"
 Frequencies --    832.5285               855.6419               902.9508
 Red. masses --      3.2335                 2.6832                 1.5656
 Frc consts  --      1.3204                 1.1574                 0.7521
 IR Inten    --     46.2454                 0.9891                 3.1768
  Atom  AN      X      Y      Z        X      Y      Z        X      Y      Z
     1   8    -0.01  -0.02   0.00     0.00  -0.00  -0.04    -0.00   0.00  -0.01
     2   6     0.06   0.09  -0.00     0.00   0.00   0.05    -0.00   0.00   0.05
     3   6    -0.04  -0.07   0.04     0.15  -0.06  -0.02     0.01   0.01  -0.02
     4   6     0.03   0.01  -0.12     0.06   0.10  -0.01     0.04  -0.04  -0.03
     5   6    -0.01  -0.04   0.07    -0.09  -0.12  -0.05    -0.03   0.08  -0.06
     6   6     0.13  -0.04  -0.00     0.00  -0.00   0.10     0.00   0.00   0.02
     7   6    -0.01  -0.04  -0.07     0.09   0.12  -0.05     0.03  -0.08  -0.06
     8   6    -0.04  -0.07  -0.04    -0.15   0.06  -0.02    -0.01  -0.01  -0.02
     9   6     0.03   0.01   0.12    -0.06  -0.10  -0.01    -0.04   0.04  -0.03
    10   6    -0.03   0.32  -0.00    -0.00   0.00   0.05    -0.00   0.00   0.05
    11  17     0.00  -0.04   0.00    -0.00  -0.00  -0.01     0.00  -0.00   0.00
    12   6    -0.08   0.01  -0.00    -0.00   0.00   0.03     0.00  -0.00   0.12
    13   1    -0.08  -0.18   0.06     0.32  -0.11   0.11     0.06  -0.10   0.06
    14   1     0.21  -0.01  -0.23    -0.10   0.05   0.06    -0.02  -0.05  -0.01
    15   1     0.11  -0.18  -0.08    -0.01   0.31  -0.09     0.01   0.02  -0.06
    16   1     0.00   0.21   0.15    -0.11   0.04   0.02    -0.09  -0.33  -0.18
    17   1    -0.20  -0.03  -0.13    -0.23  -0.12  -0.14     0.14   0.07   0.33
    18   1     0.13  -0.06  -0.00     0.00  -0.00   0.37    -0.00   0.00   0.03
    19   1    -0.20  -0.03   0.13     0.23   0.12  -0.14    -0.14  -0.07   0.33
    20   1     0.00   0.21  -0.15     0.11  -0.04   0.02     0.09   0.33  -0.18
    21   1    -0.08  -0.18  -0.06    -0.32   0.11   0.11    -0.06   0.10   0.06
    22   1     0.21  -0.01   0.23     0.10  -0.05   0.06     0.02   0.05  -0.01
    23   1     0.11  -0.18   0.08     0.01  -0.31  -0.09    -0.01  -0.02  -0.06
    24   1    -0.22  -0.15   0.00     0.03  -0.07  -0.02     0.28  -0.25  -0.16
    25   1    -0.22  -0.15  -0.00    -0.03   0.07  -0.02    -0.28   0.25  -0.16
                     22                     23                     24
                     A'                     A"                     A"
 Frequencies --    906.4005               911.8000               947.4508
 Red. masses --      2.3275                 1.5721                 2.1918
 Frc consts  --      1.1266                 0.7701                 1.1592
 IR Inten    --      5.2552                 1.3960                 0.9098
  Atom  AN      X      Y      Z        X      Y      Z        X      Y      Z
     1   8    -0.03   0.03   0.00    -0.00   0.00   0.01    -0.00  -0.00   0.01
     2   6    -0.04   0.01  -0.00    -0.00  -0.00  -0.04     0.00   0.00  -0.03
     3   6     0.13  -0.08   0.01     0.01   0.00   0.01     0.04   0.12   0.01
     4   6     0.02   0.11   0.01     0.10  -0.01   0.05    -0.02  -0.12   0.06
     5   6    -0.09  -0.04   0.02    -0.06   0.05   0.03    -0.02  -0.04  -0.07
     6   6     0.01   0.09  -0.00     0.00   0.00  -0.05     0.00  -0.00   0.12
     7   6    -0.09  -0.04  -0.02     0.06  -0.05   0.03     0.02   0.04  -0.07
     8   6     0.13  -0.08  -0.01    -0.01  -0.00   0.01    -0.04  -0.12   0.01
     9   6     0.02   0.11  -0.01    -0.10   0.01   0.05     0.02   0.12   0.06
    10   6    -0.08  -0.02  -0.00    -0.00  -0.00   0.01     0.00  -0.00  -0.10
    11  17     0.01  -0.00  -0.00     0.00  -0.00   0.00    -0.00  -0.00   0.01
    12   6     0.05  -0.10  -0.00    -0.00  -0.00  -0.10    -0.00   0.00  -0.01
    13   1     0.26  -0.19   0.14    -0.12  -0.03  -0.05     0.16   0.41  -0.05
    14   1    -0.03   0.03   0.01    -0.28  -0.23   0.17     0.01  -0.28  -0.03
    15   1    -0.07   0.35   0.08     0.02   0.19  -0.34    -0.02  -0.11  -0.00
    16   1    -0.05   0.02   0.02    -0.06  -0.11  -0.03    -0.08  -0.04  -0.03
    17   1    -0.32  -0.04   0.09     0.05   0.04   0.15     0.15  -0.04  -0.12
    18   1    -0.06   0.29  -0.00    -0.00   0.00   0.01     0.00  -0.00   0.38
    19   1    -0.32  -0.04  -0.09    -0.05  -0.04   0.15    -0.15   0.04  -0.12
    20   1    -0.05   0.02  -0.02     0.06   0.11  -0.03     0.08   0.04  -0.03
    21   1     0.26  -0.19  -0.14     0.12   0.03  -0.05    -0.16  -0.41  -0.05
    22   1    -0.03   0.03  -0.01     0.28   0.23   0.17    -0.01   0.28  -0.03
    23   1    -0.07   0.35  -0.08    -0.02  -0.19  -0.34     0.02   0.11  -0.00
    24   1     0.00  -0.16   0.00    -0.24   0.18   0.13    -0.15  -0.14   0.02
    25   1     0.00  -0.16  -0.00     0.24  -0.18   0.13     0.15   0.14   0.02
                     25                     26                     27
                     A'                     A'                     A"
 Frequencies --    963.3045               990.8608              1025.1085
 Red. masses --      2.2173                 2.1079                 2.0186
 Frc consts  --      1.2123                 1.2194                 1.2498
 IR Inten    --      5.2822                 0.4027                 2.0241
  Atom  AN      X      Y      Z        X      Y      Z        X      Y      Z
     1   8    -0.00   0.01  -0.00     0.02  -0.01  -0.00     0.00  -0.00   0.01
     2   6    -0.04  -0.05   0.00    -0.02  -0.05   0.00     0.00   0.00  -0.02
     3   6    -0.01  -0.05  -0.01    -0.03  -0.00   0.05    -0.10   0.03   0.02
     4   6    -0.03   0.09  -0.02    -0.06   0.02  -0.12     0.11   0.00  -0.05
     5   6     0.06  -0.05   0.10     0.06   0.02  -0.04     0.08  -0.08  -0.03
     6   6    -0.00  -0.10  -0.00    -0.09   0.06   0.00     0.00   0.00   0.05
     7   6     0.06  -0.05  -0.10     0.06   0.02   0.04    -0.08   0.08  -0.03
     8   6    -0.01  -0.05   0.01    -0.03  -0.00  -0.05     0.10  -0.03   0.02
     9   6    -0.03   0.09   0.02    -0.06   0.02   0.12    -0.11  -0.00  -0.05
    10   6    -0.00  -0.12   0.00    -0.10  -0.01  -0.00     0.00  -0.00   0.09
    11  17    -0.00   0.00  -0.00     0.00   0.00   0.00     0.00  -0.00  -0.00
    12   6     0.02   0.15   0.00     0.12  -0.07  -0.00    -0.00  -0.00   0.08
    13   1    -0.10  -0.16  -0.02    -0.05  -0.12   0.09    -0.20  -0.05  -0.01
    14   1     0.02   0.28   0.03     0.25   0.12  -0.25    -0.13  -0.03   0.07
    15   1    -0.03   0.10   0.15    -0.01  -0.12   0.22     0.13  -0.07  -0.34
    16   1     0.09   0.26   0.20     0.28  -0.03  -0.19     0.13   0.13   0.01
    17   1    -0.08  -0.04  -0.23     0.13   0.02  -0.02     0.21  -0.07  -0.34
    18   1     0.04  -0.23  -0.00    -0.18   0.32   0.00     0.00   0.00   0.16
    19   1    -0.08  -0.04   0.23     0.13   0.02   0.02    -0.21   0.07  -0.34
    20   1     0.09   0.26  -0.20     0.28  -0.03   0.19    -0.13  -0.13   0.01
    21   1    -0.10  -0.16   0.02    -0.05  -0.12  -0.09     0.20   0.05  -0.01
    22   1     0.02   0.28  -0.03     0.25   0.12   0.25     0.13   0.03   0.07
    23   1    -0.03   0.10  -0.15    -0.01  -0.12  -0.22    -0.13   0.07  -0.34
    24   1     0.12   0.28  -0.01     0.10  -0.07   0.01     0.16  -0.09  -0.05
    25   1     0.12   0.28   0.01     0.10  -0.07  -0.01    -0.16   0.09  -0.05
                     28                     29                     30
                     A'                     A'                     A"
 Frequencies --   1041.1354              1048.7163              1068.4751
 Red. masses --      6.4135                 2.3257                 1.8905
 Frc consts  --      4.0960                 1.5070                 1.2716
 IR Inten    --     29.5952                 0.1578                12.3731
  Atom  AN      X      Y      Z        X      Y      Z        X      Y      Z
     1   8    -0.05   0.05   0.00    -0.01  -0.01  -0.00     0.00   0.00  -0.01
     2   6    -0.04  -0.01  -0.00     0.04   0.06   0.00    -0.00  -0.00   0.10
     3   6     0.14  -0.08  -0.25    -0.08  -0.11  -0.01     0.03   0.09  -0.05
     4   6    -0.08  -0.08   0.09    -0.00   0.08   0.07     0.02  -0.08  -0.06
     5   6     0.07   0.08   0.11     0.08   0.01  -0.05    -0.03  -0.01   0.04
     6   6    -0.29  -0.10  -0.00    -0.03   0.10  -0.00     0.00   0.00  -0.05
     7   6     0.07   0.08  -0.11     0.08   0.01   0.05     0.03   0.01   0.04
     8   6     0.14  -0.08   0.25    -0.08  -0.11   0.01    -0.03  -0.09  -0.05
     9   6    -0.08  -0.08  -0.09    -0.00   0.08  -0.07    -0.02   0.08  -0.06
    10   6    -0.01   0.32   0.00     0.12   0.01   0.00     0.00  -0.00   0.12
    11  17     0.00  -0.01   0.00    -0.00  -0.00   0.00     0.00   0.00  -0.00
    12   6     0.15  -0.07   0.00    -0.08  -0.09  -0.00    -0.00   0.00  -0.03
    13   1     0.01  -0.04  -0.36    -0.14  -0.16  -0.03     0.19   0.01   0.09
    14   1     0.02   0.00   0.06    -0.17   0.30   0.26     0.02   0.10   0.01
    15   1    -0.08  -0.07   0.11     0.05  -0.07  -0.10     0.07  -0.20  -0.09
    16   1     0.08   0.07   0.10     0.34  -0.01  -0.21    -0.34   0.07   0.24
    17   1     0.05   0.08   0.01    -0.09   0.01   0.06    -0.00  -0.01  -0.07
    18   1    -0.30  -0.08   0.00     0.02  -0.05  -0.00    -0.00   0.00  -0.16
    19   1     0.05   0.08  -0.01    -0.09   0.01  -0.06     0.00   0.01  -0.07
    20   1     0.08   0.07  -0.10     0.34  -0.01   0.21     0.34  -0.07   0.24
    21   1     0.01  -0.04   0.36    -0.14  -0.16   0.03    -0.19  -0.01   0.09
    22   1     0.02   0.00  -0.06    -0.17   0.30  -0.26    -0.02  -0.10   0.01
    23   1    -0.08  -0.07  -0.11     0.05  -0.07   0.10    -0.07   0.20  -0.09
    24   1     0.13  -0.02   0.03    -0.09  -0.10   0.00     0.15   0.36   0.04
    25   1     0.13  -0.02  -0.03    -0.09  -0.10  -0.00    -0.15  -0.36   0.04
                     31                     32                     33
                     A"                     A'                     A'
 Frequencies --   1077.4303              1093.4675              1122.6859
 Red. masses --      1.8842                 1.7415                 1.3887
 Frc consts  --      1.2887                 1.2268                 1.0313
 IR Inten    --     21.9321                 0.6003                 1.2086
  Atom  AN      X      Y      Z        X      Y      Z        X      Y      Z
     1   8    -0.00   0.00  -0.02     0.00   0.01   0.00    -0.01   0.01  -0.00
     2   6    -0.00   0.00   0.13    -0.05  -0.07  -0.00     0.00   0.00   0.00
     3   6    -0.04  -0.05  -0.07     0.04   0.07  -0.02    -0.03   0.02  -0.04
     4   6    -0.02  -0.00   0.03    -0.02  -0.02  -0.02     0.07  -0.01   0.02
     5   6     0.07   0.04  -0.05     0.02  -0.07   0.05     0.03  -0.05   0.02
     6   6    -0.00  -0.00   0.12    -0.03   0.10   0.00     0.00   0.05   0.00
     7   6    -0.07  -0.04  -0.05     0.02  -0.07  -0.05     0.03  -0.05  -0.02
     8   6     0.04   0.05  -0.07     0.04   0.07   0.02    -0.03   0.02   0.04
     9   6     0.02   0.00   0.03    -0.02  -0.02   0.02     0.07  -0.01  -0.02
    10   6     0.00   0.00  -0.01     0.08  -0.03  -0.00    -0.08  -0.02  -0.00
    11  17    -0.00  -0.00   0.00    -0.00   0.00   0.00     0.00   0.00   0.00
    12   6    -0.00  -0.00  -0.09    -0.07  -0.05   0.00     0.00   0.02  -0.00
    13   1     0.11  -0.19   0.09     0.16   0.37  -0.06    -0.31  -0.01  -0.20
    14   1    -0.13   0.29   0.21     0.04   0.13  -0.00    -0.08  -0.21   0.02
    15   1     0.00  -0.08  -0.03     0.08  -0.28  -0.06    -0.02   0.22  -0.09
    16   1    -0.17  -0.07   0.05     0.15   0.20   0.08     0.12   0.10   0.02
    17   1     0.26   0.04  -0.05    -0.28  -0.07  -0.09     0.12  -0.05  -0.23
    18   1     0.00  -0.00   0.09    -0.06   0.18   0.00    -0.15   0.49  -0.00
    19   1    -0.26  -0.04  -0.05    -0.28  -0.07   0.09     0.12  -0.05   0.23
    20   1     0.17   0.07   0.05     0.15   0.20  -0.08     0.12   0.10  -0.02
    21   1    -0.11   0.19   0.09     0.16   0.37   0.06    -0.31  -0.01   0.20
    22   1     0.13  -0.29   0.21     0.04   0.13   0.00    -0.08  -0.21  -0.02
    23   1    -0.00   0.08  -0.03     0.08  -0.28   0.06    -0.02   0.22   0.09
    24   1    -0.35  -0.08   0.08    -0.11  -0.10  -0.00    -0.09  -0.11  -0.00
    25   1     0.35   0.08   0.08    -0.11  -0.10   0.00    -0.09  -0.11   0.00
                     34                     35                     36
                     A"                     A"                     A'
 Frequencies --   1135.4044              1158.8802              1207.8696
 Red. masses --      1.1857                 1.1337                 1.1209
 Frc consts  --      0.9006                 0.8970                 0.9635
 IR Inten    --      0.0537                 0.0001                 0.4186
  Atom  AN      X      Y      Z        X      Y      Z        X      Y      Z
     1   8    -0.00   0.00   0.00    -0.00   0.00   0.00     0.02  -0.01   0.00
     2   6     0.00   0.00  -0.03     0.00   0.00  -0.02    -0.01  -0.01  -0.00
     3   6     0.03  -0.00   0.01     0.03   0.02   0.01     0.02   0.02   0.00
     4   6    -0.03  -0.02  -0.03    -0.01  -0.01  -0.03    -0.02  -0.03   0.01
     5   6    -0.01   0.03  -0.01    -0.01   0.01   0.01    -0.01   0.01   0.02
     6   6     0.00  -0.00   0.03     0.00  -0.00   0.01     0.00  -0.01   0.00
     7   6     0.01  -0.03  -0.01     0.01  -0.01   0.01    -0.01   0.01  -0.02
     8   6    -0.03   0.00   0.01    -0.03  -0.02   0.01     0.02   0.02  -0.00
     9   6     0.03   0.02  -0.03     0.01   0.01  -0.03    -0.02  -0.03  -0.01
    10   6    -0.00   0.00   0.06    -0.00   0.00   0.06     0.06   0.01  -0.00
    11  17     0.00  -0.00  -0.00    -0.00  -0.00  -0.00    -0.00   0.00  -0.00
    12   6    -0.00   0.00  -0.05    -0.00   0.00  -0.03    -0.03   0.03  -0.00
    13   1    -0.14  -0.20  -0.01     0.04   0.05   0.00     0.13  -0.26   0.19
    14   1     0.10  -0.03  -0.10    -0.04   0.26   0.10    -0.07   0.24   0.15
    15   1    -0.07   0.10   0.17     0.11  -0.32  -0.15    -0.01  -0.06   0.03
    16   1     0.12  -0.04  -0.10     0.34   0.00  -0.19    -0.16   0.01   0.10
    17   1     0.27   0.02  -0.08    -0.23   0.01   0.15     0.30   0.01  -0.15
    18   1    -0.00   0.00   0.55    -0.00   0.00   0.26    -0.14   0.39   0.00
    19   1    -0.27  -0.02  -0.08     0.23  -0.01   0.15     0.30   0.01   0.15
    20   1    -0.12   0.04  -0.10    -0.34  -0.00  -0.19    -0.16   0.01  -0.10
    21   1     0.14   0.20  -0.01    -0.04  -0.05   0.00     0.13  -0.26  -0.19
    22   1    -0.10   0.03  -0.10     0.04  -0.26   0.10    -0.07   0.24  -0.15
    23   1     0.07  -0.10   0.17    -0.11   0.32  -0.15    -0.01  -0.06  -0.03
    24   1     0.08   0.31   0.04    -0.13  -0.05   0.02    -0.17  -0.16  -0.00
    25   1    -0.08  -0.31   0.04     0.13   0.05   0.02    -0.17  -0.16   0.00
                     37                     38                     39
                     A"                     A"                     A'
 Frequencies --   1237.8409              1262.9143              1281.5486
 Red. masses --      1.8382                 1.4906                 1.6874
 Frc consts  --      1.6595                 1.4007                 1.6328
 IR Inten    --      7.1174                 6.0725                 0.2913
  Atom  AN      X      Y      Z        X      Y      Z        X      Y      Z
     1   8     0.00  -0.00  -0.03     0.00  -0.00  -0.03    -0.02   0.03  -0.00
     2   6     0.00   0.00   0.16     0.00   0.00   0.15    -0.02  -0.02   0.00
     3   6     0.04   0.05  -0.05    -0.00  -0.07  -0.02     0.09   0.02   0.03
     4   6     0.01  -0.07   0.01     0.01   0.05  -0.00    -0.04  -0.03  -0.02
     5   6    -0.03  -0.03   0.04     0.04   0.02  -0.02    -0.08   0.01  -0.01
     6   6     0.00   0.00  -0.09     0.00  -0.00   0.04     0.06  -0.06   0.00
     7   6     0.03   0.03   0.04    -0.04  -0.02  -0.02    -0.08   0.01   0.01
     8   6    -0.04  -0.05  -0.05     0.00   0.07  -0.02     0.09   0.02  -0.03
     9   6    -0.01   0.07   0.01    -0.01  -0.05  -0.00    -0.04  -0.03   0.02
    10   6    -0.00  -0.00  -0.09    -0.00  -0.00   0.01     0.12   0.00   0.00
    11  17     0.00   0.00   0.00     0.00  -0.00  -0.00    -0.00  -0.00   0.00
    12   6    -0.00  -0.00   0.05    -0.00  -0.00  -0.01    -0.01   0.06  -0.00
    13   1    -0.39  -0.09  -0.25    -0.14   0.44  -0.33    -0.37  -0.03  -0.23
    14   1    -0.11   0.23   0.20     0.05  -0.12  -0.10     0.06   0.10  -0.02
    15   1    -0.09   0.21   0.11     0.06  -0.08  -0.11    -0.09   0.13   0.21
    16   1     0.14   0.06  -0.03    -0.03  -0.04  -0.00     0.26  -0.07  -0.22
    17   1    -0.02  -0.03  -0.10    -0.10   0.02   0.10    -0.02   0.00   0.06
    18   1    -0.00   0.00   0.15    -0.00   0.00   0.21     0.06  -0.06   0.00
    19   1     0.02   0.03  -0.10     0.10  -0.02   0.10    -0.02   0.00  -0.06
    20   1    -0.14  -0.06  -0.03     0.03   0.04  -0.00     0.26  -0.07   0.22
    21   1     0.39   0.09  -0.25     0.14  -0.44  -0.33    -0.37  -0.03   0.23
    22   1     0.11  -0.23   0.20    -0.05   0.12  -0.10     0.06   0.10   0.02
    23   1     0.09  -0.21   0.11    -0.06   0.08  -0.11    -0.09   0.13  -0.21
    24   1     0.03  -0.15  -0.04     0.13   0.22   0.01    -0.16  -0.19  -0.02
    25   1    -0.03   0.15  -0.04    -0.13  -0.22   0.01    -0.16  -0.19   0.02
                     40                     41                     42
                     A'                     A"                     A"
 Frequencies --   1301.8674              1306.2586              1323.4046
 Red. masses --      1.6643                 1.4555                 1.6348
 Frc consts  --      1.6620                 1.4633                 1.6869
 IR Inten    --      4.1494                 0.0595                 6.7085
  Atom  AN      X      Y      Z        X      Y      Z        X      Y      Z
     1   8    -0.02   0.01   0.00    -0.00   0.00  -0.01     0.00  -0.00   0.00
     2   6     0.02   0.03  -0.00     0.00   0.00   0.03    -0.00  -0.00  -0.05
     3   6    -0.01  -0.10   0.02     0.05   0.01   0.02     0.08  -0.06   0.06
     4   6    -0.04   0.06  -0.01    -0.02   0.01  -0.03    -0.03   0.04   0.02
     5   6     0.02   0.02  -0.00    -0.01  -0.02  -0.02    -0.05   0.02   0.02
     6   6    -0.02   0.02  -0.00    -0.00   0.00  -0.00    -0.00   0.00  -0.08
     7   6     0.02   0.02   0.00     0.01   0.02  -0.02     0.05  -0.02   0.02
     8   6    -0.01  -0.10  -0.02    -0.05  -0.01   0.02    -0.08   0.06   0.06
     9   6    -0.04   0.06   0.01     0.02  -0.01  -0.03     0.03  -0.04   0.02
    10   6     0.14  -0.04  -0.00     0.00  -0.00   0.16     0.00   0.00  -0.07
    11  17    -0.00  -0.00   0.00    -0.00   0.00  -0.00    -0.00   0.00   0.00
    12   6    -0.04   0.01   0.00    -0.00   0.00  -0.04    -0.00  -0.00   0.05
    13   1     0.04   0.33  -0.13    -0.31  -0.09  -0.16    -0.06   0.05  -0.08
    14   1     0.16  -0.24  -0.24     0.13  -0.18  -0.19    -0.04   0.18   0.08
    15   1    -0.05   0.08   0.15     0.02  -0.08   0.02     0.12  -0.37  -0.17
    16   1    -0.24  -0.02   0.13    -0.13  -0.03   0.03    -0.19  -0.03   0.08
    17   1     0.22   0.02  -0.09     0.01  -0.02  -0.04     0.39   0.02  -0.17
    18   1    -0.07   0.15   0.00    -0.00   0.00  -0.22     0.00  -0.00   0.05
    19   1     0.22   0.02   0.09    -0.01   0.02  -0.04    -0.39  -0.02  -0.17
    20   1    -0.24  -0.02  -0.13     0.13   0.03   0.03     0.19   0.03   0.08
    21   1     0.04   0.33   0.13     0.31   0.09  -0.16     0.06  -0.05  -0.08
    22   1     0.16  -0.24   0.24    -0.13   0.18  -0.19     0.04  -0.18   0.08
    23   1    -0.05   0.08  -0.15    -0.02   0.08   0.02    -0.12   0.37  -0.17
    24   1    -0.10  -0.09  -0.01    -0.34  -0.31   0.03     0.08  -0.06  -0.03
    25   1    -0.10  -0.09   0.01     0.34   0.31   0.03    -0.08   0.06  -0.03
                     43                     44                     45
                     A'                     A'                     A"
 Frequencies --   1325.0973              1346.0161              1357.2108
 Red. masses --      1.6845                 1.5000                 1.5410
 Frc consts  --      1.7427                 1.6012                 1.6724
 IR Inten    --      8.2841                 1.5154                 0.7868
  Atom  AN      X      Y      Z        X      Y      Z        X      Y      Z
     1   8     0.02  -0.01  -0.00     0.01  -0.01  -0.00     0.00  -0.00  -0.00
     2   6    -0.00  -0.01   0.00     0.01   0.01   0.00     0.00   0.00   0.03
     3   6    -0.04   0.06  -0.02    -0.08  -0.01  -0.02    -0.01   0.04  -0.07
     4   6    -0.01  -0.05  -0.00     0.04  -0.03  -0.02    -0.02   0.05   0.07
     5   6     0.02  -0.05  -0.00     0.01   0.02   0.02     0.04   0.00   0.02
     6   6    -0.04   0.14   0.00    -0.04  -0.05   0.00    -0.00   0.00  -0.12
     7   6     0.02  -0.05   0.00     0.01   0.02  -0.02    -0.04  -0.00   0.02
     8   6    -0.04   0.06   0.02    -0.08  -0.01   0.02     0.01  -0.04  -0.07
     9   6    -0.01  -0.05   0.00     0.04  -0.03   0.02     0.02  -0.05   0.07
    10   6     0.10   0.04   0.00    -0.01  -0.01  -0.00    -0.00  -0.00  -0.03
    11  17    -0.00   0.00   0.00    -0.00  -0.00   0.00    -0.00   0.00  -0.00
    12   6    -0.01  -0.07  -0.00     0.08   0.11  -0.00     0.00   0.00   0.03
    13   1     0.01  -0.23   0.14     0.29   0.20   0.12     0.05  -0.29   0.11
    14   1     0.06  -0.09  -0.06    -0.05   0.03   0.05     0.06  -0.30  -0.13
    15   1    -0.17   0.37   0.27    -0.06   0.23   0.07     0.07  -0.20  -0.13
    16   1    -0.05   0.08   0.08     0.15  -0.01  -0.07    -0.07   0.05   0.10
    17   1     0.01  -0.05  -0.13    -0.13   0.02   0.08    -0.14   0.01   0.04
    18   1     0.16  -0.42   0.00    -0.01  -0.15  -0.00     0.00  -0.00   0.56
    19   1     0.01  -0.05   0.13    -0.13   0.02  -0.08     0.14  -0.01   0.04
    20   1    -0.05   0.08  -0.08     0.15  -0.01   0.07     0.07  -0.05   0.10
    21   1     0.01  -0.23  -0.14     0.29   0.20  -0.12    -0.05   0.29   0.11
    22   1     0.06  -0.09   0.06    -0.05   0.03  -0.05    -0.06   0.30  -0.13
    23   1    -0.17   0.37  -0.27    -0.06   0.23  -0.07    -0.07   0.20  -0.13
    24   1     0.05   0.04   0.01    -0.25  -0.38  -0.01     0.00  -0.10  -0.02
    25   1     0.05   0.04  -0.01    -0.25  -0.38   0.01    -0.00   0.10  -0.02
                     46                     47                     48
                     A"                     A'                     A"
 Frequencies --   1378.5374              1387.3018              1393.6720
 Red. masses --      1.5960                 1.4571                 1.5416
 Frc consts  --      1.7870                 1.6523                 1.7642
 IR Inten    --      2.9873                 0.8437                 0.7773
  Atom  AN      X      Y      Z        X      Y      Z        X      Y      Z
     1   8     0.00  -0.00  -0.01    -0.01   0.01  -0.00    -0.00   0.00   0.01
     2   6    -0.00  -0.00   0.07    -0.00   0.00   0.00     0.00  -0.00  -0.05
     3   6    -0.04  -0.03  -0.08     0.02  -0.05   0.02    -0.03  -0.04   0.04
     4   6     0.00   0.01  -0.00     0.02  -0.02  -0.03     0.02  -0.04  -0.06
     5   6    -0.08   0.01   0.09    -0.07  -0.01   0.03     0.04   0.02   0.01
     6   6     0.00  -0.00  -0.05     0.01   0.10   0.00     0.00   0.00  -0.13
     7   6     0.08  -0.01   0.09    -0.07  -0.01  -0.03    -0.04  -0.02   0.01
     8   6     0.04   0.03  -0.08     0.02  -0.05  -0.02     0.03   0.04   0.04
     9   6    -0.00  -0.01  -0.00     0.02  -0.02   0.03    -0.02   0.04  -0.06
    10   6     0.00  -0.00   0.05    -0.07   0.02  -0.00    -0.00   0.00   0.07
    11  17    -0.00  -0.00  -0.00     0.00   0.00  -0.00     0.00   0.00  -0.00
    12   6    -0.00   0.00   0.00     0.03  -0.02  -0.00    -0.00  -0.00   0.01
    13   1     0.30   0.19   0.04     0.07   0.26  -0.08     0.13   0.27   0.01
    14   1     0.07  -0.15  -0.11    -0.06   0.23   0.12    -0.04   0.14   0.05
    15   1    -0.01   0.05  -0.02     0.02   0.00  -0.06    -0.06   0.21   0.14
    16   1     0.33   0.01  -0.15     0.09   0.03  -0.05    -0.20   0.05   0.17
    17   1     0.30   0.01  -0.21     0.41  -0.01  -0.21    -0.00   0.02   0.05
    18   1    -0.00   0.00  -0.09     0.18  -0.39  -0.00    -0.00   0.00   0.54
    19   1    -0.30  -0.01  -0.21     0.41  -0.01   0.21     0.00  -0.02   0.05
    20   1    -0.33  -0.01  -0.15     0.09   0.03   0.05     0.20  -0.05   0.17
    21   1    -0.30  -0.19   0.04     0.07   0.26   0.08    -0.13  -0.27   0.01
    22   1    -0.07   0.15  -0.11    -0.06   0.23  -0.12     0.04  -0.14   0.05
    23   1     0.01  -0.05  -0.02     0.02   0.00   0.06     0.06  -0.21   0.14
    24   1    -0.11  -0.15   0.00     0.05   0.01   0.00    -0.15  -0.22  -0.01
    25   1     0.11   0.15   0.00     0.05   0.01  -0.00     0.15   0.22  -0.01
                     49                     50                     51
                     A'                     A'                     A"
 Frequencies --   1395.1010              1403.1274              1509.5418
 Red. masses --      1.4962                 1.4556                 1.0860
 Frc consts  --      1.7157                 1.6885                 1.4580
 IR Inten    --      1.2277                 0.4991                 0.0005
[...]
 40869,-0.00005134,0.00069039,-0.00016119,0.00009879,-0.00016546,0.0023
 6058,-0.00491401,0.00100782,-0.00029233,0.00006871,0.00022402,0.000395
 05,0.00018600,-0.00040126,0.00001983,0.00041538,0.00021480,-0.01576761
 ,0.00101777,0.02259053,-0.00261851,0.05320755,-0.00139339,-0.00009878,
 0.00050626,0.00264035,0.00105346,-0.00060784,0.01448143,-0.00122040,-0
 .02136944,-0.00484335,-0.00035713,-0.00377852,0.12264535,-0.00256779,-
 0.21687161,-0.00075027,-0.00012969,0.00146449,-0.00009370,0.00035825,-
 0.00007025,-0.00016792,-0.00025155,-0.00037708,0.00018846,0.00002957,-
 0.00000532,-0.00069496,0.00074630,0.00033479,0.00021191,-0.00016560,0.
 00004882,-0.00029121,0.00019792,0.00122480,0.00004967,0.00045455,0.000
 88235,-0.00018872,0.00004809,0.00039118,0.00120915,-0.00026259,-0.0013
 2425,-0.00034496,0.00067883,0.00115774,-0.13233952,0.00243026,0.237139
 35,-0.00047838,0.,0.00002476,0.00110078,0.,0.00043942,-0.00148778,0.00
 357768,0.00119297,-0.00013459,0.00012387,0.00035538,-0.01117129,0.0002
 1180,-0.01569040,-0.13228233,0.00000001,-0.12089224,-0.01117129,-0.000
 21179,-0.01569041,-0.00148778,-0.00357768,0.00119297,-0.00013459,-0.00
 012387,0.00035538,-0.00259620,0.,0.00182263,-0.00004001,0.,0.00161747,
 0.01219602,0.,0.01908743,-0.00053471,-0.00007806,-0.00110727,0.0000545
 6,-0.00001342,-0.00005109,0.00012752,-0.00012925,-0.00007628,0.0008226
 2,0.00000294,0.00030704,0.00014947,-0.00060432,0.00023255,0.14478235,0
 .,0.00090169,0.,0.,-0.00237940,0.,0.00340119,-0.00445489,-0.00110666,-
 0.00006824,-0.00000621,-0.00064883,0.01643976,-0.00048102,0.02376034,0
 .00000001,-0.04833551,0.00000002,-0.01643975,-0.00048101,-0.02376033,-
 0.00340119,-0.00445489,0.00110666,0.00006824,-0.00000621,0.00064883,0.
 ,0.00039693,0.,0.,0.00014238,0.,0.,-0.00005953,0.,0.00105098,0.0001746
 2,0.00147816,-0.00004535,0.00001069,0.00004724,-0.00009404,0.00005064,
 0.00006736,-0.00084054,0.00085497,0.00017097,-0.00057327,0.00104483,-0
 .00046791,-0.00000001,0.05471542,0.00002344,0.,-0.00007628,0.00015256,
 0.,0.00018154,0.00036020,0.00031076,0.00119052,0.00033125,-0.00030544,
 0.00038236,0.00069063,0.00037861,0.00094448,-0.12132843,0.00000002,-0.
 22229812,0.00069063,-0.00037861,0.00094448,0.00036020,-0.00031076,0.00
 119052,0.00033125,0.00030544,0.00038236,0.00486312,0.,-0.00072854,0.00
 002596,0.,-0.00197307,-0.01465354,0.,-0.02400292,-0.00003754,-0.000141
 80,0.00005396,-0.00003537,0.00004614,-0.00003092,-0.00011719,0.0000471
 5,0.00002502,-0.00002575,0.00044968,0.00008006,-0.00024637,0.00039378,
 0.00060396,0.12924283,-0.00000002,0.24055841,0.00014536,-0.00042242,0.
 00027737,0.00131333,-0.00002513,-0.00039810,0.00001274,-0.00001687,-0.
 00011495,-0.00003539,0.00004418,0.00009740,0.00039290,0.00127494,-0.00
 003564,-0.01223613,0.00036689,0.01614472,-0.13878916,-0.00006679,0.123
 30912,0.01215692,0.00075666,-0.01669982,-0.00254800,0.00051296,-0.0033
 4202,-0.00059944,-0.00034946,-0.00079578,0.00022661,0.00015622,0.00026
 550,-0.00159448,-0.00415934,-0.00121371,0.00004285,0.00001693,0.000027
 70,-0.00001003,0.00007466,0.00000071,0.00007743,-0.00007635,0.00001895
 ,0.00000172,0.00008535,-0.00036364,0.00067905,-0.00040920,-0.00026933,
 0.00014947,0.00057327,-0.00024637,0.14995689,-0.00007808,0.00007421,-0
 .00012346,-0.00032471,-0.00011253,0.00077476,0.00025343,-0.00015032,-0
 .00006535,-0.00006854,0.00015408,0.00000135,-0.00076854,0.00154568,0.0
 0108370,-0.01591127,-0.00111426,0.02307591,0.00070334,-0.05143539,0.00
 195032,0.00065346,-0.00069790,0.00031286,-0.00008377,0.00047583,-0.000
 56693,-0.00040869,-0.00005134,-0.00069038,0.00016119,0.00009879,0.0001
 6546,-0.00236058,-0.00491401,-0.00100782,0.00004039,-0.00000816,0.0000
 2188,0.00000277,0.00003839,-0.00003943,0.00007383,-0.00006706,-0.00003
 151,0.00003026,0.00036204,-0.00031241,0.00040920,-0.00049574,-0.000463
 06,0.00060432,0.00104483,-0.00039378,0.00261847,0.05320755,-0.00139339
 ,0.00009878,0.00050626,0.00264035,-0.00105346,-0.00060784,-0.00016792,
 0.00025155,-0.00037708,0.00018846,-0.00002957,-0.00000532,-0.00009370,
 -0.00035825,-0.00007025,-0.00075027,0.00012969,0.00146449,0.12264535,0
 .00256774,-0.21687161,0.01448143,0.00122039,-0.02136944,-0.00484335,0.
 00035713,-0.00377852,-0.00069496,-0.00074630,0.00033479,0.00021191,0.0
 0016560,0.00004882,-0.00029121,-0.00019792,0.00122480,0.00001791,0.000
 09633,-0.00000299,-0.00004255,0.00009564,0.00000885,-0.00001751,-0.000
 03596,0.00005896,-0.00019348,0.00005465,0.00022922,-0.00026933,0.00046
 307,0.00031600,0.00023255,0.00046791,0.00060396,-0.13233952,-0.0024302
 1,0.23713935,-0.00138585,0.00130946,0.00060380,-0.00001809,-0.00401327
 ,-0.00362396,-0.00012654,0.00005769,0.00054754,-0.00013570,-0.00005879
 ,0.00009248,-0.00234207,-0.00293191,0.00029348,0.01200066,-0.01691206,
 0.00115327,-0.13125890,0.12046751,0.00027650,-0.01247024,0.01730913,-0
 .00328033,0.00078464,-0.00044200,0.00163539,-0.00016942,-0.00010809,-0
 .00007695,0.00014814,0.00004331,-0.00007922,0.00119325,-0.00033473,-0.
 00037655,0.00008237,0.00012126,0.00013188,0.00006751,0.00001289,-0.000
 06271,-0.00001657,0.00000050,0.00004716,0.00088761,-0.00114146,0.00002
 044,0.00000172,-0.00003026,-0.00019348,0.00082262,0.00084054,-0.000025
 75,-0.01089987,0.01576761,-0.00034496,0.14194012,0.00003032,-0.0000505
 0,0.00022238,-0.00024892,0.00084455,-0.00048585,-0.00028311,0.00064779
 ,-0.00025448,0.00011143,0.00002646,-0.00017805,-0.00552010,-0.00347430
 ,-0.00017021,0.01607569,-0.02250713,0.00050655,0.11890586,-0.22210539,
 0.00384524,-0.00023284,0.00150210,-0.00033398,-0.00016701,0.00014093,-
 0.00015577,-0.00010930,-0.00013299,0.00002171,-0.00010487,0.00006477,0
 .00016980,0.00166597,0.00056466,-0.00063436,0.00009051,0.00002654,0.00
 012279,-0.00000802,0.00003489,-0.00003218,-0.00007291,0.00004382,0.000
 09623,0.00114146,-0.00168829,0.00018761,-0.00008535,0.00036204,-0.0000
 5465,-0.00000294,0.00085497,-0.00044968,-0.00033706,0.00101777,-0.0006
 7883,-0.12945219,0.24213339,-0.00222826,0.00173944,0.00128483,-0.00078
 319,-0.00409527,-0.00553514,0.00034163,-0.00014950,0.00066788,-0.00020
 704,-0.00007137,0.00030287,-0.00009111,0.00002747,0.00027105,0.0011492
 2,-0.00054120,-0.00104661,0.00045998,0.00344180,-0.04924106,-0.0175218
 2,0.02523356,-0.00467260,-0.00068161,0.00112562,0.00201305,-0.00001459
 ,-0.00005952,-0.00022663,0.00008273,-0.00000929,0.00000307,-0.00040375
 ,0.00075543,0.00020373,0.00008491,0.00009627,0.00008912,0.00006891,-0.
 00002326,-0.00007404,-0.00000260,-0.00004160,0.00002120,0.00002043,-0.
 00018761,0.00066144,-0.00036364,0.00031241,0.00022922,0.00030704,-0.00
 017097,0.00008006,0.01489877,-0.02259054,0.00115774,0.00344878,-0.0032
 5733,0.05273605,0.00209045,-0.00179443,-0.00005970,0.01159681,0.016710
 66,0.00039469,-0.00216641,0.00298154,-0.00003818,-0.00025156,0.0001153
 4,0.00019412,-0.00029110,0.00016415,-0.00020417,-0.00104815,0.00136405
 ,-0.00368235,-0.01024584,-0.01397828,-0.00020185,-0.14711412,-0.130675
 49,-0.00301726,-0.01146188,-0.01520206,0.00020206,-0.00024600,0.001945
 70,0.00275764,-0.00087044,-0.00069473,0.00064866,0.00062251,0.00040631
 ,-0.00005568,0.00065264,0.00094090,-0.00000516,0.00006614,-0.00009876,
 -0.00006425,0.00002148,-0.00003668,-0.00001064,0.00008237,-0.00009051,
 0.00008491,0.00004285,-0.00004039,0.00001791,-0.00053471,-0.00105098,-
 0.00003754,0.00080309,0.00029233,0.00004967,0.00014422,0.00021428,0.00
 059886,0.15711501,0.00032344,0.00576451,0.00009655,-0.02111526,-0.0261
 7844,-0.00049548,0.00484456,-0.00323945,0.00004924,0.00045680,0.000399
 04,-0.00041193,0.00046132,0.00029628,0.00050437,0.00058829,0.00101367,
 0.00041397,0.00184596,0.00261855,-0.00047164,-0.12619146,-0.21776345,-
 0.00381528,0.00173183,0.00241463,0.00043155,0.00055079,0.00072943,-0.0
 0036525,0.00015131,0.00017624,-0.00019599,0.00008036,0.00003888,0.0000
 3343,-0.00094090,-0.00142739,-0.00005182,-0.00012225,0.00002883,0.0000
 8353,-0.00001510,-0.00001144,0.00008267,-0.00012126,0.00002654,-0.0000
 9627,-0.00001693,-0.00000816,-0.00009633,0.00007806,0.00017462,0.00014
 180,-0.00010651,0.00006871,-0.00045455,-0.00020345,0.00055844,-0.00044
 924,0.13807522,0.23376037,0.00016053,-0.00001531,-0.00116979,-0.000065
 11,0.00034116,-0.00014266,0.00005512,0.00030013,0.00131106,-0.00005906
 ,-0.00051252,0.00002766,-0.00016631,0.00065701,-0.00004929,-0.00254878
 ,0.00164126,-0.00507418,-0.01658740,-0.02317341,-0.00002392,-0.0027963
 8,-0.00382165,-0.04904446,0.01693654,0.02285842,0.00012564,0.00145227,
 -0.00215659,-0.00366594,0.00150873,0.00101093,-0.00093560,0.00006296,0
 .00002746,-0.00048718,-0.00000516,0.00005182,0.00025455,-0.00012864,0.
 00010757,0.00004681,-0.00000157,0.00001910,-0.00001135,0.00013188,-0.0
 0012279,0.00008912,0.00002770,-0.00002188,-0.00000299,-0.00110727,-0.0
 0147816,0.00005396,0.00090708,-0.00022402,0.00088235,0.00050197,0.0004
 5527,0.00100977,0.00309233,0.00420691,0.05463885,-0.00136492,0.0013353
 5,-0.00061469,-0.00018790,-0.00400611,0.00354335,-0.00012203,0.0001803
 5,-0.00044607,-0.00221994,-0.00297485,-0.00023175,-0.00019058,-0.00006
 843,-0.00018193,-0.00000896,-0.00000483,0.00033218,0.00075229,-0.00046
 618,-0.00176321,-0.01265078,0.01734727,0.00312249,-0.13622147,0.125846
 62,-0.00375719,0.01085441,-0.01739842,0.00043186,0.00105532,-0.0001651
 0,-0.00088536,0.00108312,-0.00028024,0.00043626,0.00006614,0.00012225,
 -0.00012864,0.00097297,-0.00108434,-0.00004132,-0.00001257,-0.00006336
 ,0.00016217,0.00006751,0.00000802,0.00006891,-0.00001003,-0.00000277,-
 0.00004255,0.00005456,0.00004535,-0.00003537,-0.00002968,-0.00039505,-
 0.00018872,0.00080819,-0.00025717,0.00061682,0.00017814,-0.00022467,-0
 .00049144,0.14726014,-0.00003368,0.00002021,-0.00026960,-0.00030516,0.
 00066131,0.00074429,-0.00026845,0.00063995,0.00018688,-0.00525819,-0.0
 0335783,-0.00005726,0.00009896,0.00001242,0.00020677,-0.00017925,-0.00
 010971,-0.00022302,-0.00018190,0.00016870,0.00008802,-0.00064264,0.002
 28225,0.00017439,0.12151343,-0.22226330,0.00041488,0.01666821,-0.02428
 164,-0.00026700,0.00012154,0.00136225,-0.00016350,0.00151880,0.0006510
 4,0.00101933,0.00009876,0.00002883,-0.00010757,0.00108434,-0.00161050,
 -0.00010928,-0.00006520,0.00030285,0.00001234,-0.00001289,0.00003489,0
 .00002326,-0.00007466,0.00003839,-0.00009564,0.00001342,0.00001069,-0.
 00004614,-0.00017588,0.00018600,-0.00004809,-0.00020571,0.00005269,-0.
 00061145,0.00021166,0.00050732,-0.00042760,-0.13244852,0.24268556,0.00
 206104,-0.00165659,0.00117625,0.00108415,0.00374743,-0.00510185,-0.000
 36340,0.00005376,0.00058104,-0.00000563,0.00002994,0.00017320,0.000211
 56,0.00007758,0.00028059,-0.00019046,0.00007612,-0.00026979,0.00063635
 ,-0.00123533,0.00203412,0.01676170,-0.02389150,-0.00384408,-0.00365627
 ,-0.00028093,-0.04905430,0.00025986,-0.00015528,-0.00120086,-0.0003708
 1,0.00037710,0.00008036,0.00059738,-0.00078799,0.00000069,-0.00006425,
 -0.00008353,0.00004681,-0.00004132,0.00010928,0.00068716,0.00029378,-0
 .00031965,0.00024696,-0.00006271,0.00003218,-0.00007404,0.00000071,0.0
 0003943,0.00000885,-0.00005109,-0.00004724,-0.00003092,-0.00002276,0.0
 0040126,0.00039118,-0.00057440,0.00058879,-0.00032964,-0.00060795,0.00
 043683,0.00094029,-0.00027871,-0.00045182,0.05247790,0.00000302,-0.000
 43884,-0.00029149,0.00152244,-0.00004136,0.00039302,-0.00001024,0.0000
 5653,0.00007722,0.00016093,0.00130601,0.00040718,-0.00000038,0.0000311
 6,-0.00007298,-0.00036112,-0.00016201,0.00043604,-0.00296359,0.0003945
 0,0.00343614,0.01221236,0.00085505,0.01811336,-0.12914447,0.00135228,-
 0.12091053,-0.01251470,-0.00039439,-0.01710043,0.00066928,0.00057827,-
 0.00005323,-0.00174119,-0.00408221,0.00111332,0.00002148,0.00001510,-0
 .00000157,-0.00001257,0.00006520,0.00029378,0.00067409,-0.00033734,0.0
 0025431,-0.00001657,0.00007291,-0.00000260,0.00007743,-0.00007383,-0.0
 0001751,0.00012752,0.00009404,-0.00011719,0.00087839,-0.00001983,0.001
 20915,-0.00004459,-0.00017050,0.00001695,0.00086844,-0.00011759,-0.000
 90433,-0.01012904,-0.00036875,-0.01536822,0.13981565,-0.00010685,0.000
 08202,0.00011666,-0.00027787,-0.00010545,-0.00075681,0.00018825,-0.000
 14213,0.00014335,-0.00076987,0.00158017,-0.00097157,-0.00006734,0.0001
 8088,0.00000531,-0.00021468,-0.00002266,0.00047749,-0.00006807,0.00054
 161,0.00067868,0.00077165,-0.00057979,-0.00033391,0.00255679,-0.051951
 76,0.00092019,-0.01637593,-0.00141789,-0.02422756,0.00106457,0.0005246
 7,-0.00034256,-0.00246239,-0.00474498,0.00116155,0.00003668,-0.0000114
 4,-0.00001910,0.00006336,0.00030285,0.00031965,0.00033734,-0.00051711,
 0.00047628,-0.00000050,0.00004382,0.00004160,0.00007635,-0.00006706,0.
 00003596,0.00012925,0.00005064,-0.00004715,-0.00001104,0.00041538,0.00
 026259,-0.00037514,0.00019569,-0.00043568,0.00028072,0.00007576,0.0002
 7442,0.01473539,0.00105204,0.02291865,0.00174012,0.05418910,0.00126940
 ,-0.00009137,0.00039275,-0.00232354,0.00090634,-0.00052880,0.00021417,
 -0.00028166,-0.00034456,0.00013563,0.00040948,-0.00012619,-0.00020189,
 0.00008668,-0.00002595,0.00035858,0.00040858,0.00031770,0.00481483,-0.
 00019812,-0.00314010,-0.01235746,-0.00115372,-0.02054576,-0.12288894,-
 0.00137773,-0.23057377,0.00052724,0.00020716,-0.00108142,0.00023514,0.
 00020652,0.00150543,0.00051674,-0.00002702,0.00129586,-0.00001064,-0.0
 0008267,-0.00001135,0.00016217,-0.00001234,0.00024696,0.00025431,-0.00
 047628,0.00036229,0.00004716,-0.00009623,0.00002120,0.00001895,0.00003
 151,0.00005896,-0.00007628,-0.00006736,0.00002502,-0.00105348,-0.00021
 480,-0.00132425,0.00015842,0.00005008,0.00036514,-0.00006863,0.0004196
 7,0.00089023,0.00014369,0.00043515,0.00069677,0.13013742,0.00077979,0.
 25138546,0.00001533,0.00036592,-0.00000570,0.00017667,-0.00094040,0.00
 001611,-0.00011413,0.00049325,-0.00000772,0.00036819,-0.00137265,0.000
 71473,0.00026643,-0.00134095,-0.00073861,-0.01178727,-0.01466789,0.000
 26386,-0.00108146,0.00153542,0.00359709,0.00044415,0.00041238,-0.00004
 933,-0.00100158,0.00160171,-0.00349789,-0.01284174,-0.01608585,0.00019
 937,0.00093845,0.00081907,0.00044704,-0.13855524,-0.12095981,-0.001687
 99,-0.00004978,0.00003237,0.00000378,-0.00007919,0.00088240,-0.0002627
 6,0.00039698,0.00021839,0.00000396,-0.00011262,0.00094676,0.00022179,0
 .00041910,0.00017969,0.00001279,0.00083309,0.00034690,-0.00008283,-0.0
 0051365,-0.00101185,-0.00005871,0.00009943,-0.00023647,-0.00001919,-0.
 00000416,0.00001979,0.00002056,0.00007429,-0.00022585,0.00001421,-0.00
 048957,-0.00103238,-0.00001696,0.15004974,-0.00016048,0.00014157,0.000
 00534,0.00023097,-0.00034860,-0.00002031,-0.00013189,0.00001682,0.0000
 5354,0.00075896,0.00055620,0.00018449,0.00062594,0.00064319,-0.0002823
 0,0.00118475,0.00012996,0.00049963,0.00048912,0.00096066,0.00046119,0.
 00012149,0.00011701,-0.00000992,0.00025475,0.00097501,-0.00053192,-0.0
 0000422,-0.00081830,0.00038570,0.00082312,0.00040007,-0.00027806,-0.12
 249578,-0.22302129,-0.00062040,0.00000931,0.00001458,-0.00000299,-0.00
 010134,0.00050845,0.00013318,0.00003511,0.00014803,-0.00009069,-0.0001
 5666,0.00047691,-0.00008852,0.00003341,0.00019900,0.00009470,-0.000062
 63,0.00011537,0.00050139,-0.00029106,0.00015844,-0.00010324,0.00012249
 ,0.00041020,-0.00012670,-0.00003125,-0.00003807,-0.00000051,0.00011809
 ,0.00041715,0.00015467,-0.00031942,0.00017760,0.00004768,0.13448363,0.
 23848755,-0.00000730,-0.00001384,-0.00001325,0.00000378,0.00004672,-0.
 00006864,0.00005960,-0.00009292,-0.00021658,0.00092954,-0.00102271,0.0
 0078077,-0.00067563,0.00099656,0.00107159,0.01676816,0.02299568,0.0002
 7660,0.00329122,-0.00136778,-0.00490312,0.00008855,0.00003667,-0.00050
 172,-0.00317606,0.00115160,-0.00513666,-0.01760802,-0.02425945,-0.0018
 6335,-0.00031210,-0.00013857,0.00143751,0.00069096,0.00166364,-0.04713
 086,0.00001150,-0.00000030,0.00005686,0.00003749,0.00068635,0.00007644
 ,0.00035355,0.00001556,-0.00005436,-0.00003077,-0.00071820,0.00004140,
 -0.00042080,0.00003863,-0.00008749,-0.00083404,0.00019199,0.00092005,0
 .00136860,0.00140485,0.00012804,-0.00024203,-0.00029925,-0.00001188,0.
 00000100,0.00000297,0.00028020,0.00019172,0.00025901,0.00000687,-0.001
 40133,-0.00146229,0.00019276,0.00070242,-0.00024042,0.05489136,0.00001
 533,-0.00036592,-0.00000570,0.00017667,0.00094040,0.00001611,0.0004441
 5,-0.00041238,-0.00004933,-0.00100158,-0.00160171,-0.00349789,-0.00108
 146,-0.00153542,0.00359709,-0.01178727,0.01466789,0.00026386,0.0002664
 3,0.00134095,-0.00073861,-0.00011413,-0.00049325,-0.00000772,0.0003681
 9,0.00137266,0.00071473,-0.01284173,0.01608585,0.00019937,0.00093845,-
 0.00081907,0.00044704,-0.13855516,0.12095978,-0.00168799,-0.00000416,-
 0.00001979,0.00002056,0.00007429,0.00022585,0.00001421,-0.00048957,0.0
 0103238,-0.00001696,0.00009943,0.00023647,-0.00001919,-0.00051365,0.00
 101185,-0.00005871,0.00083309,-0.00034690,-0.00008283,0.00041910,-0.00
 017969,0.00001279,-0.00011262,-0.00094676,0.00022179,-0.00004978,-0.00
 003237,0.00000378,-0.00007919,-0.00088240,-0.00026276,0.00039698,-0.00
 021839,0.00000396,0.01254853,-0.01553642,0.00020997,0.15004964,0.00016
 048,0.00014157,-0.00000534,-0.00023097,-0.00034860,0.00002031,-0.00012
 149,0.00011701,0.00000992,-0.00025475,0.00097501,0.00053192,-0.0004891
 2,0.00096066,-0.00046119,-0.00118475,0.00012995,-0.00049963,-0.0006259
 4,0.00064319,0.00028230,0.00013189,0.00001682,-0.00005354,-0.00075896,
 0.00055620,-0.00018449,0.00000422,-0.00081831,-0.00038570,-0.00082312,
 0.00040007,0.00027806,0.12249575,-0.22302138,0.00062040,0.00003125,-0.
 00003807,0.00000051,-0.00011809,0.00041715,-0.00015467,0.00031942,0.00
 017760,-0.00004768,-0.00012249,0.00041020,0.00012670,0.00029106,0.0001
 5843,0.00010324,0.00006263,0.00011537,-0.00050139,-0.00003341,0.000199
 00,-0.00009470,0.00015666,0.00047691,0.00008852,-0.00000931,0.00001458
 ,0.00000299,0.00010134,0.00050845,-0.00013318,-0.00003511,0.00014803,0
 .00009069,0.01553641,-0.02082751,0.00012551,-0.13448359,0.23848765,-0.
 00000730,0.00001384,-0.00001325,0.00000378,-0.00004672,-0.00006864,0.0
 0008855,-0.00003667,-0.00050172,-0.00317606,-0.00115160,-0.00513666,0.
 00329122,0.00136777,-0.00490312,0.01676815,-0.02299568,0.00027660,-0.0
 0067563,-0.00099656,0.00107159,0.00005960,0.00009292,-0.00021658,0.000
 92954,0.00102271,0.00078077,-0.01760801,0.02425946,-0.00186335,-0.0003
 1210,0.00013857,0.00143751,0.00069096,-0.00166363,-0.04713086,0.000001
 00,-0.00000297,0.00028020,0.00019172,-0.00025901,0.00000687,-0.0014013
 3,0.00146229,0.00019276,-0.00024203,0.00029925,-0.00001188,0.00136860,
 -0.00140485,0.00012804,-0.00083404,-0.00019199,0.00092005,-0.00042080,
 -0.00003863,-0.00008749,-0.00003077,0.00071820,0.00004140,0.00001150,0
 .00000030,0.00005686,0.00003749,-0.00068635,0.00007644,0.00035355,-0.0
 0001556,-0.00005436,0.00020997,-0.00012551,-0.00017254,0.00070243,0.00
 024042,0.05489136\\-0.00000415,0.,-0.00004214,0.00011776,0.,0.00014851
 ,-0.00003855,-0.00006567,-0.00003444,0.00000258,-0.00000043,0.00002674
 ,-0.00003326,0.00000877,-0.00005383,0.00004027,0.,0.00006464,-0.000033
 26,-0.00000877,-0.00005383,-0.00003855,0.00006567,-0.00003444,0.000002
 58,0.00000043,0.00002674,-0.00004637,0.,0.00015983,0.00002388,0.,-0.00
 002432,-0.00002331,0.,-0.00010832,-0.00002000,-0.00001107,-0.00001509,
 0.00000105,0.00002032,-0.00002840,-0.00000456,0.00002127,-0.00002264,0
 .00001604,0.00000527,0.00002815,-0.00000348,0.00001957,0.00002091,0.00
 001749,0.,-0.00004079,-0.00000348,-0.00001957,0.00002091,0.00001604,-0
 .00000527,0.00002815,-0.00002000,0.00001107,-0.00001509,0.00000105,-0.
 00002032,-0.00002840,-0.00000456,-0.00002127,-0.00002264,0.00001740,0.
 00000114,-0.00000010,0.00001740,-0.00000114,-0.00000010\\\@


     SCHOPENHAUER'S LAW OF ENTROPY
 IF YOU PUT A SPOONFUL OF WINE IN A BARREL FULL
 OF SEWAGE, YOU GET SEWAGE.
 IF YOU PUT A SPOONFUL OF SEWAGE IN A BARREL FULL
 OF WINE, YOU GET SEWAGE.
 Job cpu time:       0 days  0 hours  1 minutes 38.1 seconds.
 Elapsed time:       0 days  0 hours  1 minutes 42.6 seconds.
 File lengths (MBytes):  RWF=    103 Int=      0 D2E=      0 Chk=     16 Scr=      1
 Normal termination of Gaussian 16 at Sat Feb 24 02:49:04 2024.
