 Entering Gaussian System, Link 0=g16
 Input=/Volumes/SSD-PMU3/b3lyp_6-31gd_freq/USMNOWBWPHYOEA-OYNCUSHFSA-N_calculating/gaussianinput1.gjf
 Output=/Volumes/SSD-PMU3/b3lyp_6-31gd_freq/USMNOWBWPHYOEA-OYNCUSHFSA-N_calculating/gaussianinput1.log
 Initial command:
 /Applications/g16/l1.exe "/Users/macmini_m1_2022/PycharmProjects/sphere_model/sphere_model_lib/Gau-57823.inp" -scrdir="/Users/macmini_m1_2022/PycharmProjects/sphere_model/sphere_model_lib/"
 Entering Link 1 = /Applications/g16/l1.exe PID=     57824.
  
 Copyright (c) 1988,1990,1992,1993,1995,1998,2003,2009,2016,
            Gaussian, Inc.  All Rights Reserved.
  
 This is part of the Gaussian(R) 16 program.  It is based on
 the Gaussian(R) 09 system (copyright 2009, Gaussian, Inc.),
 the Gaussian(R) 03 system (copyright 2003, Gaussian, Inc.),
 the Gaussian(R) 98 system (copyright 1998, Gaussian, Inc.),
 the Gaussian(R) 94 system (copyright 1995, Gaussian, Inc.),
 the Gaussian 92(TM) system (copyright 1992, Gaussian, Inc.),
 the Gaussian 90(TM) system (copyright 1990, Gaussian, Inc.),
 the Gaussian 88(TM) system (copyright 1988, Gaussian, Inc.),
 the Gaussian 86(TM) system (copyright 1986, Carnegie Mellon
 University), and the Gaussian 82(TM) system (copyright 1983,
 Carnegie Mellon University). Gaussian is a federally registered
 trademark of Gaussian, Inc.
  
 This software contains proprietary and confidential information,
 including trade secrets, belonging to Gaussian, Inc.
  
 This software is provided under written license and may be
 used, copied, transmitted, or stored only in accord with that
 written license.
  
 The following legend is applicable only to US Government
 contracts under FAR:
  
                    RESTRICTED RIGHTS LEGEND
  
 Use, reproduction and disclosure by the US Government is
 subject to restrictions as set forth in subparagraphs (a)
 and (c) of the Commercial Computer Software - Restricted
 Rights clause in FAR 52.227-19.
  
 Gaussian, Inc.
 340 Quinnipiac St., Bldg. 40, Wallingford CT 06492
  
  
 ---------------------------------------------------------------
 Warning -- This program may not be used in any manner that
 competes with the business of Gaussian, Inc. or will provide
 assistance to any competitor of Gaussian, Inc.  The licensee
 of this program is prohibited from giving any competitor of
 Gaussian, Inc. access to this program.  By using this program,
 the user acknowledges that Gaussian, Inc. is engaged in the
 business of creating and licensing software in the field of
 computational chemistry and represents and warrants to the
 licensee that it is not a competitor of Gaussian, Inc. and that
 it will not use this program in any manner prohibited above.
 ---------------------------------------------------------------
  

 Cite this work as:
 Gaussian 16, Revision A.03,
 M. J. Frisch, G. W. Trucks, H. B. Schlegel, G. E. Scuseria, 
 M. A. Robb, J. R. Cheeseman, G. Scalmani, V. Barone, 
 G. A. Petersson, H. Nakatsuji, X. Li, M. Caricato, A. V. Marenich, 
 J. Bloino, B. G. Janesko, R. Gomperts, B. Mennucci, H. P. Hratchian, 
 J. V. Ortiz, A. F. Izmaylov, J. L. Sonnenberg, D. Williams-Young, 
 F. Ding, F. Lipparini, F. Egidi, J. Goings, B. Peng, A. Petrone, 
 T. Henderson, D. Ranasinghe, V. G. Zakrzewski, J. Gao, N. Rega, 
 G. Zheng, W. Liang, M. Hada, M. Ehara, K. Toyota, R. Fukuda, 
 J. Hasegawa, M. Ishida, T. Nakajima, Y. Honda, O. Kitao, H. Nakai, 
 T. Vreven, K. Throssell, J. A. Montgomery, Jr., J. E. Peralta, 
 F. Ogliaro, M. J. Bearpark, J. J. Heyd, E. N. Brothers, K. N. Kudin, 
 V. N. Staroverov, T. A. Keith, R. Kobayashi, J. Normand, 
 K. Raghavachari, A. P. Rendell, J. C. Burant, S. S. Iyengar, 
 J. Tomasi, M. Cossi, J. M. Millam, M. Klene, C. Adamo, R. Cammi, 
 J. W. Ochterski, R. L. Martin, K. Morokuma, O. Farkas, 
 J. B. Foresman, and D. J. Fox, Gaussian, Inc., Wallingford CT, 2016.
 
 ******************************************
 Gaussian 16:  EM64M-G16RevA.03 25-Dec-2016
                22-Feb-2024 
 ******************************************
 %nprocshared=8
 Will use up to    8 processors via shared memory.
 %mem=4GB
 %chk= 1.chk
 ---------------------
 # freq b3lyp/6-31g(d)
 ---------------------
 1/10=4,30=1,38=1/1,3;
 2/12=2,17=6,18=5,40=1/2;
 3/5=1,6=6,7=1,11=2,25=1,30=1,71=2,74=-5,140=1/1,2,3;
 4//1;
 5/5=2,38=5,98=1/2;
 8/6=4,10=90,11=11/1;
 11/6=1,8=1,9=11,15=111,16=1/1,2,10;
 10/6=1/2;
 6/7=2,8=2,9=2,10=2,28=1/1;
 7/8=1,10=1,25=1/1,2,3,16;
 1/10=4,30=1/3;
 99//99;
 ---------
 good luck
 ---------
 Symbolic Z-matrix:
 Charge =  0 Multiplicity = 1
 O                     1.2112    0.        0. 
 C                     0.        0.        0. 
 C                    -0.88035  -1.26637   0.01862 
 C                    -0.76771  -1.96237   1.3873 
 C                    -2.27659  -0.75506  -0.29374 
 C                    -2.45889   0.02746  -1.57334 
 C                    -2.30357   0.77249  -0.26665 
 C                    -3.50139   1.53554   0.29344 
 C                    -3.50956   1.58172   1.83006 
 C                    -3.60154   2.94831  -0.30566 
 C                    -0.88581   1.25514   0.01862 
 H                    -0.50232  -1.95098  -0.75231 
 H                    -1.35884  -2.88487   1.40017 
 H                     0.27546  -2.21572   1.60002 
 H                    -1.13547  -1.3164    2.19354 
 H                    -3.12789  -1.31588   0.08681 
 H                    -3.44562   0.01864  -2.03022 
 H                    -1.6428    0.04361  -2.29535 
 H                    -4.39746   0.97864  -0.01951 
 H                    -2.66868   2.16611   2.2233 
 H                    -4.42919   2.05118   2.19809 
 H                    -3.4498    0.57492   2.25943 
 H                    -4.5088    3.45789   0.0395 
 H                    -3.62748   2.91354  -1.40074 
 H                    -2.74396   3.56573  -0.01047 
 H                    -0.50032   1.99294  -0.6945 
 H                    -0.80021   1.70707   1.01671 
 

 GradGradGradGradGradGradGradGradGradGradGradGradGradGradGradGradGradGrad
 Berny optimization.
 Initialization pass.
 Trust Radius=3.00D-01 FncErr=1.00D-07 GrdErr=1.00D-07 EigMax=2.50D+02 EigMin=1.00D-04
 Number of steps in this run=      2 maximum allowed number of steps=      2.
 GradGradGradGradGradGradGradGradGradGradGradGradGradGradGradGradGradGrad

                          Input orientation:                          
 ---------------------------------------------------------------------
 Center     Atomic      Atomic             Coordinates (Angstroms)
 Number     Number       Type             X           Y           Z
 ---------------------------------------------------------------------
      1          8           0        1.211197    0.000000    0.000000
      2          6           0        0.000000    0.000000    0.000000
      3          6           0       -0.880354   -1.266371    0.018617
      4          6           0       -0.767709   -1.962374    1.387304
      5          6           0       -2.276587   -0.755057   -0.293742
      6          6           0       -2.458887    0.027460   -1.573340
      7          6           0       -2.303571    0.772492   -0.266647
      8          6           0       -3.501394    1.535540    0.293437
      9          6           0       -3.509562    1.581719    1.830060
     10          6           0       -3.601538    2.948311   -0.305661
     11          6           0       -0.885808    1.255138    0.018617
     12          1           0       -0.502316   -1.950984   -0.752308
     13          1           0       -1.358842   -2.884867    1.400167
     14          1           0        0.275464   -2.215718    1.600019
     15          1           0       -1.135471   -1.316396    2.193542
     16          1           0       -3.127890   -1.315881    0.086808
     17          1           0       -3.445624    0.018640   -2.030215
     18          1           0       -1.642798    0.043607   -2.295350
     19          1           0       -4.397456    0.978640   -0.019505
     20          1           0       -2.668683    2.166111    2.223297
     21          1           0       -4.429187    2.051179    2.198095
     22          1           0       -3.449803    0.574922    2.259431
     23          1           0       -4.508796    3.457889    0.039498
     24          1           0       -3.627483    2.913535   -1.400736
     25          1           0       -2.743962    3.565728   -0.010470
     26          1           0       -0.500324    1.992937   -0.694495
     27          1           0       -0.800207    1.707073    1.016706
 ---------------------------------------------------------------------
                    Distance matrix (angstroms):
                    1          2          3          4          5
     1  O    0.000000
     2  C    1.211197   0.000000
     3  C    2.445123   1.542422   0.000000
     4  C    3.113132   2.522876   1.539615   0.000000
     5  C    3.580647   2.416453   1.519367   2.561297   0.000000
     6  C    3.993203   2.919294   2.588454   3.947776   1.510939
     7  C    3.608523   2.444235   2.502775   3.545972   1.528028
     8  C    4.965129   3.834547   3.846568   4.572197   2.663037
     9  C    5.304387   4.262391   4.278513   4.502709   3.389880
    10  C    5.652290   4.664444   5.027280   5.917055   3.933265
    11  C    2.444002   1.536351   2.521515   3.498519   2.464289
    12  H    2.703411   2.150495   1.098150   2.156039   2.188278
    13  H    4.109504   3.482725   2.181092   1.095718   2.871876
    14  H    2.888782   2.746880   2.176696   1.094368   3.497546
    15  H    3.471509   2.798896   2.190408   1.096611   2.793533
    16  H    4.535058   3.394521   2.249115   2.771227   1.088145
    17  H    5.080168   3.999306   3.525560   4.772325   2.231724
    18  H    3.662761   2.822998   2.766190   4.283886   2.246328
    19  H    5.693426   4.505079   4.172713   4.878907   2.752998
    20  H    4.968758   4.093526   4.454286   4.621361   3.875880
    21  H    6.391626   5.353191   5.324517   5.492942   4.326419
    22  H    5.211572   4.163737   3.874748   3.793693   3.108693
    23  H    6.684076   5.682235   5.956900   6.722467   4.779406
    24  H    5.819242   4.858948   5.199317   6.302854   4.063117
    25  H    5.325205   4.499317   5.179099   6.034837   4.355211
    26  H    2.717246   2.168973   3.357982   4.477708   3.296541
    27  H    2.827284   2.141990   3.137511   3.688257   3.155797
                    6          7          8          9         10
     6  C    0.000000
     7  C    1.512165   0.000000
     8  C    2.616483   1.526668   0.000000
     9  C    3.886228   2.550577   1.537338   0.000000
    10  C    3.382903   2.533856   1.537813   2.537191   0.000000
    11  C    2.552665   1.524590   2.644890   3.205006   3.216703
    12  H    2.901121   3.301168   4.716344   5.309627   5.814444
    13  H    4.305054   4.128808   5.035412   4.976022   6.478078
    14  H    4.751708   4.366379   5.481218   5.366551   6.732753
    15  H    4.212693   3.432265   4.164316   3.763974   5.524059
    16  H    2.237906   2.272825   2.883193   3.403041   4.308330
    17  H    1.087411   2.232207   2.775510   4.165216   3.403141
    18  H    1.089752   2.254669   3.518815   4.782217   4.028999
    19  H    2.660300   2.118474   1.100453   2.138446   2.143589
    20  H    4.362602   2.876682   2.194399   1.096917   2.806721
    21  H    4.711819   3.496890   2.180460   1.096154   2.785434
    22  H    3.996469   2.780998   2.188740   1.096162   3.497956
    23  H    4.309433   3.488280   2.185125   2.779316   1.096322
    24  H    3.118467   2.760972   2.187462   3.496524   1.095934
    25  H    3.878553   2.839320   2.188087   2.812470   1.097168
    26  H    2.910573   2.219063   3.192435   3.949429   3.268250
    27  H    3.504377   2.186445   2.801598   2.831583   3.337182
                   11         12         13         14         15
    11  C    0.000000
    12  H    3.319730   0.000000
    13  H    4.389998   2.497784   0.000000
    14  H    3.987007   2.491680   1.777261   0.000000
    15  H    3.377191   3.079224   1.771846   1.775327   0.000000
    16  H    3.411997   2.828623   2.704840   3.831753   2.899666
    17  H    3.504183   3.765040   4.955051   5.658396   4.995923
    18  H    2.719427   2.767683   4.723710   4.894709   4.717747
    19  H    3.522723   4.928673   5.116183   5.887526   4.561284
    20  H    2.978108   5.522485   5.282576   5.315722   3.805191
    21  H    4.235486   6.335811   5.867560   6.379486   4.710536
    22  H    3.472465   4.913090   4.132867   4.701075   2.989575
    23  H    4.240117   6.777518   7.211393   7.583811   6.230010
    24  H    3.504515   5.818133   6.827390   7.109625   6.084511
    25  H    2.965200   6.000784   6.746750   6.718313   5.592857
    26  H    1.096118   3.944345   5.377512   4.855864   4.438001
    27  H    1.098979   4.074252   4.641662   4.109211   3.261703
                   16         17         18         19         20
    16  H    0.000000
    17  H    2.522635   0.000000
    18  H    3.119036   1.822389   0.000000
    19  H    2.624486   2.422919   3.693494   0.000000
    20  H    4.110927   4.827798   5.096630   3.070652   0.000000
    21  H    4.181866   4.793456   5.655560   2.463554   1.764432
    22  H    2.898112   4.325567   4.928853   2.500917   1.772946
    23  H    4.969710   4.152407   5.032175   2.482449   3.134276
    24  H    4.511135   2.968120   3.602193   2.498895   3.822506
    25  H    4.897649   4.141682   4.340343   3.070366   2.637103
    26  H    4.296838   3.789035   2.769092   4.083142   3.639407
    27  H    3.926967   4.374102   3.800894   3.813732   2.271075
                   21         22         23         24         25
    21  H    0.000000
    22  H    1.772651   0.000000
    23  H    2.577734   3.789600   0.000000
    24  H    3.786551   4.347126   1.774065   0.000000
    25  H    3.164111   3.820417   1.768832   1.771667   0.000000
    26  H    4.879184   4.408613   4.330436   3.335476   2.824088
    27  H    3.831917   3.137912   4.215913   3.910635   2.878867
                   26         27
    26  H    0.000000
    27  H    1.760641   0.000000
 Stoichiometry    C10H16O
 Framework group  C1[X(C10H16O)]
 Deg. of freedom    75
 Full point group                 C1      NOp   1
 Largest Abelian subgroup         C1      NOp   1
 Largest concise Abelian subgroup C1      NOp   1
                         Standard orientation:                         
 ---------------------------------------------------------------------
 Center     Atomic      Atomic             Coordinates (Angstroms)
 Number     Number       Type             X           Y           Z
 ---------------------------------------------------------------------
      1          8           0        2.497957   -1.454201   -0.884381
      2          6           0        1.596864   -0.804735   -0.401449
      3          6           0        1.788173    0.416788    0.520694
      4          6           0        2.358390    1.597690   -0.285989
      5          6           0        0.402948    0.676749    1.088186
      6          6           0       -0.275487   -0.462834    1.812074
      7          6           0       -0.637151   -0.182560    0.370794
      8          6           0       -2.029251    0.356955    0.051891
      9          6           0       -2.042081    1.272596   -1.182955
     10          6           0       -3.056922   -0.778545   -0.087394
     11          6           0        0.099672   -1.049930   -0.643669
     12          1           0        2.514676    0.142414    1.297126
     13          1           0        2.535060    2.460188    0.366301
     14          1           0        3.307056    1.315853   -0.753153
     15          1           0        1.665896    1.910631   -1.076606
     16          1           0        0.150219    1.692448    1.385747
     17          1           0       -1.010861   -0.207530    2.571354
     18          1           0        0.309550   -1.350666    2.050917
     19          1           0       -2.328774    0.970959    0.914608
     20          1           0       -1.800718    0.721181   -2.099968
     21          1           0       -3.034096    1.716796   -1.324888
     22          1           0       -1.318319    2.089506   -1.080991
     23          1           0       -4.066895   -0.378326   -0.234704
     24          1           0       -3.070164   -1.412956    0.806149
     25          1           0       -2.826736   -1.418023   -0.948707
     26          1           0       -0.117593   -2.122041   -0.574040
     27          1           0       -0.122899   -0.749860   -1.677194
 ---------------------------------------------------------------------
 Rotational constants (GHZ):           1.7842974           0.7643884           0.7265178
 Standard basis: 6-31G(d) (6D, 7F)
 There are   197 symmetry adapted cartesian basis functions of A   symmetry.
 There are   197 symmetry adapted basis functions of A   symmetry.
   197 basis functions,   372 primitive gaussians,   197 cartesian basis functions
    42 alpha electrons       42 beta electrons
       nuclear repulsion energy       646.5644292763 Hartrees.
 NAtoms=   27 NActive=   27 NUniq=   27 SFac= 1.00D+00 NAtFMM=   60 NAOKFM=F Big=F
 Integral buffers will be    131072 words long.
 Raffenetti 2 integral format.
 Two-electron integral symmetry is turned on.
 One-electron integrals computed using PRISM.
 NBasis=   197 RedAO= T EigKep=  1.83D-03  NBF=   197
 NBsUse=   197 1.00D-06 EigRej= -1.00D+00 NBFU=   197
 ExpMin= 1.61D-01 ExpMax= 5.48D+03 ExpMxC= 8.25D+02 IAcc=3 IRadAn=         5 AccDes= 0.00D+00
 Harris functional with IExCor=  402 and IRadAn=       5 diagonalized for initial guess.
 HarFok:  IExCor=  402 AccDes= 0.00D+00 IRadAn=         5 IDoV= 1 UseB2=F ITyADJ=14
 ICtDFT=  3500011 ScaDFX=  1.000000  1.000000  1.000000  1.000000
 FoFCou: FMM=F IPFlag=           0 FMFlag=      100000 FMFlg1=           0
         NFxFlg=           0 DoJE=T BraDBF=F KetDBF=T FulRan=T
         wScrn=  0.000000 ICntrl=       500 IOpCl=  0 I1Cent=   200000004 NGrid=           0
         NMat0=    1 NMatS0=      1 NMatT0=    0 NMatD0=    1 NMtDS0=    0 NMtDT0=    0
 Petite list used in FoFCou.
 Requested convergence on RMS density matrix=1.00D-08 within 128 cycles.
 Requested convergence on MAX density matrix=1.00D-06.
 Requested convergence on             energy=1.00D-06.
 No special actions if energy rises.
 Integral accuracy reduced to 1.0D-05 until final iterations.
 Initial convergence to 1.0D-05 achieved.  Increase integral accuracy.
 SCF Done:  E(RB3LYP) =  -465.903413035     A.U. after   13 cycles
            NFock= 13  Conv=0.94D-08     -V/T= 2.0098
 DoSCS=F DFT=T ScalE2(SS,OS)=  1.000000  1.000000
 Range of M.O.s used for correlation:     1   197
 NBasis=   197 NAE=    42 NBE=    42 NFC=     0 NFV=     0
 NROrb=    197 NOA=    42 NOB=    42 NVA=   155 NVB=   155
 Symmetrizing basis deriv contribution to polar:
 IMax=3 JMax=2 DiffMx= 0.00D+00
 G2DrvN: will do    28 centers at a time, making    1 passes.
 Calling FoFCou, ICntrl=  3107 FMM=F I1Cent=   0 AccDes= 0.00D+00.
 End of G2Drv F.D. properties file   721 does not exist.
 End of G2Drv F.D. properties file   722 does not exist.
 End of G2Drv F.D. properties file   788 does not exist.
          IDoAtm=111111111111111111111111111
          Differentiating once with respect to electric field.
                with respect to dipole field.
          Differentiating once with respect to nuclear coordinates.
 Keep R1 ints in memory in canonical form, NReq=198402009.
          There are    84 degrees of freedom in the 1st order CPHF.  IDoFFX=6 NUNeed=     3.
     81 vectors produced by pass  0 Test12= 7.75D-15 1.19D-09 XBig12= 7.08D+01 1.93D+00.
 AX will form    81 AO Fock derivatives at one time.
     81 vectors produced by pass  1 Test12= 7.75D-15 1.19D-09 XBig12= 9.16D+00 9.83D-01.
     81 vectors produced by pass  2 Test12= 7.75D-15 1.19D-09 XBig12= 8.54D-02 5.90D-02.
     81 vectors produced by pass  3 Test12= 7.75D-15 1.19D-09 XBig12= 1.94D-04 1.78D-03.
     81 vectors produced by pass  4 Test12= 7.75D-15 1.19D-09 XBig12= 2.07D-07 5.37D-05.
     40 vectors produced by pass  5 Test12= 7.75D-15 1.19D-09 XBig12= 1.59D-10 1.19D-06.
      3 vectors produced by pass  6 Test12= 7.75D-15 1.19D-09 XBig12= 1.09D-13 4.29D-08.
      1 vectors produced by pass  7 Test12= 7.75D-15 1.19D-09 XBig12= 7.44D-17 1.32D-09.
 InvSVY:  IOpt=1 It=  1 EMax= 5.33D-15
 Solved reduced A of dimension   449 with    84 vectors.
 Isotropic polarizability for W=    0.000000      100.03 Bohr**3.
 End of Minotr F.D. properties file   721 does not exist.
 End of Minotr F.D. properties file   722 does not exist.
 End of Minotr F.D. properties file   788 does not exist.

 **********************************************************************

            Population analysis using the SCF density.

 **********************************************************************

 Orbital symmetries:
       Occupied  (A) (A) (A) (A) (A) (A) (A) (A) (A) (A) (A) (A)
                 (A) (A) (A) (A) (A) (A) (A) (A) (A) (A) (A) (A)
                 (A) (A) (A) (A) (A) (A) (A) (A) (A) (A) (A) (A)
                 (A) (A) (A) (A) (A) (A)
       Virtual   (A) (A) (A) (A) (A) (A) (A) (A) (A) (A) (A) (A)
                 (A) (A) (A) (A) (A) (A) (A) (A) (A) (A) (A) (A)
                 (A) (A) (A) (A) (A) (A) (A) (A) (A) (A) (A) (A)
                 (A) (A) (A) (A) (A) (A) (A) (A) (A) (A) (A) (A)
                 (A) (A) (A) (A) (A) (A) (A) (A) (A) (A) (A) (A)
                 (A) (A) (A) (A) (A) (A) (A) (A) (A) (A) (A) (A)
                 (A) (A) (A) (A) (A) (A) (A) (A) (A) (A) (A) (A)
                 (A) (A) (A) (A) (A) (A) (A) (A) (A) (A) (A) (A)
                 (A) (A) (A) (A) (A) (A) (A) (A) (A) (A) (A) (A)
                 (A) (A) (A) (A) (A) (A) (A) (A) (A) (A) (A) (A)
                 (A) (A) (A) (A) (A) (A) (A) (A) (A) (A) (A) (A)
                 (A) (A) (A) (A) (A) (A) (A) (A) (A) (A) (A) (A)
                 (A) (A) (A) (A) (A) (A) (A) (A) (A) (A) (A)
 The electronic state is 1-A.
 Alpha  occ. eigenvalues --  -19.13690 -10.27053 -10.20059 -10.19658 -10.19652
 Alpha  occ. eigenvalues --  -10.19365 -10.19125 -10.18872 -10.18464 -10.17796
 Alpha  occ. eigenvalues --  -10.17632  -1.03661  -0.88987  -0.79462  -0.76459
 Alpha  occ. eigenvalues --   -0.73542  -0.68554  -0.65442  -0.61232  -0.58570
 Alpha  occ. eigenvalues --   -0.54312  -0.53046  -0.48464  -0.47038  -0.44959
 Alpha  occ. eigenvalues --   -0.44374  -0.42463  -0.41769  -0.41110  -0.40732
 Alpha  occ. eigenvalues --   -0.40116  -0.39298  -0.38359  -0.36762  -0.35207
 Alpha  occ. eigenvalues --   -0.34879  -0.34330  -0.33787  -0.32646  -0.28101
 Alpha  occ. eigenvalues --   -0.26809  -0.23695
 Alpha virt. eigenvalues --   -0.01725   0.07399   0.10093   0.10367   0.11375
 Alpha virt. eigenvalues --    0.12085   0.12723   0.14248   0.14523   0.15728
 Alpha virt. eigenvalues --    0.16138   0.17021   0.17441   0.18161   0.18396
 Alpha virt. eigenvalues --    0.19798   0.20648   0.21816   0.22369   0.22676
 Alpha virt. eigenvalues --    0.22759   0.23291   0.26115   0.26725   0.28755
 Alpha virt. eigenvalues --    0.28912   0.33164   0.35708   0.37599   0.46979
 Alpha virt. eigenvalues --    0.50315   0.50620   0.51311   0.53819   0.53948
 Alpha virt. eigenvalues --    0.55858   0.56941   0.57766   0.60653   0.62537
 Alpha virt. eigenvalues --    0.63894   0.65324   0.65611   0.66568   0.67627
 Alpha virt. eigenvalues --    0.69466   0.70103   0.71585   0.72704   0.77230
 Alpha virt. eigenvalues --    0.77274   0.78591   0.81004   0.81989   0.83760
 Alpha virt. eigenvalues --    0.84267   0.84708   0.85484   0.86046   0.88299
 Alpha virt. eigenvalues --    0.88562   0.89513   0.90144   0.91259   0.91990
 Alpha virt. eigenvalues --    0.93227   0.94087   0.95171   0.95729   0.96706
 Alpha virt. eigenvalues --    0.97866   0.98906   1.01853   1.02999   1.05455
 Alpha virt. eigenvalues --    1.08317   1.10018   1.13299   1.17391   1.19392
 Alpha virt. eigenvalues --    1.21549   1.28350   1.34164   1.36268   1.44875
 Alpha virt. eigenvalues --    1.46862   1.51079   1.51669   1.60339   1.61202
 Alpha virt. eigenvalues --    1.66058   1.69022   1.69750   1.73828   1.74484
 Alpha virt. eigenvalues --    1.74880   1.77080   1.78101   1.79132   1.82736
 Alpha virt. eigenvalues --    1.84486   1.85516   1.87181   1.91590   1.93532
 Alpha virt. eigenvalues --    1.94843   1.96386   1.98412   2.01651   2.02972
 Alpha virt. eigenvalues --    2.04714   2.07227   2.09276   2.10262   2.11507
 Alpha virt. eigenvalues --    2.12577   2.14213   2.17841   2.23023   2.25226
 Alpha virt. eigenvalues --    2.26190   2.28488   2.30770   2.35238   2.36434
 Alpha virt. eigenvalues --    2.37962   2.41061   2.41726   2.43628   2.48355
 Alpha virt. eigenvalues --    2.51109   2.53859   2.57099   2.61795   2.63969
 Alpha virt. eigenvalues --    2.70554   2.72600   2.75762   2.79056   2.81929
 Alpha virt. eigenvalues --    2.84797   2.86448   3.00766   3.07663   4.06305
 Alpha virt. eigenvalues --    4.13033   4.17846   4.26241   4.28065   4.36180
 Alpha virt. eigenvalues --    4.44138   4.51082   4.62168   4.69324   4.70944
          Condensed to atoms (all electrons):
               1          2          3          4          5          6
     1  O    8.026775   0.555127  -0.070844  -0.002875   0.004385  -0.000062
     2  C    0.555127   4.555102   0.329269  -0.028334  -0.040277   0.003216
     3  C   -0.070844   0.329269   5.182988   0.359495   0.316156  -0.017282
     4  C   -0.002875  -0.028334   0.359495   5.090110  -0.041885   0.004505
     5  C    0.004385  -0.040277   0.316156  -0.041885   5.165894   0.208363
     6  C   -0.000062   0.003216  -0.017282   0.004505   0.208363   5.261078
     7  C    0.002824  -0.029716  -0.015167  -0.002854   0.321400   0.263449
     8  C   -0.000054   0.002068   0.003688  -0.000002  -0.034195  -0.027917
     9  C    0.000000   0.000107   0.000040  -0.000146  -0.005271   0.005471
    10  C    0.000000   0.000093  -0.000172  -0.000002   0.005508  -0.006275
    11  C   -0.069187   0.311458  -0.180047   0.005117  -0.038957  -0.040414
    12  H   -0.000041  -0.033419   0.355654  -0.034902  -0.038545  -0.007789
    13  H    0.000005   0.004147  -0.029614   0.373786  -0.004153   0.000007
    14  H    0.005475  -0.002724  -0.032553   0.366888   0.005142  -0.000150
    15  H    0.000066  -0.006175  -0.037132   0.374230  -0.002590  -0.000062
    16  H   -0.000067   0.002482  -0.030137  -0.004589   0.366694  -0.025735
    17  H    0.000004  -0.000154   0.001586  -0.000106  -0.014443   0.365986
    18  H   -0.000223  -0.000115  -0.005244   0.000128  -0.021851   0.366773
    19  H    0.000001  -0.000068   0.000181  -0.000008  -0.004280  -0.005491
    20  H    0.000002  -0.000121   0.000091  -0.000020  -0.000293   0.000020
    21  H   -0.000000  -0.000003   0.000003   0.000003   0.000100  -0.000168
    22  H    0.000000  -0.000056  -0.000387  -0.000010   0.004040  -0.000167
    23  H   -0.000000  -0.000001   0.000003   0.000000  -0.000152   0.000093
    24  H    0.000000  -0.000009   0.000001  -0.000000  -0.000031   0.003874
    25  H    0.000001   0.000046   0.000009  -0.000000  -0.000002  -0.000162
    26  H    0.000700  -0.023874   0.005653  -0.000055   0.005528  -0.009270
    27  H   -0.000576  -0.020203   0.004631  -0.000427  -0.001818   0.005788
               7          8          9         10         11         12
     1  O    0.002824  -0.000054   0.000000   0.000000  -0.069187  -0.000041
     2  C   -0.029716   0.002068   0.000107   0.000093   0.311458  -0.033419
     3  C   -0.015167   0.003688   0.000040  -0.000172  -0.180047   0.355654
     4  C   -0.002854  -0.000002  -0.000146  -0.000002   0.005117  -0.034902
     5  C    0.321400  -0.034195  -0.005271   0.005508  -0.038957  -0.038545
     6  C    0.263449  -0.027917   0.005471  -0.006275  -0.040414  -0.007789
     7  C    4.881239   0.401387  -0.046933  -0.044337   0.335376   0.002874
     8  C    0.401387   4.876540   0.367406   0.364066  -0.032473  -0.000096
     9  C   -0.046933   0.367406   5.134365  -0.057506  -0.007482  -0.000007
    10  C   -0.044337   0.364066  -0.057506   5.127536  -0.005639   0.000004
    11  C    0.335376  -0.032473  -0.007482  -0.005639   5.384658   0.007798
    12  H    0.002874  -0.000096  -0.000007   0.000004   0.007798   0.588804
    13  H    0.000066   0.000013  -0.000003  -0.000000  -0.000379  -0.005119
    14  H   -0.000087   0.000002   0.000004   0.000000   0.000651  -0.001564
    15  H    0.000895  -0.000244   0.000173   0.000005   0.002299   0.005439
    16  H   -0.029784  -0.004460   0.000731   0.000079   0.003567   0.001194
    17  H   -0.018814  -0.006394   0.000143   0.000591   0.002557   0.000268
    18  H   -0.023965   0.001707  -0.000124   0.000293  -0.004780   0.002870
    19  H   -0.045359   0.374636  -0.046899  -0.046271   0.005308  -0.000005
    20  H   -0.006714  -0.032039   0.371005  -0.005388   0.001842  -0.000000
    21  H    0.004682  -0.027059   0.366952  -0.002804   0.000146   0.000000
    22  H   -0.002551  -0.031176   0.368938   0.005426  -0.000207   0.000010
    23  H    0.004851  -0.027508  -0.002769   0.366402   0.000029  -0.000000
    24  H   -0.002359  -0.030943   0.005382   0.370461  -0.000404  -0.000000
    25  H   -0.008763  -0.031094  -0.005383   0.373616   0.004117  -0.000000
    26  H   -0.028049   0.000301  -0.000016   0.001383   0.349134  -0.000094
    27  H   -0.035903  -0.006897   0.003503  -0.000509   0.348160  -0.000085
              13         14         15         16         17         18
     1  O    0.000005   0.005475   0.000066  -0.000067   0.000004  -0.000223
     2  C    0.004147  -0.002724  -0.006175   0.002482  -0.000154  -0.000115
     3  C   -0.029614  -0.032553  -0.037132  -0.030137   0.001586  -0.005244
     4  C    0.373786   0.366888   0.374230  -0.004589  -0.000106   0.000128
     5  C   -0.004153   0.005142  -0.002590   0.366694  -0.014443  -0.021851
     6  C    0.000007  -0.000150  -0.000062  -0.025735   0.365986   0.366773
     7  C    0.000066  -0.000087   0.000895  -0.029784  -0.018814  -0.023965
     8  C    0.000013   0.000002  -0.000244  -0.004460  -0.006394   0.001707
     9  C   -0.000003   0.000004   0.000173   0.000731   0.000143  -0.000124
    10  C   -0.000000   0.000000   0.000005   0.000079   0.000591   0.000293
    11  C   -0.000379   0.000651   0.002299   0.003567   0.002557  -0.004780
    12  H   -0.005119  -0.001564   0.005439   0.001194   0.000268   0.002870
    13  H    0.567296  -0.028654  -0.032117   0.002869  -0.000003   0.000004
    14  H   -0.028654   0.546486  -0.028035   0.000012   0.000001  -0.000003
    15  H   -0.032117  -0.028035   0.573215   0.000270   0.000005   0.000009
    16  H    0.002869   0.000012   0.000270   0.582055  -0.005052   0.001889
    17  H   -0.000003   0.000001   0.000005  -0.005052   0.548475  -0.030298
    18  H    0.000004  -0.000003   0.000009   0.001889  -0.030298   0.560944
    19  H    0.000000  -0.000000  -0.000003   0.002521   0.004361  -0.000074
    20  H    0.000000  -0.000001   0.000012   0.000027   0.000003   0.000002
    21  H   -0.000000  -0.000000  -0.000004  -0.000081  -0.000005   0.000002
    22  H    0.000005  -0.000004   0.001602   0.001020   0.000008   0.000003
    23  H    0.000000   0.000000  -0.000000  -0.000000  -0.000075  -0.000001
    24  H    0.000000   0.000000  -0.000000   0.000011   0.000676  -0.000206
    25  H    0.000000  -0.000000  -0.000000   0.000002   0.000019   0.000007
    26  H    0.000002  -0.000005  -0.000008  -0.000105   0.000213   0.003077
    27  H    0.000009   0.000001   0.000146   0.000123  -0.000120   0.000050
              19         20         21         22         23         24
     1  O    0.000001   0.000002  -0.000000   0.000000  -0.000000   0.000000
     2  C   -0.000068  -0.000121  -0.000003  -0.000056  -0.000001  -0.000009
     3  C    0.000181   0.000091   0.000003  -0.000387   0.000003   0.000001
     4  C   -0.000008  -0.000020   0.000003  -0.000010   0.000000  -0.000000
     5  C   -0.004280  -0.000293   0.000100   0.004040  -0.000152  -0.000031
     6  C   -0.005491   0.000020  -0.000168  -0.000167   0.000093   0.003874
     7  C   -0.045359  -0.006714   0.004682  -0.002551   0.004851  -0.002359
     8  C    0.374636  -0.032039  -0.027059  -0.031176  -0.027508  -0.030943
     9  C   -0.046899   0.371005   0.366952   0.368938  -0.002769   0.005382
    10  C   -0.046271  -0.005388  -0.002804   0.005426   0.366402   0.370461
    11  C    0.005308   0.001842   0.000146  -0.000207   0.000029  -0.000404
    12  H   -0.000005  -0.000000   0.000000   0.000010  -0.000000  -0.000000
    13  H    0.000000   0.000000  -0.000000   0.000005   0.000000   0.000000
    14  H   -0.000000  -0.000001  -0.000000  -0.000004   0.000000   0.000000
    15  H   -0.000003   0.000012  -0.000004   0.001602  -0.000000  -0.000000
    16  H    0.002521   0.000027  -0.000081   0.001020  -0.000000   0.000011
    17  H    0.004361   0.000003  -0.000005   0.000008  -0.000075   0.000676
    18  H   -0.000074   0.000002   0.000002   0.000003  -0.000001  -0.000206
    19  H    0.646670   0.005771  -0.004224  -0.003247  -0.003940  -0.003495
    20  H    0.005771   0.577817  -0.031190  -0.031842  -0.000194  -0.000030
    21  H   -0.004224  -0.031190   0.575378  -0.029186   0.003409  -0.000073
    22  H   -0.003247  -0.031842  -0.029186   0.572921  -0.000077  -0.000176
    23  H   -0.003940  -0.000194   0.003409  -0.000077   0.579448  -0.029800
    24  H   -0.003495  -0.000030  -0.000073  -0.000176  -0.029800   0.570807
    25  H    0.005686   0.004652  -0.000220  -0.000023  -0.031550  -0.030640
    26  H   -0.000097  -0.000024   0.000001   0.000020  -0.000022   0.000144
    27  H    0.000066   0.004810  -0.000207   0.000126  -0.000012   0.000098
              25         26         27
     1  O    0.000001   0.000700  -0.000576
     2  C    0.000046  -0.023874  -0.020203
     3  C    0.000009   0.005653   0.004631
     4  C   -0.000000  -0.000055  -0.000427
     5  C   -0.000002   0.005528  -0.001818
     6  C   -0.000162  -0.009270   0.005788
     7  C   -0.008763  -0.028049  -0.035903
     8  C   -0.031094   0.000301  -0.006897
     9  C   -0.005383  -0.000016   0.003503
    10  C    0.373616   0.001383  -0.000509
    11  C    0.004117   0.349134   0.348160
    12  H   -0.000000  -0.000094  -0.000085
    13  H    0.000000   0.000002   0.000009
    14  H   -0.000000  -0.000005   0.000001
    15  H   -0.000000  -0.000008   0.000146
    16  H    0.000002  -0.000105   0.000123
    17  H    0.000019   0.000213  -0.000120
    18  H    0.000007   0.003077   0.000050
    19  H    0.005686  -0.000097   0.000066
    20  H    0.004652  -0.000024   0.004810
    21  H   -0.000220   0.000001  -0.000207
    22  H   -0.000023   0.000020   0.000126
    23  H   -0.031550  -0.000022  -0.000012
    24  H   -0.030640   0.000144   0.000098
    25  H    0.574723   0.000216   0.000482
    26  H    0.000216   0.549267  -0.027383
    27  H    0.000482  -0.027383   0.554012
 Mulliken charges:
               1
     1  O   -0.451433
     2  C    0.422133
     3  C   -0.140868
     4  C   -0.458045
     5  C   -0.154468
     6  C   -0.347679
     7  C    0.122312
     8  C   -0.099263
     9  C   -0.451680
    10  C   -0.446558
    11  C   -0.382247
    12  H    0.156751
    13  H    0.151835
    14  H    0.169116
    15  H    0.148003
    16  H    0.134466
    17  H    0.150567
    18  H    0.149126
    19  H    0.118258
    20  H    0.141801
    21  H    0.144551
    22  H    0.144989
    23  H    0.141865
    24  H    0.146711
    25  H    0.144260
    26  H    0.173362
    27  H    0.172135
 Sum of Mulliken charges =  -0.00000
 Mulliken charges with hydrogens summed into heavy atoms:
               1
     1  O   -0.451433
     2  C    0.422133
     3  C    0.015884
     4  C    0.010908
     5  C   -0.020002
     6  C   -0.047986
     7  C    0.122312
     8  C    0.018995
     9  C   -0.020339
    10  C   -0.013721
    11  C   -0.036751
 APT charges:
               1
     1  O   -0.671705
     2  C    0.762471
     3  C   -0.020064
     4  C    0.090125
     5  C    0.002722
     6  C   -0.027246
     7  C    0.047788
     8  C    0.175480
     9  C    0.039611
    10  C    0.052567
    11  C   -0.075381
    12  H   -0.050907
    13  H   -0.022510
    14  H   -0.008937
    15  H   -0.015957
    16  H   -0.024172
    17  H   -0.003956
    18  H   -0.015980
    19  H   -0.076840
    20  H   -0.015559
    21  H   -0.032496
    22  H   -0.022268
    23  H   -0.039029
    24  H   -0.019482
    25  H   -0.016700
    26  H   -0.011995
    27  H    0.000418
 Sum of APT charges =   0.00000
 APT charges with hydrogens summed into heavy atoms:
               1
     1  O   -0.671705
     2  C    0.762471
     3  C   -0.070971
     4  C    0.042721
     5  C   -0.021449
     6  C   -0.047182
     7  C    0.047788
     8  C    0.098640
     9  C   -0.030712
    10  C   -0.022644
    11  C   -0.086957
 Electronic spatial extent (au):  <R**2>=           1878.7193
 Charge=             -0.0000 electrons
 Dipole moment (field-independent basis, Debye):
    X=             -2.1559    Y=              1.6590    Z=              0.9901  Tot=              2.8949
 Quadrupole moment (field-independent basis, Debye-Ang):
   XX=            -73.6615   YY=            -69.5475   ZZ=            -68.0355
   XY=              5.0780   XZ=              3.1359   YZ=             -1.6498
 Traceless Quadrupole moment (field-independent basis, Debye-Ang):
   XX=             -3.2467   YY=              0.8673   ZZ=              2.3794
   XY=              5.0780   XZ=              3.1359   YZ=             -1.6498
 Octapole moment (field-independent basis, Debye-Ang**2):
  XXX=            -10.1569  YYY=             -1.2643  ZZZ=             -3.3095  XYY=             -3.5914
  XXY=             17.1170  XXZ=              9.4754  XZZ=             -0.8316  YZZ=             -1.0533
  YYZ=              4.4109  XYZ=             -6.9457
 Hexadecapole moment (field-independent basis, Debye-Ang**3):
 XXXX=          -1581.2544 YYYY=           -521.7750 ZZZZ=           -437.3296 XXXY=             20.0972
 XXXZ=             17.2294 YYYX=              1.0061 YYYZ=              3.9426 ZZZX=            -12.6214
 ZZZY=              3.7938 XXYY=           -368.2205 XXZZ=           -334.8420 YYZZ=           -162.1193
 XXYZ=            -14.1622 YYXZ=              9.1345 ZZXY=              1.3458
 N-N= 6.465644292763D+02 E-N=-2.373297163921D+03  KE= 4.614022410731D+02
  Exact polarizability: 113.504   1.000  94.999  -0.323   1.007  91.576
 Approx polarizability: 147.909  -4.464 139.871  -2.539   5.664 136.735
 Calling FoFJK, ICntrl=    100127 FMM=F ISym2X=0 I1Cent= 0 IOpClX= 0 NMat=1 NMatS=1 NMatT=0.
 Full mass-weighted force constant matrix:
 Low frequencies ---  -10.1634   -4.7110   -3.9012   -0.0006   -0.0005   -0.0005
 Low frequencies ---   52.7158   72.9870   97.4545
 Diagonal vibrational polarizability:
        4.7680802      16.7556195      17.4545815
 Harmonic frequencies (cm**-1), IR intensities (KM/Mole), Raman scattering
 activities (A**4/AMU), depolarization ratios for plane and unpolarized
 incident light, reduced masses (AMU), force constants (mDyne/A),
 and normal coordinates:
                      1                      2                      3
                      A                      A                      A
 Frequencies --     52.7116                72.9860                97.4539
 Red. masses --      3.2407                 3.0210                 2.9094
 Frc consts  --      0.0053                 0.0095                 0.0163
 IR Inten    --      1.8214                 1.9942                 0.1593
  Atom  AN      X      Y      Z        X      Y      Z        X      Y      Z
     1   8     0.01  -0.13   0.18     0.04  -0.08   0.15    -0.04  -0.06   0.04
     2   6     0.01  -0.03   0.05     0.04   0.01   0.01    -0.02  -0.00  -0.00
     3   6    -0.00   0.04  -0.04     0.02   0.01   0.02     0.02  -0.01   0.00
     4   6    -0.15   0.02  -0.18    -0.03   0.03   0.02     0.21  -0.06   0.07
     5   6     0.01  -0.01   0.01     0.01  -0.04   0.02     0.00   0.08  -0.06
     6   6     0.05  -0.04  -0.01     0.01  -0.12  -0.11     0.01   0.09  -0.04
     7   6     0.01  -0.00   0.00     0.02   0.03  -0.08    -0.00   0.07  -0.04
     8   6     0.00  -0.01   0.03     0.01   0.04  -0.01    -0.06  -0.03   0.01
     9   6     0.01   0.15   0.15    -0.09  -0.06  -0.08    -0.19   0.03   0.06
    10   6     0.05  -0.03  -0.15    -0.04   0.06   0.19     0.07  -0.15  -0.03
    11   6     0.01   0.04  -0.03     0.04   0.13  -0.16    -0.02   0.08  -0.05
    12   1     0.07   0.15  -0.07     0.03   0.02   0.01    -0.07  -0.09   0.06
    13   1    -0.20   0.10  -0.26    -0.09   0.04   0.02     0.27  -0.10   0.09
    14   1    -0.14   0.08  -0.19    -0.01   0.08   0.03     0.22  -0.17   0.14
    15   1    -0.21  -0.11  -0.17    -0.04  -0.00   0.01     0.31   0.03   0.02
    16   1    -0.00  -0.02   0.05     0.01  -0.07   0.11     0.04   0.09  -0.08
    17   1     0.06  -0.08   0.01    -0.01  -0.20  -0.09     0.00   0.10  -0.04
    18   1     0.07  -0.04  -0.05     0.01  -0.14  -0.18     0.02   0.11  -0.01
    19   1    -0.05  -0.14   0.10     0.11   0.11  -0.03    -0.11  -0.11   0.05
    20   1     0.09   0.28   0.09    -0.26  -0.15  -0.07    -0.12   0.12   0.03
    21   1    -0.01   0.10   0.16    -0.08   0.00   0.02    -0.26  -0.10   0.10
    22   1    -0.05   0.18   0.30    -0.02  -0.10  -0.24    -0.31   0.13   0.10
    23   1     0.04  -0.05  -0.11    -0.04   0.08   0.24     0.02  -0.26   0.04
    24   1     0.06  -0.16  -0.24     0.02   0.14   0.25     0.19  -0.21  -0.07
    25   1     0.09   0.10  -0.23    -0.13  -0.03   0.23     0.11  -0.05  -0.09
    26   1    -0.03   0.04  -0.12    -0.03   0.14  -0.35    -0.07   0.08  -0.11
    27   1     0.06   0.13  -0.02     0.15   0.32  -0.13     0.02   0.14  -0.04
                      4                      5                      6
                      A                      A                      A
 Frequencies --    186.7438               218.1452               226.7193
 Red. masses --      2.8373                 2.1130                 1.2047
 Frc consts  --      0.0583                 0.0592                 0.0365
 IR Inten    --      0.4752                 1.3538                 0.0502
  Atom  AN      X      Y      Z        X      Y      Z        X      Y      Z
     1   8    -0.12  -0.05  -0.06    -0.07  -0.10   0.06     0.01  -0.04   0.01
     2   6    -0.05   0.00  -0.00    -0.04   0.02  -0.06     0.01  -0.02  -0.02
     3   6     0.04  -0.04   0.03    -0.01   0.05  -0.09     0.01  -0.01  -0.02
     4   6    -0.09  -0.00  -0.00     0.04   0.14   0.08    -0.03   0.06   0.05
     5   6     0.07  -0.01   0.13    -0.01   0.02  -0.06     0.02  -0.01  -0.01
     6   6    -0.01  -0.02   0.04     0.08   0.01   0.01    -0.01   0.01  -0.01
     7   6     0.02   0.12   0.06    -0.01  -0.04   0.03     0.01   0.00  -0.02
     8   6     0.02   0.06  -0.02    -0.01  -0.05   0.02     0.01   0.02  -0.02
     9   6     0.02  -0.05  -0.11     0.08  -0.05   0.02    -0.02   0.01  -0.02
    10   6     0.18  -0.09  -0.03    -0.04  -0.02  -0.03     0.00   0.02   0.03
    11   6    -0.06   0.13   0.01    -0.04   0.00  -0.02     0.01  -0.05   0.02
    12   1     0.11  -0.05  -0.04    -0.03  -0.02  -0.10     0.03  -0.02  -0.04
    13   1     0.02  -0.03   0.01     0.28  -0.05   0.27     0.20  -0.07   0.16
    14   1    -0.17   0.03  -0.19    -0.07   0.12  -0.13    -0.16   0.05  -0.21
    15   1    -0.23   0.04   0.14    -0.03   0.45   0.27    -0.18   0.27   0.26
    16   1     0.16  -0.02   0.23    -0.04   0.02  -0.08     0.03  -0.01  -0.02
    17   1     0.01   0.00   0.06     0.11  -0.00   0.05    -0.02   0.03  -0.02
    18   1    -0.10  -0.09  -0.02     0.14   0.05   0.00    -0.04  -0.01  -0.00
    19   1    -0.09   0.09  -0.08    -0.02  -0.04   0.02     0.03   0.02  -0.02
    20   1     0.10  -0.12  -0.04    -0.12  -0.10   0.01     0.30   0.08   0.02
    21   1    -0.00  -0.14  -0.20     0.17   0.18   0.10    -0.12  -0.27  -0.20
    22   1    -0.04   0.01  -0.15     0.28  -0.21  -0.04    -0.27   0.21   0.10
    23   1     0.15  -0.25  -0.25     0.01   0.02  -0.25    -0.04   0.03   0.34
    24   1     0.13   0.03   0.05    -0.23   0.07   0.03     0.23  -0.13  -0.08
    25   1     0.41  -0.17   0.10     0.08  -0.11   0.07    -0.19   0.17  -0.14
    26   1    -0.13   0.14  -0.05    -0.01  -0.01  -0.06     0.02  -0.05   0.10
    27   1    -0.05   0.20   0.03    -0.08   0.05   0.00    -0.01  -0.13  -0.00
                      7                      8                      9
                      A                      A                      A
 Frequencies --    242.1505               255.0520               257.0041
 Red. masses --      1.2873                 1.7200                 1.1602
 Frc consts  --      0.0445                 0.0659                 0.0452
 IR Inten    --      1.0502                 0.0525                 0.0638
  Atom  AN      X      Y      Z        X      Y      Z        X      Y      Z
     1   8     0.05   0.07   0.01    -0.02   0.05   0.03    -0.03   0.01  -0.00
     2   6     0.01   0.00   0.03    -0.03   0.05   0.01    -0.02   0.01   0.01
     3   6    -0.01  -0.01   0.03    -0.03   0.04   0.01    -0.00   0.01   0.01
     4   6     0.01  -0.07  -0.06     0.08  -0.06  -0.06     0.01  -0.01  -0.01
     5   6    -0.01  -0.00   0.02    -0.03   0.02   0.02    -0.00   0.01   0.02
     6   6    -0.03  -0.01  -0.00     0.05  -0.05   0.00     0.01   0.00   0.03
     7   6     0.00   0.00  -0.01    -0.03  -0.02   0.03    -0.00   0.00   0.03
     8   6    -0.01  -0.00  -0.01    -0.03  -0.03   0.03     0.00  -0.01   0.01
     9   6    -0.04   0.02   0.01     0.10  -0.07   0.00     0.04  -0.05  -0.02
    10   6    -0.01   0.00  -0.01    -0.08   0.01  -0.00     0.00  -0.01  -0.03
    11   6     0.02  -0.00   0.00    -0.02   0.08  -0.04    -0.01   0.04  -0.00
    12   1     0.01   0.01   0.03    -0.04   0.03   0.02    -0.00   0.01   0.01
    13   1     0.52  -0.18  -0.05     0.22  -0.04  -0.12     0.02   0.00  -0.04
    14   1    -0.26  -0.31  -0.46     0.02  -0.22  -0.08     0.01  -0.04  -0.00
    15   1    -0.22   0.19   0.25     0.10  -0.01  -0.06     0.02  -0.03  -0.03
    16   1    -0.02  -0.00   0.02    -0.06  -0.01   0.07    -0.00   0.01   0.03
    17   1    -0.04  -0.02  -0.02     0.08  -0.13   0.05     0.02  -0.00   0.03
    18   1    -0.03  -0.01   0.00     0.12  -0.03  -0.07     0.03   0.01   0.02
    19   1     0.00  -0.01   0.01    -0.05  -0.01  -0.00    -0.01  -0.01  -0.00
    20   1    -0.24  -0.00  -0.03     0.55  -0.03   0.09    -0.20  -0.15  -0.02
    21   1    -0.00   0.15   0.15     0.03  -0.34  -0.34     0.12   0.16   0.08
    22   1     0.08  -0.08  -0.08    -0.15   0.12   0.21     0.23  -0.21  -0.15
    23   1     0.01   0.01  -0.09    -0.05   0.06  -0.03    -0.06   0.00   0.44
    24   1    -0.07   0.04   0.01    -0.14   0.01   0.00     0.32  -0.32  -0.25
    25   1     0.04  -0.04   0.03    -0.09  -0.01   0.01    -0.26   0.30  -0.33
    26   1     0.01  -0.00  -0.01    -0.04   0.07  -0.17    -0.04   0.04  -0.07
    27   1     0.05   0.01  -0.00     0.02   0.21  -0.01    -0.01   0.12   0.02
                     10                     11                     12
                      A                      A                      A
 Frequencies --    301.5377               334.0331               421.9696
 Red. masses --      2.5800                 2.2479                 2.8279
 Frc consts  --      0.1382                 0.1478                 0.2967
 IR Inten    --      0.3617                 0.3690                 1.1676
  Atom  AN      X      Y      Z        X      Y      Z        X      Y      Z
     1   8     0.00   0.02   0.01     0.04  -0.04  -0.07     0.02   0.07   0.05
     2   6    -0.04  -0.01  -0.02     0.06  -0.05  -0.01    -0.08  -0.03  -0.00
     3   6    -0.08  -0.02   0.01     0.04  -0.08   0.04    -0.11  -0.06   0.02
     4   6    -0.04  -0.04   0.01    -0.09  -0.03   0.04    -0.09  -0.09   0.07
     5   6    -0.09   0.03  -0.07     0.03   0.02  -0.02    -0.06   0.05  -0.08
     6   6    -0.11   0.06  -0.03    -0.03   0.16   0.09     0.17   0.02   0.01
     7   6    -0.01  -0.03  -0.06     0.03  -0.04   0.02     0.03  -0.04  -0.00
     8   6     0.04  -0.01  -0.01     0.01  -0.06   0.02     0.09   0.07   0.08
     9   6     0.18   0.07   0.05    -0.01  -0.06   0.04    -0.05  -0.05  -0.01
    10   6     0.12  -0.09   0.15    -0.09   0.02  -0.04     0.13   0.11  -0.04
    11   6    -0.02   0.00  -0.09     0.06   0.09  -0.08    -0.07  -0.05  -0.07
    12   1    -0.12  -0.02   0.04     0.04  -0.05   0.05    -0.16  -0.10   0.06
    13   1     0.02  -0.06   0.02    -0.12  -0.04   0.05    -0.11  -0.11   0.11
    14   1    -0.07  -0.08  -0.02    -0.11   0.09  -0.07    -0.09  -0.06   0.07
    15   1    -0.05   0.00   0.04    -0.20  -0.07   0.12    -0.09  -0.07   0.08
    16   1    -0.13   0.06  -0.20     0.08   0.08  -0.18    -0.11   0.07  -0.22
    17   1    -0.20   0.08  -0.13    -0.12   0.30  -0.04     0.18  -0.16   0.08
    18   1    -0.07   0.12   0.10    -0.06   0.20   0.33     0.40   0.16  -0.07
    19   1     0.07  -0.01   0.00     0.01  -0.07   0.02     0.13   0.08   0.08
    20   1     0.23   0.14   0.02     0.05  -0.03   0.04    -0.07  -0.18   0.06
    21   1     0.24   0.19  -0.00    -0.04  -0.13   0.01    -0.13  -0.22   0.01
    22   1     0.26  -0.02   0.22    -0.07  -0.00   0.06    -0.15   0.06  -0.22
    23   1     0.05  -0.24   0.24    -0.03   0.15  -0.10     0.14   0.09  -0.13
    24   1     0.32  -0.00   0.21    -0.24   0.01  -0.05     0.05   0.01  -0.11
    25   1     0.10  -0.15   0.19    -0.12   0.00  -0.03     0.25   0.20  -0.08
    26   1    -0.03  -0.00  -0.17    -0.03   0.09  -0.39    -0.10  -0.05  -0.09
    27   1     0.01   0.08  -0.07     0.13   0.39  -0.01    -0.07  -0.01  -0.05
                     13                     14                     15
                      A                      A                      A
 Frequencies --    442.1774               471.5636               488.3240
 Red. masses --      2.9959                 3.5170                 2.5403
 Frc consts  --      0.3451                 0.4608                 0.3569
 IR Inten    --      2.9549                 4.4626                 1.2736
  Atom  AN      X      Y      Z        X      Y      Z        X      Y      Z
     1   8    -0.08  -0.02  -0.08     0.19   0.10   0.11    -0.00  -0.02  -0.01
     2   6     0.02  -0.05   0.14    -0.02  -0.02  -0.11     0.02   0.01  -0.00
     3   6     0.04  -0.01   0.14     0.02  -0.14  -0.09     0.03  -0.01   0.03
     4   6    -0.08  -0.05   0.06    -0.05  -0.06   0.04    -0.01  -0.00   0.00
     5   6     0.00   0.11  -0.05     0.12  -0.02   0.01     0.02   0.05  -0.01
     6   6     0.18   0.02  -0.12     0.07   0.05  -0.00    -0.11   0.01  -0.16
     7   6     0.02   0.08  -0.08    -0.06   0.12   0.02     0.02   0.11  -0.10
     8   6    -0.05  -0.05  -0.07    -0.15   0.03   0.00    -0.03   0.03   0.17
     9   6     0.03   0.05  -0.01     0.04   0.03  -0.02     0.04  -0.15   0.13
    10   6    -0.09  -0.07   0.02    -0.09  -0.09   0.01     0.01   0.03  -0.03
    11   6     0.04   0.01   0.05    -0.12   0.01  -0.03     0.01   0.00  -0.02
    12   1    -0.04   0.08   0.24     0.05  -0.27  -0.17     0.03  -0.00   0.03
    13   1    -0.09  -0.01   0.02    -0.17  -0.13   0.15    -0.02   0.01  -0.02
    14   1    -0.12   0.04  -0.06    -0.00   0.10   0.03    -0.02   0.03  -0.04
    15   1    -0.23  -0.13   0.16    -0.07  -0.04   0.07    -0.05  -0.04   0.03
    16   1     0.03   0.10   0.00     0.32  -0.01   0.14     0.08   0.05   0.04
    17   1     0.23  -0.23   0.01     0.20   0.13   0.10    -0.21  -0.01  -0.24
    18   1     0.36   0.09  -0.33    -0.02  -0.04  -0.10    -0.19  -0.03  -0.14
    19   1    -0.07  -0.07  -0.06    -0.24   0.03  -0.03     0.01  -0.02   0.21
    20   1     0.04   0.13  -0.06     0.10  -0.01   0.02     0.10  -0.38   0.29
    21   1     0.09   0.17  -0.02     0.14   0.19  -0.18     0.09  -0.11  -0.08
    22   1     0.12  -0.04   0.13     0.16  -0.09   0.08     0.11  -0.19   0.02
    23   1    -0.09  -0.04   0.08    -0.13  -0.19   0.04     0.04   0.06  -0.16
    24   1    -0.05   0.01   0.08     0.01  -0.07   0.02    -0.15  -0.11  -0.13
    25   1    -0.19  -0.15   0.05    -0.05  -0.08   0.01     0.16   0.18  -0.10
    26   1    -0.02   0.03   0.17    -0.18   0.03   0.14     0.05   0.01   0.28
    27   1     0.19  -0.12  -0.02    -0.24  -0.11  -0.03     0.01  -0.29  -0.10
                     16                     17                     18
                      A                      A                      A
 Frequencies --    536.3879               607.6800               641.6005
 Red. masses --      2.7805                 3.2160                 3.3866
 Frc consts  --      0.4713                 0.6997                 0.8214
 IR Inten    --      0.7256                 1.7701                 3.4761
  Atom  AN      X      Y      Z        X      Y      Z        X      Y      Z
     1   8    -0.09   0.03   0.10    -0.06   0.16   0.04    -0.13   0.06   0.07
     2   6    -0.10   0.16  -0.12    -0.14  -0.12   0.20    -0.02   0.17   0.05
     3   6     0.01  -0.02   0.04     0.07  -0.03  -0.06     0.17  -0.03   0.09
     4   6    -0.03  -0.07   0.02     0.04   0.07  -0.03     0.01  -0.02   0.01
     5   6     0.07   0.03   0.10     0.13  -0.03  -0.04     0.09  -0.14  -0.16
     6   6     0.01   0.04  -0.01    -0.03   0.01  -0.09     0.03   0.02  -0.01
     7   6     0.12   0.01  -0.05     0.04   0.00  -0.04    -0.09  -0.16  -0.02
     8   6     0.13  -0.13  -0.08     0.09  -0.07  -0.03    -0.10   0.08   0.04
     9   6     0.00  -0.01   0.01     0.01  -0.04   0.03    -0.01   0.03  -0.02
    10   6    -0.03  -0.01  -0.01     0.01   0.00  -0.01    -0.00   0.00   0.01
    11   6    -0.01   0.01  -0.07    -0.11  -0.07   0.03     0.03  -0.02  -0.04
    12   1     0.07  -0.20  -0.08     0.13  -0.00  -0.11     0.13  -0.09   0.11
    13   1    -0.04  -0.00  -0.07    -0.07  -0.01   0.12    -0.05   0.08  -0.10
    14   1    -0.04  -0.09   0.01     0.09   0.22  -0.02    -0.03   0.12  -0.16
    15   1    -0.05  -0.15   0.00     0.04   0.14  -0.00    -0.20  -0.22   0.11
    16   1     0.08   0.05   0.07     0.15  -0.05   0.02     0.04  -0.13  -0.24
    17   1    -0.13   0.03  -0.14    -0.03   0.17  -0.15     0.17   0.30   0.03
    18   1    -0.00   0.06   0.12    -0.21  -0.09  -0.01    -0.10  -0.03   0.11
    19   1     0.13  -0.14  -0.07     0.10  -0.09  -0.02    -0.02   0.09   0.06
    20   1    -0.06   0.17  -0.11    -0.03   0.06  -0.03     0.04  -0.09   0.07
    21   1    -0.05  -0.06   0.21    -0.03  -0.08   0.15     0.02   0.06  -0.17
    22   1    -0.06   0.03   0.08    -0.03  -0.00   0.06     0.03  -0.00  -0.06
    23   1     0.06   0.24   0.05     0.07   0.17   0.01    -0.09  -0.23  -0.04
    24   1    -0.14   0.05   0.04    -0.09   0.03   0.01     0.11  -0.05  -0.03
    25   1    -0.26  -0.12   0.01    -0.13  -0.05  -0.00     0.20   0.08   0.00
    26   1     0.24  -0.02   0.30    -0.44  -0.02  -0.29     0.40  -0.10  -0.10
    27   1    -0.32  -0.34  -0.10     0.22   0.30   0.06    -0.02  -0.05  -0.03
                     19                     20                     21
                      A                      A                      A
 Frequencies --    726.7436               753.5483               824.7214
 Red. masses --      3.8911                 2.5115                 1.6345
 Frc consts  --      1.2108                 0.8403                 0.6550
 IR Inten    --      5.1535                 1.5660                 6.8995
  Atom  AN      X      Y      Z        X      Y      Z        X      Y      Z
     1   8    -0.02   0.01   0.03    -0.08   0.03   0.01     0.01  -0.02  -0.02
     2   6     0.04   0.12  -0.01    -0.05   0.01   0.07     0.03  -0.02   0.02
     3   6    -0.05  -0.09  -0.16    -0.13  -0.03  -0.14    -0.07   0.08   0.05
     4   6    -0.06  -0.11   0.04    -0.05  -0.05   0.00    -0.03   0.00   0.03
     5   6    -0.04  -0.04  -0.22     0.03  -0.02   0.10     0.01  -0.10  -0.04
     6   6    -0.05  -0.05  -0.06     0.06   0.03   0.02     0.07   0.03   0.02
     7   6    -0.05   0.05   0.07     0.05   0.02  -0.06    -0.03   0.05  -0.05
     8   6     0.07  -0.06  -0.04    -0.05   0.04   0.03     0.01  -0.02  -0.04
     9   6     0.01  -0.05   0.04    -0.02   0.03  -0.01     0.00  -0.05   0.04
    10   6     0.05   0.03  -0.00    -0.03  -0.01   0.01     0.04   0.03  -0.01
    11   6     0.11   0.18   0.24     0.21  -0.04  -0.03    -0.04   0.01  -0.06
    12   1    -0.14  -0.10  -0.08    -0.00   0.01  -0.24    -0.14   0.23   0.16
    13   1    -0.13  -0.24   0.22    -0.02  -0.22   0.23     0.12   0.05  -0.07
    14   1    -0.02  -0.01   0.05     0.02  -0.13   0.20    -0.06  -0.24   0.11
    15   1    -0.02   0.02   0.06     0.19   0.23  -0.09     0.08   0.02  -0.06
    16   1     0.08  -0.05  -0.08     0.15  -0.02   0.20     0.08  -0.20   0.33
    17   1     0.18   0.09   0.11    -0.03   0.14  -0.09     0.32   0.53   0.09
    18   1    -0.18  -0.19  -0.26    -0.01   0.03   0.19    -0.26  -0.16   0.10
    19   1     0.02  -0.05  -0.07     0.01   0.02   0.07    -0.03  -0.03  -0.04
    20   1    -0.05   0.08  -0.05     0.04  -0.10   0.08     0.00   0.02   0.00
    21   1    -0.04  -0.10   0.21     0.03   0.08  -0.16     0.00  -0.03   0.08
    22   1    -0.05   0.00   0.08     0.05  -0.02  -0.04     0.00  -0.06   0.11
    23   1     0.11   0.20   0.05    -0.07  -0.13  -0.04     0.06   0.10   0.03
    24   1    -0.01   0.08   0.03     0.00  -0.06  -0.02     0.04   0.09   0.03
    25   1    -0.11  -0.03   0.00     0.09   0.04  -0.00    -0.05  -0.02   0.01
    26   1     0.16   0.17   0.16     0.26  -0.06  -0.09    -0.05   0.02   0.08
    27   1     0.05   0.23   0.27     0.47  -0.07  -0.10    -0.05  -0.13  -0.09
                     22                     23                     24
                      A                      A                      A
 Frequencies --    871.7987               881.7291               932.1989
 Red. masses --      2.6902                 2.3273                 1.4389
 Frc consts  --      1.2047                 1.0661                 0.7367
 IR Inten    --      3.6254                 2.6590                 3.4158
  Atom  AN      X      Y      Z        X      Y      Z        X      Y      Z
     1   8    -0.01   0.03   0.00    -0.02   0.02   0.00    -0.01   0.00   0.01
     2   6    -0.00  -0.04   0.08    -0.02  -0.02   0.05    -0.03   0.02  -0.06
     3   6     0.01  -0.06  -0.01     0.05  -0.10  -0.01     0.00   0.02   0.01
     4   6     0.03   0.03  -0.05     0.06   0.04  -0.07     0.01   0.02   0.03
     5   6    -0.07  -0.10  -0.13    -0.07  -0.00   0.03    -0.01  -0.02  -0.02
     6   6     0.01  -0.10   0.16    -0.02   0.01   0.11    -0.03   0.01   0.06
     7   6     0.12   0.11  -0.04    -0.07   0.04  -0.02     0.04   0.09  -0.02
     8   6     0.05   0.01   0.07    -0.08  -0.02  -0.11     0.02   0.03  -0.01
     9   6     0.01   0.06  -0.05    -0.03  -0.10   0.09     0.00   0.04   0.05
    10   6    -0.05  -0.09   0.01     0.09   0.11  -0.03     0.00  -0.04  -0.05
    11   6    -0.02   0.12  -0.06     0.05   0.02  -0.09     0.04  -0.08   0.01
    12   1    -0.05   0.14   0.12     0.05  -0.10  -0.02    -0.05  -0.16  -0.00
    13   1    -0.03  -0.06   0.09    -0.11  -0.04   0.09     0.04   0.15  -0.16
    14   1     0.06   0.14  -0.05     0.10   0.31  -0.15    -0.05  -0.05  -0.05
    15   1     0.03   0.13  -0.01    -0.04   0.07   0.04    -0.06  -0.15   0.02
    16   1    -0.08  -0.06  -0.27     0.00   0.03  -0.01    -0.08  -0.01  -0.12
    17   1    -0.15  -0.02  -0.03     0.05  -0.21   0.26     0.15  -0.05   0.25
    18   1     0.06  -0.01   0.35     0.19   0.10  -0.06    -0.07  -0.09  -0.23
    19   1     0.03  -0.03   0.09    -0.19  -0.02  -0.15    -0.12  -0.24   0.14
    20   1    -0.00  -0.05   0.02     0.03   0.04   0.02    -0.00  -0.30   0.25
    21   1    -0.00   0.02  -0.10     0.03   0.02   0.11    -0.00  -0.04  -0.17
    22   1    -0.00   0.10  -0.20     0.03  -0.19   0.33     0.04   0.05  -0.27
    23   1     0.01   0.05  -0.03     0.06   0.08   0.10     0.03   0.10   0.12
    24   1    -0.21  -0.16  -0.04     0.26   0.30   0.10     0.05   0.18   0.11
    25   1    -0.10  -0.04  -0.04    -0.03  -0.05   0.05    -0.28  -0.26   0.04
    26   1    -0.09   0.17   0.43     0.16   0.00   0.11    -0.07  -0.07  -0.20
    27   1    -0.08  -0.32  -0.17     0.12  -0.24  -0.18     0.18   0.12   0.03
                     25                     26                     27
                      A                      A                      A
 Frequencies --    942.3267               958.6271               965.4178
 Red. masses --      1.4045                 1.6407                 1.3119
 Frc consts  --      0.7348                 0.8883                 0.7204
 IR Inten    --      2.4231                 2.4631                 4.5820
  Atom  AN      X      Y      Z        X      Y      Z        X      Y      Z
     1   8    -0.01   0.00   0.01     0.00  -0.00   0.01     0.01   0.00   0.00
     2   6    -0.03   0.01  -0.04    -0.01   0.01  -0.04    -0.03  -0.02  -0.03
     3   6    -0.00   0.00   0.01     0.00   0.03  -0.01    -0.02  -0.04  -0.00
     4   6     0.02   0.02   0.02    -0.01   0.00   0.04     0.08   0.02  -0.01
     5   6    -0.02  -0.01  -0.02     0.01  -0.04  -0.02    -0.08   0.06  -0.02
     6   6    -0.02   0.00   0.06     0.06  -0.06   0.01     0.04  -0.04  -0.02
     7   6     0.03   0.08  -0.02     0.09   0.01  -0.04    -0.01  -0.01   0.01
     8   6    -0.00  -0.03   0.03    -0.09  -0.02  -0.04     0.01  -0.00   0.01
     9   6    -0.03  -0.02  -0.06    -0.07  -0.02   0.01     0.03   0.02  -0.00
    10   6     0.02  -0.01   0.08     0.04   0.07  -0.01    -0.02   0.00  -0.00
    11   6     0.04  -0.06  -0.00    -0.02   0.01   0.10     0.04  -0.01   0.02
    12   1    -0.08  -0.15   0.02    -0.01  -0.09  -0.03    -0.23  -0.28   0.11
    13   1     0.02   0.13  -0.13     0.07   0.12  -0.14    -0.10   0.14  -0.12
    14   1    -0.03   0.01  -0.07    -0.06  -0.14   0.02     0.03   0.28  -0.25
    15   1    -0.07  -0.14   0.03    -0.02  -0.13  -0.00    -0.21  -0.20   0.14
    16   1    -0.03  -0.02  -0.00    -0.04  -0.02  -0.13     0.05  -0.07   0.55
    17   1     0.12  -0.02   0.20    -0.31  -0.01  -0.37    -0.02   0.23  -0.17
    18   1    -0.07  -0.09  -0.18     0.12   0.09   0.43    -0.05  -0.02   0.27
    19   1     0.10   0.18  -0.09    -0.09  -0.07  -0.01     0.04  -0.00   0.02
    20   1     0.09   0.26  -0.20     0.12  -0.03   0.07    -0.05  -0.02  -0.00
    21   1     0.06   0.19  -0.03     0.07   0.21  -0.24    -0.03  -0.09   0.08
    22   1     0.04  -0.13   0.33     0.10  -0.20   0.24    -0.04   0.09  -0.13
    23   1     0.11   0.15  -0.15     0.02   0.02   0.04    -0.05  -0.08  -0.00
    24   1    -0.29  -0.31  -0.15     0.13   0.15   0.05     0.04   0.01   0.00
    25   1     0.16   0.28  -0.11     0.02   0.00   0.03     0.03  -0.01   0.01
    26   1    -0.04  -0.05  -0.14    -0.24   0.05   0.01    -0.03   0.01   0.01
    27   1     0.16   0.07   0.01     0.05   0.14   0.11     0.09   0.01   0.01
                     28                     29                     30
                      A                      A                      A
 Frequencies --    976.6550              1009.9806              1047.9038
 Red. masses --      1.6042                 3.0289                 1.5796
 Frc consts  --      0.9015                 1.8204                 1.0220
 IR Inten    --      1.7447                 1.0739                 8.4106
  Atom  AN      X      Y      Z        X      Y      Z        X      Y      Z
     1   8     0.00  -0.00  -0.01    -0.02   0.00  -0.00    -0.00   0.01   0.00
     2   6     0.02   0.00   0.02     0.02   0.02   0.01    -0.03  -0.05   0.02
     3   6     0.00  -0.01   0.00     0.08   0.14  -0.05    -0.06  -0.06   0.02
     4   6     0.01  -0.02  -0.02    -0.03  -0.14   0.04    -0.02   0.10   0.03
     5   6    -0.01   0.04   0.01     0.04   0.18  -0.12     0.07   0.02  -0.08
     6   6    -0.00   0.01  -0.04    -0.03  -0.14   0.08     0.00  -0.01   0.01
     7   6    -0.05  -0.06   0.03     0.08   0.05   0.13    -0.03  -0.01   0.09
     8   6    -0.02  -0.08   0.06    -0.04   0.02  -0.00    -0.03  -0.00   0.03
     9   6    -0.06   0.08  -0.07    -0.00  -0.03   0.00     0.03   0.00  -0.02
    10   6     0.12  -0.00   0.02    -0.00   0.02  -0.02     0.03  -0.00  -0.01
    11   6    -0.01   0.01  -0.02    -0.00  -0.12  -0.12     0.04   0.01  -0.04
    12   1     0.01   0.06   0.02     0.03   0.37   0.07    -0.11  -0.11   0.06
    13   1    -0.07  -0.10   0.11    -0.17  -0.26   0.24     0.22   0.27  -0.27
    14   1     0.05   0.12  -0.02     0.03   0.09   0.03    -0.11  -0.29   0.07
    15   1    -0.01   0.07   0.03    -0.09  -0.03   0.14     0.09  -0.05  -0.13
    16   1     0.02  -0.00   0.19     0.07   0.12   0.16     0.48   0.11  -0.06
    17   1     0.04   0.07  -0.02    -0.15  -0.03  -0.07    -0.25  -0.24  -0.16
    18   1    -0.03   0.01   0.00    -0.32  -0.32   0.11    -0.04  -0.06  -0.04
    19   1    -0.14  -0.30   0.17    -0.24   0.08  -0.11    -0.25   0.02  -0.05
    20   1     0.11  -0.10   0.08    -0.02   0.08  -0.06    -0.06   0.08  -0.09
    21   1     0.06   0.23  -0.41    -0.00   0.00   0.08    -0.02  -0.06   0.13
    22   1     0.11  -0.07  -0.06    -0.02  -0.02   0.09    -0.05   0.07  -0.03
    23   1     0.30   0.48   0.06    -0.03  -0.03   0.05     0.07   0.11   0.06
    24   1    -0.21   0.00   0.02     0.08   0.10   0.04    -0.02   0.05   0.03
    25   1    -0.20  -0.01  -0.05    -0.04  -0.06   0.02    -0.09  -0.05  -0.00
    26   1     0.11  -0.01   0.01     0.04  -0.13  -0.17     0.19  -0.01   0.03
    27   1    -0.10  -0.04  -0.01    -0.06  -0.01  -0.07     0.06  -0.10  -0.07
                     31                     32                     33
                      A                      A                      A
 Frequencies --   1063.2753              1078.3306              1083.6322
 Red. masses --      1.4146                 1.6408                 1.7726
 Frc consts  --      0.9423                 1.1241                 1.2264
 IR Inten    --      9.6474                13.2389                 1.6697
  Atom  AN      X      Y      Z        X      Y      Z        X      Y      Z
     1   8    -0.01  -0.01  -0.00     0.01   0.01  -0.00     0.01  -0.01  -0.01
     2   6     0.05   0.07   0.01    -0.06  -0.10   0.01     0.03   0.01   0.03
     3   6     0.06   0.03  -0.04     0.00   0.05  -0.04     0.04   0.08  -0.10
     4   6    -0.03  -0.02   0.03     0.00  -0.01   0.06     0.02  -0.05   0.06
     5   6    -0.03  -0.03  -0.02     0.05   0.05   0.05    -0.03  -0.05   0.06
     6   6    -0.07  -0.03  -0.01    -0.06  -0.09  -0.07     0.11   0.08   0.04
     7   6    -0.05   0.04  -0.03     0.00  -0.02   0.06    -0.09  -0.01  -0.03
     8   6    -0.01   0.01   0.02    -0.02   0.00   0.02    -0.01  -0.00   0.03
     9   6     0.05  -0.00  -0.01     0.01  -0.00  -0.01     0.04  -0.00  -0.01
    10   6     0.03  -0.03   0.01     0.01   0.00  -0.00     0.03  -0.02   0.01
    11   6    -0.04  -0.05  -0.00     0.05   0.07  -0.03    -0.03   0.03  -0.01
    12   1     0.17   0.01  -0.14     0.06  -0.15  -0.17     0.03  -0.10  -0.15
    13   1     0.04   0.00  -0.02     0.03   0.13  -0.13    -0.06   0.05  -0.06
    14   1    -0.04  -0.13   0.07    -0.06  -0.07  -0.03    -0.03   0.02  -0.08
    15   1     0.01  -0.05  -0.01    -0.08  -0.18   0.05    -0.14  -0.24   0.12
    16   1     0.22  -0.04   0.24    -0.39   0.07  -0.39    -0.27  -0.05  -0.15
    17   1     0.06  -0.00   0.10     0.38   0.40   0.18    -0.32  -0.21  -0.27
    18   1     0.50   0.42   0.29     0.07   0.07   0.20    -0.31  -0.24  -0.13
    19   1    -0.13   0.04  -0.04    -0.12   0.01  -0.02    -0.15   0.02  -0.03
    20   1    -0.08   0.05  -0.07    -0.01   0.05  -0.05    -0.07   0.06  -0.08
    21   1    -0.03  -0.11   0.18    -0.00  -0.00   0.05    -0.03  -0.10   0.18
    22   1    -0.06   0.10  -0.07    -0.02   0.02   0.01    -0.06   0.10  -0.08
    23   1     0.10   0.16   0.02     0.02   0.03   0.02     0.09   0.14   0.03
    24   1    -0.12  -0.04   0.00     0.00   0.02   0.01    -0.09  -0.02   0.01
    25   1    -0.09  -0.01  -0.03    -0.02  -0.01  -0.00    -0.08  -0.01  -0.02
    26   1    -0.18  -0.02  -0.04     0.06   0.08   0.19    -0.09   0.04   0.08
    27   1     0.23   0.00  -0.05     0.08  -0.17  -0.11     0.31  -0.15  -0.14
                     34                     35                     36
                      A                      A                      A
 Frequencies --   1103.7211              1139.5003              1148.6589
 Red. masses --      1.6733                 2.0446                 2.0764
 Frc consts  --      1.2010                 1.5642                 1.6142
 IR Inten    --      7.6413                13.9705                 7.7465
  Atom  AN      X      Y      Z        X      Y      Z        X      Y      Z
     1   8     0.00   0.01  -0.00     0.01   0.01   0.02     0.01   0.01   0.01
     2   6    -0.00  -0.04   0.04    -0.09  -0.05  -0.08    -0.07  -0.08  -0.03
     3   6     0.05   0.05  -0.09     0.13  -0.04   0.08     0.08  -0.00   0.01
     4   6    -0.02  -0.01   0.08    -0.07   0.02  -0.02    -0.04   0.01   0.01
     5   6     0.00   0.04  -0.04    -0.08   0.03  -0.05    -0.05   0.03  -0.05
     6   6    -0.05   0.02   0.07     0.03   0.02   0.01     0.03   0.02   0.00
     7   6    -0.02  -0.06  -0.02     0.00   0.04  -0.01    -0.03  -0.04   0.04
     8   6     0.05  -0.08  -0.04    -0.06  -0.11   0.05     0.07   0.17  -0.09
     9   6    -0.04   0.04   0.01     0.05   0.02  -0.04    -0.06  -0.03   0.08
    10   6    -0.03   0.05   0.01     0.00   0.07   0.01     0.01  -0.11  -0.00
    11   6    -0.01   0.06  -0.03     0.05   0.00   0.03     0.03   0.04   0.01
    12   1     0.08  -0.03  -0.14     0.42  -0.01  -0.18     0.26  -0.01  -0.15
    13   1     0.07   0.14  -0.15     0.14  -0.08   0.05     0.09   0.01  -0.02
    14   1    -0.09  -0.18   0.02    -0.01  -0.19   0.22    -0.03  -0.13   0.10
    15   1    -0.06  -0.22   0.03     0.21   0.22  -0.18     0.08   0.04  -0.07
    16   1     0.25   0.00   0.29    -0.34  -0.11   0.22    -0.23  -0.13   0.34
    17   1     0.00  -0.19   0.20    -0.00   0.06  -0.04    -0.11  -0.04  -0.12
    18   1     0.03   0.01  -0.14    -0.13  -0.10  -0.05     0.00   0.01   0.04
    19   1     0.39  -0.17   0.14    -0.11  -0.21   0.10     0.12   0.33  -0.18
    20   1     0.07  -0.13   0.13    -0.10   0.07  -0.11     0.10  -0.13   0.18
    21   1     0.02   0.08  -0.24    -0.03  -0.11   0.11     0.02   0.08  -0.10
    22   1     0.08  -0.07  -0.04    -0.07   0.14  -0.16     0.08  -0.16   0.16
    23   1    -0.12  -0.22  -0.07    -0.05  -0.08  -0.01     0.12   0.19  -0.01
    24   1     0.13  -0.02  -0.03     0.13   0.05   0.00    -0.26  -0.12  -0.02
    25   1     0.21   0.09   0.04     0.17   0.10   0.04    -0.25  -0.10  -0.08
    26   1    -0.11   0.09   0.18    -0.04   0.02   0.00     0.20  -0.00   0.00
    27   1     0.01  -0.12  -0.08     0.11   0.01   0.01    -0.04  -0.02   0.01
                     37                     38                     39
                      A                      A                      A
 Frequencies --   1181.2119              1193.6935              1207.2582
 Red. masses --      1.9033                 1.8687                 1.6049
 Frc consts  --      1.5647                 1.5688                 1.3781
 IR Inten    --     19.6100                14.9012                 5.3318
  Atom  AN      X      Y      Z        X      Y      Z        X      Y      Z
     1   8     0.01   0.02   0.01    -0.01  -0.00  -0.01     0.00   0.00   0.02
     2   6    -0.12  -0.12  -0.05     0.06   0.02   0.09    -0.05   0.00  -0.11
     3   6     0.02   0.10  -0.04     0.00  -0.03  -0.05    -0.00   0.04   0.07
     4   6     0.03  -0.05   0.03    -0.00   0.02   0.02     0.00  -0.03  -0.03
     5   6     0.04  -0.12  -0.01    -0.06  -0.02  -0.01     0.04  -0.02  -0.02
     6   6    -0.04   0.07  -0.01    -0.01   0.05  -0.02    -0.02   0.02  -0.00
     7   6     0.03   0.03  -0.02     0.08   0.00   0.01    -0.04  -0.07   0.03
     8   6    -0.04  -0.01   0.03     0.04   0.04   0.15     0.05   0.03   0.08
     9   6     0.03  -0.00  -0.02    -0.03  -0.05  -0.08    -0.04  -0.03  -0.05
    10   6     0.01   0.01  -0.00    -0.02  -0.00  -0.10    -0.01  -0.01  -0.06
    11   6     0.06   0.03   0.03    -0.00  -0.01  -0.03     0.04   0.02   0.01
    12   1    -0.15   0.43   0.23     0.08  -0.22  -0.19    -0.07   0.14   0.16
    13   1    -0.10  -0.01   0.02     0.05   0.08  -0.07    -0.07  -0.10   0.09
    14   1     0.02   0.12  -0.09    -0.05  -0.10   0.01     0.06   0.12   0.00
    15   1    -0.12  -0.11   0.13    -0.00  -0.09  -0.02    -0.00   0.11   0.03
    16   1     0.00  -0.19   0.18    -0.22  -0.14   0.24     0.13  -0.01   0.02
    17   1    -0.14  -0.21  -0.01     0.02   0.01   0.01    -0.01  -0.06   0.04
    18   1     0.27   0.26  -0.08     0.01   0.04  -0.15     0.02   0.03  -0.07
    19   1    -0.10  -0.05   0.03    -0.04   0.03   0.13     0.11   0.04   0.10
    20   1    -0.05   0.05  -0.07     0.07   0.27  -0.24     0.08   0.13  -0.11
    21   1    -0.01  -0.05   0.06     0.06   0.18   0.02     0.03   0.14  -0.00
    22   1    -0.04   0.05  -0.03    -0.02  -0.09   0.25     0.01  -0.09   0.18
    23   1     0.00   0.01   0.02    -0.10  -0.10   0.16    -0.05  -0.06   0.10
    24   1     0.02   0.03   0.01     0.17   0.24   0.09     0.08   0.14   0.05
    25   1     0.01   0.00   0.01    -0.15  -0.28   0.08    -0.12  -0.18   0.04
    26   1     0.39  -0.04  -0.08     0.06  -0.03  -0.01    -0.45   0.14   0.20
    27   1    -0.29   0.09   0.13    -0.34   0.08   0.08     0.53  -0.16  -0.16
                     40                     41                     42
                      A                      A                      A
 Frequencies --   1248.6298              1279.3037              1295.0294
 Red. masses --      1.6214                 1.8082                 1.7083
 Frc consts  --      1.4894                 1.7436                 1.6880
 IR Inten    --      1.2521                19.6341                 0.8754
  Atom  AN      X      Y      Z        X      Y      Z        X      Y      Z
     1   8     0.02  -0.00  -0.00    -0.00  -0.01  -0.00    -0.03   0.02   0.02
     2   6    -0.02  -0.02  -0.02     0.03   0.04   0.01    -0.00   0.03  -0.03
     3   6     0.04  -0.02  -0.02     0.01  -0.04  -0.03     0.06  -0.14  -0.09
     4   6    -0.01   0.00   0.01    -0.01   0.02  -0.01     0.01   0.03   0.06
     5   6    -0.02   0.04   0.03     0.03  -0.05  -0.01    -0.08   0.01   0.07
     6   6     0.03  -0.06   0.02    -0.02   0.04  -0.06     0.03   0.00  -0.04
     7   6    -0.10   0.08  -0.06     0.03   0.07   0.16    -0.02   0.01   0.03
     8   6     0.06  -0.01   0.05     0.09  -0.06  -0.03     0.02  -0.00   0.00
     9   6    -0.02  -0.01  -0.03    -0.04   0.03   0.01    -0.01   0.00   0.00
    10   6    -0.02  -0.01  -0.04    -0.04   0.04   0.02     0.00  -0.00  -0.00
    11   6    -0.10   0.01   0.05    -0.08  -0.02  -0.03     0.07  -0.04  -0.02
    12   1     0.01   0.17   0.08    -0.21   0.00   0.19     0.02   0.75   0.26
    13   1     0.04   0.03  -0.03     0.03  -0.01   0.01     0.10   0.14  -0.12
    14   1    -0.02  -0.03   0.01    -0.02  -0.07   0.02    -0.08  -0.10  -0.07
    15   1     0.02  -0.02  -0.02     0.02   0.00  -0.04     0.01  -0.19  -0.03
    16   1     0.12   0.14  -0.17    -0.44  -0.22   0.13     0.03   0.10  -0.13
    17   1     0.02   0.08  -0.03    -0.11   0.01  -0.14     0.06   0.12  -0.05
    18   1    -0.03  -0.05   0.21     0.17   0.17  -0.08    -0.05  -0.04   0.00
    19   1     0.35  -0.05   0.17    -0.26  -0.01  -0.17     0.01   0.05  -0.03
    20   1     0.07   0.08  -0.06     0.08  -0.08   0.11     0.02  -0.01   0.02
    21   1     0.02   0.08  -0.01     0.00   0.07  -0.13     0.00   0.01  -0.03
    22   1     0.01  -0.05   0.09     0.07  -0.06  -0.03     0.02  -0.02  -0.00
    23   1    -0.04  -0.04   0.06    -0.10  -0.13  -0.05    -0.01  -0.02  -0.00
    24   1     0.09   0.09   0.03     0.08  -0.07  -0.05    -0.00  -0.00  -0.00
    25   1    -0.02  -0.11   0.04     0.15   0.07   0.04    -0.02  -0.01   0.00
    26   1     0.63  -0.16  -0.25     0.19  -0.07  -0.05    -0.34   0.05   0.03
    27   1     0.28  -0.01  -0.04     0.42  -0.12  -0.17    -0.15   0.01   0.04
                     43                     44                     45
                      A                      A                      A
 Frequencies --   1327.7026              1346.0339              1363.0526
 Red. masses --      1.6737                 1.9415                 1.3670
 Frc consts  --      1.7383                 2.0726                 1.4964
 IR Inten    --      4.1016                 1.7037                 1.9469
  Atom  AN      X      Y      Z        X      Y      Z        X      Y      Z
     1   8     0.01  -0.01  -0.01     0.01  -0.01   0.00     0.00  -0.00  -0.00
     2   6    -0.01  -0.01   0.00     0.01   0.02  -0.02     0.00   0.00  -0.00
     3   6    -0.09   0.04   0.08    -0.11  -0.09   0.02    -0.01  -0.00   0.00
     4   6     0.06  -0.03   0.01     0.06   0.01   0.03     0.00   0.00   0.00
     5   6    -0.06  -0.07  -0.03     0.03   0.04  -0.03    -0.00  -0.00  -0.00
     6   6     0.03  -0.00  -0.03    -0.03   0.01   0.03    -0.01   0.01  -0.00
     7   6    -0.06   0.08   0.08     0.14  -0.10  -0.05     0.04  -0.00  -0.00
     8   6     0.08  -0.04   0.00    -0.05   0.05  -0.02    -0.08  -0.11   0.06
     9   6    -0.03   0.01   0.00     0.02  -0.01  -0.00     0.00   0.05   0.04
    10   6    -0.03   0.02  -0.00     0.01  -0.00   0.02     0.02  -0.01  -0.05
    11   6     0.04  -0.02  -0.02    -0.11   0.04   0.04    -0.02   0.01   0.00
    12   1     0.58   0.12  -0.51     0.37   0.50  -0.24     0.03   0.03  -0.02
    13   1    -0.12   0.05  -0.04    -0.07   0.13  -0.09    -0.01   0.01  -0.00
    14   1     0.05   0.14  -0.11    -0.02   0.02  -0.14     0.00   0.00  -0.01
    15   1    -0.10  -0.06   0.14    -0.08  -0.14   0.09    -0.01  -0.01   0.01
    16   1     0.29   0.06  -0.17    -0.09  -0.06   0.21    -0.01  -0.01   0.02
    17   1    -0.07   0.10  -0.17     0.08   0.00   0.13     0.02   0.03   0.02
    18   1     0.05   0.03  -0.04    -0.05  -0.04  -0.14     0.00  -0.00  -0.08
    19   1    -0.10   0.02  -0.10    -0.21  -0.10   0.04     0.35   0.73  -0.39
    20   1     0.07  -0.02   0.05    -0.04   0.01  -0.03    -0.07  -0.06   0.07
    21   1     0.00   0.05  -0.08     0.00  -0.02   0.07    -0.01  -0.03  -0.15
    22   1     0.06  -0.06  -0.02    -0.05   0.04   0.03     0.01   0.07  -0.17
    23   1    -0.06  -0.07  -0.01     0.02   0.01  -0.02     0.05   0.11   0.12
    24   1     0.07  -0.02  -0.02    -0.06  -0.02   0.00     0.07   0.15   0.06
    25   1     0.08  -0.00   0.04    -0.02   0.05  -0.03    -0.03  -0.10   0.00
    26   1    -0.00  -0.02  -0.04     0.22  -0.02   0.06     0.04  -0.01   0.04
    27   1    -0.08   0.00   0.01     0.39  -0.00  -0.08     0.09   0.02  -0.02
                     46                     47                     48
                      A                      A                      A
 Frequencies --   1386.5477              1419.8867              1427.2810
 Red. masses --      1.5746                 1.7939                 1.2669
 Frc consts  --      1.7836                 2.1308                 1.5206
 IR Inten    --      6.1059                 1.1301                 6.6283
  Atom  AN      X      Y      Z        X      Y      Z        X      Y      Z
[...]
 0.00043690,-0.00008422,-0.00032185,0.00005271,-0.00000446,0.00002741,-
 0.00001685,0.00008579,0.00002363,0.00001620,-0.00001098,0.00000923,-0.
 00008174,-0.00007997,0.00002835,0.00009374,0.00021230,0.00008510,0.000
 05694,0.00006369,0.00006343,0.00004690,-0.00002547,-0.00005972,0.00044
 795,0.00095046,-0.00005495,0.11863462,0.13006042,-0.00019269,0.0001797
 7,-0.00006970,0.00047344,-0.00059721,0.00031457,-0.00008317,0.00008245
 ,-0.00013435,0.00006407,0.00002600,0.00001747,0.00016591,-0.00001944,-
 0.00008669,0.00017191,0.00005048,-0.00007825,-0.00111924,0.00023406,0.
 00109855,-0.02805633,-0.01834350,-0.01139360,-0.06897762,-0.04712257,-
 0.07987162,-0.00053659,-0.00152354,0.00186829,-0.00003028,0.00009812,-
 0.00034873,0.00004752,0.00001666,0.00001047,-0.00000046,0.00002058,-0.
 00002529,-0.00000460,-0.00001131,0.00002162,-0.00000467,-0.00000399,0.
 00002563,-0.00000965,0.00011280,0.00003777,0.00010436,0.00017497,0.000
 21096,0.00017813,-0.00010139,-0.00001001,0.00038881,-0.00011855,-0.007
 00490,0.07605069,0.05298960,0.08712714,-0.00021219,0.00010315,-0.00000
 070,0.00032653,-0.00034464,0.00007008,0.00001581,0.00004053,-0.0000732
 6,0.00003523,-0.00002464,-0.00002369,-0.00001667,-0.00004486,-0.000080
 84,-0.00003519,-0.00019454,0.00001389,0.00089593,-0.00013469,-0.000229
 63,0.00074969,-0.00065875,-0.00146151,-0.23641575,0.09499113,0.0724254
 8,-0.00007582,0.00006150,-0.00031455,-0.00000306,0.00008851,-0.0001194
 7,-0.00001072,0.00001862,0.00001306,0.00000298,0.00003623,0.00000437,-
 0.00001804,0.00001012,0.00001090,-0.00001501,-0.00002031,0.00004653,0.
 00000454,0.00001286,0.00001035,0.00002789,0.00004105,0.00002396,0.0000
 3129,0.00004999,-0.00000941,0.00087171,-0.00004096,0.00039496,-0.02138
 018,0.01152303,0.00805196,0.25464354,0.00005131,0.00008520,-0.00001195
 ,0.00000215,-0.00026991,0.00009550,-0.00009544,0.00008464,-0.00001919,
 0.00003441,0.00011247,0.00017829,-0.00010885,0.00072519,0.00013663,0.0
 0043583,0.00030256,-0.00035901,-0.00054189,-0.00023508,-0.00070974,0.0
 0035233,-0.00179983,-0.00032895,0.09520482,-0.09750571,-0.03593079,-0.
 00068476,0.00040623,0.00049943,-0.00027853,0.00009892,0.00006298,0.000
 04871,-0.00000065,-0.00003022,-0.00000506,-0.00000789,-0.00002960,0.00
 003688,-0.00005088,-0.00004355,-0.00005991,-0.00002585,-0.00012576,0.0
 0003680,0.00011974,0.00016448,-0.00000017,0.00000487,-0.00003251,-0.00
 002492,-0.00008877,-0.00019798,0.00010574,-0.00013278,-0.00015315,-0.0
 1607724,0.00845265,0.00686017,-0.10505390,0.10159994,0.00017037,-0.000
 02608,0.00001136,-0.00004671,0.00000318,-0.00000006,-0.00014106,0.0000
 3508,-0.00011414,0.00007034,-0.00004294,-0.00017021,-0.00033547,0.0003
 8583,0.00048834,0.00193717,-0.00004566,-0.00073658,-0.00181316,0.00043
 450,-0.00682747,0.02980207,-0.01478457,-0.01087991,0.07149613,-0.03548
 582,-0.07524948,0.00083898,-0.00100964,0.00133873,-0.00063616,-0.00033
 002,-0.00018684,0.00005457,-0.00002252,0.00001848,-0.00001166,0.000012
 71,0.00002079,0.00000241,0.00000596,0.00006150,0.00001881,-0.00000539,
 0.00009437,-0.00005051,-0.00027106,0.00004794,-0.00003945,0.00013739,0
 .00002368,-0.00003267,-0.00068415,-0.00034601,-0.00033805,-0.00021211,
 0.00148100,-0.00968217,0.00607723,0.00361377,-0.07863648,0.04028809,0.
 08285984,-0.00000015,0.00004624,-0.00003683,-0.00005173,-0.00012056,0.
 00015310,-0.00006260,-0.00000439,0.00003558,-0.00005204,0.00023802,0.0
 0038400,0.00018862,0.00033441,-0.00009855,-0.00008067,-0.00013763,-0.0
 0010712,0.00032755,-0.00090113,0.00047776,-0.00156568,0.00017094,0.000
 06409,-0.05099589,0.01275942,-0.00568726,0.00033265,-0.00004067,0.0000
 4328,-0.00020257,0.00019776,-0.00003300,0.00001577,0.00001588,-0.00004
 581,0.00001311,-0.00006197,-0.00006450,0.00001849,-0.00006447,-0.00008
 340,-0.00007218,0.00001049,-0.00021687,0.00001355,-0.00000912,0.000072
 22,-0.00000217,0.00002050,-0.00007026,-0.00002641,0.00000172,-0.000037
 89,0.00000228,0.00041463,0.00004539,0.00231118,-0.02449653,0.01095004,
 -0.00037852,0.02639968,-0.01174639,0.04911177,-0.00011057,0.00011154,-
 0.00004611,0.00005621,-0.00025469,0.00014145,0.00000072,0.00011883,0.0
 0012228,0.00001009,0.00009747,0.00028750,-0.00024909,0.00045844,-0.000
 18360,-0.00000383,0.00007275,-0.00019097,0.00037515,0.00002149,-0.0002
 7072,-0.00014721,0.00209003,-0.00102546,0.01258354,-0.27328811,0.09183
 833,0.00030821,0.00110766,0.00043682,-0.00022063,0.00026412,0.00007434
 ,-0.00003767,0.00002355,-0.00004798,0.00001686,-0.00003163,-0.00005841
 ,0.00002199,-0.00005165,-0.00006158,-0.00001656,-0.00003630,-0.0001707
 8,0.00003583,0.00010271,-0.00002520,-0.00003722,-0.00006897,-0.0000208
 9,-0.00003343,0.00009894,-0.00006407,0.00019698,0.00053993,0.00056250,
 0.00184648,-0.01527274,0.00589461,-0.00008354,-0.01211343,0.00445698,-
 0.01457587,0.29585382,-0.00009958,-0.00013745,0.00001327,0.00015145,0.
 00029103,-0.00002527,0.00011219,-0.00032319,-0.00000317,-0.00004432,-0
 .00006718,-0.00018116,0.00055269,-0.00084438,0.00006508,-0.00055695,0.
 00001938,0.00060275,-0.00054164,0.00176199,0.00124405,-0.00123234,0.03
 237194,-0.01182202,-0.00551402,0.09098915,-0.08630226,0.00012361,-0.00
 240542,-0.00705693,0.00024890,-0.00019155,-0.00007104,-0.00004426,0.00
 000728,0.00002798,0.00001690,-0.00001720,0.00001821,-0.00004537,0.0000
 4678,0.00004841,0.00009229,0.00003281,0.00017103,-0.00019587,-0.000490
 89,-0.00027842,0.00003478,0.00006605,0.00005342,0.00001679,-0.00000061
 ,0.00024573,-0.00040396,-0.00034640,0.00129853,0.00199514,-0.01101854,
 0.00441066,-0.00064810,-0.01049348,0.00404196,0.00617686,-0.10115930,0
 .09417130,-0.00030535,0.00008676,0.00000211,0.00056000,-0.00024121,-0.
 00007061,-0.00007690,0.00013274,0.00010095,-0.00000719,0.00000634,0.00
 007288,-0.00005231,-0.00029846,-0.00018612,0.00002042,-0.00009161,0.00
 003289,0.00103419,0.00052504,-0.00036757,-0.00093333,-0.00060359,0.000
 50550,-0.00008546,-0.00029823,0.00028226,-0.23091857,0.09898416,0.0695
 0552,0.00002903,0.00021494,0.00016144,-0.00003174,0.00007330,-0.000024
 82,0.00000948,0.00001583,-0.00001556,-0.00001126,0.00000045,-0.0000117
 8,0.00000684,-0.00001635,-0.00001115,0.00001756,0.00007742,0.00002767,
 0.00002126,0.00003044,0.00002174,0.00000009,-0.00000166,0.00000832,0.0
 0081234,0.00033290,-0.00023447,-0.00010560,0.00008219,0.00002536,0.000
 39062,0.00009659,-0.00055407,0.00025070,-0.00014096,-0.00020343,0.2483
 3382,0.00019546,0.00006735,-0.00000004,0.00004822,-0.00024369,-0.00002
 788,-0.00024214,-0.00037955,-0.00047574,0.00007939,0.00002219,-0.00009
 471,0.00184673,-0.00023643,0.00022468,-0.00026886,0.00069028,0.0003785
 2,-0.00137632,-0.00607694,0.00335236,0.02663531,-0.01398225,-0.0109891
 3,0.00037970,0.00103063,-0.00129694,0.09830510,-0.10199214,-0.03803209
 ,-0.00064322,-0.00000195,-0.00000716,0.00028986,-0.00009771,0.00007781
 ,-0.00001111,-0.00000101,-0.00000422,0.00001786,-0.00001763,0.00004764
 ,-0.00002288,0.00001523,0.00002043,-0.00002552,0.00000279,0.00009088,-
 0.00006797,0.00000425,-0.00016917,0.00002668,-0.00008423,-0.00008767,-
 0.00035552,0.00111199,-0.00076645,-0.00008694,0.00000737,0.00014883,-0
 .00042352,0.00023121,0.00088497,-0.00043368,0.00013245,-0.00023516,-0.
 10911027,0.11149119,-0.00002647,-0.00002523,0.00000815,0.00004491,0.00
 006449,-0.00000225,-0.00002430,0.00005151,0.00019681,0.00002581,-0.000
 00345,0.00002129,-0.00041693,0.00004947,0.00038027,0.00010659,0.000160
 02,0.00046096,0.00018098,0.00204676,-0.00125377,-0.01212265,0.00558612
 ,0.00335098,-0.00086970,0.00021015,0.00081242,0.07002133,-0.03854497,-
 0.07691799,0.00009549,0.00004669,0.00001298,-0.00007465,0.00004086,-0.
 00002816,-0.00000100,-0.00000187,-0.00000107,0.00000349,-0.00000423,0.
 00000286,-0.00000160,0.00000116,-0.00001092,0.00002364,-0.00008018,-0.
 00001316,0.00005861,0.00018203,0.00008941,-0.00002357,0.00006362,0.000
 02967,0.00024356,-0.00072407,0.00026139,-0.00005036,0.00002390,-0.0000
 7182,0.00026659,0.00014981,-0.00018664,0.00008873,-0.00022223,0.000186
 68,-0.07748713,0.04053170,0.07898233,0.00004174,-0.00001092,0.00000447
 ,-0.00010146,0.00003918,0.00010714,-0.00001675,-0.00004398,-0.00001803
 ,0.00002952,0.00000347,-0.00001689,-0.00011117,-0.00019658,0.00000463,
 0.00023156,0.00007104,0.00045416,0.00016426,-0.00013188,-0.00111457,-0
 .00162912,-0.00029840,-0.00169189,0.00031561,0.00047446,-0.00001761,-0
 .05044477,-0.00040415,-0.00605321,-0.00002477,0.00003245,-0.00020018,0
 .00000798,-0.00001263,-0.00000081,-0.00000355,-0.00000243,0.00000078,0
 .00000378,-0.00000523,0.00001119,-0.00000256,0.00000330,0.00000305,0.0
 0002270,-0.00007142,0.00005698,-0.00000243,0.00005743,-0.00002268,-0.0
 0007466,0.00009529,-0.00000548,0.00009018,0.00020180,0.00043084,0.0001
 8483,0.00006357,0.00044508,0.00025299,-0.00008957,-0.00043050,0.000587
 71,0.00001660,-0.00012496,0.00189939,0.00042825,0.02852602,0.04853883,
 -0.00008159,-0.00001114,-0.00001361,0.00014089,0.00001939,0.00004474,0
 .00006899,0.00013186,-0.00004006,-0.00007001,0.00002058,0.00007945,-0.
 00045929,0.00035527,-0.00002085,0.00030376,-0.00010952,-0.00076130,-0.
 00021028,0.00149889,0.00107304,0.00117559,0.00260959,0.03221487,0.0006
 4126,-0.00632249,0.00104097,-0.00045333,-0.04957893,-0.01299969,0.0001
 5558,-0.00000977,-0.00010028,-0.00003455,0.00001226,-0.00001433,0.0000
 0480,0.00000263,-0.00000510,-0.00000228,0.00000303,-0.00004534,-0.0000
 0832,-0.00001201,-0.00003668,0.00000664,0.00008992,-0.00003440,-0.0001
 9008,-0.00041789,-0.00013347,-0.00008333,-0.00006892,-0.00009107,-0.00
 038351,0.00128102,-0.00060830,0.00028007,0.00001948,-0.00000143,-0.000
 23978,-0.00001817,-0.00016890,0.00003198,-0.00000536,0.00219398,-0.001
 79508,-0.00114826,-0.01482951,0.00022495,0.05270262,-0.00006268,0.0000
 1933,0.00002293,0.00000145,-0.00005451,0.00003737,-0.00006650,-0.00006
 736,0.00008613,0.00007023,-0.00003390,-0.00005294,0.00024667,-0.000259
 40,0.00016073,-0.00034029,0.00016679,0.00086324,0.00046817,-0.00093970
 ,-0.00023541,-0.00031099,-0.00123563,-0.01220495,-0.00003296,0.0037783
 1,0.00043201,-0.00658243,-0.01198648,-0.31160726,-0.00017592,0.0001821
 8,-0.00007653,-0.00001964,0.00000367,0.00000709,-0.00000037,0.00000131
 ,0.00000363,-0.00000435,-0.00000260,0.00003327,0.00001060,0.00001167,0
 .00003515,-0.00003526,-0.00010792,-0.00001217,0.00009090,0.00021829,0.
 00010552,-0.00001493,0.00013991,0.00010535,0.00039735,0.00017356,0.000
 53672,0.00001711,-0.00015543,0.00029290,-0.00002930,-0.00015001,0.0003
 2884,-0.00003250,-0.00002202,-0.00097412,-0.00045343,-0.00068267,-0.00
 904455,0.00684036,0.01166860,0.33876623,0.00010182,-0.00006880,-0.0000
 0164,0.00017927,0.00020150,0.00002228,-0.00017568,-0.00001362,-0.00006
 523,0.00003311,0.00000692,-0.00000336,0.00021519,-0.00009344,0.0000462
 0,-0.00000560,0.00014137,0.00010659,0.00046344,0.00004671,0.00037480,0
 .00225057,0.00118274,0.00109736,0.00017281,0.00011833,-0.00001771,-0.2
 1033144,-0.11239105,-0.05628542,-0.00030810,-0.00007528,0.00006284,0.0
 0004964,-0.00000852,0.00000320,-0.00000119,0.00000533,-0.00000589,0.00
 000720,-0.00000881,0.00001121,-0.00000886,0.00000177,-0.00000262,-0.00
 003963,0.00000394,0.00002432,-0.00001314,0.00002322,0.00002136,0.00002
 342,-0.00002815,-0.00001451,0.00134843,0.00078040,-0.00006356,0.000210
 40,-0.00020553,0.00055614,-0.00006975,-0.00007478,-0.00007771,0.000202
 83,0.00012177,0.00024843,-0.02109098,-0.01549617,-0.00853533,0.0001022
 7,0.00107947,0.00004810,0.22684945,-0.00028260,0.00019688,-0.00001139,
 0.00072426,-0.00057814,-0.00000207,-0.00016819,0.00020881,-0.00009061,
 0.00005479,0.00001965,0.00004545,0.00024910,-0.00008095,-0.00000101,0.
 00012520,-0.00011438,-0.00001063,-0.00153250,0.00113026,-0.00012753,-0
 .02585084,-0.01835836,-0.00901401,-0.00019418,0.00120200,-0.00169807,-
 0.11208928,-0.12747204,-0.03957823,-0.00010218,0.00035584,-0.00016919,
 0.00007543,0.00005932,0.00000552,-0.00000015,0.00002969,-0.00002577,0.
 00000407,-0.00001690,0.00001526,-0.00001533,-0.00001187,-0.00000706,0.
 00004001,0.00023415,0.00004198,0.00004985,0.00016196,0.00017351,0.0000
 8581,-0.00008813,-0.00002399,0.00096405,-0.00567043,0.00292642,0.00044
 774,0.00040981,0.00098718,0.00006453,0.00000403,0.00012185,0.00042461,
 0.00022029,-0.00010857,0.01205204,0.00938719,0.00530681,-0.00038123,-0
 .00097193,-0.00065353,0.12443597,0.13988136,-0.00006387,0.00004951,0.0
 0001049,0.00019979,-0.00011218,-0.00016681,-0.00006137,0.00003486,0.00
 006615,0.00003125,0.00001341,0.00003448,0.00018120,-0.00001285,-0.0001
 7275,-0.00011541,-0.00019307,0.00005326,-0.00031711,-0.00068304,0.0001
 4789,0.01153865,0.00712806,0.00294356,0.00124063,0.00020217,0.00131644
 ,-0.05628618,-0.03974700,-0.06984862,-0.00033708,0.00003332,0.00041989
 ,0.00001664,0.00000800,-0.00000067,0.00000246,0.00000783,-0.00001320,0
 .00000154,-0.00000837,0.00000312,-0.00000408,-0.00000437,-0.00000815,-
 0.00000534,-0.00001896,0.00002110,0.00008314,0.00015098,0.00003093,0.0
 0002779,-0.00002242,-0.00000064,0.00001334,0.00295955,-0.00043516,-0.0
 0040185,-0.00012577,-0.00002849,0.00005200,0.00004687,-0.00005701,-0.0
 0013992,-0.00024755,0.00012244,0.00894324,0.00713011,0.00273242,-0.027
 28330,-0.01839540,-0.00768400,0.06256859,0.04182071,0.07072413,0.00001
 673,-0.00096800,0.00206407,0.00748325,0.01131837,-0.01570067,-0.001879
 46,0.00271213,0.00243195,-0.00005157,-0.00030794,0.00006119,-0.0053219
 8,-0.00033417,0.00151215,0.00240997,0.00275632,0.00096934,-0.00948726,
 -0.02203447,0.01786776,-0.00024191,-0.00154440,-0.00014672,-0.00005952
 ,0.00008097,-0.00016042,-0.00003064,0.00000437,0.00010022,-0.07806381,
 -0.05995330,0.05795110,0.00072975,0.00052259,-0.00004521,0.00004200,0.
 00004749,-0.00005158,0.00006412,-0.00001142,0.00003188,-0.00007084,-0.
 00004924,-0.00006060,0.00018116,-0.00159980,-0.00089231,0.00011089,0.0
 0022966,-0.00002245,0.00049567,-0.00054496,-0.00083805,-0.00035279,0.0
 0036046,-0.00000874,0.00004557,-0.00001427,0.00004838,-0.00002922,0.00
 002985,0.00006308,0.00002681,0.00002248,-0.00012582,0.00019649,0.00019
 827,-0.00009633,-0.00016644,0.00002491,-0.00018298,-0.00013850,0.00056
 642,0.00022332,0.08306563,-0.00076170,0.00338654,-0.00284825,-0.009177
 53,-0.01969342,0.01872424,0.00034841,-0.00292168,-0.00304840,0.0001543
 0,0.00016916,0.00003902,-0.00052202,-0.00149577,0.00086124,-0.00002326
 ,0.00086406,0.00070057,-0.00231052,-0.00472270,0.00228450,0.00001422,-
 0.00012179,-0.00019886,0.00006473,-0.00016381,-0.00012307,-0.00002930,
 -0.00013826,0.00006876,-0.05996919,-0.16166362,0.12105073,-0.00048215,
 -0.00073056,0.00011122,-0.00005200,0.00003865,0.00010213,0.00000120,-0
 .00004701,0.00005934,0.00001308,0.00003183,0.00014223,-0.00004511,-0.0
 0031096,-0.00046055,0.00019359,0.00005646,-0.00025840,0.00014277,-0.00
 045449,-0.00060600,-0.00002687,0.00000110,0.00006114,0.00004014,0.0001
 3350,0.00006343,0.00005867,0.00006330,0.00005605,-0.00002784,-0.000015
 31,-0.00002153,-0.00002877,0.00008870,-0.00001864,-0.00004503,-0.00001
 341,-0.00001501,0.00032426,-0.00003194,0.00000496,0.06752108,0.1772164
 9,-0.00123851,-0.00013182,0.00066894,0.00107390,-0.00339981,0.00051270
 ,-0.00016050,-0.00067100,-0.00057489,0.00005321,-0.00002345,-0.0000245
 8,-0.00191063,-0.00242534,0.00022186,0.00015438,0.00037102,0.00234895,
 -0.00194503,-0.00628216,0.00540298,0.00002760,0.00023183,-0.00026679,0
 .00007258,-0.00029684,-0.00017366,0.00025231,0.00058829,0.00032298,0.0
 5850411,0.11910497,-0.16135092,-0.00005754,-0.00018310,0.00003635,-0.0
 0000742,0.00005976,0.00002072,-0.00000776,0.00002085,0.00000564,-0.000
 03673,-0.00003187,0.00010421,-0.00002984,-0.00074523,-0.00025007,-0.00
 003665,0.00009766,0.00019638,0.00051606,0.00032105,-0.00001208,0.00002
 505,-0.00003940,0.00005619,0.00007556,0.00024146,0.00010637,0.00013118
 ,0.00005859,0.00007136,-0.00007625,-0.00006279,0.00003931,-0.00014620,
 -0.00013300,-0.00005766,-0.00002677,-0.00000807,-0.00003405,-0.0001875
 5,-0.00025648,-0.00018101,-0.06441448,-0.12724419,0.17336242,-0.001013
 58,0.00021027,-0.00347523,0.00093577,0.00632208,0.02053786,-0.00085475
 ,0.00011960,-0.00211896,0.00080642,0.00047427,0.00020113,0.00058077,0.
 00031991,0.00025113,-0.00607215,-0.00094988,-0.00055715,0.00006435,-0.
 01285840,-0.03008543,0.00154814,0.00039572,-0.00055969,-0.00095871,-0.
 00047646,0.00001746,-0.00025526,0.00013662,0.00001688,-0.04706228,-0.0
 0659997,-0.01155132,-0.00013943,-0.00017444,0.00003790,-0.00003925,0.0
 0013103,-0.00022658,-0.00002798,-0.00013207,0.00018170,0.00005735,0.00
 000422,0.00003130,-0.00002849,-0.00012041,-0.00010397,-0.00013216,-0.0
 0181149,-0.00076111,-0.00008691,0.00058262,0.00007275,0.00051941,-0.00
 021380,0.00006680,-0.00085082,0.00064258,0.00129351,0.00041138,0.00025
 993,0.00011829,0.00008757,0.00004366,0.00001058,0.00003644,0.00011329,
 0.00004428,0.00010433,-0.00012746,0.00015360,-0.00002697,0.00025260,-0
 .00010807,0.00102588,0.00462483,0.00939590,0.05137093,-0.00040856,0.00
 117198,0.00306591,-0.00160279,-0.01210435,-0.02647108,0.00067831,-0.00
 169493,0.00464332,-0.00039272,-0.00135564,-0.00076020,0.00045387,0.000
 33387,0.00028499,-0.00114201,0.00095255,0.00009297,-0.00073010,-0.0033
 2044,-0.00745991,0.00043551,0.00003219,-0.00015582,0.00034345,-0.00007
 146,-0.00016504,0.00012708,0.00026760,0.00021265,-0.00822864,-0.087886
 87,-0.10136458,0.00033253,0.00007464,-0.00009361,0.00007343,-0.0001172
 1,0.00051530,0.00001557,0.00000617,0.00005351,-0.00018169,-0.00010077,
 0.00026413,-0.00004844,-0.00010014,-0.00016759,0.00011025,-0.00039116,
 -0.00011246,0.00010428,0.00002300,0.00002248,-0.00002452,-0.00003525,0
 .00005914,0.00042852,0.00045893,-0.00009677,0.00016421,-0.00004201,0.0
 0018903,-0.00019243,-0.00017583,0.00008048,-0.00008495,-0.00002103,-0.
 00006073,-0.00001833,-0.00005871,0.00000255,-0.00000955,-0.00010618,-0
 .00001937,0.00096657,0.01047494,0.02083908,0.00883115,0.09378609,-0.00
 027983,0.00000068,0.00101488,0.00099853,-0.00079107,0.00023116,0.00024
 833,-0.00025773,-0.00117355,0.00032949,0.00036714,-0.00013083,-0.00000
 935,-0.00027279,-0.00019458,-0.00158725,0.00020152,0.00064295,-0.00224
 655,-0.00163473,-0.00487274,0.00059344,-0.00087183,-0.00034260,0.00055
 429,-0.00013726,-0.00011199,-0.00023460,-0.00027957,-0.00013256,-0.016
 11825,-0.09390464,-0.25690283,-0.00004128,-0.00022688,0.00002471,-0.00
 006307,0.00012967,-0.00006213,-0.00002158,-0.00003007,0.00008148,-0.00
 004824,0.00006595,0.00018877,0.00005390,-0.00014354,0.00007130,0.00001
 273,-0.00066928,-0.00000923,-0.00004013,0.00046364,0.00029640,-0.00009
 694,0.00017559,0.00002114,0.00109312,0.00012066,-0.00003272,0.00011164
 ,0.00007505,0.00025238,-0.00001450,0.00006482,-0.00004644,0.00007646,0
 .00011410,0.00005937,0.00012220,-0.00000787,0.00010888,0.00006909,0.00
 033347,-0.00002979,-0.00057808,-0.00948662,-0.02055166,0.01711644,0.10
 660161,0.28160024\\0.00010576,0.00000514,0.00001762,-0.00006418,0.0000
 3302,0.00000924,-0.00000532,-0.00006983,0.00003478,0.00000758,-0.00000
 214,-0.00003082,0.00001195,-0.00002555,-0.00003860,-0.00005538,0.00000
 154,-0.00000925,0.00001943,0.00005127,0.00001389,-0.00002236,0.0000061
 2,-0.00001678,-0.00000162,-0.00001320,0.00000967,0.00001535,0.00001669
 ,0.00003058,0.00001478,-0.00000222,-0.00002513,-0.00001365,0.00001695,
 -0.00000138,-0.00000088,-0.00000339,0.00000533,-0.00000111,0.00000553,
 0.00000427,0.00000318,-0.00000183,0.00000281,-0.00000335,0.00000795,0.
 00000153,0.00000720,0.00000535,-0.00001747,0.00000450,-0.00001191,0.00
 001318,0.00000157,0.00001171,-0.00000276,-0.00001790,-0.00000478,-0.00
 001045,0.00001027,-0.00000245,-0.00000129,0.00000325,0.00001834,-0.000
 01143,-0.00000435,-0.00000464,0.00000540,-0.00000149,-0.00001671,-0.00
 000120,0.00000021,-0.00000803,0.00000012,-0.00000669,-0.00001305,0.000
 00121,-0.00000675,0.00000012,0.00001694\\\@


 SACRED COWS MAKE GREAT HAMBURGERS -- ROBERT REISNER
 Job cpu time:       0 days  0 hours  2 minutes 45.3 seconds.
 Elapsed time:       0 days  0 hours 48 minutes  5.9 seconds.
 File lengths (MBytes):  RWF=    127 Int=      0 D2E=      0 Chk=      5 Scr=      1
 Normal termination of Gaussian 16 at Thu Feb 22 05:46:00 2024.
