 Entering Gaussian System, Link 0=g16
 Input=/Volumes/SSD-PMU3/b3lyp_6-31gd_freq/USMNOWBWPHYOEA-OYNCUSHFSA-N_calculating/gaussianinput0.gjf
 Output=/Volumes/SSD-PMU3/b3lyp_6-31gd_freq/USMNOWBWPHYOEA-OYNCUSHFSA-N_calculating/gaussianinput0.log
 Initial command:
 /Applications/g16/l1.exe "/Users/macmini_m1_2022/PycharmProjects/sphere_model/sphere_model_lib/Gau-57649.inp" -scrdir="/Users/macmini_m1_2022/PycharmProjects/sphere_model/sphere_model_lib/"
 Entering Link 1 = /Applications/g16/l1.exe PID=     57650.
  
 Copyright (c) 1988,1990,1992,1993,1995,1998,2003,2009,2016,
            Gaussian, Inc.  All Rights Reserved.
  
 This is part of the Gaussian(R) 16 program.  It is based on
 the Gaussian(R) 09 system (copyright 2009, Gaussian, Inc.),
 the Gaussian(R) 03 system (copyright 2003, Gaussian, Inc.),
 the Gaussian(R) 98 system (copyright 1998, Gaussian, Inc.),
 the Gaussian(R) 94 system (copyright 1995, Gaussian, Inc.),
 the Gaussian 92(TM) system (copyright 1992, Gaussian, Inc.),
 the Gaussian 90(TM) system (copyright 1990, Gaussian, Inc.),
 the Gaussian 88(TM) system (copyright 1988, Gaussian, Inc.),
 the Gaussian 86(TM) system (copyright 1986, Carnegie Mellon
 University), and the Gaussian 82(TM) system (copyright 1983,
 Carnegie Mellon University). Gaussian is a federally registered
 trademark of Gaussian, Inc.
  
 This software contains proprietary and confidential information,
 including trade secrets, belonging to Gaussian, Inc.
  
 This software is provided under written license and may be
 used, copied, transmitted, or stored only in accord with that
 written license.
  
 The following legend is applicable only to US Government
 contracts under FAR:
  
                    RESTRICTED RIGHTS LEGEND
  
 Use, reproduction and disclosure by the US Government is
 subject to restrictions as set forth in subparagraphs (a)
 and (c) of the Commercial Computer Software - Restricted
 Rights clause in FAR 52.227-19.
  
 Gaussian, Inc.
 340 Quinnipiac St., Bldg. 40, Wallingford CT 06492
  
  
 ---------------------------------------------------------------
 Warning -- This program may not be used in any manner that
 competes with the business of Gaussian, Inc. or will provide
 assistance to any competitor of Gaussian, Inc.  The licensee
 of this program is prohibited from giving any competitor of
 Gaussian, Inc. access to this program.  By using this program,
 the user acknowledges that Gaussian, Inc. is engaged in the
 business of creating and licensing software in the field of
 computational chemistry and represents and warrants to the
 licensee that it is not a competitor of Gaussian, Inc. and that
 it will not use this program in any manner prohibited above.
 ---------------------------------------------------------------
  

 Cite this work as:
 Gaussian 16, Revision A.03,
 M. J. Frisch, G. W. Trucks, H. B. Schlegel, G. E. Scuseria, 
 M. A. Robb, J. R. Cheeseman, G. Scalmani, V. Barone, 
 G. A. Petersson, H. Nakatsuji, X. Li, M. Caricato, A. V. Marenich, 
 J. Bloino, B. G. Janesko, R. Gomperts, B. Mennucci, H. P. Hratchian, 
 J. V. Ortiz, A. F. Izmaylov, J. L. Sonnenberg, D. Williams-Young, 
 F. Ding, F. Lipparini, F. Egidi, J. Goings, B. Peng, A. Petrone, 
 T. Henderson, D. Ranasinghe, V. G. Zakrzewski, J. Gao, N. Rega, 
 G. Zheng, W. Liang, M. Hada, M. Ehara, K. Toyota, R. Fukuda, 
 J. Hasegawa, M. Ishida, T. Nakajima, Y. Honda, O. Kitao, H. Nakai, 
 T. Vreven, K. Throssell, J. A. Montgomery, Jr., J. E. Peralta, 
 F. Ogliaro, M. J. Bearpark, J. J. Heyd, E. N. Brothers, K. N. Kudin, 
 V. N. Staroverov, T. A. Keith, R. Kobayashi, J. Normand, 
 K. Raghavachari, A. P. Rendell, J. C. Burant, S. S. Iyengar, 
 J. Tomasi, M. Cossi, J. M. Millam, M. Klene, C. Adamo, R. Cammi, 
 J. W. Ochterski, R. L. Martin, K. Morokuma, O. Farkas, 
 J. B. Foresman, and D. J. Fox, Gaussian, Inc., Wallingford CT, 2016.
 
 ******************************************
 Gaussian 16:  EM64M-G16RevA.03 25-Dec-2016
                22-Feb-2024 
 ******************************************
 %nprocshared=8
 Will use up to    8 processors via shared memory.
 %mem=4GB
 %chk= 0.chk
 ---------------------
 # freq b3lyp/6-31g(d)
 ---------------------
 1/10=4,30=1,38=1/1,3;
 2/12=2,17=6,18=5,40=1/2;
 3/5=1,6=6,7=1,11=2,25=1,30=1,71=2,74=-5,140=1/1,2,3;
 4//1;
 5/5=2,38=5,98=1/2;
 8/6=4,10=90,11=11/1;
 11/6=1,8=1,9=11,15=111,16=1/1,2,10;
 10/6=1/2;
 6/7=2,8=2,9=2,10=2,28=1/1;
 7/8=1,10=1,25=1/1,2,3,16;
 1/10=4,30=1/3;
 99//99;
 ---------
 good luck
 ---------
 Symbolic Z-matrix:
 Charge =  0 Multiplicity = 1
 O                     1.21147   0.        0. 
 C                     0.        0.        0. 
 C                    -0.88068  -1.26514   0.01905 
 C                    -0.76804  -1.96239   1.38701 
 C                    -2.27658  -0.7526   -0.29412 
 C                    -2.45981   0.04507  -1.56317 
 C                    -2.3123    0.77598  -0.24625 
 C                    -3.45478   1.57344   0.3969 
 C                    -3.46608   1.39757   1.9268 
 C                    -4.84482   1.25736  -0.17578 
 C                    -0.8867    1.2531    0.01905 
 H                    -0.50488  -1.95017  -0.75278 
 H                    -1.36033  -2.88421   1.39933 
 H                     0.27492  -2.21762   1.59861 
 H                    -1.13463  -1.31704   2.19413 
 H                    -3.12646  -1.32824   0.06627 
 H                    -3.43688   0.01219  -2.03407 
 H                    -1.63583   0.08827  -2.27548 
 H                    -3.25492   2.63541   0.18568 
 H                    -4.22207   2.04408   2.38713 
 H                    -3.70246   0.36093   2.19642 
 H                    -2.50111   1.64775   2.38134 
 H                    -5.60952   1.84148   0.3484 
 H                    -5.10387   0.19793  -0.05202 
 H                    -4.91423   1.50235  -1.24045 
 H                    -0.51692   1.98507  -0.70917 
 H                    -0.78568   1.71882   1.00891 
 

 GradGradGradGradGradGradGradGradGradGradGradGradGradGradGradGradGradGrad
 Berny optimization.
 Initialization pass.
 Trust Radius=3.00D-01 FncErr=1.00D-07 GrdErr=1.00D-07 EigMax=2.50D+02 EigMin=1.00D-04
 Number of steps in this run=      2 maximum allowed number of steps=      2.
 GradGradGradGradGradGradGradGradGradGradGradGradGradGradGradGradGradGrad

                          Input orientation:                          
 ---------------------------------------------------------------------
 Center     Atomic      Atomic             Coordinates (Angstroms)
 Number     Number       Type             X           Y           Z
 ---------------------------------------------------------------------
      1          8           0        1.211472    0.000000    0.000000
      2          6           0        0.000000    0.000000    0.000000
      3          6           0       -0.880678   -1.265142    0.019046
      4          6           0       -0.768044   -1.962392    1.387013
      5          6           0       -2.276577   -0.752602   -0.294120
      6          6           0       -2.459813    0.045065   -1.563166
      7          6           0       -2.312304    0.775981   -0.246246
      8          6           0       -3.454776    1.573437    0.396901
      9          6           0       -3.466076    1.397574    1.926803
     10          6           0       -4.844821    1.257355   -0.175779
     11          6           0       -0.886700    1.253100    0.019046
     12          1           0       -0.504877   -1.950169   -0.752782
     13          1           0       -1.360334   -2.884210    1.399334
     14          1           0        0.274919   -2.217624    1.598608
     15          1           0       -1.134634   -1.317041    2.194125
     16          1           0       -3.126460   -1.328238    0.066270
     17          1           0       -3.436876    0.012191   -2.034073
     18          1           0       -1.635831    0.088273   -2.275483
     19          1           0       -3.254921    2.635414    0.185676
     20          1           0       -4.222070    2.044080    2.387128
     21          1           0       -3.702463    0.360930    2.196424
     22          1           0       -2.501108    1.647752    2.381342
     23          1           0       -5.609521    1.841483    0.348401
     24          1           0       -5.103866    0.197925   -0.052020
     25          1           0       -4.914225    1.502350   -1.240451
     26          1           0       -0.516921    1.985072   -0.709165
     27          1           0       -0.785684    1.718818    1.008907
 ---------------------------------------------------------------------
                    Distance matrix (angstroms):
                    1          2          3          4          5
     1  O    0.000000
     2  C    1.211472   0.000000
     3  C    2.445003   1.541603   0.000000
     4  C    3.113402   2.522832   1.539538   0.000000
     5  C    3.580419   2.415723   1.519640   2.562318   0.000000
     6  C    3.990470   2.914824   2.591082   3.949117   1.510075
     7  C    3.616598   2.451435   2.507213   3.542733   1.529750
     8  C    4.940355   3.816898   3.850492   4.549828   2.697428
     9  C    5.248356   4.204696   4.172994   4.342824   3.312199
    10  C    6.187934   5.008406   4.702699   5.424869   3.263405
    11  C    2.443962   1.535207   2.518249   3.496398   2.460218
    12  H    2.704754   2.150521   1.098274   2.155952   2.187112
    13  H    4.109865   3.482429   2.180974   1.095768   2.872462
    14  H    2.889729   2.747541   2.176613   1.094389   3.498405
    15  H    3.471742   2.799317   2.190469   1.096493   2.795351
    16  H    4.537209   3.397552   2.247164   2.776444   1.087906
    17  H    5.073928   3.993710   3.518668   4.767124   2.226800
    18  H    3.645922   2.803847   2.768908   4.286276   2.245757
    19  H    5.189272   4.192182   4.569369   5.363542   3.558934
    20  H    6.276944   5.263318   5.265326   5.383525   4.335374
    21  H    5.394563   4.320044   3.917596   3.829332   3.078297
    22  H    4.708410   3.826411   4.085485   4.126177   3.601418
    23  H    7.073782   5.914319   5.667588   6.244044   4.272075
    24  H    6.318653   5.107967   4.470004   5.053428   2.992604
    25  H    6.428059   5.286339   5.051222   6.008229   3.596879
    26  H    2.725944   2.170399   3.350597   4.476550   3.280779
    27  H    2.821500   2.142318   3.145293   3.700619   3.166790
                    6          7          8          9         10
     6  C    0.000000
     7  C    1.513366   0.000000
     8  C    2.677263   1.534541   0.000000
     9  C    3.875788   2.537658   1.540018   0.000000
    10  C    3.013761   2.578823   1.536260   2.518224   0.000000
    11  C    2.537209   1.526555   2.615417   3.211478   3.962915
    12  H    2.908514   3.309874   4.737032   5.211167   5.427362
    13  H    4.308818   4.124461   5.026149   4.800630   5.636949
    14  H    4.753455   4.365648   5.452235   5.212716   6.437054
    15  H    4.210542   3.423895   4.119215   3.588345   5.099946
    16  H    2.232810   2.277774   2.938848   3.317676   3.113943
    17  H    1.085120   2.245966   2.889194   4.196269   2.643104
    18  H    1.090050   2.246856   3.557514   4.766893   4.009130
    19  H    3.224989   2.128984   1.101069   2.146709   2.134825
    20  H    4.765127   3.491409   2.184319   1.096082   2.752317
    21  H    3.972212   2.841029   2.183988   1.096907   2.781350
    22  H    4.257870   2.774860   2.202955   1.095608   3.490597
    23  H    4.099008   3.515756   2.171895   2.698660   1.095781
    24  H    3.049253   2.857392   2.193869   2.835005   1.097640
    25  H    2.872623   2.878550   2.194531   3.484195   1.094699
    26  H    2.875374   2.213503   3.166041   3.998874   4.420949
    27  H    3.495671   2.189730   2.742214   2.851356   4.253589
                   11         12         13         14         15
    11  C    0.000000
    12  H    3.316993   0.000000
    13  H    4.387124   2.497167   0.000000
    14  H    3.986264   2.491716   1.777104   0.000000
    15  H    3.376102   3.079238   1.771624   1.775537   0.000000
    16  H    3.417903   2.816086   2.705053   3.835159   2.914663
    17  H    3.501221   3.753556   4.948682   5.652068   4.994480
    18  H    2.680090   2.784407   4.734536   4.896602   4.712059
    19  H    2.747186   5.428721   5.960593   6.165073   4.914406
    20  H    4.166312   6.295283   5.783884   6.245542   4.568002
    21  H    3.669532   4.925805   4.080668   4.777645   3.067464
    22  H    2.888340   5.172302   4.775394   4.822876   3.269908
    23  H    4.770714   6.453419   6.441446   7.257135   5.779929
    24  H    4.347750   5.124068   5.061622   6.122971   4.805735
    25  H    4.227223   5.621393   6.232216   6.987537   5.833574
    26  H    1.096727   3.935501   5.372804   4.859576   4.440114
    27  H    1.098600   4.079689   4.655161   4.119248   3.277644
                   16         17         18         19         20
    16  H    0.000000
    17  H    2.510886   0.000000
    18  H    3.116454   1.818744   0.000000
    19  H    3.967530   3.441176   3.894443   0.000000
    20  H    4.237838   4.928704   5.679239   2.476175   0.000000
    21  H    2.778961   4.253147   4.933889   3.068661   1.771822
    22  H    3.821929   4.800689   4.986652   2.522828   1.766018
    23  H    4.036375   3.707139   5.074320   2.490170   2.474363
    24  H    2.500660   2.596514   4.121053   3.068623   3.183598
    25  H    3.593863   2.243428   3.717361   2.463932   3.732543
    26  H    4.288242   3.764808   2.702436   2.953020   4.828938
    27  H    3.956305   4.381908   3.764126   2.759527   3.716724
                   21         22         23         24         25
    21  H    0.000000
    22  H    1.770130   0.000000
    23  H    3.040411   3.719222   0.000000
    24  H    2.654431   3.846765   1.765590   0.000000
    25  H    3.818811   4.354499   1.767172   1.774784   0.000000
    26  H    4.607381   3.688091   5.203233   4.966467   4.455510
    27  H    3.429527   2.198024   4.870392   4.699508   4.706519
                   26         27
    26  H    0.000000
    27  H    1.759232   0.000000
 Stoichiometry    C10H16O
 Framework group  C1[X(C10H16O)]
 Deg. of freedom    75
 Full point group                 C1      NOp   1
 Largest Abelian subgroup         C1      NOp   1
 Largest concise Abelian subgroup C1      NOp   1
                         Standard orientation:                         
 ---------------------------------------------------------------------
 Center     Atomic      Atomic             Coordinates (Angstroms)
 Number     Number       Type             X           Y           Z
 ---------------------------------------------------------------------
      1          8           0       -2.886322   -0.779514    0.921709
      2          6           0       -1.802596   -0.495071    0.460955
      3          6           0       -1.579848    0.349563   -0.809288
      4          6           0       -1.976485    1.813029   -0.542596
      5          6           0       -0.105717    0.162746   -1.127628
      6          6           0        0.400078   -1.250549   -1.292237
      7          6           0        0.609784   -0.540102    0.027447
      8          6           0        1.995464   -0.124511    0.539297
      9          6           0        1.944510    1.247561    1.236777
     10          6           0        3.091147   -0.123018   -0.537537
     11          6           0       -0.449274   -0.886878    1.070764
     12          1           0       -2.230938   -0.049196   -1.598768
     13          1           0       -1.858391    2.415550   -1.450191
     14          1           0       -3.021090    1.871054   -0.221471
     15          1           0       -1.350958    2.258718    0.239947
     16          1           0        0.401472    0.947470   -1.684859
     17          1           0        1.254033   -1.399885   -1.944882
     18          1           0       -0.325867   -2.062599   -1.334508
     19          1           0        2.288772   -0.870589    1.294077
     20          1           0        2.914925    1.493296    1.683212
     21          1           0        1.695870    2.038734    0.518843
     22          1           0        1.198281    1.279194    2.038338
     23          1           0        4.042210    0.208972   -0.106262
     24          1           0        2.850925    0.562356   -1.360561
     25          1           0        3.250511   -1.119982   -0.960656
     26          1           0       -0.461342   -1.944180    1.361931
     27          1           0       -0.320216   -0.309426    1.996408
 ---------------------------------------------------------------------
 Rotational constants (GHZ):           1.8496856           0.7514168           0.7413175
 Standard basis: 6-31G(d) (6D, 7F)
 There are   197 symmetry adapted cartesian basis functions of A   symmetry.
 There are   197 symmetry adapted basis functions of A   symmetry.
   197 basis functions,   372 primitive gaussians,   197 cartesian basis functions
    42 alpha electrons       42 beta electrons
       nuclear repulsion energy       648.1542119202 Hartrees.
 NAtoms=   27 NActive=   27 NUniq=   27 SFac= 1.00D+00 NAtFMM=   60 NAOKFM=F Big=F
 Integral buffers will be    131072 words long.
 Raffenetti 2 integral format.
 Two-electron integral symmetry is turned on.
 One-electron integrals computed using PRISM.
 NBasis=   197 RedAO= T EigKep=  1.87D-03  NBF=   197
 NBsUse=   197 1.00D-06 EigRej= -1.00D+00 NBFU=   197
 ExpMin= 1.61D-01 ExpMax= 5.48D+03 ExpMxC= 8.25D+02 IAcc=3 IRadAn=         5 AccDes= 0.00D+00
 Harris functional with IExCor=  402 and IRadAn=       5 diagonalized for initial guess.
 HarFok:  IExCor=  402 AccDes= 0.00D+00 IRadAn=         5 IDoV= 1 UseB2=F ITyADJ=14
 ICtDFT=  3500011 ScaDFX=  1.000000  1.000000  1.000000  1.000000
 FoFCou: FMM=F IPFlag=           0 FMFlag=      100000 FMFlg1=           0
         NFxFlg=           0 DoJE=T BraDBF=F KetDBF=T FulRan=T
         wScrn=  0.000000 ICntrl=       500 IOpCl=  0 I1Cent=   200000004 NGrid=           0
         NMat0=    1 NMatS0=      1 NMatT0=    0 NMatD0=    1 NMtDS0=    0 NMtDT0=    0
 Petite list used in FoFCou.
 Requested convergence on RMS density matrix=1.00D-08 within 128 cycles.
 Requested convergence on MAX density matrix=1.00D-06.
 Requested convergence on             energy=1.00D-06.
 No special actions if energy rises.
 Integral accuracy reduced to 1.0D-05 until final iterations.
 Initial convergence to 1.0D-05 achieved.  Increase integral accuracy.
 SCF Done:  E(RB3LYP) =  -465.900578044     A.U. after   13 cycles
            NFock= 13  Conv=0.97D-08     -V/T= 2.0098
 DoSCS=F DFT=T ScalE2(SS,OS)=  1.000000  1.000000
 Range of M.O.s used for correlation:     1   197
 NBasis=   197 NAE=    42 NBE=    42 NFC=     0 NFV=     0
 NROrb=    197 NOA=    42 NOB=    42 NVA=   155 NVB=   155
 Symmetrizing basis deriv contribution to polar:
 IMax=3 JMax=2 DiffMx= 0.00D+00
 G2DrvN: will do    28 centers at a time, making    1 passes.
 Calling FoFCou, ICntrl=  3107 FMM=F I1Cent=   0 AccDes= 0.00D+00.
 End of G2Drv F.D. properties file   721 does not exist.
 End of G2Drv F.D. properties file   722 does not exist.
 End of G2Drv F.D. properties file   788 does not exist.
          IDoAtm=111111111111111111111111111
          Differentiating once with respect to electric field.
                with respect to dipole field.
          Differentiating once with respect to nuclear coordinates.
 Keep R1 ints in memory in canonical form, NReq=198401995.
          There are    84 degrees of freedom in the 1st order CPHF.  IDoFFX=6 NUNeed=     3.
     81 vectors produced by pass  0 Test12= 7.75D-15 1.19D-09 XBig12= 7.14D+01 2.03D+00.
 AX will form    81 AO Fock derivatives at one time.
     81 vectors produced by pass  1 Test12= 7.75D-15 1.19D-09 XBig12= 1.18D+01 1.09D+00.
     81 vectors produced by pass  2 Test12= 7.75D-15 1.19D-09 XBig12= 1.29D-01 7.43D-02.
     81 vectors produced by pass  3 Test12= 7.75D-15 1.19D-09 XBig12= 3.00D-04 2.24D-03.
     81 vectors produced by pass  4 Test12= 7.75D-15 1.19D-09 XBig12= 3.01D-07 7.18D-05.
     38 vectors produced by pass  5 Test12= 7.75D-15 1.19D-09 XBig12= 2.52D-10 1.69D-06.
      3 vectors produced by pass  6 Test12= 7.75D-15 1.19D-09 XBig12= 2.01D-13 5.71D-08.
      1 vectors produced by pass  7 Test12= 7.75D-15 1.19D-09 XBig12= 1.39D-16 1.28D-09.
 InvSVY:  IOpt=1 It=  1 EMax= 1.42D-14
 Solved reduced A of dimension   447 with    84 vectors.
 Isotropic polarizability for W=    0.000000       99.66 Bohr**3.
 End of Minotr F.D. properties file   721 does not exist.
 End of Minotr F.D. properties file   722 does not exist.
 End of Minotr F.D. properties file   788 does not exist.

 **********************************************************************

            Population analysis using the SCF density.

 **********************************************************************

 Orbital symmetries:
       Occupied  (A) (A) (A) (A) (A) (A) (A) (A) (A) (A) (A) (A)
                 (A) (A) (A) (A) (A) (A) (A) (A) (A) (A) (A) (A)
                 (A) (A) (A) (A) (A) (A) (A) (A) (A) (A) (A) (A)
                 (A) (A) (A) (A) (A) (A)
       Virtual   (A) (A) (A) (A) (A) (A) (A) (A) (A) (A) (A) (A)
                 (A) (A) (A) (A) (A) (A) (A) (A) (A) (A) (A) (A)
                 (A) (A) (A) (A) (A) (A) (A) (A) (A) (A) (A) (A)
                 (A) (A) (A) (A) (A) (A) (A) (A) (A) (A) (A) (A)
                 (A) (A) (A) (A) (A) (A) (A) (A) (A) (A) (A) (A)
                 (A) (A) (A) (A) (A) (A) (A) (A) (A) (A) (A) (A)
                 (A) (A) (A) (A) (A) (A) (A) (A) (A) (A) (A) (A)
                 (A) (A) (A) (A) (A) (A) (A) (A) (A) (A) (A) (A)
                 (A) (A) (A) (A) (A) (A) (A) (A) (A) (A) (A) (A)
                 (A) (A) (A) (A) (A) (A) (A) (A) (A) (A) (A) (A)
                 (A) (A) (A) (A) (A) (A) (A) (A) (A) (A) (A) (A)
                 (A) (A) (A) (A) (A) (A) (A) (A) (A) (A) (A) (A)
                 (A) (A) (A) (A) (A) (A) (A) (A) (A) (A) (A)
 The electronic state is 1-A.
 Alpha  occ. eigenvalues --  -19.13618 -10.26974 -10.20176 -10.19799 -10.19587
 Alpha  occ. eigenvalues --  -10.19313 -10.19051 -10.18786 -10.18401 -10.17945
 Alpha  occ. eigenvalues --  -10.17811  -1.03582  -0.88891  -0.79457  -0.76394
 Alpha  occ. eigenvalues --   -0.73652  -0.68538  -0.65521  -0.61407  -0.58712
 Alpha  occ. eigenvalues --   -0.54329  -0.51924  -0.49468  -0.46826  -0.45202
 Alpha  occ. eigenvalues --   -0.44177  -0.42703  -0.42530  -0.41266  -0.40489
 Alpha  occ. eigenvalues --   -0.39311  -0.38941  -0.38339  -0.36752  -0.35483
 Alpha  occ. eigenvalues --   -0.34904  -0.34167  -0.33584  -0.33081  -0.28155
 Alpha  occ. eigenvalues --   -0.26719  -0.23596
 Alpha virt. eigenvalues --   -0.01687   0.07467   0.09946   0.10324   0.11596
 Alpha virt. eigenvalues --    0.12253   0.12832   0.14055   0.15053   0.15387
 Alpha virt. eigenvalues --    0.16075   0.16928   0.17596   0.17967   0.19197
 Alpha virt. eigenvalues --    0.19605   0.20297   0.21314   0.22339   0.23065
 Alpha virt. eigenvalues --    0.23797   0.24173   0.25044   0.25989   0.28262
 Alpha virt. eigenvalues --    0.30681   0.33463   0.35681   0.38149   0.46907
 Alpha virt. eigenvalues --    0.50489   0.50981   0.51443   0.53715   0.54605
 Alpha virt. eigenvalues --    0.56431   0.56891   0.59086   0.60625   0.61907
 Alpha virt. eigenvalues --    0.63240   0.64940   0.66007   0.67216   0.68342
 Alpha virt. eigenvalues --    0.69352   0.69713   0.70316   0.73645   0.76758
 Alpha virt. eigenvalues --    0.77713   0.78392   0.80795   0.82176   0.82896
 Alpha virt. eigenvalues --    0.83532   0.84467   0.85752   0.86933   0.88934
 Alpha virt. eigenvalues --    0.89580   0.90282   0.90617   0.91146   0.91615
 Alpha virt. eigenvalues --    0.92509   0.94139   0.95837   0.95975   0.96766
 Alpha virt. eigenvalues --    0.98183   1.00942   1.02304   1.02893   1.05193
 Alpha virt. eigenvalues --    1.08594   1.09795   1.12545   1.16792   1.20149
 Alpha virt. eigenvalues --    1.21282   1.29118   1.33498   1.37713   1.45244
 Alpha virt. eigenvalues --    1.46307   1.48702   1.51783   1.56003   1.64694
 Alpha virt. eigenvalues --    1.66569   1.69607   1.71887   1.73997   1.74729
 Alpha virt. eigenvalues --    1.75493   1.77601   1.79136   1.79718   1.80384
 Alpha virt. eigenvalues --    1.83587   1.85455   1.86076   1.87968   1.93158
 Alpha virt. eigenvalues --    1.95634   1.97393   2.00656   2.01416   2.03290
 Alpha virt. eigenvalues --    2.04407   2.05503   2.09222   2.10340   2.12502
 Alpha virt. eigenvalues --    2.14596   2.15353   2.18523   2.22882   2.25740
 Alpha virt. eigenvalues --    2.27285   2.28193   2.30246   2.33700   2.34534
 Alpha virt. eigenvalues --    2.38711   2.38940   2.40911   2.46857   2.48469
 Alpha virt. eigenvalues --    2.50363   2.54692   2.58196   2.60531   2.63496
 Alpha virt. eigenvalues --    2.68103   2.72189   2.74712   2.80184   2.82193
 Alpha virt. eigenvalues --    2.84188   2.86461   3.00862   3.07725   4.05623
 Alpha virt. eigenvalues --    4.13051   4.18719   4.26192   4.28620   4.36635
 Alpha virt. eigenvalues --    4.43139   4.48327   4.63527   4.69663   4.71933
          Condensed to atoms (all electrons):
               1          2          3          4          5          6
     1  O    8.027905   0.554465  -0.070460  -0.002921   0.004240  -0.000105
     2  C    0.554465   4.554911   0.330682  -0.028502  -0.038791   0.002316
     3  C   -0.070460   0.330682   5.173378   0.359635   0.323890  -0.019353
     4  C   -0.002921  -0.028502   0.359635   5.091048  -0.042478   0.004634
     5  C    0.004240  -0.038791   0.323890  -0.042478   5.155069   0.209027
     6  C   -0.000105   0.002316  -0.019353   0.004634   0.209027   5.266152
     7  C    0.002965  -0.032215  -0.013954  -0.002739   0.320765   0.265840
     8  C   -0.000052   0.002439   0.003578   0.000047  -0.038384  -0.026955
     9  C    0.000001  -0.000033   0.000043  -0.000134  -0.007773   0.005304
    10  C    0.000000  -0.000070   0.000178  -0.000007  -0.003557  -0.008806
    11  C   -0.068881   0.308986  -0.180871   0.005026  -0.040825  -0.038425
    12  H   -0.000019  -0.033432   0.356243  -0.035019  -0.039767  -0.007460
    13  H    0.000004   0.004165  -0.029671   0.373650  -0.004110   0.000006
    14  H    0.005480  -0.002762  -0.032465   0.366696   0.005154  -0.000154
    15  H    0.000079  -0.006128  -0.036984   0.374116  -0.002692  -0.000075
    16  H   -0.000067   0.002447  -0.029388  -0.004534   0.367407  -0.026577
    17  H    0.000004  -0.000103   0.001382  -0.000104  -0.013049   0.364310
    18  H   -0.000242  -0.000222  -0.005028   0.000130  -0.022058   0.366856
    19  H    0.000001   0.000092  -0.000165  -0.000007   0.006064  -0.002019
    20  H   -0.000000  -0.000002  -0.000001   0.000005   0.000202  -0.000170
    21  H    0.000000   0.000004  -0.000386  -0.000021   0.004875  -0.000211
    22  H    0.000002  -0.000344   0.000182  -0.000099  -0.000411   0.000032
    23  H   -0.000000   0.000001   0.000002  -0.000000  -0.000088   0.000424
    24  H   -0.000000  -0.000000  -0.000038  -0.000005   0.003675  -0.001922
    25  H    0.000000   0.000001  -0.000007  -0.000000  -0.000540   0.001685
    26  H    0.000691  -0.023116   0.005658  -0.000056   0.005629  -0.009659
    27  H   -0.000599  -0.020342   0.004835  -0.000461  -0.001601   0.005757
               7          8          9         10         11         12
     1  O    0.002965  -0.000052   0.000001   0.000000  -0.068881  -0.000019
     2  C   -0.032215   0.002439  -0.000033  -0.000070   0.308986  -0.033432
     3  C   -0.013954   0.003578   0.000043   0.000178  -0.180871   0.356243
     4  C   -0.002739   0.000047  -0.000134  -0.000007   0.005026  -0.035019
     5  C    0.320765  -0.038384  -0.007773  -0.003557  -0.040825  -0.039767
     6  C    0.265840  -0.026955   0.005304  -0.008806  -0.038425  -0.007460
     7  C    4.887948   0.392852  -0.047454  -0.036657   0.336278   0.002853
     8  C    0.392852   4.878467   0.367636   0.371686  -0.028246  -0.000145
     9  C   -0.047454   0.367636   5.137833  -0.055188  -0.006097  -0.000006
    10  C   -0.036657   0.371686  -0.055188   5.128979   0.003794  -0.000002
    11  C    0.336278  -0.028246  -0.006097   0.003794   5.393240   0.007941
    12  H    0.002853  -0.000145  -0.000006  -0.000002   0.007941   0.589832
    13  H    0.000049   0.000017  -0.000011  -0.000000  -0.000380  -0.005150
    14  H   -0.000097   0.000001   0.000005  -0.000000   0.000656  -0.001539
    15  H    0.001030  -0.000369   0.000569  -0.000001   0.002319   0.005465
    16  H   -0.030759  -0.003897   0.000840   0.000323   0.003630   0.001161
    17  H   -0.016741  -0.009418   0.000141   0.004844   0.002456   0.000286
    18  H   -0.025143   0.001785  -0.000096  -0.000048  -0.005335   0.002759
    19  H   -0.044489   0.372076  -0.049954  -0.047778  -0.007139   0.000005
    20  H    0.004814  -0.027487   0.365037  -0.004067   0.000081   0.000000
    21  H   -0.006442  -0.033113   0.370998  -0.005806  -0.000162   0.000008
    22  H   -0.004207  -0.030534   0.368942   0.005293   0.001767  -0.000000
    23  H    0.004249  -0.029241  -0.004088   0.370118  -0.000090  -0.000000
    24  H   -0.007769  -0.031676  -0.005343   0.370453  -0.000014   0.000004
    25  H   -0.002862  -0.027000   0.005264   0.367818  -0.000078  -0.000000
    26  H   -0.027467  -0.000298   0.000040  -0.000083   0.346706  -0.000105
    27  H   -0.037317  -0.006051   0.002690   0.000100   0.347854  -0.000087
              13         14         15         16         17         18
     1  O    0.000004   0.005480   0.000079  -0.000067   0.000004  -0.000242
     2  C    0.004165  -0.002762  -0.006128   0.002447  -0.000103  -0.000222
     3  C   -0.029671  -0.032465  -0.036984  -0.029388   0.001382  -0.005028
     4  C    0.373650   0.366696   0.374116  -0.004534  -0.000104   0.000130
     5  C   -0.004110   0.005154  -0.002692   0.367407  -0.013049  -0.022058
     6  C    0.000006  -0.000154  -0.000075  -0.026577   0.364310   0.366856
     7  C    0.000049  -0.000097   0.001030  -0.030759  -0.016741  -0.025143
     8  C    0.000017   0.000001  -0.000369  -0.003897  -0.009418   0.001785
     9  C   -0.000011   0.000005   0.000569   0.000840   0.000141  -0.000096
    10  C   -0.000000  -0.000000  -0.000001   0.000323   0.004844  -0.000048
    11  C   -0.000380   0.000656   0.002319   0.003630   0.002456  -0.005335
    12  H   -0.005150  -0.001539   0.005465   0.001161   0.000286   0.002759
    13  H    0.568176  -0.028748  -0.032115   0.002909  -0.000003   0.000004
    14  H   -0.028748   0.547011  -0.028008   0.000010   0.000001  -0.000003
    15  H   -0.032115  -0.028008   0.572858   0.000238   0.000005   0.000009
    16  H    0.002909   0.000010   0.000238   0.579648  -0.005051   0.001943
    17  H   -0.000003   0.000001   0.000005  -0.005051   0.543188  -0.030134
    18  H    0.000004  -0.000003   0.000009   0.001943  -0.030134   0.563018
    19  H    0.000000   0.000000   0.000009   0.000050   0.000409   0.000183
    20  H   -0.000000  -0.000000  -0.000003  -0.000070  -0.000002   0.000002
    21  H    0.000014  -0.000001   0.000990   0.001193   0.000002   0.000003
    22  H    0.000000  -0.000002   0.000391   0.000038  -0.000002  -0.000002
    23  H    0.000000   0.000000  -0.000000  -0.000102  -0.000124  -0.000003
    24  H   -0.000001   0.000000   0.000002   0.002946   0.000922   0.000058
    25  H    0.000000   0.000000  -0.000000   0.000124   0.002577  -0.000017
    26  H    0.000002  -0.000004  -0.000007  -0.000108   0.000232   0.003448
    27  H    0.000011   0.000004   0.000041   0.000104  -0.000122   0.000079
              19         20         21         22         23         24
     1  O    0.000001  -0.000000   0.000000   0.000002  -0.000000  -0.000000
     2  C    0.000092  -0.000002   0.000004  -0.000344   0.000001  -0.000000
     3  C   -0.000165  -0.000001  -0.000386   0.000182   0.000002  -0.000038
     4  C   -0.000007   0.000005  -0.000021  -0.000099  -0.000000  -0.000005
     5  C    0.006064   0.000202   0.004875  -0.000411  -0.000088   0.003675
     6  C   -0.002019  -0.000170  -0.000211   0.000032   0.000424  -0.001922
     7  C   -0.044489   0.004814  -0.006442  -0.004207   0.004249  -0.007769
     8  C    0.372076  -0.027487  -0.033113  -0.030534  -0.029241  -0.031676
     9  C   -0.049954   0.365037   0.370998   0.368942  -0.004088  -0.005343
    10  C   -0.047778  -0.004067  -0.005806   0.005293   0.370118   0.370453
    11  C   -0.007139   0.000081  -0.000162   0.001767  -0.000090  -0.000014
    12  H    0.000005   0.000000   0.000008  -0.000000  -0.000000   0.000004
    13  H    0.000000  -0.000000   0.000014   0.000000   0.000000  -0.000001
    14  H    0.000000  -0.000000  -0.000001  -0.000002   0.000000   0.000000
    15  H    0.000009  -0.000003   0.000990   0.000391  -0.000000   0.000002
    16  H    0.000050  -0.000070   0.001193   0.000038  -0.000102   0.002946
    17  H    0.000409  -0.000002   0.000002  -0.000002  -0.000124   0.000922
    18  H    0.000183   0.000002   0.000003  -0.000002  -0.000003   0.000058
    19  H    0.643793  -0.002827   0.005980  -0.003256  -0.003294   0.005859
    20  H   -0.002827   0.577907  -0.030555  -0.029912   0.004192  -0.000132
    21  H    0.005980  -0.030555   0.575671  -0.031503  -0.000237   0.004584
    22  H   -0.003256  -0.029912  -0.031503   0.575241   0.000005  -0.000055
    23  H   -0.003294   0.004192  -0.000237   0.000005   0.572842  -0.031218
    24  H    0.005859  -0.000132   0.004584  -0.000055  -0.031218   0.579067
    25  H   -0.003900  -0.000056  -0.000000  -0.000182  -0.028991  -0.032555
    26  H    0.001986   0.000004   0.000009  -0.000007   0.000002   0.000002
    27  H    0.000038  -0.000286   0.000014   0.005972  -0.000004  -0.000002
              25         26         27
     1  O    0.000000   0.000691  -0.000599
     2  C    0.000001  -0.023116  -0.020342
     3  C   -0.000007   0.005658   0.004835
     4  C   -0.000000  -0.000056  -0.000461
     5  C   -0.000540   0.005629  -0.001601
     6  C    0.001685  -0.009659   0.005757
     7  C   -0.002862  -0.027467  -0.037317
     8  C   -0.027000  -0.000298  -0.006051
     9  C    0.005264   0.000040   0.002690
    10  C    0.367818  -0.000083   0.000100
    11  C   -0.000078   0.346706   0.347854
    12  H   -0.000000  -0.000105  -0.000087
    13  H    0.000000   0.000002   0.000011
    14  H    0.000000  -0.000004   0.000004
    15  H   -0.000000  -0.000007   0.000041
    16  H    0.000124  -0.000108   0.000104
    17  H    0.002577   0.000232  -0.000122
    18  H   -0.000017   0.003448   0.000079
    19  H   -0.003900   0.001986   0.000038
    20  H   -0.000056   0.000004  -0.000286
    21  H   -0.000000   0.000009   0.000014
    22  H   -0.000182  -0.000007   0.005972
    23  H   -0.028991   0.000002  -0.000004
    24  H   -0.032555   0.000002  -0.000002
    25  H    0.569384  -0.000008   0.000009
    26  H   -0.000008   0.550999  -0.026391
    27  H    0.000009  -0.026391   0.554203
 Mulliken charges:
               1
     1  O   -0.452492
     2  C    0.425554
     3  C   -0.140916
     4  C   -0.457901
     5  C   -0.149873
     6  C   -0.350454
     7  C    0.116669
     8  C   -0.097719
     9  C   -0.449170
    10  C   -0.461517
    11  C   -0.384192
    12  H    0.156173
    13  H    0.151182
    14  H    0.168766
    15  H    0.148259
    16  H    0.135545
    17  H    0.154095
    18  H    0.148053
    19  H    0.128282
    20  H    0.143324
    21  H    0.144091
    22  H    0.142649
    23  H    0.145647
    24  H    0.143158
    25  H    0.149335
    26  H    0.171901
    27  H    0.171551
 Sum of Mulliken charges =  -0.00000
 Mulliken charges with hydrogens summed into heavy atoms:
               1
     1  O   -0.452492
     2  C    0.425554
     3  C    0.015257
     4  C    0.010306
     5  C   -0.014328
     6  C   -0.048306
     7  C    0.116669
     8  C    0.030564
     9  C   -0.019106
    10  C   -0.023378
    11  C   -0.040740
 APT charges:
               1
     1  O   -0.670066
     2  C    0.747355
     3  C   -0.010402
     4  C    0.087164
     5  C   -0.002453
     6  C   -0.038995
     7  C    0.058286
     8  C    0.165466
     9  C    0.042507
    10  C    0.048662
    11  C   -0.063289
    12  H   -0.051035
    13  H   -0.022170
    14  H   -0.008943
    15  H   -0.015162
    16  H   -0.018783
    17  H    0.003404
    18  H   -0.016628
    19  H   -0.084601
    20  H   -0.035297
    21  H   -0.015403
    22  H   -0.020822
    23  H   -0.025564
    24  H   -0.017619
    25  H   -0.018068
    26  H   -0.016203
    27  H   -0.001340
 Sum of APT charges =   0.00000
 APT charges with hydrogens summed into heavy atoms:
               1
     1  O   -0.670066
     2  C    0.747355
     3  C   -0.061437
     4  C    0.040888
     5  C   -0.021235
     6  C   -0.052219
     7  C    0.058286
     8  C    0.080865
     9  C   -0.029015
    10  C   -0.012590
    11  C   -0.080832
 Electronic spatial extent (au):  <R**2>=           1862.2019
 Charge=             -0.0000 electrons
 Dipole moment (field-independent basis, Debye):
    X=              2.6733    Y=              0.8047    Z=             -0.9299  Tot=              2.9426
 Quadrupole moment (field-independent basis, Debye-Ang):
   XX=            -76.6187   YY=            -67.3806   ZZ=            -67.7746
   XY=             -3.3521   XZ=              4.2274   YZ=              0.5683
 Traceless Quadrupole moment (field-independent basis, Debye-Ang):
   XX=             -6.0274   YY=              3.2107   ZZ=              2.8167
   XY=             -3.3521   XZ=              4.2274   YZ=              0.5683
 Octapole moment (field-independent basis, Debye-Ang**2):
  XXX=             26.0555  YYY=             -5.4113  ZZZ=              4.4629  XYY=             -3.6739
  XXY=             10.8470  XXZ=            -12.4995  XZZ=              0.4448  YZZ=              0.7363
  YYZ=             -1.4964  XYZ=             -3.3771
 Hexadecapole moment (field-independent basis, Debye-Ang**3):
 XXXX=          -1618.3021 YYYY=           -491.9037 ZZZZ=           -460.2664 XXXY=            -29.0546
 XXXZ=             42.7544 YYYX=              7.7940 YYYZ=             -6.9879 ZZZX=             -7.2472
 ZZZY=             -4.7666 XXYY=           -341.0471 XXZZ=           -338.8353 YYZZ=           -154.7408
 XXYZ=             13.7929 YYXZ=             -1.1849 ZZXY=             -3.6430
 N-N= 6.481542119202D+02 E-N=-2.376466545591D+03  KE= 4.613982124138D+02
  Exact polarizability: 113.019  -0.593  92.983   0.184  -0.856  92.990
 Approx polarizability: 149.805   2.399 135.569  -1.947  -4.032 139.256
 Calling FoFJK, ICntrl=    100127 FMM=F ISym2X=0 I1Cent= 0 IOpClX= 0 NMat=1 NMatS=1 NMatT=0.
 Full mass-weighted force constant matrix:
 Low frequencies ---   -8.1998   -1.6082    0.0008    0.0009    0.0010    5.9475
 Low frequencies ---   51.9342   71.4185   97.6586
 Diagonal vibrational polarizability:
        4.4912390      27.6954512      11.4824989
 Harmonic frequencies (cm**-1), IR intensities (KM/Mole), Raman scattering
 activities (A**4/AMU), depolarization ratios for plane and unpolarized
 incident light, reduced masses (AMU), force constants (mDyne/A),
 and normal coordinates:
                      1                      2                      3
                      A                      A                      A
 Frequencies --     51.9334                71.4169                97.6580
 Red. masses --      3.5561                 2.8051                 3.0832
 Frc consts  --      0.0057                 0.0084                 0.0173
 IR Inten    --      2.5681                 1.2498                 0.3146
  Atom  AN      X      Y      Z        X      Y      Z        X      Y      Z
     1   8     0.02   0.21   0.15    -0.03  -0.08  -0.10    -0.01   0.08   0.04
     2   6     0.02   0.04   0.04    -0.02   0.01  -0.02     0.00  -0.01   0.00
     3   6     0.01  -0.05  -0.03     0.01   0.00  -0.02     0.03   0.00   0.02
     4   6    -0.07  -0.05  -0.17     0.13   0.03   0.01     0.23   0.04   0.12
     5   6     0.01  -0.02  -0.01     0.00  -0.08  -0.02     0.01  -0.09  -0.03
     6   6     0.04  -0.01  -0.04    -0.05  -0.11   0.11     0.02  -0.09  -0.03
     7   6     0.02  -0.04  -0.03    -0.01   0.01   0.04     0.00  -0.08  -0.03
     8   6     0.01  -0.04  -0.01     0.01   0.00  -0.03    -0.05   0.04  -0.00
     9   6    -0.04  -0.13   0.17     0.05  -0.07   0.11    -0.21   0.08  -0.08
    10   6    -0.02   0.17  -0.04    -0.08   0.15  -0.13    -0.02   0.09   0.02
    11   6     0.02  -0.09  -0.04    -0.02   0.12   0.07    -0.01  -0.12  -0.04
    12   1     0.03  -0.15   0.00    -0.02   0.06  -0.02    -0.04   0.11   0.02
    13   1    -0.12  -0.13  -0.23     0.19   0.04   0.03     0.27   0.08   0.15
    14   1    -0.06  -0.08  -0.15     0.12   0.11  -0.00     0.25   0.16   0.16
    15   1    -0.08   0.06  -0.22     0.15  -0.04   0.03     0.32  -0.09   0.12
    16   1     0.01  -0.00   0.01     0.02  -0.14  -0.10     0.03  -0.10  -0.02
    17   1     0.04   0.02  -0.04    -0.06  -0.20   0.11     0.02  -0.07  -0.03
    18   1     0.05  -0.02  -0.07    -0.08  -0.09   0.19     0.04  -0.10  -0.02
    19   1     0.07  -0.12  -0.12     0.11  -0.07  -0.13     0.00   0.11   0.04
    20   1    -0.03  -0.13   0.15     0.10  -0.07  -0.01    -0.25   0.20  -0.06
    21   1    -0.12  -0.05   0.29    -0.09  -0.01   0.22    -0.26   0.01  -0.14
    22   1     0.01  -0.28   0.22     0.17  -0.18   0.22    -0.24   0.05  -0.11
    23   1    -0.03   0.16  -0.03    -0.06   0.16  -0.19    -0.06   0.18   0.03
    24   1    -0.09   0.26   0.05    -0.19   0.22  -0.04    -0.06   0.04  -0.01
    25   1     0.02   0.23  -0.18    -0.07   0.20  -0.24     0.06   0.09   0.06
    26   1    -0.03  -0.12  -0.16    -0.00   0.16   0.21    -0.05  -0.15  -0.15
    27   1     0.06  -0.21   0.02    -0.06   0.25  -0.01     0.03  -0.22   0.01
                      4                      5                      6
                      A                      A                      A
 Frequencies --    203.3102               221.4534               227.5465
 Red. masses --      2.1775                 2.0414                 1.1200
 Frc consts  --      0.0530                 0.0590                 0.0342
 IR Inten    --      0.4348                 1.3769                 0.0106
  Atom  AN      X      Y      Z        X      Y      Z        X      Y      Z
     1   8    -0.04   0.03  -0.08    -0.04   0.14  -0.01    -0.01  -0.01  -0.01
     2   6    -0.00  -0.00  -0.00    -0.02  -0.02  -0.07    -0.01  -0.01   0.01
     3   6     0.07   0.03   0.03     0.00  -0.06  -0.07     0.00  -0.00   0.01
     4   6    -0.05   0.01  -0.03    -0.05  -0.12   0.15     0.02   0.01  -0.02
     5   6     0.09   0.05   0.13     0.01  -0.03  -0.04    -0.00  -0.00   0.02
     6   6     0.04   0.04   0.04     0.04  -0.03   0.02     0.01   0.01   0.01
     7   6     0.02  -0.07   0.10     0.00   0.03  -0.00    -0.01   0.00   0.02
     8   6     0.03  -0.02   0.02     0.01   0.02  -0.00    -0.00   0.01   0.00
     9   6    -0.01   0.02  -0.07     0.07   0.02   0.01     0.04   0.00   0.01
    10   6    -0.09  -0.01  -0.11     0.01   0.01  -0.01    -0.04   0.02  -0.04
    11   6    -0.03  -0.10   0.04    -0.02   0.03  -0.02    -0.01  -0.03   0.00
    12   1     0.16  -0.01  -0.02     0.02  -0.00  -0.11     0.00  -0.01   0.01
    13   1     0.10   0.02  -0.00     0.28   0.13   0.36    -0.04  -0.03  -0.06
    14   1    -0.11  -0.06  -0.24    -0.16  -0.20  -0.19     0.05   0.03   0.05
    15   1    -0.23   0.04   0.10    -0.33  -0.34   0.50     0.09   0.04  -0.09
    16   1     0.15   0.08   0.23    -0.00  -0.04  -0.07    -0.00   0.01   0.03
    17   1     0.05   0.04   0.06     0.05  -0.04   0.04     0.02   0.02   0.02
    18   1    -0.01   0.09  -0.05     0.06  -0.04   0.04     0.02   0.00   0.00
    19   1     0.14   0.04   0.03     0.00   0.01  -0.01     0.01   0.00  -0.01
    20   1     0.05   0.20  -0.29     0.06  -0.08   0.09    -0.08  -0.25   0.42
    21   1    -0.28  -0.07  -0.07     0.20   0.05   0.00     0.54   0.08  -0.08
    22   1     0.16  -0.03   0.09     0.01   0.07  -0.05    -0.29   0.18  -0.30
    23   1    -0.09   0.22  -0.28     0.00   0.04  -0.02    -0.08   0.25  -0.14
    24   1    -0.30  -0.19  -0.19    -0.01  -0.01  -0.02    -0.20  -0.14  -0.13
    25   1     0.02  -0.05   0.03     0.02   0.01   0.01     0.10  -0.02   0.10
    26   1    -0.09  -0.12  -0.03     0.00   0.03   0.00    -0.02  -0.05  -0.04
    27   1    -0.04  -0.16   0.09    -0.07   0.05  -0.03    -0.01  -0.08   0.03
                      7                      8                      9
                      A                      A                      A
 Frequencies --    242.7522               269.6176               275.1342
 Red. masses --      1.3009                 2.2413                 1.3786
 Frc consts  --      0.0452                 0.0960                 0.0615
 IR Inten    --      1.2186                 0.2528                 0.2403
  Atom  AN      X      Y      Z        X      Y      Z        X      Y      Z
     1   8    -0.03   0.07  -0.05    -0.04  -0.03   0.07    -0.05   0.01  -0.03
     2   6    -0.00  -0.01  -0.04    -0.06  -0.05   0.00    -0.03  -0.02   0.00
     3   6     0.01  -0.02  -0.03    -0.07  -0.06  -0.02     0.00  -0.00   0.02
     4   6    -0.03  -0.05   0.08     0.12  -0.00  -0.05     0.01   0.00  -0.02
     5   6     0.02  -0.01  -0.01    -0.07  -0.01  -0.03    -0.00  -0.01   0.04
     6   6     0.03  -0.01   0.02     0.08   0.06  -0.02    -0.00  -0.01   0.03
     7   6     0.00   0.01   0.01    -0.03   0.08  -0.00    -0.00  -0.01   0.04
     8   6     0.01   0.01   0.01    -0.03   0.08   0.02     0.01   0.01   0.00
     9   6     0.03   0.01   0.01     0.14   0.07   0.07     0.08   0.05  -0.05
    10   6    -0.01  -0.01  -0.01    -0.05  -0.05   0.00     0.01   0.05  -0.01
    11   6    -0.02  -0.00  -0.00    -0.04  -0.07  -0.05    -0.03  -0.09   0.00
    12   1     0.01  -0.00  -0.03    -0.11  -0.02  -0.01     0.01  -0.01   0.01
    13   1    -0.58  -0.07  -0.01     0.25  -0.05  -0.06    -0.00  -0.03  -0.04
    14   1     0.12  -0.18   0.60     0.12   0.20  -0.08     0.02   0.02  -0.00
    15   1     0.31   0.06  -0.26     0.18  -0.09  -0.05     0.03   0.03  -0.04
    16   1     0.03  -0.01  -0.01    -0.14   0.04  -0.03     0.01  -0.01   0.06
    17   1     0.04  -0.02   0.04     0.11   0.17  -0.00    -0.02  -0.01   0.01
    18   1     0.04  -0.02   0.02     0.18  -0.04  -0.04    -0.00  -0.01   0.04
    19   1     0.01   0.01   0.01    -0.06   0.06   0.02     0.04   0.02   0.00
    20   1     0.07   0.05  -0.10     0.27   0.05  -0.22     0.07  -0.02  -0.00
    21   1    -0.07   0.00   0.03    -0.08   0.10   0.17     0.20   0.03  -0.11
    22   1     0.11  -0.01   0.08     0.38   0.02   0.30     0.02   0.15  -0.11
    23   1    -0.01   0.04  -0.04    -0.05   0.05  -0.08     0.11  -0.42   0.13
    24   1    -0.05  -0.06  -0.04    -0.09  -0.19  -0.11     0.22   0.45   0.26
    25   1     0.01  -0.02   0.04    -0.03  -0.11   0.16    -0.29   0.17  -0.39
    26   1    -0.01  -0.00  -0.00    -0.00  -0.11  -0.19    -0.05  -0.12  -0.11
    27   1    -0.05   0.00  -0.00    -0.05  -0.19   0.03    -0.04  -0.18   0.07
                     10                     11                     12
                      A                      A                      A
 Frequencies --    334.5069               349.5561               414.3627
 Red. masses --      2.2103                 2.4719                 2.5177
 Frc consts  --      0.1457                 0.1780                 0.2547
 IR Inten    --      0.0236                 0.4294                 1.2978
  Atom  AN      X      Y      Z        X      Y      Z        X      Y      Z
     1   8    -0.03  -0.01  -0.04     0.12  -0.01  -0.01    -0.08   0.02  -0.05
     2   6    -0.02   0.03   0.00     0.09   0.02  -0.04    -0.04   0.00   0.03
     3   6    -0.03   0.07   0.04     0.04   0.06  -0.03    -0.03  -0.03   0.03
     4   6    -0.08   0.08   0.00    -0.06   0.04   0.01     0.02  -0.02  -0.00
     5   6    -0.05  -0.06  -0.01     0.02  -0.01  -0.06    -0.04   0.01   0.02
     6   6    -0.09  -0.10   0.06    -0.05  -0.07   0.08     0.05   0.03   0.08
     7   6     0.02  -0.01  -0.02     0.02   0.06  -0.01     0.03   0.09   0.03
     8   6     0.06   0.01  -0.02    -0.03   0.08   0.05     0.10   0.08  -0.11
     9   6     0.08   0.01  -0.01    -0.03   0.07   0.10    -0.12  -0.02   0.06
    10   6     0.16   0.07   0.05    -0.14  -0.10  -0.03     0.14  -0.09  -0.13
    11   6    -0.01  -0.09  -0.05     0.06  -0.06  -0.07     0.00  -0.01   0.03
    12   1    -0.06   0.07   0.06     0.02   0.05  -0.01    -0.04  -0.04   0.05
    13   1    -0.07   0.07  -0.01    -0.08   0.09   0.04     0.05  -0.05  -0.02
    14   1    -0.10   0.03  -0.05    -0.07  -0.08  -0.03     0.02   0.05  -0.00
    15   1    -0.15   0.13   0.03    -0.13   0.07   0.05     0.04  -0.03  -0.02
    16   1    -0.03  -0.15  -0.13     0.06  -0.12  -0.18    -0.09   0.01  -0.02
    17   1    -0.16  -0.16  -0.02    -0.14  -0.21  -0.00     0.06   0.08   0.08
    18   1    -0.10  -0.11   0.23    -0.10  -0.04   0.28     0.12  -0.03   0.12
    19   1     0.05   0.02  -0.02    -0.06   0.08   0.06     0.12   0.06  -0.14
    20   1     0.12   0.03  -0.11    -0.04   0.02   0.15    -0.25   0.07   0.30
    21   1    -0.01   0.01   0.02    -0.00   0.12   0.15    -0.16   0.08   0.19
    22   1     0.16  -0.01   0.07    -0.06   0.02   0.08    -0.27  -0.33  -0.06
    23   1     0.03   0.37   0.10    -0.01  -0.30  -0.16     0.18  -0.25  -0.11
    24   1     0.08  -0.13  -0.09    -0.10  -0.07  -0.02     0.32  -0.13  -0.21
    25   1     0.43   0.03   0.24    -0.42  -0.14  -0.03    -0.02  -0.17  -0.03
    26   1    -0.05  -0.14  -0.24     0.05  -0.13  -0.32     0.03  -0.05  -0.11
    27   1     0.01  -0.27   0.06     0.05  -0.27   0.06    -0.03  -0.14   0.12
                     13                     14                     15
                      A                      A                      A
 Frequencies --    443.1794               463.1220               501.2509
 Red. masses --      2.7064                 3.8414                 2.6012
 Frc consts  --      0.3132                 0.4854                 0.3851
 IR Inten    --      1.2479                 4.2000                 2.6880
  Atom  AN      X      Y      Z        X      Y      Z        X      Y      Z
     1   8    -0.01  -0.05   0.03     0.08  -0.07   0.20     0.03   0.02  -0.11
     2   6    -0.04   0.08   0.02    -0.07  -0.07  -0.16     0.08   0.10   0.09
     3   6    -0.04   0.09   0.03    -0.04   0.04  -0.17    -0.02  -0.05   0.03
     4   6    -0.10   0.14   0.03     0.01   0.03  -0.01     0.02  -0.07   0.01
     5   6    -0.02  -0.11  -0.05     0.05   0.09   0.03    -0.06   0.04  -0.08
     6   6     0.26  -0.08   0.02     0.01   0.04   0.19     0.04   0.06   0.09
     7   6     0.02  -0.04  -0.01    -0.02   0.10   0.09    -0.05   0.15   0.01
     8   6     0.00  -0.04   0.02     0.05  -0.09   0.01    -0.05  -0.10   0.01
     9   6    -0.01  -0.03  -0.02    -0.03  -0.09  -0.09    -0.01  -0.11  -0.09
    10   6    -0.04  -0.01  -0.02     0.04   0.02  -0.02    -0.05   0.02   0.05
    11   6    -0.03   0.04  -0.03    -0.11   0.01  -0.10     0.06   0.01   0.05
    12   1    -0.12   0.13   0.08     0.09   0.13  -0.32    -0.11  -0.14   0.16
    13   1    -0.14   0.16   0.04    -0.04   0.13   0.05     0.08  -0.07   0.01
    14   1    -0.12   0.02  -0.00     0.05   0.06   0.11     0.02  -0.02  -0.01
    15   1    -0.18   0.19   0.06     0.12  -0.09  -0.02     0.03  -0.10   0.02
    16   1    -0.02  -0.13  -0.08     0.08   0.04  -0.02    -0.15   0.03  -0.18
    17   1     0.37   0.23   0.08     0.04  -0.10   0.26     0.11   0.07   0.18
    18   1     0.53  -0.31  -0.09    -0.05   0.09   0.23     0.11  -0.00   0.10
    19   1     0.01  -0.04   0.01     0.05  -0.12  -0.02    -0.14  -0.17  -0.03
    20   1    -0.02  -0.00  -0.01    -0.09   0.09  -0.06     0.00  -0.02  -0.16
    21   1    -0.00  -0.07  -0.06    -0.09  -0.21  -0.20    -0.05  -0.22  -0.20
    22   1    -0.03  -0.00  -0.04    -0.09  -0.08  -0.15     0.00  -0.00  -0.08
    23   1    -0.01  -0.08  -0.05     0.01   0.09  -0.00    -0.11   0.12   0.09
    24   1    -0.06   0.06   0.04    -0.03   0.06   0.04    -0.13   0.07   0.11
    25   1    -0.08   0.01  -0.10     0.15   0.07  -0.10     0.09   0.08  -0.04
    26   1    -0.11   0.05   0.03    -0.09  -0.03  -0.23     0.03  -0.11  -0.38
    27   1     0.03   0.07  -0.06    -0.36  -0.09   0.00     0.18  -0.37   0.27
                     16                     17                     18
                      A                      A                      A
 Frequencies --    557.7528               597.5200               627.9663
 Red. masses --      2.3827                 2.7483                 4.4834
 Frc consts  --      0.4367                 0.5781                 1.0417
 IR Inten    --      1.2730                 2.2612                 1.6223
  Atom  AN      X      Y      Z        X      Y      Z        X      Y      Z
     1   8    -0.06   0.05  -0.03    -0.01  -0.10   0.02     0.23   0.07  -0.10
     2   6    -0.02  -0.09  -0.04    -0.06   0.24   0.08     0.16   0.07  -0.14
     3   6    -0.07  -0.02   0.05    -0.01  -0.03  -0.08    -0.20  -0.03  -0.10
     4   6    -0.00   0.02  -0.00     0.02  -0.09   0.00    -0.03   0.02  -0.00
     5   6    -0.08  -0.00   0.01     0.03  -0.02  -0.02    -0.22  -0.06   0.13
     6   6    -0.03   0.03  -0.00    -0.05   0.01  -0.10    -0.03   0.06   0.03
     7   6     0.13   0.03  -0.02     0.05  -0.06   0.01    -0.03  -0.15   0.12
     8   6     0.16  -0.08   0.17     0.12  -0.02   0.10     0.01   0.01  -0.00
     9   6    -0.01  -0.00   0.00     0.01   0.05   0.04     0.01   0.02   0.01
    10   6    -0.02  -0.01   0.01     0.03  -0.01  -0.02     0.03  -0.00  -0.02
    11   6     0.08   0.01  -0.07    -0.09   0.09  -0.01    -0.02  -0.05   0.08
    12   1    -0.07  -0.00   0.04     0.00  -0.12  -0.05    -0.25  -0.08  -0.03
    13   1     0.07  -0.07  -0.06    -0.03   0.08   0.11     0.09   0.09   0.06
    14   1    -0.00   0.15  -0.02     0.04  -0.12   0.10     0.02   0.25   0.09
    15   1     0.04   0.02  -0.05     0.07  -0.24   0.05     0.15  -0.22  -0.00
    16   1    -0.21  -0.07  -0.21     0.01  -0.00  -0.01    -0.17  -0.03   0.22
    17   1    -0.17   0.11  -0.21    -0.09  -0.02  -0.14    -0.01   0.40  -0.03
    18   1     0.04  -0.05   0.17    -0.11   0.07  -0.12     0.19  -0.13  -0.13
    19   1     0.11  -0.09   0.17     0.15   0.02   0.11     0.11   0.06   0.01
    20   1    -0.09   0.27   0.04    -0.05   0.19   0.08     0.00  -0.00   0.04
    21   1    -0.08  -0.21  -0.20    -0.03  -0.03  -0.04     0.02   0.05   0.04
    22   1    -0.10   0.06  -0.09    -0.05   0.04  -0.02     0.00  -0.01   0.01
    23   1     0.10   0.03  -0.28     0.12  -0.01  -0.20     0.03  -0.02   0.01
    24   1    -0.34   0.03   0.13    -0.12   0.00   0.03     0.08  -0.00  -0.04
    25   1    -0.13   0.03  -0.12    -0.06  -0.00  -0.07     0.03  -0.01  -0.00
    26   1     0.24   0.05   0.10    -0.47  -0.01  -0.35    -0.30  -0.01   0.20
    27   1    -0.01   0.17  -0.15     0.16  -0.29   0.18    -0.07   0.06   0.02
                     19                     20                     21
                      A                      A                      A
 Frequencies --    723.0492               750.0129               823.2378
 Red. masses --      4.0468                 2.6790                 1.7106
 Frc consts  --      1.2465                 0.8879                 0.6830
 IR Inten    --      3.4352                 1.9523                 7.2769
  Atom  AN      X      Y      Z        X      Y      Z        X      Y      Z
     1   8     0.01  -0.01  -0.02    -0.09  -0.01   0.00    -0.01  -0.01   0.02
     2   6    -0.03   0.13  -0.04    -0.07   0.01   0.05    -0.03  -0.02  -0.02
     3   6    -0.02  -0.04   0.13    -0.10   0.00  -0.20     0.10   0.05  -0.05
     4   6     0.03  -0.12   0.01    -0.04   0.07  -0.03     0.04  -0.01  -0.02
     5   6    -0.00   0.02   0.30     0.02   0.03   0.08    -0.04  -0.09   0.08
     6   6     0.04  -0.06   0.08     0.04  -0.02   0.02    -0.06   0.02  -0.05
     7   6     0.09  -0.00  -0.08     0.06  -0.05  -0.03     0.03   0.07   0.03
     8   6    -0.08   0.03  -0.07    -0.02   0.02  -0.03     0.00   0.03  -0.02
     9   6    -0.01  -0.05  -0.04    -0.01  -0.03  -0.02     0.01  -0.05  -0.03
    10   6    -0.05   0.01   0.03    -0.04   0.01   0.03    -0.03   0.01   0.03
    11   6     0.01   0.11  -0.28     0.22  -0.02   0.06     0.01   0.02   0.08
    12   1     0.13  -0.10   0.04     0.03  -0.07  -0.27     0.21   0.15  -0.20
    13   1     0.09  -0.23  -0.06    -0.02   0.35   0.16    -0.12   0.08   0.02
    14   1     0.03   0.01   0.00     0.02   0.19   0.16     0.02  -0.28  -0.02
    15   1     0.08  -0.08  -0.05     0.14  -0.29   0.04    -0.09   0.07   0.04
    16   1    -0.06  -0.01   0.21     0.14   0.05   0.22    -0.08  -0.29  -0.23
    17   1    -0.17   0.08  -0.22    -0.05  -0.14  -0.06    -0.17   0.50  -0.30
    18   1     0.10  -0.12   0.36    -0.05   0.05   0.14     0.23  -0.23  -0.02
    19   1    -0.09   0.03  -0.07    -0.02   0.02  -0.02     0.00   0.02  -0.04
    20   1     0.05  -0.22  -0.08     0.02  -0.11  -0.04    -0.01  -0.05  -0.01
    21   1     0.05   0.06   0.06     0.02   0.02   0.03    -0.01  -0.03  -0.00
    22   1     0.06  -0.05   0.02     0.03  -0.01   0.02    -0.01  -0.11  -0.04
    23   1    -0.11   0.00   0.15    -0.05  -0.01   0.06    -0.04  -0.00   0.06
    24   1     0.07  -0.02  -0.02    -0.00  -0.01   0.01     0.02  -0.01  -0.00
    25   1    -0.03  -0.02   0.11    -0.06  -0.01   0.07    -0.06  -0.02   0.09
    26   1    -0.10   0.12  -0.23     0.26  -0.04  -0.01     0.04  -0.02  -0.08
    27   1     0.10   0.10  -0.29     0.46  -0.08   0.06    -0.04  -0.11   0.17
                     22                     23                     24
                      A                      A                      A
 Frequencies --    868.9740               878.6827               926.6065
 Red. masses --      2.7077                 2.3034                 1.6541
 Frc consts  --      1.2047                 1.0478                 0.8367
 IR Inten    --      4.2533                 1.3761                 3.4229
  Atom  AN      X      Y      Z        X      Y      Z        X      Y      Z
     1   8     0.02   0.02  -0.01    -0.02  -0.02   0.01     0.02  -0.01  -0.01
     2   6     0.02  -0.06  -0.05    -0.02   0.04   0.05     0.03   0.04   0.07
     3   6    -0.03  -0.05   0.01     0.07   0.08  -0.04     0.00   0.02  -0.02
     4   6    -0.03   0.05   0.02     0.05  -0.06  -0.04     0.00   0.00  -0.04
     5   6     0.04  -0.06   0.16    -0.07   0.03   0.01    -0.00  -0.02   0.03
     6   6     0.00  -0.15  -0.12    -0.04   0.03   0.10     0.05  -0.03  -0.06
     7   6    -0.11   0.15  -0.03    -0.07  -0.04  -0.02    -0.03   0.12  -0.02
     8   6    -0.03  -0.07   0.03    -0.07  -0.11   0.02    -0.00   0.03   0.02
     9   6    -0.01   0.07   0.07    -0.03   0.11   0.09     0.01  -0.05   0.02
    10   6     0.07  -0.03  -0.06     0.08  -0.04  -0.10     0.01   0.03  -0.01
    11   6     0.03   0.10   0.03     0.06  -0.06  -0.07    -0.08  -0.11   0.01
    12   1     0.08   0.03  -0.12     0.09   0.04  -0.04     0.00  -0.19   0.09
    13   1     0.04  -0.05  -0.04    -0.10   0.13   0.07    -0.04   0.24   0.12
    14   1    -0.03   0.18   0.01     0.05  -0.32  -0.00     0.03  -0.07   0.08
    15   1     0.01   0.08  -0.03    -0.04  -0.09   0.05     0.03  -0.20   0.05
    16   1     0.06   0.03   0.30    -0.01  -0.08  -0.08     0.07   0.03   0.17
    17   1     0.13  -0.07   0.03     0.04   0.31   0.14    -0.15  -0.17  -0.30
    18   1    -0.02  -0.12  -0.30     0.17  -0.15   0.02     0.01   0.00   0.33
    19   1    -0.22  -0.21  -0.04    -0.13  -0.16  -0.01    -0.06  -0.17  -0.16
    20   1    -0.02   0.23   0.01     0.02   0.11  -0.03    -0.02   0.17  -0.04
    21   1    -0.02  -0.09  -0.10     0.03  -0.00  -0.05    -0.02  -0.26  -0.20
    22   1    -0.04   0.24   0.03     0.01   0.38   0.13    -0.06   0.12  -0.05
    23   1     0.05   0.06  -0.10     0.01   0.06  -0.02     0.06  -0.05  -0.05
    24   1    -0.05   0.04   0.03     0.04   0.05  -0.01     0.10  -0.07  -0.12
    25   1     0.16   0.04  -0.19     0.27   0.05  -0.25    -0.13  -0.05   0.14
    26   1     0.17  -0.00  -0.35     0.15   0.00   0.16    -0.00  -0.02   0.33
    27   1     0.00  -0.21   0.22     0.22   0.16  -0.23    -0.17   0.19  -0.15
                     25                     26                     27
                      A                      A                      A
 Frequencies --    939.8903               954.8155               967.5471
 Red. masses --      1.2663                 1.5412                 1.3529
 Frc consts  --      0.6591                 0.8278                 0.7462
 IR Inten    --      4.3071                 1.3431                 5.9351
  Atom  AN      X      Y      Z        X      Y      Z        X      Y      Z
     1   8    -0.01   0.00   0.01    -0.00  -0.00   0.00     0.00   0.00   0.01
     2   6    -0.01  -0.02  -0.03    -0.02   0.02  -0.01    -0.02  -0.00  -0.05
     3   6    -0.00  -0.02   0.01    -0.00   0.05  -0.01    -0.01   0.01  -0.02
     4   6    -0.01   0.01   0.02     0.07  -0.04  -0.01     0.04  -0.02   0.03
     5   6     0.01   0.01  -0.03    -0.08  -0.05   0.00    -0.05  -0.02  -0.03
     6   6    -0.00   0.02   0.02    -0.02  -0.02   0.01     0.08   0.04  -0.02
     7   6     0.03  -0.05   0.02    -0.08   0.00   0.01     0.04  -0.01  -0.01
     8   6    -0.03   0.00   0.02     0.06   0.06   0.02    -0.04  -0.03  -0.01
     9   6    -0.03  -0.03   0.06     0.03  -0.06  -0.02    -0.01   0.02   0.01
    10   6    -0.01   0.06  -0.04    -0.00   0.04   0.04     0.01  -0.03  -0.02
    11   6     0.02   0.04   0.01     0.07   0.00  -0.05     0.01   0.01   0.07
    12   1    -0.01   0.07  -0.03    -0.14   0.24   0.00    -0.12   0.30  -0.07
    13   1     0.03  -0.13  -0.06    -0.12  -0.06  -0.04    -0.05  -0.21  -0.11
    14   1    -0.02   0.07  -0.04     0.02  -0.36  -0.10    -0.02  -0.19  -0.13
    15   1    -0.01   0.10  -0.03    -0.14   0.16   0.04    -0.12   0.26  -0.01
    16   1    -0.02  -0.03  -0.10     0.02   0.22   0.46    -0.02   0.17   0.27
    17   1    -0.02   0.03  -0.01     0.18  -0.11   0.30    -0.19  -0.25  -0.32
    18   1    -0.02   0.04  -0.02    -0.08   0.04  -0.21    -0.02   0.11   0.47
    19   1     0.19  -0.16  -0.23     0.06   0.02  -0.02    -0.12  -0.04   0.01
    20   1     0.07   0.01  -0.18    -0.03   0.09   0.03     0.00   0.00  -0.01
    21   1     0.10  -0.28  -0.26    -0.04  -0.12  -0.07     0.00   0.03   0.02
    22   1     0.01   0.45   0.08    -0.04  -0.12  -0.09     0.01   0.05   0.03
    23   1     0.03  -0.16   0.07     0.12  -0.08  -0.14    -0.04   0.07   0.03
    24   1     0.33  -0.12  -0.28    -0.02  -0.07  -0.05    -0.06   0.05   0.07
    25   1    -0.18  -0.11   0.29    -0.23  -0.05   0.16     0.14   0.04  -0.15
    26   1    -0.06   0.01  -0.12     0.14   0.01  -0.03    -0.17  -0.01   0.00
    27   1     0.08  -0.08   0.07     0.11   0.03  -0.07     0.08  -0.07   0.11
                     28                     29                     30
                      A                      A                      A
 Frequencies --    972.6814              1010.4263              1052.8178
 Red. masses --      1.4741                 2.4953                 1.8475
 Frc consts  --      0.8217                 1.5010                 1.2065
 IR Inten    --      0.1000                 1.6908                 9.0986
  Atom  AN      X      Y      Z        X      Y      Z        X      Y      Z
     1   8    -0.00  -0.00  -0.00     0.01  -0.00   0.01    -0.00  -0.01   0.00
     2   6    -0.00   0.01  -0.00    -0.02   0.02  -0.03    -0.03   0.08  -0.02
     3   6    -0.00  -0.01   0.00    -0.05   0.13  -0.01    -0.06   0.09  -0.01
     4   6     0.00   0.01   0.00    -0.01  -0.13   0.03    -0.04  -0.09   0.04
     5   6     0.00  -0.03  -0.01     0.01   0.19   0.02     0.08  -0.09  -0.05
     6   6    -0.01   0.02  -0.01     0.01  -0.12   0.00     0.00   0.02   0.01
     7   6     0.01  -0.00   0.03    -0.04  -0.02  -0.12    -0.02   0.07   0.10
     8   6     0.05  -0.05  -0.07     0.05   0.01  -0.04    -0.03   0.02   0.04
     9   6     0.08   0.07   0.04     0.05   0.02   0.01    -0.01  -0.02  -0.02
    10   6    -0.12  -0.03   0.01    -0.02   0.02   0.05     0.01  -0.01  -0.04
    11   6     0.02   0.00  -0.03    -0.02  -0.06   0.12     0.05  -0.05  -0.02
    12   1    -0.03  -0.02   0.03     0.06   0.29  -0.18    -0.17   0.16   0.05
    13   1    -0.01   0.02   0.01     0.18  -0.41  -0.13     0.17  -0.37  -0.11
    14   1    -0.00  -0.01   0.00    -0.02   0.19  -0.06    -0.05   0.26  -0.05
    15   1    -0.01   0.01   0.01     0.12  -0.05  -0.13     0.10  -0.03  -0.11
    16   1     0.02  -0.00   0.05     0.04  -0.01  -0.25     0.44  -0.24   0.07
    17   1     0.01  -0.02   0.02     0.08   0.05   0.05    -0.16   0.20  -0.24
    18   1    -0.04   0.04  -0.02     0.22  -0.32   0.03    -0.12   0.14  -0.21
    19   1     0.19  -0.15  -0.22    -0.03  -0.09  -0.11    -0.01   0.07   0.08
    20   1    -0.11   0.48   0.23    -0.05   0.23   0.10     0.01  -0.08  -0.02
    21   1    -0.15  -0.08  -0.05    -0.07  -0.06  -0.03     0.01   0.00   0.00
    22   1    -0.14  -0.14  -0.15    -0.06  -0.09  -0.08     0.01  -0.02   0.01
    23   1    -0.35   0.02   0.48     0.04  -0.02  -0.07    -0.05   0.04   0.06
    24   1     0.21   0.06  -0.01    -0.08  -0.04   0.02     0.08   0.04  -0.02
    25   1     0.22   0.01   0.05    -0.14  -0.02   0.10     0.11   0.02  -0.07
    26   1     0.02   0.01  -0.00    -0.12  -0.05   0.16     0.25  -0.02   0.09
    27   1    -0.00   0.02  -0.03     0.13  -0.00   0.06    -0.03   0.08  -0.08
                     31                     32                     33
                      A                      A                      A
 Frequencies --   1068.5007              1078.8836              1083.0468
 Red. masses --      1.4840                 1.5783                 1.6889
 Frc consts  --      0.9982                 1.0824                 1.1672
 IR Inten    --      7.3995                11.4701                 6.2038
  Atom  AN      X      Y      Z        X      Y      Z        X      Y      Z
     1   8    -0.01   0.00  -0.00    -0.01   0.01   0.00     0.01  -0.01   0.00
     2   6     0.03  -0.05   0.05     0.01  -0.04  -0.01    -0.03   0.10  -0.02
     3   6     0.07  -0.06  -0.03    -0.03   0.12   0.05     0.02  -0.08  -0.03
     4   6    -0.05   0.03   0.04    -0.01  -0.07  -0.06    -0.02   0.03   0.06
     5   6     0.00  -0.02  -0.07     0.00  -0.00  -0.03     0.03  -0.04   0.05
     6   6    -0.06   0.05   0.03    -0.06   0.03  -0.10    -0.06   0.08  -0.11
     7   6    -0.06  -0.03  -0.02     0.04  -0.01   0.03    -0.01   0.04   0.04
     8   6    -0.01   0.02  -0.00     0.01  -0.02   0.03    -0.02   0.02   0.02
     9   6     0.04  -0.01  -0.00    -0.03   0.00  -0.01     0.00  -0.02  -0.01
    10   6     0.02   0.01   0.02    -0.02  -0.00  -0.03     0.01  -0.00  -0.02
    11   6    -0.02   0.04  -0.04     0.01   0.05   0.01     0.03  -0.08  -0.01
    12   1     0.14  -0.10  -0.06    -0.03  -0.02   0.12     0.17   0.04  -0.21
    13   1     0.10  -0.11  -0.04     0.03   0.10   0.06     0.04  -0.20  -0.08
    14   1    -0.04   0.27   0.00     0.04  -0.01   0.07    -0.05   0.13  -0.06
    15   1     0.05   0.08  -0.06     0.09  -0.29  -0.00    -0.02   0.22  -0.04
    16   1     0.42   0.02   0.39     0.17   0.07   0.22    -0.22  -0.10  -0.26
    17   1    -0.08   0.26  -0.04     0.19  -0.18   0.26     0.29  -0.31   0.44
    18   1     0.26  -0.25   0.30     0.32  -0.34   0.38     0.14  -0.12   0.31
    19   1    -0.09  -0.02  -0.01     0.17   0.08   0.07    -0.02   0.04   0.05
    20   1    -0.04   0.16   0.08     0.03  -0.15  -0.06    -0.00  -0.01   0.00
    21   1    -0.06  -0.06  -0.02     0.06   0.06   0.03    -0.01  -0.03  -0.01
    22   1    -0.05  -0.10  -0.08     0.05   0.06   0.06    -0.00  -0.03  -0.01
    23   1     0.08   0.01  -0.12    -0.07  -0.02   0.11    -0.00  -0.01   0.01
    24   1    -0.05  -0.02   0.01     0.11   0.02  -0.04     0.03   0.01  -0.02
    25   1    -0.08   0.00   0.00     0.08  -0.00   0.00     0.04   0.00  -0.02
    26   1    -0.19   0.04  -0.05     0.11   0.01  -0.13    -0.03  -0.02   0.21
    27   1     0.23  -0.02  -0.04    -0.25  -0.08   0.13     0.16   0.11  -0.14
                     34                     35                     36
                      A                      A                      A
 Frequencies --   1123.9515              1140.0088              1146.7065
 Red. masses --      2.1764                 2.0891                 1.6546
 Frc consts  --      1.6199                 1.5997                 1.2819
 IR Inten    --     13.2019                10.2884                 5.0150
  Atom  AN      X      Y      Z        X      Y      Z        X      Y      Z
     1   8     0.00   0.01  -0.02    -0.00  -0.00  -0.02     0.01  -0.01   0.01
     2   6     0.06  -0.06   0.10     0.04   0.01   0.10    -0.04   0.06  -0.04
     3   6    -0.03  -0.03  -0.06    -0.08  -0.07  -0.10     0.11  -0.01   0.01
     4   6     0.04   0.01   0.02     0.05   0.03   0.05    -0.05   0.01   0.02
     5   6    -0.01   0.11   0.02     0.06   0.02   0.02    -0.08  -0.00  -0.07
     6   6     0.02  -0.08  -0.02    -0.05  -0.01  -0.00     0.01  -0.07   0.02
     7   6    -0.06   0.01  -0.00     0.02   0.07  -0.02    -0.01   0.06  -0.00
     8   6    -0.01   0.04   0.18     0.11  -0.10  -0.07     0.07  -0.05   0.02
     9   6     0.02  -0.05  -0.05    -0.09   0.07  -0.01    -0.05   0.02  -0.02
    10   6    -0.02   0.00  -0.12    -0.04   0.01   0.05    -0.03   0.00  -0.01
    11   6    -0.04   0.02  -0.03    -0.04  -0.03  -0.03     0.01  -0.04   0.02
    12   1    -0.08   0.11  -0.09    -0.30   0.07   0.02     0.39  -0.07  -0.19
    13   1    -0.07  -0.03  -0.03    -0.10  -0.12  -0.07     0.12  -0.07  -0.01
    14   1    -0.00  -0.11  -0.08    -0.02  -0.14  -0.14    -0.03   0.24   0.05
    15   1    -0.09   0.18   0.02    -0.15   0.32   0.03     0.10  -0.06  -0.06
    16   1    -0.03   0.03  -0.11     0.27  -0.05   0.11    -0.30   0.42   0.33
    17   1    -0.08   0.01  -0.17     0.01   0.15   0.04    -0.08   0.07  -0.12
    18   1     0.04  -0.11   0.01     0.12  -0.16   0.02    -0.01  -0.06  -0.10
    19   1     0.25   0.29   0.33     0.27  -0.12  -0.15     0.26   0.04   0.03
    20   1    -0.02  -0.09   0.06     0.06  -0.27  -0.12     0.03  -0.20  -0.07
    21   1    -0.03   0.01   0.04     0.14   0.26   0.13     0.09   0.15   0.08
    22   1     0.01  -0.20  -0.04     0.12   0.17   0.17     0.08   0.07   0.10
    23   1    -0.19  -0.02   0.29    -0.01  -0.04   0.02    -0.09  -0.03   0.14
    24   1     0.38   0.07  -0.18    -0.07  -0.03   0.03     0.08   0.01  -0.03
    25   1     0.26  -0.01   0.00    -0.12  -0.03   0.11     0.04  -0.01   0.05
    26   1    -0.04   0.03  -0.03     0.02  -0.00   0.08     0.08  -0.02   0.08
    27   1     0.23   0.00  -0.06    -0.19   0.05  -0.05    -0.01   0.04  -0.02
                     37                     38                     39
                      A                      A                      A
 Frequencies --   1181.0104              1187.6028              1207.0007
 Red. masses --      1.9241                 1.8608                 1.5562
 Frc consts  --      1.5812                 1.5463                 1.3357
 IR Inten    --     11.7367                16.2758                 8.8813
  Atom  AN      X      Y      Z        X      Y      Z        X      Y      Z
     1   8     0.00  -0.02   0.02    -0.01   0.00  -0.01     0.00   0.00   0.02
     2   6    -0.07   0.11  -0.10     0.05  -0.04   0.09    -0.04  -0.03  -0.12
     3   6     0.00  -0.10  -0.00    -0.00   0.03  -0.04    -0.02  -0.02   0.08
     4   6     0.04   0.05   0.02    -0.01  -0.02   0.01     0.02   0.01  -0.04
     5   6     0.06   0.09  -0.04    -0.03  -0.02  -0.00     0.05   0.01  -0.01
     6   6    -0.06  -0.06   0.01    -0.03  -0.02   0.02    -0.02  -0.01   0.00
     7   6     0.05  -0.04  -0.01     0.10   0.02  -0.03    -0.04   0.09   0.00
     8   6    -0.04   0.07   0.01     0.04   0.15  -0.04     0.06   0.02   0.00
     9   6     0.02  -0.04   0.03    -0.03  -0.08   0.06    -0.04  -0.02  -0.00
    10   6     0.00  -0.03  -0.02    -0.02  -0.10   0.00    -0.02  -0.03   0.00
    11   6     0.04  -0.03   0.05    -0.01  -0.01  -0.02     0.03  -0.03   0.03
    12   1    -0.26  -0.27   0.28     0.11   0.16  -0.20    -0.14  -0.09   0.21
    13   1    -0.09   0.02  -0.01     0.03  -0.06  -0.02    -0.06   0.15   0.05
    14   1     0.00  -0.13  -0.05    -0.01   0.07  -0.01     0.04  -0.13   0.05
    15   1    -0.10   0.16   0.06     0.03   0.01  -0.03    -0.03  -0.10   0.06
    16   1     0.04   0.24   0.15    -0.01   0.05   0.12     0.15  -0.04   0.01
    17   1    -0.06   0.23  -0.05     0.10   0.01   0.18     0.00   0.07   0.01
    18   1     0.20  -0.30   0.00    -0.06   0.02  -0.23     0.03  -0.06  -0.04
    19   1    -0.14   0.09   0.07    -0.07   0.12  -0.03     0.09   0.02  -0.02
    20   1     0.01   0.09  -0.03     0.07  -0.02  -0.19     0.02  -0.09  -0.06
    21   1    -0.01  -0.18  -0.12     0.09  -0.29  -0.23     0.06   0.01  -0.00
    22   1    -0.05   0.03  -0.05    -0.03   0.28   0.04     0.04   0.10   0.06
    23   1    -0.05   0.06   0.03    -0.16   0.16   0.11    -0.07   0.04   0.07
    24   1     0.01   0.05   0.03    -0.13   0.14   0.22    -0.01   0.05   0.06
    25   1     0.11   0.03  -0.10     0.25   0.06  -0.24     0.07   0.01  -0.04
    26   1     0.31  -0.04   0.01    -0.34   0.02   0.08    -0.54   0.01   0.15
    27   1    -0.35  -0.00   0.09    -0.19   0.01  -0.01     0.62   0.02  -0.09
                     40                     41                     42
                      A                      A                      A
 Frequencies --   1233.9046              1294.2245              1296.0370
 Red. masses --      1.6307                 1.8833                 2.0869
 Frc consts  --      1.4628                 1.8587                 2.0654
 IR Inten    --      0.3822                 1.7948                 1.1551
  Atom  AN      X      Y      Z        X      Y      Z        X      Y      Z
     1   8     0.02   0.00  -0.00     0.00   0.01  -0.02    -0.04  -0.00   0.01
     2   6    -0.00   0.00  -0.01     0.02  -0.00   0.05     0.01  -0.05   0.02
     3   6     0.03   0.01  -0.02    -0.07  -0.05   0.06     0.09   0.08  -0.11
     4   6    -0.00  -0.00   0.01    -0.00  -0.01  -0.05    -0.01  -0.02   0.05
     5   6    -0.01   0.02   0.02     0.12   0.02  -0.06    -0.04   0.06   0.02
     6   6     0.04   0.01  -0.03    -0.03  -0.05  -0.02     0.02  -0.06  -0.05
     7   6    -0.13  -0.06   0.04    -0.00   0.00   0.16    -0.05   0.01   0.16
     8   6     0.06   0.07  -0.07    -0.07  -0.01  -0.06    -0.03  -0.01  -0.03
     9   6    -0.03  -0.04   0.04     0.02  -0.00   0.01     0.00   0.01  -0.00
    10   6     0.00  -0.06   0.05     0.04  -0.00   0.03     0.03  -0.00   0.02
    11   6    -0.08   0.03  -0.01     0.01  -0.00  -0.06     0.13   0.02  -0.06
    12   1    -0.05  -0.10   0.10     0.00   0.54  -0.29    -0.22  -0.42   0.39
    13   1     0.02  -0.03  -0.01    -0.06   0.15   0.05     0.07  -0.14  -0.03
    14   1    -0.01   0.02  -0.01     0.03  -0.01   0.07    -0.04   0.10  -0.09
    15   1     0.01   0.02  -0.02    -0.03  -0.12   0.04     0.05   0.13  -0.08
    16   1    -0.03  -0.09  -0.14    -0.36   0.38  -0.02    -0.21   0.07  -0.13
    17   1    -0.06  -0.10  -0.14    -0.12   0.10  -0.18    -0.04  -0.12  -0.14
    18   1     0.02   0.02   0.19     0.14  -0.21   0.02     0.04  -0.09  -0.02
    19   1     0.40   0.18  -0.08     0.12   0.04  -0.08     0.08  -0.04  -0.11
    20   1     0.03  -0.00  -0.11    -0.01   0.07   0.03    -0.00   0.01   0.01
    21   1     0.08  -0.12  -0.09    -0.05  -0.03  -0.00    -0.01   0.01   0.01
    22   1    -0.00   0.20   0.05    -0.04   0.02  -0.04    -0.01  -0.00  -0.01
    23   1    -0.03   0.11  -0.01     0.07   0.03  -0.08     0.05   0.02  -0.05
    24   1    -0.19   0.06   0.20    -0.14  -0.04   0.05    -0.09  -0.02   0.04
    25   1     0.05   0.03  -0.13    -0.11   0.01  -0.05    -0.06   0.00  -0.03
    26   1     0.56  -0.01  -0.14    -0.02   0.02   0.03    -0.50   0.04  -0.02
    27   1     0.30  -0.03  -0.03     0.09   0.02  -0.08    -0.22   0.05  -0.03
                     43                     44                     45
                      A                      A                      A
 Frequencies --   1312.5809              1344.3447              1362.3238
 Red. masses --      1.5496                 1.6337                 1.3415
 Frc consts  --      1.5730                 1.7396                 1.4670
 IR Inten    --     19.7323                 1.8368                 2.7164
  Atom  AN      X      Y      Z        X      Y      Z        X      Y      Z
     1   8     0.00  -0.00  -0.01    -0.01  -0.01   0.00    -0.00  -0.00   0.00
     2   6    -0.01   0.03  -0.01    -0.01   0.03   0.00     0.00  -0.00   0.00
     3   6    -0.09  -0.03   0.08     0.12  -0.10   0.01     0.01   0.01  -0.01
     4   6     0.05   0.02  -0.00    -0.07   0.01  -0.05    -0.01  -0.00   0.00
     5   6    -0.04   0.05  -0.04    -0.02   0.02   0.04     0.01  -0.02   0.01
     6   6     0.04  -0.00  -0.01     0.02   0.01  -0.00     0.01   0.01   0.01
     7   6    -0.10  -0.02   0.01    -0.09  -0.02  -0.05    -0.01   0.03  -0.02
     8   6    -0.00  -0.00  -0.01     0.04   0.01   0.03     0.01  -0.10  -0.11
     9   6     0.00  -0.01   0.01    -0.01  -0.00  -0.00     0.02  -0.03   0.06
    10   6     0.01  -0.01   0.02    -0.01  -0.01   0.00    -0.01   0.05  -0.01
    11   6     0.11  -0.00  -0.01     0.08  -0.00   0.00     0.01  -0.01   0.01
    12   1     0.51  -0.17  -0.34    -0.42   0.65   0.08    -0.06   0.01   0.04
    13   1    -0.10   0.01  -0.02     0.12   0.13   0.06     0.01  -0.00   0.00
    14   1     0.03  -0.16  -0.01    -0.00   0.10   0.14    -0.01   0.01  -0.01
    15   1    -0.09   0.06   0.08     0.09  -0.20  -0.05     0.02  -0.00  -0.01
    16   1     0.36  -0.24  -0.08     0.10  -0.15  -0.07    -0.04   0.01   0.01
    17   1    -0.04  -0.06  -0.11     0.00   0.03  -0.02     0.00   0.04  -0.00
    18   1    -0.01   0.04   0.04    -0.03   0.06   0.14    -0.02   0.03   0.03
    19   1     0.26   0.12   0.01     0.07  -0.02  -0.02    -0.07   0.63   0.64
    20   1     0.00   0.02  -0.01     0.01  -0.03  -0.03     0.01   0.19  -0.03
    21   1     0.01  -0.02  -0.02     0.05   0.02  -0.00     0.01  -0.11  -0.04
    22   1    -0.01   0.03   0.00     0.02  -0.00   0.03    -0.06   0.18  -0.01
    23   1     0.02   0.03  -0.04    -0.01   0.01  -0.00    -0.01  -0.08   0.07
    24   1    -0.03  -0.00   0.03     0.04   0.03   0.01    -0.01  -0.05  -0.08
    25   1    -0.00   0.01  -0.04     0.05   0.00  -0.00    -0.12  -0.02   0.10
    26   1    -0.20  -0.00  -0.03    -0.15  -0.01  -0.06    -0.07  -0.01  -0.01
    27   1    -0.38   0.04   0.04    -0.34   0.06   0.02    -0.03   0.03  -0.01
                     46                     47                     48
                      A                      A                      A
 Frequencies --   1391.4755              1410.1432              1428.7808
 Red. masses --      1.5408                 2.0986                 1.2605
 Frc consts  --      1.7577                 2.4587                 1.5161
 IR Inten    --      4.4554                 0.5300                 2.8982
  Atom  AN      X      Y      Z        X      Y      Z        X      Y      Z
[...]
 9,-0.00005728,-0.00007219,-0.00006081,-0.00013489,0.00003416,0.0002515
 5,0.00019730,-0.00003482,-0.00006238,-0.00005317,-0.00003947,0.0001014
 4,-0.00013340,-0.00035285,0.00065439,-0.00047417,-0.11966444,0.1508819
 2,0.00020307,-0.00005461,0.00001752,-0.00009220,0.00009055,-0.00003360
 ,-0.00014293,0.00001399,-0.00009823,0.00006488,-0.00004766,-0.00020204
 ,-0.00037143,0.00049684,0.00065179,0.00203514,0.00024601,-0.00074851,-
 0.00177219,0.00085924,-0.00693665,0.02315629,-0.02066319,-0.01338799,0
 .07365415,-0.06325907,-0.09158998,0.00164776,-0.00069114,0.00108525,-0
 .00047873,-0.00035669,-0.00013461,0.00005532,-0.00002561,0.00001421,-0
 .00001422,0.00001235,0.00002704,0.00000190,0.00001049,0.00006750,0.000
 02994,-0.00000984,0.00011585,-0.00005756,-0.00029660,0.00006812,-0.000
 05551,0.00012612,0.00000156,-0.00003405,-0.00070789,-0.00038972,0.0000
 6552,0.00040696,0.00144772,-0.08131495,0.06956070,0.10084111,-0.000027
 30,0.00019170,-0.00004437,0.00000875,-0.00053922,0.00017393,-0.0000530
 6,0.00012054,0.00000630,0.00002455,0.00026383,0.00047269,-0.00006102,0
 .00040279,-0.00018130,0.00009679,-0.00015686,-0.00019111,0.00016188,-0
 .00128799,0.00020994,-0.00100298,-0.00005496,0.00031795,-0.06235388,-0
 .05333155,0.01268207,0.00042909,0.00106251,-0.00011132,-0.00052255,0.0
 0012489,-0.00006440,0.00002742,0.00002814,-0.00006142,-0.00000371,-0.0
 0000162,-0.00005284,0.00005232,-0.00008582,-0.00012775,-0.00016755,-0.
 00007453,-0.00025556,0.00014826,0.00020098,0.00016165,-0.00000061,0.00
 001109,-0.00007233,-0.00002922,0.00006278,-0.00008812,0.00067956,0.000
 14484,-0.00004229,0.00601104,0.02260429,-0.00654799,0.06158548,-0.0000
 9620,0.00014374,-0.00002095,0.00009334,-0.00035502,0.00007412,0.000000
 08,0.00018214,0.00011942,0.00005078,0.00011017,0.00026297,-0.00043699,
 0.00028514,-0.00040412,0.00008913,-0.00011141,-0.00009490,0.00049190,0
 .00033141,-0.00033962,-0.00082453,-0.00419878,0.00177328,-0.05348978,-
 0.28318886,0.05683836,-0.00018049,0.00052323,-0.00049942,-0.00010434,0
 .00015561,0.00000315,-0.00004775,0.00003242,-0.00004278,0.00000790,0.0
 0000411,-0.00003754,0.00002447,-0.00005395,-0.00006808,-0.00005533,-0.
 00008194,-0.00016058,0.00020311,0.00014638,-0.00010963,-0.00000695,-0.
 00003077,0.00001846,-0.00000327,0.00013276,-0.00005306,0.00019649,0.00
 140528,0.00089189,-0.00499789,-0.01763667,0.00420037,0.05920434,0.3077
 4595,-0.00003575,-0.00010765,0.00000355,0.00003067,0.00022068,0.000022
 76,0.00007384,-0.00029030,0.00003524,-0.00002486,0.00000310,-0.0000274
 1,0.00040162,-0.00078873,0.00011406,-0.00038175,-0.00001210,0.00046326
 ,-0.00090531,0.00182939,0.00154142,0.00751392,0.03355860,-0.00931038,0
 .01276250,0.05627547,-0.06221382,0.00119923,0.00072947,0.00185732,0.00
 005202,-0.00021662,-0.00008783,-0.00004027,0.00000368,0.00000550,0.000
 01614,-0.00002401,0.00000380,-0.00002655,0.00001459,0.00000753,0.00004
 316,-0.00000169,0.00007176,-0.00005839,-0.00058991,-0.00034506,0.00002
 342,0.00002705,-0.00000481,-0.00000005,-0.00003975,0.00018488,0.000075
 06,0.00060507,-0.00707962,-0.00432701,-0.01294750,0.00295435,-0.014036
 51,-0.06382986,0.06870287,0.00005112,0.00005144,0.00003141,0.00015348,
 -0.00028588,-0.00003341,-0.00005968,0.00008128,-0.00007802,0.00008168,
 -0.00005903,-0.00013572,0.00000613,-0.00003165,0.00002808,0.00024055,-
 0.00000542,-0.00008721,-0.00045744,0.00022130,-0.00025473,0.00165251,0
 .00079963,0.00058734,-0.25478840,-0.05396065,-0.09356848,0.00075717,0.
 00070694,-0.00052367,-0.00088442,-0.00015656,0.00100663,0.00004935,-0.
 00001644,0.00002522,-0.00001198,0.00003945,0.00002549,0.00000550,0.000
 00565,0.00004027,-0.00003826,-0.00001019,0.00006905,0.00002804,0.00004
 802,0.00002470,0.00000864,0.00004814,0.00005331,0.00004322,-0.00007709
 ,-0.00006655,0.00027744,0.00031242,-0.00052142,-0.01994508,-0.00627918
 ,-0.00890860,-0.00549723,-0.00096645,-0.00158916,0.27855278,-0.0000050
 2,0.00000200,0.00005803,0.00014065,-0.00006916,-0.00019843,-0.00001241
 ,0.00003172,-0.00012787,0.00009870,-0.00015998,-0.00030466,-0.00016647
 ,-0.00035294,0.00003368,0.00017971,0.00001157,0.00018183,-0.00067880,0
 .00015631,-0.00039265,0.00492299,-0.00026749,0.00134524,-0.05391880,-0
 .06404707,-0.02440050,0.00017559,0.00041085,0.00068452,-0.00001112,-0.
 00012637,0.00001399,0.00002286,-0.00002026,0.00005416,-0.00002639,0.00
 008713,0.00007496,-0.00001484,0.00004924,0.00006373,-0.00001324,-0.000
 07970,0.00014598,0.00006809,0.00010802,0.00000441,-0.00000284,0.000010
 55,0.00002889,0.00001700,0.00000327,0.00000237,0.00048070,0.00026523,-
 0.00041867,0.01804761,0.00522643,0.00917338,-0.02890585,-0.00608836,-0
 .01321565,0.05963335,0.06330866,-0.00027893,0.00023604,-0.00004546,0.0
 0063133,-0.00080474,0.00024038,-0.00005308,0.00006539,-0.00021723,0.00
 009526,0.00001351,0.00000054,0.00026183,-0.00028788,-0.00019342,-0.000
 01017,-0.00013687,0.00025732,-0.00114730,0.00017164,0.00109361,-0.0302
 5695,-0.00874148,-0.01099295,-0.09296539,-0.02441658,-0.09132135,0.001
 98554,0.00159538,-0.00695213,-0.00011948,-0.00013544,-0.00064628,0.000
 04335,0.00002056,0.00002597,-0.00000119,0.00005628,-0.00001484,-0.0000
 1301,-0.00000137,0.00002243,-0.00002497,-0.00005829,0.00006130,-0.0000
 0542,0.00014137,0.00004932,0.00001713,0.00021207,0.00017142,0.00010310
 ,-0.00000082,0.00004175,0.00026310,0.00035164,0.00139940,0.01211984,0.
 00443385,0.00570706,0.00759165,0.00088894,0.00295001,0.10205656,0.0262
 9723,0.09892734,-0.00045989,0.00036013,0.00000397,-0.00017794,-0.00073
 594,-0.00006959,0.00011207,0.00015572,0.00004324,-0.00003122,0.0000026
 6,0.00009808,-0.00013996,-0.00027199,-0.00022624,0.00006731,-0.0007120
 7,-0.00060781,-0.00388099,-0.00315978,-0.00316941,-0.02198229,0.017525
 65,0.01470444,0.00081788,0.00083855,0.00168065,-0.17264970,0.09800474,
 0.08806426,-0.00064718,0.00161883,0.00069668,-0.00005211,0.00005629,-0
 .00000948,0.00001064,0.00002077,-0.00001879,-0.00001453,0.00000204,-0.
 00002432,0.00000160,-0.00001500,-0.00001509,0.00006365,0.00014280,-0.0
 0001003,0.00017379,-0.00002026,0.00008603,0.00004200,0.00010485,0.0000
 9716,0.00103646,-0.00038183,0.00044128,0.00037413,-0.00041463,-0.00118
 192,0.00001058,-0.00001536,-0.00016413,0.00045976,-0.00043848,0.000156
 50,0.18951705,0.00003740,0.00008616,-0.00000015,-0.00005802,-0.0001482
 5,0.00001334,-0.00000140,0.00026834,-0.00002515,0.00001319,-0.00000144
 ,-0.00003265,-0.00036162,0.00001657,-0.00004652,-0.00017023,-0.0001744
 0,-0.00020753,-0.00129512,0.00026598,-0.00072350,-0.00613869,0.0037527
 4,0.00403760,-0.00004937,0.00009730,-0.00003695,0.09874425,-0.12599617
 ,-0.06844105,-0.00027270,0.00028114,-0.00000791,0.00001115,-0.00000072
 ,-0.00000107,-0.00001040,0.00000627,-0.00000285,0.00001157,-0.00000540
 ,0.00001376,-0.00000712,0.00000496,0.00000588,-0.00007246,0.00032432,-
 0.00014510,0.00014284,-0.00017961,0.00028642,0.00009843,0.00007041,0.0
 0007121,0.00035129,0.00058823,0.00053804,0.00002498,0.00032271,0.00025
 275,0.00015400,-0.00012791,-0.00007936,-0.00019734,0.00001226,0.000253
 33,-0.10678801,0.13285249,-0.00002316,0.00010582,0.00000257,-0.0002355
 7,-0.00019470,-0.00001521,-0.00005270,-0.00005326,0.00016479,0.0000738
 0,0.00000756,0.00000451,0.00017640,-0.00016219,-0.00017340,0.00001033,
 -0.00028479,-0.00019025,-0.00226932,-0.00097420,-0.00153632,-0.0095859
 2,0.00784017,0.00500370,-0.00115328,0.00061042,0.00068057,0.08927076,-
 0.06883049,-0.11112028,-0.00045003,0.00040458,0.00044499,-0.00000351,0
 .00001074,-0.00001012,-0.00000350,-0.00000030,-0.00000431,0.00000910,-
 0.00001742,0.00002213,-0.00000702,0.00000102,-0.00000160,0.00005251,-0
 .00007231,0.00004253,0.00037030,0.00044717,0.00041347,0.00024270,-0.00
 003883,0.00016381,0.00071953,0.00012939,0.00014721,-0.00024134,-0.0002
 2415,-0.00011726,0.00002344,0.00006667,-0.00005237,0.00016346,0.000101
 45,0.00021092,-0.09520042,0.07678010,0.11861238,0.00002039,0.00016269,
 -0.00001296,0.00015743,-0.00034958,0.00004510,-0.00007865,0.00033687,-
 0.00022363,0.00003839,0.00001085,-0.00002753,-0.00054141,-0.00006785,0
 .00039822,-0.00023577,0.00008846,0.00003799,0.00152867,-0.00082180,0.0
 0025077,-0.00672963,-0.03182332,0.00430521,0.00099152,-0.00004048,0.00
 162335,-0.06164417,-0.05515736,0.00645475,-0.00011945,0.00032940,-0.00
 012814,0.00007410,-0.00000038,0.00000213,-0.00001664,0.00002365,-0.000
 00874,0.00001839,-0.00001419,0.00002430,-0.00001926,-0.00000582,-0.000
 00018,-0.00021235,0.00094114,-0.00009009,-0.00014181,-0.00006398,0.000
 42706,0.00014932,0.00010414,0.00002048,-0.00578354,-0.00127661,-0.0028
 9348,-0.00001821,0.00009987,-0.00011418,0.00030444,0.00056351,-0.00064
 277,0.00002029,0.00035442,0.00015186,0.00591702,0.02259243,-0.00404213
 ,0.06655874,-0.00004454,0.00018711,-0.00000676,0.00008036,-0.00043486,
 0.00000551,0.00012718,0.00043338,0.00011167,-0.00000305,-0.00001702,0.
 00000093,-0.00004530,-0.00009730,-0.00007601,-0.00004973,0.00000582,-0
 .00010081,0.00063970,-0.00019843,-0.00062355,-0.00248615,-0.00639020,0
 .00096872,0.00029120,0.00028416,0.00042670,-0.05516038,-0.29029905,0.0
 2976194,-0.00016511,0.00032782,0.00008173,-0.00005259,0.00003538,-0.00
 001737,-0.00000686,0.00002440,-0.00000318,0.00000717,-0.00000158,0.000
 00089,-0.00000691,-0.00001196,-0.00000013,0.00041039,0.00016159,-0.000
 27059,0.00000715,-0.00014994,0.00029271,0.00013039,0.00008145,0.000103
 19,-0.00133321,0.00124026,-0.00088575,-0.00005122,-0.00001590,0.000068
 06,-0.00016223,0.00034783,-0.00077035,-0.00001720,0.00034535,-0.000204
 73,-0.00390703,-0.01693527,0.00281571,0.06224418,0.31710873,-0.0000854
 9,-0.00001574,-0.00000722,0.00011070,0.00003474,0.00001567,0.00000073,
 -0.00004432,-0.00004957,-0.00001986,0.00001444,0.00004676,0.00010057,0
 .00001975,0.00011364,0.00027698,0.00000706,0.00030584,0.00036421,0.000
 32718,0.00029076,-0.00159453,-0.01237812,0.00080652,0.00032030,-0.0013
 3836,0.00108408,0.00654820,0.02939948,-0.05436533,0.00004590,0.0000283
 2,-0.00011046,0.00000738,0.00000134,-0.00000825,0.00000083,0.00001095,
 0.00000059,-0.00000021,0.00000400,-0.00002144,-0.00000690,-0.00001441,
 -0.00002038,0.00000655,0.00008389,0.00023813,0.00004538,0.00021276,-0.
 00040132,-0.00019079,0.00004143,-0.00011673,-0.00248652,-0.00068638,-0
 .00029189,-0.00005127,-0.00005575,-0.00004367,-0.00011563,0.00045149,-
 0.00010347,0.00015838,0.00030848,0.00007260,-0.00466923,-0.01646331,0.
 00189239,-0.00603330,-0.03207922,0.05272781,0.00008806,-0.00000463,0.0
 0001200,-0.00001835,-0.00000946,0.00000073,-0.00009467,0.00000158,0.00
 014354,0.00009329,-0.00002075,-0.00006338,0.00007961,-0.00026875,-0.00
 018605,-0.00037358,0.00044867,0.00094303,0.00121612,-0.00002995,-0.001
 15715,-0.00006460,0.00802925,-0.03006746,-0.00608022,-0.00143379,-0.00
 088113,-0.04956114,0.00228263,-0.01216957,0.00001358,-0.00022571,0.000
 10512,-0.00000594,0.00000291,0.00000110,-0.00000719,0.00000595,0.00000
 708,0.00000712,-0.00000947,0.00003981,-0.00000320,0.00000128,0.0000286
 5,0.00000483,-0.00007142,0.00000817,-0.00084823,0.00141550,0.00067758,
 0.00013664,-0.00001302,0.00009070,0.00143261,0.00000910,0.00060351,0.0
 0014969,-0.00031382,-0.00000798,-0.00007758,0.00017073,0.00020248,0.00
 004593,0.00007384,-0.00212778,0.00153071,-0.00683445,0.02214840,-0.000
 53224,-0.00055743,0.00727668,0.05274800,0.00000328,0.00001377,-0.00000
 811,0.00004875,-0.00002499,0.00004202,0.00011848,0.00007976,-0.0001996
 8,-0.00006658,-0.00000177,0.00000837,-0.00017038,-0.00037837,0.0004111
 4,0.00066071,0.00003679,0.00028990,0.00012035,-0.00009622,0.00052661,-
 0.00017746,0.00042248,-0.00833208,-0.00146994,-0.00005941,-0.00051929,
 0.00304466,-0.06387436,0.05943819,0.00012090,-0.00005622,-0.00016802,0
 .00001898,-0.00001180,0.00000503,-0.00000295,0.00001585,0.00000314,-0.
 00000101,0.00001649,-0.00002348,-0.00000441,-0.00001214,-0.00000640,0.
 00011715,0.00022140,-0.00003062,0.00075924,-0.00086723,-0.00071742,-0.
 00026139,0.00010422,-0.00015646,0.00054397,0.00041927,-0.00034543,-0.0
 0016537,0.00006181,0.00038503,-0.00006183,0.00032722,-0.00038380,-0.00
 024658,0.00057170,-0.00052627,-0.00190364,0.00457942,-0.01846129,0.001
 74619,-0.00602957,0.03216876,-0.00270475,0.06453316,-0.00008057,0.0000
 6494,0.00002494,-0.00000168,-0.00015536,-0.00001661,-0.00005503,-0.000
 00486,0.00019816,0.00009524,-0.00002717,-0.00004759,0.00034830,-0.0001
 8583,-0.00011004,0.00022598,-0.00079013,-0.00024955,0.00035492,-0.0004
 4807,-0.00048753,0.00038233,0.00243875,-0.01084753,-0.00354150,-0.0013
 8218,0.00016300,-0.01351435,0.05979200,-0.29968892,-0.00014394,0.00015
 917,0.00012479,-0.00003796,0.00001491,0.00000327,0.00000012,0.00000229
 ,0.00000199,-0.00000344,-0.00001122,0.00003671,0.00000660,0.00000738,0
 .00003678,-0.00002767,-0.00009631,-0.00005792,0.00135304,-0.00023194,0
 .00043990,0.00028647,0.00003070,0.00022867,-0.00005164,-0.00047447,0.0
 0062181,0.00007980,0.00009422,0.00042364,0.00016256,0.00001042,0.00026
 294,-0.00005585,0.00023881,-0.00093957,-0.00063755,0.00390567,-0.01462
 400,0.00040937,0.00038953,-0.00204714,0.01433857,-0.06338512,0.3264834
 5,-0.00008203,-0.00096036,0.00216593,0.00736574,0.01111520,-0.01612763
 ,-0.00188321,0.00266255,0.00247460,-0.00006426,-0.00031156,0.00006399,
 -0.00531930,-0.00051617,0.00159532,0.00233406,0.00290131,0.00126918,-0
 .01036578,-0.02219225,0.01806632,0.00030531,-0.00200146,-0.00046931,-0
 .00000894,0.00011380,-0.00008887,-0.00021286,0.00042625,0.00009775,-0.
 07503376,-0.05607803,0.05655718,0.00072778,0.00052473,-0.00004212,0.00
 004518,0.00004763,-0.00005128,0.00006305,-0.00001038,0.00002965,-0.000
 07062,-0.00004711,-0.00006292,0.00024583,-0.00162599,-0.00091397,0.000
 09176,0.00024839,-0.00002548,0.00061299,-0.00051979,-0.00084090,-0.000
 05683,0.00085993,0.00006968,-0.00000750,0.00004356,0.00006084,0.000003
 07,0.00004701,-0.00012114,0.00003341,-0.00001637,-0.00002414,-0.000144
 27,0.00003853,-0.00007529,0.00017212,0.00004229,0.00001939,-0.00003810
 ,-0.00000945,-0.00004117,0.08014161,-0.00073982,0.00324167,-0.00284855
 ,-0.00879968,-0.01930297,0.01903905,0.00036823,-0.00289759,-0.00313652
 ,0.00016280,0.00019658,0.00004401,-0.00058426,-0.00146267,0.00087432,-
 0.00009514,0.00090232,0.00076466,-0.00237741,-0.00489635,0.00245345,-0
 .00015629,0.00005304,-0.00019495,-0.00002100,-0.00011743,-0.00026682,-
 0.00001372,-0.00000881,0.00013774,-0.05621151,-0.15888770,0.12190552,-
 0.00049010,-0.00074403,0.00011450,-0.00005697,0.00003904,0.00009387,0.
 00000010,-0.00004457,0.00005535,0.00001461,0.00003450,0.00014030,-0.00
 003906,-0.00033748,-0.00048800,0.00021574,0.00005723,-0.00028111,0.000
 18787,-0.00047665,-0.00066569,-0.00012904,0.00001062,0.00015399,0.0000
 7222,0.00005716,0.00004026,0.00008284,0.00001491,-0.00002805,0.0001192
 9,0.00005859,0.00015989,-0.00003675,0.00001004,-0.00001376,0.00002587,
 -0.00000036,-0.00001342,0.00000839,0.00001190,-0.00000899,0.06405965,0
 .17384192,-0.00119800,-0.00010718,0.00067766,0.00099166,-0.00336505,0.
 00067742,-0.00012905,-0.00068647,-0.00062778,0.00005460,-0.00000135,-0
 .00002756,-0.00178679,-0.00239565,0.00014558,-0.00005310,0.00025337,0.
 00239728,-0.00227187,-0.00574852,0.00490495,0.00021562,0.00021952,-0.0
 0031122,-0.00015671,-0.00023914,-0.00039534,0.00001934,-0.00010697,0.0
 0004398,0.05715396,0.12006676,-0.16523725,-0.00007438,-0.00019267,0.00
 003698,-0.00000801,0.00005973,0.00001553,-0.00000917,0.00002047,0.0000
 0350,-0.00003303,-0.00002688,0.00010214,-0.00000428,-0.00073575,-0.000
 22780,-0.00007911,0.00006962,0.00021041,0.00049578,0.00036529,0.000028
 71,0.00024096,-0.00008500,-0.00001709,0.00016920,0.00005537,0.00007340
 ,0.00007077,-0.00001256,0.00004856,0.00021621,0.00015847,0.00027521,0.
 00000032,0.00002074,-0.00001243,-0.00003007,-0.00001641,-0.00001021,0.
 00000932,0.00002265,0.00002065,-0.06267804,-0.12814338,0.17804423,-0.0
 0102260,0.00013045,-0.00342423,0.00141227,0.00650735,0.02051687,-0.000
 90525,0.00014374,-0.00218730,0.00083249,0.00049791,0.00021241,0.000496
 52,0.00031695,0.00026063,-0.00612744,-0.00102648,-0.00065783,-0.000568
 54,-0.01289968,-0.02930516,0.00153878,0.00000084,-0.00059835,-0.001275
 73,-0.00030831,-0.00003701,0.00017104,-0.00001852,-0.00007811,-0.04775
 412,-0.00767439,-0.01469974,-0.00013194,-0.00017326,0.00003936,-0.0000
 4076,0.00013822,-0.00023583,-0.00003076,-0.00013369,0.00018355,0.00004
 801,-0.00000598,0.00002519,-0.00003002,-0.00014342,-0.00012850,0.00000
 726,-0.00184857,-0.00080364,-0.00012430,0.00059665,0.00005978,-0.00012
 095,0.00043369,-0.00001812,0.00041496,0.00014957,0.00011962,0.00025344
 ,0.00008252,-0.00004039,-0.00078450,-0.00000488,0.00155078,0.00004543,
 0.00003688,0.00008246,0.00012231,0.00006895,-0.00002846,0.00015884,-0.
 00005693,0.00014905,0.00114557,0.00443316,0.00887389,0.05226998,-0.000
 44160,0.00122675,0.00303323,-0.00202876,-0.01237842,-0.02622842,0.0006
 9136,-0.00178632,0.00459665,-0.00041677,-0.00134924,-0.00074653,0.0004
 1532,0.00022652,0.00024118,-0.00112335,0.00090909,0.00011078,-0.000522
 97,-0.00334922,-0.00731786,0.00066786,0.00018213,-0.00014788,-0.000142
 55,-0.00016891,-0.00045647,-0.00007648,-0.00011246,0.00008199,-0.00992
 151,-0.09066364,-0.10401350,0.00031687,0.00004324,-0.00009439,0.000079
 43,-0.00012348,0.00051681,0.00001574,0.00000425,0.00005088,-0.00018512
 ,-0.00007962,0.00020790,-0.00005350,-0.00011000,-0.00018040,0.00013707
 ,-0.00038092,-0.00010569,0.00010698,0.00003773,0.00001972,0.00001836,0
 .00001784,0.00018512,0.00028954,0.00003547,0.00016920,0.00000291,-0.00
 001459,0.00005822,0.00024274,0.00055245,0.00041735,-0.00003224,0.00002
 986,0.00000689,-0.00000228,-0.00000184,-0.00002503,0.00004759,-0.00000
 318,0.00005285,0.00115811,0.01064711,0.02055101,0.01075725,0.09660940,
 -0.00019989,0.00001601,0.00101155,0.00087146,-0.00069052,0.00026917,0.
 00026398,-0.00022246,-0.00113162,0.00032734,0.00035032,-0.00013505,0.0
 0000428,-0.00019954,-0.00020807,-0.00155106,0.00020672,0.00056923,-0.0
 0201073,-0.00145491,-0.00458606,0.00069778,-0.00089839,-0.00033315,0.0
 0082238,0.00026963,-0.00015108,-0.00003886,0.00023513,0.00000873,-0.01
 950748,-0.09685882,-0.25407778,-0.00003975,-0.00022094,0.00002323,-0.0
 0006103,0.00012061,-0.00006089,-0.00001842,-0.00003569,0.00008089,-0.0
 0004612,0.00007945,0.00017521,0.00006002,-0.00013679,0.00006610,-0.000
 00772,-0.00065301,0.00001016,-0.00007928,0.00046614,0.00033021,-0.0002
 2902,0.00033047,-0.00009744,-0.00002812,-0.00001896,0.00018612,0.00012
 000,0.00007357,-0.00000503,0.00133673,0.00008881,-0.00018332,-0.000068
 60,0.00003424,0.00005158,0.00009661,0.00002759,0.00000226,0.00002401,-
 0.00003737,0.00004569,-0.00090757,-0.00988768,-0.02083951,0.02016907,0
 .10901638,0.27897886\\0.00008126,0.00000064,-0.00001312,-0.00003251,0.
 00005000,0.00006389,0.00002951,-0.00010942,0.00001859,-0.00000863,0.00
 004033,-0.00004500,-0.00002073,0.00002335,-0.00000736,-0.00008542,-0.0
 0002260,-0.00002844,0.00001617,0.00003505,-0.00001103,0.00000979,-0.00
 004605,-0.00001380,-0.00003984,0.00001930,0.00004605,-0.00004557,0.000
 03598,0.00001147,0.00007113,0.00001735,-0.00004037,-0.00001025,0.00001
 662,-0.00000297,0.00000207,-0.00000222,0.00000942,-0.00000420,-0.00000
 057,0.00000835,0.00001103,-0.00002512,0.00000437,-0.00001885,0.0000197
 4,0.00000767,0.00005383,-0.00000934,-0.00002524,0.00001452,-0.00000725
 ,-0.00000239,-0.00000678,-0.00001089,0.00001774,0.00002035,-0.00002299
 ,-0.00001259,0.00001436,0.00003462,-0.00000955,-0.00000379,-0.00000822
 ,0.00000576,-0.00000872,0.00000412,0.00002246,0.00000392,-0.00002203,-
 0.00000612,-0.00001467,0.00002203,-0.00000028,-0.00001646,-0.00001970,
 -0.00000416,-0.00001152,-0.00001272,0.00000664\\\@


 CHINESE FORTUNE COOKIE OF JAN 1 1967 SAY....
 ALL THINGS ARE DIFFICULT BEFORE THEY ARE EASY.
 WE LEARN SO LITTLE AND FORGET SO MUCH.
 YOU WILL OVERCOME OBSTACLES TO ACHIEVE SUCCESS.
 AH SO.
 Job cpu time:       0 days  0 hours  2 minutes 38.9 seconds.
 Elapsed time:       0 days  0 hours 50 minutes 33.3 seconds.
 File lengths (MBytes):  RWF=    127 Int=      0 D2E=      0 Chk=      5 Scr=      1
 Normal termination of Gaussian 16 at Thu Feb 22 04:57:49 2024.
