 Entering Gaussian System, Link 0=g16
 Input=/Volumes/SSD-PMU3/b3lyp_6-31gd_freq/KNQPRQPHYZGZKF-CQSZACIVSA-N_calculating/gaussianinput2.gjf
 Output=/Volumes/SSD-PMU3/b3lyp_6-31gd_freq/KNQPRQPHYZGZKF-CQSZACIVSA-N_calculating/gaussianinput2.log
 Initial command:
 /Applications/g16/l1.exe "/Users/macmini_m1_2022/PycharmProjects/sphere_model/sphere_model_lib/Gau-77381.inp" -scrdir="/Users/macmini_m1_2022/PycharmProjects/sphere_model/sphere_model_lib/"
 Entering Link 1 = /Applications/g16/l1.exe PID=     77382.
  
 Copyright (c) 1988,1990,1992,1993,1995,1998,2003,2009,2016,
            Gaussian, Inc.  All Rights Reserved.
  
 This is part of the Gaussian(R) 16 program.  It is based on
 the Gaussian(R) 09 system (copyright 2009, Gaussian, Inc.),
 the Gaussian(R) 03 system (copyright 2003, Gaussian, Inc.),
 the Gaussian(R) 98 system (copyright 1998, Gaussian, Inc.),
 the Gaussian(R) 94 system (copyright 1995, Gaussian, Inc.),
 the Gaussian 92(TM) system (copyright 1992, Gaussian, Inc.),
 the Gaussian 90(TM) system (copyright 1990, Gaussian, Inc.),
 the Gaussian 88(TM) system (copyright 1988, Gaussian, Inc.),
 the Gaussian 86(TM) system (copyright 1986, Carnegie Mellon
 University), and the Gaussian 82(TM) system (copyright 1983,
 Carnegie Mellon University). Gaussian is a federally registered
 trademark of Gaussian, Inc.
  
 This software contains proprietary and confidential information,
 including trade secrets, belonging to Gaussian, Inc.
  
 This software is provided under written license and may be
 used, copied, transmitted, or stored only in accord with that
 written license.
  
 The following legend is applicable only to US Government
 contracts under FAR:
  
                    RESTRICTED RIGHTS LEGEND
  
 Use, reproduction and disclosure by the US Government is
 subject to restrictions as set forth in subparagraphs (a)
 and (c) of the Commercial Computer Software - Restricted
 Rights clause in FAR 52.227-19.
  
 Gaussian, Inc.
 340 Quinnipiac St., Bldg. 40, Wallingford CT 06492
  
  
 ---------------------------------------------------------------
 Warning -- This program may not be used in any manner that
 competes with the business of Gaussian, Inc. or will provide
 assistance to any competitor of Gaussian, Inc.  The licensee
 of this program is prohibited from giving any competitor of
 Gaussian, Inc. access to this program.  By using this program,
 the user acknowledges that Gaussian, Inc. is engaged in the
 business of creating and licensing software in the field of
 computational chemistry and represents and warrants to the
 licensee that it is not a competitor of Gaussian, Inc. and that
 it will not use this program in any manner prohibited above.
 ---------------------------------------------------------------
  

 Cite this work as:
 Gaussian 16, Revision A.03,
 M. J. Frisch, G. W. Trucks, H. B. Schlegel, G. E. Scuseria, 
 M. A. Robb, J. R. Cheeseman, G. Scalmani, V. Barone, 
 G. A. Petersson, H. Nakatsuji, X. Li, M. Caricato, A. V. Marenich, 
 J. Bloino, B. G. Janesko, R. Gomperts, B. Mennucci, H. P. Hratchian, 
 J. V. Ortiz, A. F. Izmaylov, J. L. Sonnenberg, D. Williams-Young, 
 F. Ding, F. Lipparini, F. Egidi, J. Goings, B. Peng, A. Petrone, 
 T. Henderson, D. Ranasinghe, V. G. Zakrzewski, J. Gao, N. Rega, 
 G. Zheng, W. Liang, M. Hada, M. Ehara, K. Toyota, R. Fukuda, 
 J. Hasegawa, M. Ishida, T. Nakajima, Y. Honda, O. Kitao, H. Nakai, 
 T. Vreven, K. Throssell, J. A. Montgomery, Jr., J. E. Peralta, 
 F. Ogliaro, M. J. Bearpark, J. J. Heyd, E. N. Brothers, K. N. Kudin, 
 V. N. Staroverov, T. A. Keith, R. Kobayashi, J. Normand, 
 K. Raghavachari, A. P. Rendell, J. C. Burant, S. S. Iyengar, 
 J. Tomasi, M. Cossi, J. M. Millam, M. Klene, C. Adamo, R. Cammi, 
 J. W. Ochterski, R. L. Martin, K. Morokuma, O. Farkas, 
 J. B. Foresman, and D. J. Fox, Gaussian, Inc., Wallingford CT, 2016.
 
 ******************************************
 Gaussian 16:  EM64M-G16RevA.03 25-Dec-2016
                23-Feb-2024 
 ******************************************
 %nprocshared=10
 Will use up to   10 processors via shared memory.
 %mem=12GB
 %chk= 2.chk
 ---------------------
 # freq b3lyp/6-31g(d)
 ---------------------
 1/10=4,30=1,38=1/1,3;
 2/12=2,17=6,18=5,40=1/2;
 3/5=1,6=6,7=1,11=2,25=1,30=1,71=2,74=-5,140=1/1,2,3;
 4//1;
 5/5=2,38=5,98=1/2;
 8/6=4,10=90,11=11/1;
 11/6=1,8=1,9=11,15=111,16=1/1,2,10;
 10/6=1/2;
 6/7=2,8=2,9=2,10=2,28=1/1;
 7/8=1,10=1,25=1/1,2,3,16;
 1/10=4,30=1/3;
 99//99;
 ---------
 good luck
 ---------
 Symbolic Z-matrix:
 Charge =  0 Multiplicity = 1
 Si                   -3.66588   2.01316  -0.30129 
 C                    -3.38609   2.72629  -2.03558 
 C                    -5.42986   1.32226  -0.2101 
 C                    -2.33686   0.71639   0.18668 
 C                    -2.3092   -0.73887  -0.41572 
 C                    -2.41739  -0.74018  -1.95328 
 C                    -3.40319  -1.63962   0.17456 
 C                    -0.89986  -1.2331   -0.00073 
 C                     0.        0.        0. 
 O                     1.21183   0.        0. 
 C                    -0.89347   1.24461  -0.00073 
 C                    -3.50778   3.41027   0.97248 
 C                    -3.94212   3.22276   2.29907 
 C                    -3.81855   4.22841   3.25824 
 C                    -3.2534    5.45729   2.91125 
 C                    -2.81646   5.67052   1.60356 
 C                    -2.94426   4.65808   0.64982 
 H                    -2.36994   3.11031  -2.18081 
 H                    -4.07882   3.55682  -2.21763 
 H                    -3.56565   1.97378  -2.81092 
 H                    -6.15406   2.13158  -0.36257 
 H                    -5.61256   0.56629  -0.98258 
 H                    -5.64932   0.86346   0.76065 
 H                    -2.48259   0.58477   1.27177 
 H                    -2.27644  -1.7544   -2.34615 
 H                    -1.6618   -0.0993   -2.42292 
 H                    -3.40252  -0.39393  -2.28541 
 H                    -4.40505  -1.30156  -0.10972 
 H                    -3.35218  -1.65737   1.27026 
 H                    -3.29041  -2.67159  -0.18029 
 H                    -0.48646  -2.02696  -0.63183 
 H                    -0.92011  -1.61924   1.02988 
 H                    -0.74599   1.75167  -0.96458 
 H                    -0.57186   1.95182   0.77039 
 H                    -4.38972   2.27504   2.59426 
 H                    -4.16408   4.05506   4.27442 
 H                    -3.15559   6.24334   3.65562 
 H                    -2.37687   6.62503   1.32484 
 H                    -2.59884   4.85011  -0.36337 
 

 GradGradGradGradGradGradGradGradGradGradGradGradGradGradGradGradGradGrad
 Berny optimization.
 Initialization pass.
 Trust Radius=3.00D-01 FncErr=1.00D-07 GrdErr=1.00D-07 EigMax=2.50D+02 EigMin=1.00D-04
 Number of steps in this run=      2 maximum allowed number of steps=      2.
 GradGradGradGradGradGradGradGradGradGradGradGradGradGradGradGradGradGrad

                          Input orientation:                          
 ---------------------------------------------------------------------
 Center     Atomic      Atomic             Coordinates (Angstroms)
 Number     Number       Type             X           Y           Z
 ---------------------------------------------------------------------
      1         14           0       -3.665880    2.013157   -0.301289
      2          6           0       -3.386088    2.726288   -2.035584
      3          6           0       -5.429861    1.322256   -0.210098
      4          6           0       -2.336863    0.716388    0.186681
      5          6           0       -2.309203   -0.738873   -0.415720
      6          6           0       -2.417389   -0.740184   -1.953275
      7          6           0       -3.403186   -1.639617    0.174555
      8          6           0       -0.899857   -1.233095   -0.000732
      9          6           0        0.000000    0.000000    0.000000
     10          8           0        1.211835    0.000000    0.000000
     11          6           0       -0.893471    1.244605   -0.000732
     12          6           0       -3.507778    3.410266    0.972476
     13          6           0       -3.942120    3.222761    2.299069
     14          6           0       -3.818550    4.228406    3.258236
     15          6           0       -3.253396    5.457291    2.911253
     16          6           0       -2.816461    5.670524    1.603560
     17          6           0       -2.944256    4.658085    0.649824
     18          1           0       -2.369938    3.110314   -2.180811
     19          1           0       -4.078820    3.556820   -2.217631
     20          1           0       -3.565650    1.973784   -2.810915
     21          1           0       -6.154059    2.131575   -0.362565
     22          1           0       -5.612559    0.566287   -0.982578
     23          1           0       -5.649320    0.863458    0.760649
     24          1           0       -2.482585    0.584771    1.271768
     25          1           0       -2.276436   -1.754399   -2.346154
     26          1           0       -1.661797   -0.099296   -2.422917
     27          1           0       -3.402523   -0.393927   -2.285406
     28          1           0       -4.405047   -1.301558   -0.109719
     29          1           0       -3.352177   -1.657369    1.270258
     30          1           0       -3.290414   -2.671592   -0.180289
     31          1           0       -0.486460   -2.026963   -0.631832
     32          1           0       -0.920112   -1.619239    1.029883
     33          1           0       -0.745989    1.751665   -0.964577
     34          1           0       -0.571858    1.951819    0.770385
     35          1           0       -4.389720    2.275045    2.594259
     36          1           0       -4.164082    4.055063    4.274418
     37          1           0       -3.155588    6.243341    3.655624
     38          1           0       -2.376866    6.625032    1.324836
     39          1           0       -2.598838    4.850107   -0.363370
 ---------------------------------------------------------------------
                    Distance matrix (angstroms):
                    1          2          3          4          5
     1  Si   0.000000
     2  C    1.895948   0.000000
     3  C    1.896652   3.079077   0.000000
     4  C    1.919899   3.174749   3.176656   0.000000
     5  C    3.070397   3.973787   3.745536   1.575258   0.000000
     6  C    3.445094   3.600220   4.045654   2.589884   1.541357
     7  C    3.692992   4.893479   3.609441   2.586107   1.535110
     8  C    4.275438   5.098890   5.205246   2.429114   1.550073
     9  C    4.193120   4.800192   5.592485   2.451324   2.459914
    10  O    5.285421   5.719890   6.775295   3.625096   3.621666
    11  C    2.892621   3.542477   4.541883   1.548392   2.471982
    12  C    1.897205   3.087241   3.074519   3.040640   4.536411
    13  C    2.881200   4.398281   3.481553   3.649786   5.072577
    14  C    4.195337   5.519775   4.803267   4.895316   6.360027
    15  C    4.727857   5.652184   5.619461   5.544320   7.095964
    16  C    4.210261   4.715546   5.387639   5.175039   6.739078
    17  C    2.901896   3.337435   4.247994   4.015022   5.537674
    18  H    2.532947   1.095960   4.055119   3.367045   4.235030
    19  H    2.495152   1.096723   3.293748   4.108915   4.983112
    20  H    2.511935   1.095282   3.265581   3.475132   3.830682
    21  H    2.491749   3.288516   1.096680   4.107969   4.798460
    22  H    2.519354   3.275912   1.096172   3.481362   3.596795
    23  H    2.526570   4.051083   1.095905   3.365032   3.886861
    24  H    2.432074   4.042399   3.380273   1.102711   2.151676
    25  H    4.506274   4.626482   4.896185   3.538883   2.181500
    26  H    3.602792   3.332736   4.595181   2.816213   2.203868
    27  H    3.130516   3.130243   3.370799   2.911983   2.193185
    28  H    3.401529   4.579386   2.818638   2.904711   2.191532
    29  H    4.005113   5.490555   3.922549   2.799951   2.184937
    30  H    4.701328   5.708623   4.530888   3.538691   2.180276
    31  H    5.151751   5.742104   5.986012   3.408802   2.242381
    32  H    4.744003   5.861888   5.525195   2.858903   2.189609
    33  H    3.005677   3.011157   4.763642   2.219926   2.991264
    34  H    3.274938   4.048846   4.995787   2.232094   3.415412
    35  H    2.996119   4.758817   3.139127   3.527048   4.740488
    36  H    5.035343   6.495155   5.401973   5.585255   6.958433
    37  H    5.814810   6.694224   6.658318   6.576556   8.126717
    38  H    5.057196   5.245108   6.308426   6.017397   7.567114
    39  H    3.031620   2.815434   4.525916   4.178375   5.596725
                    6          7          8          9         10
     6  C    0.000000
     7  C    2.511660   0.000000
     8  C    2.521565   2.542173   0.000000
     9  C    3.194828   3.781599   1.526521   0.000000
    10  O    4.187412   4.900738   2.445356   1.211835   0.000000
    11  C    3.173978   3.827288   2.477708   1.532101   2.445681
    12  C    5.193766   5.113603   5.413796   4.987999   5.903420
    13  C    6.009340   5.333548   5.865075   5.586789   6.498858
    14  C    7.335529   6.641936   6.997688   6.563295   7.334868
    15  C    7.922830   7.607763   7.666816   6.988706   7.628611
    16  C    7.342173   7.471577   7.342144   6.531363   7.138166
    17  C    6.016230   6.332262   6.269672   5.548754   6.276394
    18  H    3.857507   5.401592   5.077311   4.477343   5.221024
    19  H    4.614594   5.760381   6.161472   5.848558   6.749806
    20  H    3.069148   4.689999   5.028683   4.950851   5.883998
    21  H    4.973938   4.698690   6.249685   6.522845   7.676683
    22  H    3.585837   3.329609   5.139198   5.725990   6.917983
    23  H    4.514690   3.413797   5.247155   5.765324   6.956982
    24  H    3.487214   2.645616   2.725605   2.850014   3.950708
    25  H    1.096747   2.763461   2.769067   3.710056   4.555259
    26  H    1.096458   3.485955   2.780833   2.939720   3.760073
    27  H    1.095762   2.757381   3.491028   4.117696   5.164355
    28  H    2.768506   1.094907   3.507552   4.594620   5.766754
    29  H    3.479400   1.097033   2.794512   3.949369   5.019027
    30  H    2.763329   1.097089   2.795761   4.242256   5.238335
    31  H    2.670299   3.050834   1.095176   2.178172   2.718823
    32  H    3.451638   2.626339   1.100766   2.128192   2.868413
    33  H    3.159179   4.456356   3.140297   2.134301   2.798538
    34  H    4.251022   4.611924   3.293309   2.174882   2.754025
    35  H    5.801876   4.706676   5.587501   5.583516   6.579014
    36  H    8.051676   7.058131   7.542989   7.214829   7.975880
    37  H    8.987453   8.620915   8.622897   7.893075   8.450874
    38  H    8.061889   8.407193   8.104866   7.162104   7.650164
    39  H    5.814815   6.561468   6.326404   5.514484   6.178738
                   11         12         13         14         15
    11  C    0.000000
    12  C    3.531547   0.000000
    13  C    4.300750   1.408425   0.000000
    14  C    5.299059   2.447577   1.395203   0.000000
    15  C    5.638761   2.830879   2.417071   1.396408   0.000000
    16  C    5.085312   2.446416   2.782514   2.412849   1.395149
    17  C    4.034946   1.406668   2.403310   2.784390   2.418338
    18  H    3.227006   3.365690   4.749076   5.738627   5.676083
    19  H    4.517458   3.244125   4.531099   5.523032   5.531597
    20  H    3.945804   4.047330   5.273861   6.479342   6.706380
    21  H    5.347095   3.228032   3.628727   4.791816   5.494735
    22  H    4.867641   4.042345   4.540532   5.883374   6.682027
    23  H    4.831467   3.334262   3.293566   4.573022   5.609710
    24  H    2.140075   3.020599   3.185056   4.359694   5.198414
    25  H    4.050632   6.261252   7.008903   8.341538   8.977931
    26  H    2.874609   5.220476   6.207503   7.460301   7.865254
    27  H    3.768271   5.009666   5.864214   7.229869   7.827149
    28  H    4.338893   4.917064   5.146457   6.501354   7.492303
    29  H    4.010250   5.078761   5.022166   6.229920   7.302124
    30  H    4.595016   6.193958   6.427701   7.727377   8.696996
    31  H    3.356650   6.423833   6.934794   8.084868   8.730604
    32  H    3.043761   5.656433   5.847079   6.896481   7.685118
    33  H    1.099026   3.759070   4.799038   5.779881   5.919528
    34  H    1.094627   3.284438   3.912906   4.681160   4.905333
    35  H    4.474320   2.167194   1.088875   2.140729   3.393878
    36  H    6.072271   3.427728   2.154994   1.087229   2.157269
    37  H    6.593442   3.917861   3.403348   2.158101   1.086982
    38  H    5.736426   3.426053   3.869703   3.400045   2.156071
    39  H    4.004925   2.164209   3.397240   3.871723   3.394153
                   16         17         18         19         20
    16  C    0.000000
    17  C    1.396774   0.000000
    18  H    4.590808   3.276878   0.000000
    19  H    4.545635   3.274495   1.766636   0.000000
    20  H    5.806441   4.423609   1.765916   1.766729   0.000000
    21  H    5.246844   4.208446   4.310861   3.127173   3.566396
    22  H    6.368635   5.150475   4.292135   3.580642   3.084429
    23  H    5.643002   4.661421   4.945189   4.311707   4.281422
    24  H    5.107489   4.146305   4.279177   4.853550   4.446424
    25  H    8.427417   7.109277   4.868420   5.610183   3.972081
    26  H    7.129978   5.806816   3.295706   4.387633   2.841278
    27  H    7.228077   5.860752   3.654706   4.008787   2.430808
    28  H    7.353153   6.182893   5.281639   5.305992   4.327691
    29  H    7.355005   6.358954   5.967032   6.315152   5.466884
    30  H    8.543866   7.384652   6.187067   6.600414   5.345603
    31  H    8.347286   7.236938   5.686690   6.826305   5.498708
    32  H    7.554197   6.606542   5.897391   6.878617   5.887310
    33  H    5.122464   3.985718   2.441795   3.992054   3.377690
    34  H    4.422803   3.600928   3.644826   4.878837   4.667867
    35  H    3.871163   3.398393   5.251522   4.989378   5.475925
    36  H    3.399894   3.871601   6.766202   6.511698   7.408899
    37  H    2.157335   3.404781   6.670613   6.524176   7.759729
    38  H    1.087206   2.155563   4.964157   4.985945   6.336541
    39  H    2.142255   1.087542   2.526335   2.702077   3.898517
                   21         22         23         24         25
    21  H    0.000000
    22  H    1.768549   0.000000
    23  H    1.767623   1.768757   0.000000
    24  H    4.306201   3.857351   3.219801   0.000000
    25  H    5.837069   4.286565   5.280317   4.313186   0.000000
    26  H    5.422384   4.257475   5.192526   3.846081   1.767212
    27  H    4.200765   2.739276   3.988429   3.802318   1.767101
    28  H    3.861266   2.389312   2.644438   3.026979   3.120527
    29  H    4.987259   3.889633   3.448353   2.404867   3.774264
    30  H    5.595007   4.064466   4.352744   3.655811   2.561321
    31  H    7.034744   5.755420   6.078541   3.798600   2.493432
    32  H    6.587998   5.553880   5.348054   2.712469   3.640812
    33  H    5.454720   5.008887   5.273326   3.062458   4.067371
    34  H    5.698847   5.513732   5.192807   2.402308   5.133659
    35  H    3.446198   4.148367   2.634634   2.871093   6.716403
    36  H    5.400132   6.473457   4.973816   4.887358   9.008054
    37  H    6.484080   7.731660   6.598691   6.176983  10.037833
    38  H    6.107836   7.245844   6.650037   6.041419   9.148831
    39  H    4.475490   5.274187   5.144145   4.569495   6.903251
                   26         27         28         29         30
    26  H    0.000000
    27  H    1.770831   0.000000
    28  H    3.784407   2.561730   0.000000
    29  H    4.350232   3.773800   1.771856   0.000000
    30  H    3.781333   3.103521   1.767592   1.771031   0.000000
    31  H    2.881892   3.728879   4.019221   3.459318   2.912318
    32  H    3.844756   4.319131   3.680270   2.444212   2.861869
    33  H    2.528145   3.661329   4.841659   4.838204   5.162791
    34  H    3.948698   4.780486   5.104153   4.583261   5.447041
    35  H    6.184749   5.648814   4.483728   4.277073   5.777180
    36  H    8.268883   7.962712   6.926190   6.505079   8.115146
    37  H    8.911179   8.911237   8.524345   8.255291   9.706103
    38  H    7.731336   7.959372   8.306762   8.339807   9.461881
    39  H    5.442092   5.642697   6.416363   6.751556   7.555644
                   31         32         33         34         35
    31  H    0.000000
    32  H    1.765103   0.000000
    33  H    3.802118   3.920610   0.000000
    34  H    4.219504   3.597371   1.755129   0.000000
    35  H    6.644575   5.445264   5.120158   4.243473   0.000000
    36  H    8.636390   7.297126   6.666039   5.441136   2.458111
    37  H    9.690431   8.585571   6.879504   5.780781   4.289167
    38  H    9.069686   8.377179   5.625911   5.040277   4.958367
    39  H    7.199188   6.827277   3.659896   3.714044   4.311122
                   36         37         38         39
    36  H    0.000000
    37  H    2.487675   0.000000
    38  H    4.301037   2.486899   0.000000
    39  H    4.958948   4.289917   2.459608   0.000000
 Stoichiometry    C15H22OSi
 Framework group  C1[X(C15H22OSi)]
 Deg. of freedom   111
 Full point group                 C1      NOp   1
 Largest Abelian subgroup         C1      NOp   1
 Largest concise Abelian subgroup C1      NOp   1
                         Standard orientation:                         
 ---------------------------------------------------------------------
 Center     Atomic      Atomic             Coordinates (Angstroms)
 Number     Number       Type             X           Y           Z
 ---------------------------------------------------------------------
      1         14           0        0.371960   -1.059450    0.438655
      2          6           0        0.212962   -1.264646    2.316748
      3          6           0        0.400216   -2.781183   -0.356409
      4          6           0       -0.991578    0.073750   -0.297983
      5          6           0       -2.485525   -0.396001   -0.467962
      6          6           0       -3.052038   -1.029118    0.818120
      7          6           0       -2.664657   -1.371365   -1.639773
      8          6           0       -3.215378    0.943273   -0.744340
      9          6           0       -2.455378    2.011072    0.038266
     10          8           0       -2.857716    3.122334    0.306154
     11          6           0       -1.090673    1.436127    0.431143
     12          6           0        2.016872   -0.197769    0.049869
     13          6           0        2.518928   -0.172487   -1.265790
     14          6           0        3.716246    0.471395   -1.579542
     15          6           0        4.447771    1.110756   -0.576526
     16          6           0        3.974330    1.099469    0.735788
     17          6           0        2.774708    0.452262    1.040757
     18          1           0        0.148440   -0.307752    2.847142
     19          1           0        1.084676   -1.799829    2.712343
     20          1           0       -0.676578   -1.846313    2.581371
     21          1           0        1.275737   -3.339123   -0.003036
     22          1           0       -0.490142   -3.365417   -0.096550
     23          1           0        0.458891   -2.735682   -1.449795
     24          1           0       -0.631820    0.290861   -1.317496
     25          1           0       -4.123071   -1.235569    0.703580
     26          1           0       -2.936437   -0.373268    1.689164
     27          1           0       -2.557634   -1.979711    1.047533
     28          1           0       -2.153021   -2.322298   -1.458736
     29          1           0       -2.268323   -0.947784   -2.570891
     30          1           0       -3.726704   -1.593947   -1.801380
     31          1           0       -4.280885    0.947284   -0.491181
     32          1           0       -3.137062    1.206505   -1.810295
     33          1           0       -1.081324    1.336504    1.525605
     34          1           0       -0.288819    2.137692    0.180052
     35          1           0        1.969471   -0.666762   -2.065438
     36          1           0        4.079577    0.473163   -2.604263
     37          1           0        5.381142    1.613302   -0.816935
     38          1           0        4.538715    1.593454    1.522849
     39          1           0        2.428616    0.455099    2.071757
 ---------------------------------------------------------------------
 Rotational constants (GHZ):           0.6426406           0.2697911           0.2374156
 Standard basis: 6-31G(d) (6D, 7F)
 There are   303 symmetry adapted cartesian basis functions of A   symmetry.
 There are   303 symmetry adapted basis functions of A   symmetry.
   303 basis functions,   588 primitive gaussians,   303 cartesian basis functions
    67 alpha electrons       67 beta electrons
       nuclear repulsion energy      1344.3665452934 Hartrees.
 NAtoms=   39 NActive=   39 NUniq=   39 SFac= 1.00D+00 NAtFMM=   60 NAOKFM=F Big=F
 Integral buffers will be    131072 words long.
 Raffenetti 2 integral format.
 Two-electron integral symmetry is turned on.
 One-electron integrals computed using PRISM.
 NBasis=   303 RedAO= T EigKep=  4.98D-04  NBF=   303
 NBsUse=   303 1.00D-06 EigRej= -1.00D+00 NBFU=   303
 ExpMin= 7.78D-02 ExpMax= 1.61D+04 ExpMxC= 2.43D+03 IAcc=3 IRadAn=         5 AccDes= 0.00D+00
 Harris functional with IExCor=  402 and IRadAn=       5 diagonalized for initial guess.
 HarFok:  IExCor=  402 AccDes= 0.00D+00 IRadAn=         5 IDoV= 1 UseB2=F ITyADJ=14
 ICtDFT=  3500011 ScaDFX=  1.000000  1.000000  1.000000  1.000000
 FoFCou: FMM=F IPFlag=           0 FMFlag=      100000 FMFlg1=           0
         NFxFlg=           0 DoJE=T BraDBF=F KetDBF=T FulRan=T
         wScrn=  0.000000 ICntrl=       500 IOpCl=  0 I1Cent=   200000004 NGrid=           0
         NMat0=    1 NMatS0=      1 NMatT0=    0 NMatD0=    1 NMtDS0=    0 NMtDT0=    0
 Petite list used in FoFCou.
 Requested convergence on RMS density matrix=1.00D-08 within 128 cycles.
 Requested convergence on MAX density matrix=1.00D-06.
 Requested convergence on             energy=1.00D-06.
 No special actions if energy rises.
 Integral accuracy reduced to 1.0D-05 until final iterations.
 Initial convergence to 1.0D-05 achieved.  Increase integral accuracy.
 SCF Done:  E(RB3LYP) =  -949.599941843     A.U. after   14 cycles
            NFock= 14  Conv=0.54D-08     -V/T= 2.0081
 DoSCS=F DFT=T ScalE2(SS,OS)=  1.000000  1.000000
 Range of M.O.s used for correlation:     1   303
 NBasis=   303 NAE=    67 NBE=    67 NFC=     0 NFV=     0
 NROrb=    303 NOA=    67 NOB=    67 NVA=   236 NVB=   236
 Symmetrizing basis deriv contribution to polar:
 IMax=3 JMax=2 DiffMx= 0.00D+00
 G2DrvN: will do    40 centers at a time, making    1 passes.
 Calling FoFCou, ICntrl=  3107 FMM=F I1Cent=   0 AccDes= 0.00D+00.
 End of G2Drv F.D. properties file   721 does not exist.
 End of G2Drv F.D. properties file   722 does not exist.
 End of G2Drv F.D. properties file   788 does not exist.
          IDoAtm=111111111111111111111111111111111111111
          Differentiating once with respect to electric field.
                with respect to dipole field.
          Differentiating once with respect to nuclear coordinates.
 Keep R1 ints in memory in canonical form, NReq=1074665712.
          There are   120 degrees of freedom in the 1st order CPHF.  IDoFFX=6 NUNeed=     3.
    117 vectors produced by pass  0 Test12= 1.58D-14 1.00D-09 XBig12= 1.62D+02 5.71D+00.
 AX will form   117 AO Fock derivatives at one time.
    117 vectors produced by pass  1 Test12= 1.58D-14 1.00D-09 XBig12= 2.11D+01 1.09D+00.
    117 vectors produced by pass  2 Test12= 1.58D-14 1.00D-09 XBig12= 1.69D-01 5.33D-02.
    117 vectors produced by pass  3 Test12= 1.58D-14 1.00D-09 XBig12= 4.66D-04 1.77D-03.
    117 vectors produced by pass  4 Test12= 1.58D-14 1.00D-09 XBig12= 4.96D-07 5.99D-05.
     60 vectors produced by pass  5 Test12= 1.58D-14 1.00D-09 XBig12= 3.35D-10 2.21D-06.
      4 vectors produced by pass  6 Test12= 1.58D-14 1.00D-09 XBig12= 2.28D-13 4.57D-08.
      2 vectors produced by pass  7 Test12= 1.58D-14 1.00D-09 XBig12= 1.95D-16 1.82D-09.
 InvSVY:  IOpt=1 It=  1 EMax= 7.11D-15
 Solved reduced A of dimension   651 with   120 vectors.
 Isotropic polarizability for W=    0.000000      172.25 Bohr**3.
 End of Minotr F.D. properties file   721 does not exist.
 End of Minotr F.D. properties file   722 does not exist.
 End of Minotr F.D. properties file   788 does not exist.

 **********************************************************************

            Population analysis using the SCF density.

 **********************************************************************

 Orbital symmetries:
       Occupied  (A) (A) (A) (A) (A) (A) (A) (A) (A) (A) (A) (A)
                 (A) (A) (A) (A) (A) (A) (A) (A) (A) (A) (A) (A)
                 (A) (A) (A) (A) (A) (A) (A) (A) (A) (A) (A) (A)
                 (A) (A) (A) (A) (A) (A) (A) (A) (A) (A) (A) (A)
                 (A) (A) (A) (A) (A) (A) (A) (A) (A) (A) (A) (A)
                 (A) (A) (A) (A) (A) (A) (A)
       Virtual   (A) (A) (A) (A) (A) (A) (A) (A) (A) (A) (A) (A)
                 (A) (A) (A) (A) (A) (A) (A) (A) (A) (A) (A) (A)
                 (A) (A) (A) (A) (A) (A) (A) (A) (A) (A) (A) (A)
                 (A) (A) (A) (A) (A) (A) (A) (A) (A) (A) (A) (A)
                 (A) (A) (A) (A) (A) (A) (A) (A) (A) (A) (A) (A)
                 (A) (A) (A) (A) (A) (A) (A) (A) (A) (A) (A) (A)
                 (A) (A) (A) (A) (A) (A) (A) (A) (A) (A) (A) (A)
                 (A) (A) (A) (A) (A) (A) (A) (A) (A) (A) (A) (A)
                 (A) (A) (A) (A) (A) (A) (A) (A) (A) (A) (A) (A)
                 (A) (A) (A) (A) (A) (A) (A) (A) (A) (A) (A) (A)
                 (A) (A) (A) (A) (A) (A) (A) (A) (A) (A) (A) (A)
                 (A) (A) (A) (A) (A) (A) (A) (A) (A) (A) (A) (A)
                 (A) (A) (A) (A) (A) (A) (A) (A) (A) (A) (A) (A)
                 (A) (A) (A) (A) (A) (A) (A) (A) (A) (A) (A) (A)
                 (A) (A) (A) (A) (A) (A) (A) (A) (A) (A) (A) (A)
                 (A) (A) (A) (A) (A) (A) (A) (A) (A) (A) (A) (A)
                 (A) (A) (A) (A) (A) (A) (A) (A) (A) (A) (A) (A)
                 (A) (A) (A) (A) (A) (A) (A) (A) (A) (A) (A) (A)
                 (A) (A) (A) (A) (A) (A) (A) (A) (A) (A) (A) (A)
                 (A) (A) (A) (A) (A) (A) (A) (A)
 The electronic state is 1-A.
 Alpha  occ. eigenvalues --  -66.12502 -19.13076 -10.26697 -10.20761 -10.19173
 Alpha  occ. eigenvalues --  -10.19162 -10.19074 -10.19003 -10.18947 -10.18817
 Alpha  occ. eigenvalues --  -10.18498 -10.18103 -10.17967 -10.17893 -10.17657
 Alpha  occ. eigenvalues --  -10.16672 -10.16659  -5.26897  -3.62792  -3.62773
 Alpha  occ. eigenvalues --   -3.62753  -1.03046  -0.84797  -0.84522  -0.75585
 Alpha  occ. eigenvalues --   -0.74237  -0.74221  -0.71241  -0.69752  -0.69223
 Alpha  occ. eigenvalues --   -0.68084  -0.63830  -0.59958  -0.59583  -0.54515
 Alpha  occ. eigenvalues --   -0.53007  -0.51707  -0.48208  -0.46751  -0.45548
 Alpha  occ. eigenvalues --   -0.44840  -0.44317  -0.43946  -0.43096  -0.41942
 Alpha  occ. eigenvalues --   -0.41441  -0.41161  -0.40849  -0.40465  -0.39467
 Alpha  occ. eigenvalues --   -0.39224  -0.38847  -0.38063  -0.37431  -0.36630
 Alpha  occ. eigenvalues --   -0.36228  -0.34765  -0.34107  -0.33174  -0.32800
 Alpha  occ. eigenvalues --   -0.32119  -0.30388  -0.29585  -0.28726  -0.24952
 Alpha  occ. eigenvalues --   -0.24702  -0.22899
 Alpha virt. eigenvalues --   -0.01157  -0.01118  -0.00096   0.05490   0.08058
 Alpha virt. eigenvalues --    0.08151   0.09359   0.10651   0.11525   0.11814
 Alpha virt. eigenvalues --    0.12234   0.12939   0.13353   0.13833   0.13987
 Alpha virt. eigenvalues --    0.14173   0.15341   0.15406   0.16041   0.16904
 Alpha virt. eigenvalues --    0.17589   0.18250   0.18784   0.18982   0.19135
 Alpha virt. eigenvalues --    0.20611   0.20881   0.21879   0.22093   0.23108
 Alpha virt. eigenvalues --    0.23336   0.24937   0.25525   0.26319   0.27766
 Alpha virt. eigenvalues --    0.28949   0.30722   0.30853   0.31740   0.32815
 Alpha virt. eigenvalues --    0.33726   0.35751   0.37301   0.40626   0.40675
 Alpha virt. eigenvalues --    0.42965   0.45220   0.48111   0.49495   0.51139
 Alpha virt. eigenvalues --    0.53931   0.54434   0.55004   0.55519   0.55946
 Alpha virt. eigenvalues --    0.56978   0.57720   0.58602   0.59528   0.59653
 Alpha virt. eigenvalues --    0.60835   0.60908   0.61773   0.63348   0.64602
 Alpha virt. eigenvalues --    0.64609   0.65876   0.66389   0.67002   0.68310
 Alpha virt. eigenvalues --    0.69868   0.70772   0.71163   0.72593   0.73634
 Alpha virt. eigenvalues --    0.74933   0.75546   0.77503   0.78101   0.79304
 Alpha virt. eigenvalues --    0.80149   0.82137   0.82399   0.83177   0.83455
 Alpha virt. eigenvalues --    0.83878   0.84452   0.85062   0.85946   0.86121
 Alpha virt. eigenvalues --    0.86695   0.87510   0.88244   0.88845   0.90002
 Alpha virt. eigenvalues --    0.90462   0.90791   0.91096   0.91600   0.92418
 Alpha virt. eigenvalues --    0.92980   0.93362   0.94078   0.94728   0.95298
 Alpha virt. eigenvalues --    0.95625   0.96702   0.97651   0.98206   0.98509
 Alpha virt. eigenvalues --    0.99340   1.00499   1.01915   1.02830   1.04162
 Alpha virt. eigenvalues --    1.04687   1.06557   1.07028   1.09918   1.11011
 Alpha virt. eigenvalues --    1.12133   1.14027   1.15384   1.17310   1.21127
 Alpha virt. eigenvalues --    1.23127   1.25310   1.26675   1.28081   1.34786
 Alpha virt. eigenvalues --    1.38295   1.40392   1.42889   1.44504   1.44679
 Alpha virt. eigenvalues --    1.45795   1.47273   1.48784   1.49320   1.51622
 Alpha virt. eigenvalues --    1.52574   1.56206   1.57078   1.60614   1.62341
 Alpha virt. eigenvalues --    1.68398   1.71231   1.72187   1.73556   1.74970
 Alpha virt. eigenvalues --    1.75927   1.77085   1.78855   1.79417   1.81486
 Alpha virt. eigenvalues --    1.81710   1.83251   1.83772   1.84464   1.86181
 Alpha virt. eigenvalues --    1.87860   1.89264   1.90420   1.92606   1.94855
 Alpha virt. eigenvalues --    1.97546   1.98480   1.99399   2.02511   2.02982
 Alpha virt. eigenvalues --    2.05231   2.06478   2.07119   2.10034   2.11030
 Alpha virt. eigenvalues --    2.13890   2.14268   2.15254   2.15525   2.16402
 Alpha virt. eigenvalues --    2.16821   2.20389   2.22853   2.23646   2.25078
 Alpha virt. eigenvalues --    2.26497   2.27163   2.27672   2.28179   2.29533
 Alpha virt. eigenvalues --    2.29621   2.30089   2.30925   2.31439   2.31611
 Alpha virt. eigenvalues --    2.33698   2.35409   2.42787   2.50488   2.55010
 Alpha virt. eigenvalues --    2.57418   2.57729   2.58381   2.61561   2.64857
 Alpha virt. eigenvalues --    2.67315   2.67398   2.69612   2.71190   2.74839
 Alpha virt. eigenvalues --    2.75493   2.77030   2.77134   2.78513   2.80572
 Alpha virt. eigenvalues --    3.00547   3.03986   3.06691   3.12552   3.39294
 Alpha virt. eigenvalues --    4.02142   4.09521   4.11883   4.15451   4.21491
 Alpha virt. eigenvalues --    4.22129   4.24163   4.28167   4.30931   4.33766
 Alpha virt. eigenvalues --    4.34553   4.37819   4.47156   4.66940   4.68762
 Alpha virt. eigenvalues --    4.72604
          Condensed to atoms (all electrons):
               1          2          3          4          5          6
     1  Si  12.032571   0.384674   0.384067   0.341416  -0.011411   0.000579
     2  C    0.384674   5.290950  -0.025851  -0.018165  -0.001580  -0.000741
     3  C    0.384067  -0.025851   5.281983  -0.024598   0.000391  -0.001302
     4  C    0.341416  -0.018165  -0.024598   5.292445   0.361304  -0.059699
     5  C   -0.011411  -0.001580   0.000391   0.361304   4.810569   0.380706
     6  C    0.000579  -0.000741  -0.001302  -0.059699   0.380706   5.167572
     7  C   -0.001699  -0.000022  -0.001301  -0.047099   0.374310  -0.063850
     8  C    0.003451  -0.000019  -0.000021  -0.051206   0.321788  -0.061238
     9  C    0.002205  -0.000000  -0.000001  -0.040671  -0.029592  -0.002193
    10  O   -0.000146  -0.000000   0.000000   0.003555   0.002999  -0.000000
    11  C   -0.008943  -0.003684   0.000577   0.297511  -0.034720  -0.001792
    12  C    0.383589  -0.028807  -0.026309  -0.019644   0.000900  -0.000027
    13  C   -0.025989   0.000180   0.000112  -0.001823   0.000057   0.000000
    14  C    0.003359  -0.000035   0.000080  -0.000020   0.000001  -0.000000
    15  C   -0.000257   0.000001   0.000004   0.000006  -0.000000   0.000000
    16  C    0.005066   0.000118  -0.000046  -0.000048   0.000000   0.000000
    17  C   -0.025224   0.001818  -0.000554  -0.001262  -0.000001  -0.000000
    18  H   -0.021261   0.361223   0.001249  -0.001428   0.000012  -0.000125
    19  H   -0.018964   0.360095  -0.001170   0.001045   0.000008   0.000031
    20  H   -0.019797   0.361509  -0.001255  -0.000330   0.000029  -0.000025
    21  H   -0.016609  -0.000958   0.359840   0.000978  -0.000011   0.000007
    22  H   -0.019547  -0.001248   0.359415  -0.000771   0.000413  -0.000291
    23  H   -0.020857   0.001273   0.362890  -0.000895  -0.000324   0.000053
    24  H   -0.029966   0.001197  -0.000684   0.347675  -0.036968   0.006330
    25  H   -0.000475   0.000081  -0.000000   0.005880  -0.027329   0.362415
    26  H   -0.001466   0.000059   0.000042  -0.006169  -0.028853   0.369292
    27  H    0.008522  -0.001861  -0.000339  -0.005534  -0.029845   0.366512
    28  H    0.001126  -0.000018   0.000733  -0.003342  -0.027770  -0.004789
    29  H    0.000224   0.000003  -0.000023  -0.006199  -0.027008   0.005814
    30  H   -0.000156  -0.000000   0.000039   0.005048  -0.028861  -0.004240
    31  H   -0.000142   0.000001   0.000000   0.004591  -0.026885  -0.006252
    32  H   -0.000199   0.000000  -0.000001  -0.001380  -0.032933   0.005718
    33  H   -0.008715   0.002445   0.000036  -0.038725  -0.001220   0.001575
    34  H    0.003440  -0.000094  -0.000010  -0.024491   0.003051   0.000045
    35  H   -0.005365   0.000063   0.001109  -0.000077  -0.000041   0.000000
    36  H   -0.000222   0.000000  -0.000000  -0.000001  -0.000000   0.000000
    37  H    0.000027  -0.000000   0.000000   0.000000   0.000000   0.000000
    38  H   -0.000236  -0.000000   0.000000   0.000000  -0.000000   0.000000
    39  H   -0.011723   0.003617   0.000071   0.000081  -0.000003   0.000000
               7          8          9         10         11         12
     1  Si  -0.001699   0.003451   0.002205  -0.000146  -0.008943   0.383589
     2  C   -0.000022  -0.000019  -0.000000  -0.000000  -0.003684  -0.028807
     3  C   -0.001301  -0.000021  -0.000001   0.000000   0.000577  -0.026309
     4  C   -0.047099  -0.051206  -0.040671   0.003555   0.297511  -0.019644
     5  C    0.374310   0.321788  -0.029592   0.002999  -0.034720   0.000900
     6  C   -0.063850  -0.061238  -0.002193  -0.000000  -0.001792  -0.000027
     7  C    5.161942  -0.042006   0.001654  -0.000068   0.004865  -0.000035
     8  C   -0.042006   5.423336   0.331691  -0.070338  -0.182055  -0.000046
     9  C    0.001654   0.331691   4.493926   0.571472   0.321056   0.000065
    10  O   -0.000068  -0.070338   0.571472   8.013867  -0.071807   0.000000
    11  C    0.004865  -0.182055   0.321056  -0.071807   5.375754  -0.002559
    12  C   -0.000035  -0.000046   0.000065   0.000000  -0.002559   4.935738
    13  C   -0.000011  -0.000005   0.000002   0.000000  -0.000366   0.494116
    14  C   -0.000000  -0.000000  -0.000000   0.000000  -0.000001  -0.025007
    15  C    0.000000   0.000000  -0.000000  -0.000000   0.000003  -0.036357
    16  C   -0.000000  -0.000000   0.000000  -0.000000  -0.000003  -0.026911
    17  C   -0.000000  -0.000000   0.000007   0.000000  -0.000047   0.499459
    18  H    0.000000   0.000011  -0.000017   0.000001  -0.000121  -0.000675
    19  H    0.000000   0.000001   0.000000  -0.000000   0.000077  -0.001136
    20  H   -0.000002   0.000002   0.000001   0.000000   0.000039   0.000954
    21  H    0.000081   0.000000   0.000000  -0.000000  -0.000006  -0.001446
    22  H   -0.001286   0.000000   0.000000   0.000000   0.000000   0.001096
    23  H   -0.000090  -0.000003  -0.000000   0.000000   0.000007  -0.001379
    24  H   -0.008181  -0.004374  -0.002446   0.000031  -0.037615  -0.002996
    25  H   -0.005287  -0.005735  -0.000132   0.000003  -0.000249   0.000000
    26  H    0.005672  -0.003343   0.001090  -0.000190   0.003739   0.000000
    27  H   -0.004964   0.005230   0.000036   0.000002  -0.000139  -0.000002
    28  H    0.365064   0.004858  -0.000069   0.000001   0.000051  -0.000009
    29  H    0.363745  -0.006366   0.000062   0.000000   0.000089  -0.000001
    30  H    0.365970  -0.005644   0.000115   0.000000  -0.000201   0.000000
    31  H    0.001069   0.344383  -0.020900   0.001163   0.006770   0.000000
    32  H   -0.008458   0.347528  -0.023461  -0.000464   0.004526   0.000001
    33  H   -0.000030   0.004025  -0.025452  -0.000033   0.353267  -0.000497
    34  H   -0.000126   0.005981  -0.020235   0.000713   0.353626   0.001331
    35  H    0.000005   0.000001  -0.000000  -0.000000   0.000011  -0.057938
    36  H    0.000000   0.000000  -0.000000  -0.000000   0.000000   0.004381
    37  H   -0.000000   0.000000   0.000000  -0.000000  -0.000000   0.000634
    38  H    0.000000   0.000000  -0.000000  -0.000000  -0.000000   0.004357
    39  H   -0.000000   0.000000   0.000001  -0.000000  -0.000068  -0.054770
              13         14         15         16         17         18
     1  Si  -0.025989   0.003359  -0.000257   0.005066  -0.025224  -0.021261
     2  C    0.000180  -0.000035   0.000001   0.000118   0.001818   0.361223
     3  C    0.000112   0.000080   0.000004  -0.000046  -0.000554   0.001249
     4  C   -0.001823  -0.000020   0.000006  -0.000048  -0.001262  -0.001428
     5  C    0.000057   0.000001  -0.000000   0.000000  -0.000001   0.000012
     6  C    0.000000  -0.000000   0.000000   0.000000  -0.000000  -0.000125
     7  C   -0.000011  -0.000000   0.000000  -0.000000  -0.000000   0.000000
     8  C   -0.000005  -0.000000   0.000000  -0.000000  -0.000000   0.000011
     9  C    0.000002  -0.000000  -0.000000   0.000000   0.000007  -0.000017
    10  O    0.000000   0.000000  -0.000000  -0.000000   0.000000   0.000001
    11  C   -0.000366  -0.000001   0.000003  -0.000003  -0.000047  -0.000121
    12  C    0.494116  -0.025007  -0.036357  -0.026911   0.499459  -0.000675
    13  C    4.951208   0.516900  -0.026856  -0.052020  -0.007730   0.000022
    14  C    0.516900   4.891547   0.546844  -0.027450  -0.051950  -0.000000
    15  C   -0.026856   0.546844   4.848847   0.548721  -0.027212  -0.000000
    16  C   -0.052020  -0.027450   0.548721   4.893252   0.511876  -0.000011
    17  C   -0.007730  -0.051950  -0.027212   0.511876   4.950991  -0.000768
    18  H    0.000022  -0.000000  -0.000000  -0.000011  -0.000768   0.545209
    19  H    0.000034  -0.000002  -0.000001  -0.000033  -0.000110  -0.025408
    20  H    0.000003   0.000000   0.000000  -0.000001   0.000023  -0.024526
    21  H   -0.000126  -0.000010  -0.000000  -0.000004   0.000004  -0.000009
    22  H    0.000022   0.000001  -0.000000   0.000000   0.000005  -0.000003
    23  H   -0.000327  -0.000009   0.000000   0.000000   0.000033  -0.000019
    24  H    0.001407   0.000002  -0.000000  -0.000001   0.000048   0.000004
    25  H   -0.000000  -0.000000   0.000000  -0.000000  -0.000000  -0.000003
    26  H    0.000000   0.000000  -0.000000  -0.000000  -0.000000   0.000101
    27  H    0.000000   0.000000  -0.000000  -0.000000  -0.000000  -0.000013
    28  H   -0.000005  -0.000000  -0.000000  -0.000000   0.000000   0.000000
    29  H   -0.000007  -0.000000   0.000000   0.000000   0.000000   0.000000
    30  H    0.000000   0.000000  -0.000000   0.000000   0.000000   0.000000
    31  H    0.000000   0.000000  -0.000000   0.000000   0.000000  -0.000000
    32  H    0.000000  -0.000000  -0.000000   0.000000   0.000000  -0.000000
    33  H    0.000011   0.000000   0.000000   0.000007  -0.000025   0.003502
    34  H    0.000137  -0.000019  -0.000004  -0.000001   0.000626  -0.000029
    35  H    0.359627  -0.050021   0.004907   0.000338   0.006637   0.000000
    36  H   -0.040640   0.356058  -0.044016   0.004570   0.000757   0.000000
    37  H    0.004744  -0.043383   0.357987  -0.043056   0.004747  -0.000000
    38  H    0.000770   0.004574  -0.044110   0.356697  -0.040630   0.000000
    39  H    0.006600   0.000304   0.004964  -0.051239   0.362610   0.001976
              19         20         21         22         23         24
     1  Si  -0.018964  -0.019797  -0.016609  -0.019547  -0.020857  -0.029966
     2  C    0.360095   0.361509  -0.000958  -0.001248   0.001273   0.001197
     3  C   -0.001170  -0.001255   0.359840   0.359415   0.362890  -0.000684
     4  C    0.001045  -0.000330   0.000978  -0.000771  -0.000895   0.347675
     5  C    0.000008   0.000029  -0.000011   0.000413  -0.000324  -0.036968
     6  C    0.000031  -0.000025   0.000007  -0.000291   0.000053   0.006330
     7  C    0.000000  -0.000002   0.000081  -0.001286  -0.000090  -0.008181
     8  C    0.000001   0.000002   0.000000   0.000000  -0.000003  -0.004374
     9  C    0.000000   0.000001   0.000000   0.000000  -0.000000  -0.002446
    10  O   -0.000000   0.000000  -0.000000   0.000000   0.000000   0.000031
    11  C    0.000077   0.000039  -0.000006   0.000000   0.000007  -0.037615
    12  C   -0.001136   0.000954  -0.001446   0.001096  -0.001379  -0.002996
    13  C    0.000034   0.000003  -0.000126   0.000022  -0.000327   0.001407
    14  C   -0.000002   0.000000  -0.000010   0.000001  -0.000009   0.000002
    15  C   -0.000001   0.000000  -0.000000  -0.000000   0.000000  -0.000000
    16  C   -0.000033  -0.000001  -0.000004   0.000000   0.000000  -0.000001
    17  C   -0.000110   0.000023   0.000004   0.000005   0.000033   0.000048
    18  H   -0.025408  -0.024526  -0.000009  -0.000003  -0.000019   0.000004
    19  H    0.540087  -0.023829   0.000327  -0.000106  -0.000007  -0.000017
    20  H   -0.023829   0.539937  -0.000046   0.000456   0.000001  -0.000003
    21  H    0.000327  -0.000046   0.537720  -0.024833  -0.024586  -0.000021
    22  H   -0.000106   0.000456  -0.024833   0.548282  -0.026305   0.000005
    23  H   -0.000007   0.000001  -0.024586  -0.026305   0.545823   0.000326
    24  H   -0.000017  -0.000003  -0.000021   0.000005   0.000326   0.615508
    25  H   -0.000001   0.000003   0.000000  -0.000006   0.000000  -0.000178
    26  H    0.000016   0.000580  -0.000000  -0.000008  -0.000001   0.000036
    27  H    0.000041   0.002393   0.000001   0.001529  -0.000034  -0.000004
    28  H    0.000001  -0.000014   0.000086   0.003149   0.000732  -0.000287
    29  H   -0.000000  -0.000000  -0.000003  -0.000011   0.000166   0.006490
    30  H   -0.000000  -0.000000  -0.000001   0.000010   0.000002   0.000034
    31  H   -0.000000  -0.000000  -0.000000  -0.000000   0.000000  -0.000083
    32  H   -0.000000  -0.000000  -0.000000  -0.000000  -0.000000   0.002867
    33  H   -0.000078  -0.000046  -0.000001  -0.000000   0.000001   0.005607
    34  H   -0.000001   0.000003   0.000000  -0.000000  -0.000001  -0.006890
    35  H   -0.000000  -0.000001  -0.000034  -0.000051   0.001890   0.000899
    36  H    0.000000  -0.000000   0.000000  -0.000000  -0.000000   0.000001
    37  H   -0.000000  -0.000000  -0.000000  -0.000000  -0.000000  -0.000000
    38  H    0.000001  -0.000000   0.000000  -0.000000   0.000000   0.000000
    39  H    0.000891  -0.000050  -0.000006  -0.000002  -0.000000  -0.000001
              25         26         27         28         29         30
     1  Si  -0.000475  -0.001466   0.008522   0.001126   0.000224  -0.000156
     2  C    0.000081   0.000059  -0.001861  -0.000018   0.000003  -0.000000
     3  C   -0.000000   0.000042  -0.000339   0.000733  -0.000023   0.000039
     4  C    0.005880  -0.006169  -0.005534  -0.003342  -0.006199   0.005048
     5  C   -0.027329  -0.028853  -0.029845  -0.027770  -0.027008  -0.028861
     6  C    0.362415   0.369292   0.366512  -0.004789   0.005814  -0.004240
     7  C   -0.005287   0.005672  -0.004964   0.365064   0.363745   0.365970
     8  C   -0.005735  -0.003343   0.005230   0.004858  -0.006366  -0.005644
     9  C   -0.000132   0.001090   0.000036  -0.000069   0.000062   0.000115
    10  O    0.000003  -0.000190   0.000002   0.000001   0.000000   0.000000
    11  C   -0.000249   0.003739  -0.000139   0.000051   0.000089  -0.000201
    12  C    0.000000   0.000000  -0.000002  -0.000009  -0.000001   0.000000
    13  C   -0.000000   0.000000   0.000000  -0.000005  -0.000007   0.000000
    14  C   -0.000000   0.000000   0.000000  -0.000000  -0.000000   0.000000
    15  C    0.000000  -0.000000  -0.000000  -0.000000   0.000000  -0.000000
    16  C   -0.000000  -0.000000  -0.000000  -0.000000   0.000000   0.000000
    17  C   -0.000000  -0.000000  -0.000000   0.000000   0.000000   0.000000
    18  H   -0.000003   0.000101  -0.000013   0.000000   0.000000   0.000000
    19  H   -0.000001   0.000016   0.000041   0.000001  -0.000000  -0.000000
    20  H    0.000003   0.000580   0.002393  -0.000014  -0.000000  -0.000000
    21  H    0.000000  -0.000000   0.000001   0.000086  -0.000003  -0.000001
    22  H   -0.000006  -0.000008   0.001529   0.003149  -0.000011   0.000010
    23  H    0.000000  -0.000001  -0.000034   0.000732   0.000166   0.000002
    24  H   -0.000178   0.000036  -0.000004  -0.000287   0.006490   0.000034
    25  H    0.578199  -0.030673  -0.029254  -0.000088  -0.000059   0.004413
    26  H   -0.030673   0.572741  -0.031838  -0.000023  -0.000190  -0.000051
    27  H   -0.029254  -0.031838   0.563787   0.003465  -0.000000  -0.000186
    28  H   -0.000088  -0.000023   0.003465   0.567960  -0.030117  -0.030601
    29  H   -0.000059  -0.000190  -0.000000  -0.030117   0.580648  -0.030320
    30  H    0.004413  -0.000051  -0.000186  -0.030601  -0.030320   0.579820
    31  H    0.004155   0.000520   0.000055  -0.000141  -0.000125   0.001437
    32  H   -0.000037  -0.000042  -0.000180   0.000126   0.005362   0.000115
    33  H   -0.000055   0.001814  -0.000030  -0.000006   0.000002   0.000004
    34  H    0.000002  -0.000036  -0.000005  -0.000002  -0.000011   0.000003
    35  H   -0.000000  -0.000000   0.000000  -0.000007   0.000012  -0.000000
    36  H    0.000000  -0.000000   0.000000   0.000000  -0.000000  -0.000000
    37  H   -0.000000   0.000000  -0.000000   0.000000   0.000000  -0.000000
    38  H   -0.000000  -0.000000   0.000000   0.000000  -0.000000  -0.000000
    39  H    0.000000  -0.000000   0.000000   0.000000   0.000000  -0.000000
              31         32         33         34         35         36
     1  Si  -0.000142  -0.000199  -0.008715   0.003440  -0.005365  -0.000222
     2  C    0.000001   0.000000   0.002445  -0.000094   0.000063   0.000000
     3  C    0.000000  -0.000001   0.000036  -0.000010   0.001109  -0.000000
     4  C    0.004591  -0.001380  -0.038725  -0.024491  -0.000077  -0.000001
     5  C   -0.026885  -0.032933  -0.001220   0.003051  -0.000041  -0.000000
     6  C   -0.006252   0.005718   0.001575   0.000045   0.000000   0.000000
     7  C    0.001069  -0.008458  -0.000030  -0.000126   0.000005   0.000000
     8  C    0.344383   0.347528   0.004025   0.005981   0.000001   0.000000
     9  C   -0.020900  -0.023461  -0.025452  -0.020235  -0.000000  -0.000000
    10  O    0.001163  -0.000464  -0.000033   0.000713  -0.000000  -0.000000
    11  C    0.006770   0.004526   0.353267   0.353626   0.000011   0.000000
    12  C    0.000000   0.000001  -0.000497   0.001331  -0.057938   0.004381
    13  C    0.000000   0.000000   0.000011   0.000137   0.359627  -0.040640
    14  C    0.000000  -0.000000   0.000000  -0.000019  -0.050021   0.356058
    15  C   -0.000000  -0.000000   0.000000  -0.000004   0.004907  -0.044016
    16  C    0.000000   0.000000   0.000007  -0.000001   0.000338   0.004570
    17  C    0.000000   0.000000  -0.000025   0.000626   0.006637   0.000757
    18  H   -0.000000  -0.000000   0.003502  -0.000029   0.000000   0.000000
    19  H   -0.000000  -0.000000  -0.000078  -0.000001  -0.000000   0.000000
    20  H   -0.000000  -0.000000  -0.000046   0.000003  -0.000001  -0.000000
    21  H   -0.000000  -0.000000  -0.000001   0.000000  -0.000034   0.000000
    22  H   -0.000000  -0.000000  -0.000000  -0.000000  -0.000051  -0.000000
    23  H    0.000000  -0.000000   0.000001  -0.000001   0.001890  -0.000000
    24  H   -0.000083   0.002867   0.005607  -0.006890   0.000899   0.000001
    25  H    0.004155  -0.000037  -0.000055   0.000002  -0.000000   0.000000
    26  H    0.000520  -0.000042   0.001814  -0.000036  -0.000000  -0.000000
    27  H    0.000055  -0.000180  -0.000030  -0.000005   0.000000   0.000000
    28  H   -0.000141   0.000126  -0.000006  -0.000002  -0.000007   0.000000
    29  H   -0.000125   0.005362   0.000002  -0.000011   0.000012  -0.000000
    30  H    0.001437   0.000115   0.000004   0.000003  -0.000000  -0.000000
    31  H    0.550608  -0.023907  -0.000295  -0.000055  -0.000000  -0.000000
    32  H   -0.023907   0.559800   0.000083  -0.000381   0.000000  -0.000000
    33  H   -0.000295   0.000083   0.557457  -0.025194   0.000000   0.000000
    34  H   -0.000055  -0.000381  -0.025194   0.525128  -0.000013   0.000000
    35  H   -0.000000   0.000000   0.000000  -0.000013   0.620106  -0.005542
    36  H   -0.000000  -0.000000   0.000000   0.000000  -0.005542   0.601605
    37  H    0.000000   0.000000  -0.000000  -0.000000  -0.000192  -0.005648
    38  H   -0.000000  -0.000000  -0.000000  -0.000000   0.000019  -0.000181
    39  H   -0.000000   0.000000  -0.000015   0.000022  -0.000154   0.000019
              37         38         39
     1  Si   0.000027  -0.000236  -0.011723
     2  C   -0.000000  -0.000000   0.003617
     3  C    0.000000   0.000000   0.000071
     4  C    0.000000   0.000000   0.000081
     5  C    0.000000  -0.000000  -0.000003
     6  C    0.000000   0.000000   0.000000
     7  C   -0.000000   0.000000  -0.000000
     8  C    0.000000   0.000000   0.000000
     9  C    0.000000  -0.000000   0.000001
    10  O   -0.000000  -0.000000  -0.000000
    11  C   -0.000000  -0.000000  -0.000068
    12  C    0.000634   0.004357  -0.054770
    13  C    0.004744   0.000770   0.006600
    14  C   -0.043383   0.004574   0.000304
    15  C    0.357987  -0.044110   0.004964
    16  C   -0.043056   0.356697  -0.051239
    17  C    0.004747  -0.040630   0.362610
    18  H   -0.000000   0.000000   0.001976
    19  H   -0.000000   0.000001   0.000891
    20  H   -0.000000  -0.000000  -0.000050
    21  H   -0.000000   0.000000  -0.000006
    22  H   -0.000000  -0.000000  -0.000002
    23  H   -0.000000   0.000000  -0.000000
    24  H   -0.000000   0.000000  -0.000001
    25  H   -0.000000  -0.000000   0.000000
    26  H    0.000000  -0.000000  -0.000000
    27  H   -0.000000   0.000000   0.000000
    28  H    0.000000   0.000000   0.000000
    29  H    0.000000  -0.000000   0.000000
    30  H   -0.000000  -0.000000  -0.000000
    31  H    0.000000  -0.000000  -0.000000
    32  H    0.000000  -0.000000   0.000000
    33  H   -0.000000  -0.000000  -0.000015
    34  H   -0.000000  -0.000000   0.000022
    35  H   -0.000192   0.000019  -0.000154
    36  H   -0.005648  -0.000181   0.000019
    37  H    0.598803  -0.005675  -0.000192
    38  H   -0.005675   0.600329  -0.005384
    39  H   -0.000192  -0.005384   0.616233
 Mulliken charges:
               1
     1  Si   0.695055
     2  C   -0.686222
     3  C   -0.669170
     4  C   -0.307960
     5  C    0.088815
     6  C   -0.460085
     7  C   -0.459864
     8  C   -0.359886
     9  C    0.441784
    10  O   -0.450760
    11  C   -0.377590
    12  C   -0.040069
    13  C   -0.180049
    14  C   -0.121764
    15  C   -0.133471
    16  C   -0.119821
    17  C   -0.184126
    18  H    0.161107
    19  H    0.168209
    20  H    0.163990
    21  H    0.169664
    22  H    0.160085
    23  H    0.161640
    24  H    0.142251
    25  H    0.144410
    26  H    0.147181
    27  H    0.152656
    28  H    0.149936
    29  H    0.137826
    30  H    0.143252
    31  H    0.164031
    32  H    0.165316
    33  H    0.170580
    34  H    0.183491
    35  H    0.123809
    36  H    0.128858
    37  H    0.131205
    38  H    0.129468
    39  H    0.126218
 Sum of Mulliken charges =  -0.00000
 Mulliken charges with hydrogens summed into heavy atoms:
               1
     1  Si   0.695055
     2  C   -0.192916
     3  C   -0.177780
     4  C   -0.165709
     5  C    0.088815
     6  C   -0.015838
     7  C   -0.028850
     8  C   -0.030539
     9  C    0.441784
    10  O   -0.450760
    11  C   -0.023519
    12  C   -0.040069
    13  C   -0.056240
    14  C    0.007094
    15  C   -0.002267
    16  C    0.009646
    17  C   -0.057908
 APT charges:
               1
     1  Si   1.475115
     2  C   -0.383325
     3  C   -0.384637
     4  C   -0.313152
     5  C    0.179377
     6  C    0.039451
     7  C    0.057881
     8  C   -0.124829
     9  C    0.820946
    10  O   -0.718258
    11  C   -0.103316
    12  C   -0.363690
    13  C   -0.031792
    14  C   -0.013394
    15  C   -0.011100
    16  C   -0.008722
    17  C   -0.028085
    18  H    0.018900
    19  H    0.011030
    20  H    0.011968
    21  H    0.001402
    22  H    0.003016
    23  H    0.018191
    24  H   -0.042977
    25  H   -0.031312
    26  H   -0.012482
    27  H   -0.020462
    28  H   -0.015835
    29  H   -0.023093
    30  H   -0.032244
    31  H   -0.021386
    32  H   -0.004116
    33  H    0.003314
    34  H    0.000216
    35  H    0.012797
    36  H    0.003827
    37  H    0.009919
    38  H    0.003690
    39  H    0.017165
 Sum of APT charges =   0.00000
 APT charges with hydrogens summed into heavy atoms:
               1
     1  Si   1.475115
     2  C   -0.341427
     3  C   -0.362028
     4  C   -0.356128
     5  C    0.179377
     6  C   -0.024805
     7  C   -0.013291
     8  C   -0.150331
     9  C    0.820946
    10  O   -0.718258
    11  C   -0.099785
    12  C   -0.363690
    13  C   -0.018995
    14  C   -0.009567
    15  C   -0.001181
    16  C   -0.005031
    17  C   -0.010920
 Electronic spatial extent (au):  <R**2>=           5055.9778
 Charge=              0.0000 electrons
 Dipole moment (field-independent basis, Debye):
    X=              1.1731    Y=             -2.8135    Z=             -0.5908  Tot=              3.1050
 Quadrupole moment (field-independent basis, Debye-Ang):
   XX=           -110.4837   YY=           -122.8451   ZZ=           -105.2304
   XY=             12.8910   XZ=              1.3869   YZ=             -1.4769
 Traceless Quadrupole moment (field-independent basis, Debye-Ang):
   XX=              2.3694   YY=             -9.9921   ZZ=              7.6227
   XY=             12.8910   XZ=              1.3869   YZ=             -1.4769
 Octapole moment (field-independent basis, Debye-Ang**2):
  XXX=             13.3469  YYY=            -37.4310  ZZZ=             -3.9751  XYY=             34.7126
  XXY=             -7.7319  XXZ=             -9.8542  XZZ=              4.6675  YZZ=              8.0123
  YYZ=             -2.4288  XYZ=              7.6653
 Hexadecapole moment (field-independent basis, Debye-Ang**3):
 XXXX=          -4304.8370 YYYY=          -1668.3239 ZZZZ=           -906.9597 XXXY=            179.8992
 XXXZ=             -9.4455 YYYX=            106.8873 YYYZ=            -25.9688 ZZZX=            -13.2196
 ZZZY=             10.8333 XXYY=          -1099.8019 XXZZ=           -849.9406 YYZZ=           -404.0746
 XXYZ=            -14.9279 YYXZ=             23.3246 ZZXY=            -10.6635
 N-N= 1.344366545293D+03 E-N=-4.907578567856D+03  KE= 9.420067585812D+02
  Exact polarizability: 203.161  20.648 152.831  -3.037   6.571 160.760
 Approx polarizability: 267.908  33.322 227.551  -6.711  16.146 266.735
 Calling FoFJK, ICntrl=    100127 FMM=F ISym2X=0 I1Cent= 0 IOpClX= 0 NMat=1 NMatS=1 NMatT=0.
 Full mass-weighted force constant matrix:
 Low frequencies ---   -4.7621   -0.0011    0.0020    0.0021    3.8748    6.0120
 Low frequencies ---   12.0859   26.4638   48.4649
 Diagonal vibrational polarizability:
       36.3620103      19.3335382      45.4954401
 Harmonic frequencies (cm**-1), IR intensities (KM/Mole), Raman scattering
 activities (A**4/AMU), depolarization ratios for plane and unpolarized
 incident light, reduced masses (AMU), force constants (mDyne/A),
 and normal coordinates:
                      1                      2                      3
                      A                      A                      A
 Frequencies --     11.9776                26.4312                48.4626
 Red. masses --      3.7088                 4.3527                 4.5216
 Frc consts  --      0.0003                 0.0018                 0.0063
 IR Inten    --      0.0644                 0.5671                 0.2122
  Atom  AN      X      Y      Z        X      Y      Z        X      Y      Z
     1  14     0.00  -0.02  -0.03     0.00  -0.06  -0.05     0.00  -0.08   0.08
     2   6     0.01  -0.06  -0.04     0.00  -0.13  -0.05    -0.01  -0.06   0.08
     3   6    -0.01   0.00  -0.07     0.03  -0.03  -0.12    -0.03  -0.09   0.10
     4   6    -0.00   0.00  -0.00    -0.01  -0.06  -0.03     0.05  -0.03   0.06
     5   6    -0.01   0.01   0.01    -0.03  -0.01   0.08     0.05   0.02  -0.05
     6   6     0.00   0.00   0.01     0.00   0.09   0.14    -0.04  -0.02  -0.11
     7   6    -0.03   0.03  -0.00    -0.13  -0.08   0.15     0.10   0.07  -0.10
     8   6    -0.00   0.02   0.04     0.01   0.00   0.03     0.11   0.05  -0.04
     9   6     0.01   0.01   0.04     0.10   0.02  -0.08     0.11   0.01   0.01
    10   8     0.02   0.00   0.07     0.16   0.06  -0.15     0.15   0.04  -0.02
    11   6     0.02  -0.01   0.02     0.08  -0.02  -0.10     0.05  -0.06   0.11
    12   6     0.00  -0.01  -0.02    -0.02  -0.01   0.00    -0.02  -0.06   0.04
    13   6     0.13  -0.19   0.03    -0.01   0.07   0.01    -0.09  -0.03   0.01
    14   6     0.12  -0.18   0.04    -0.03   0.13   0.04    -0.16   0.07  -0.06
    15   6    -0.01   0.02   0.01    -0.06   0.11   0.08    -0.17   0.14  -0.10
    16   6    -0.14   0.20  -0.03    -0.07   0.04   0.07    -0.10   0.11  -0.08
    17   6    -0.13   0.19  -0.04    -0.05  -0.02   0.04    -0.02   0.01  -0.01
    18   1    -0.02  -0.07  -0.01    -0.09  -0.16  -0.03     0.06  -0.05   0.07
    19   1     0.03  -0.04  -0.05     0.05  -0.07  -0.06    -0.05  -0.12   0.08
    20   1     0.03  -0.09  -0.04     0.05  -0.22  -0.08    -0.05   0.01   0.08
    21   1    -0.00  -0.01  -0.10     0.05  -0.03  -0.16    -0.06  -0.11   0.13
    22   1    -0.00  -0.00  -0.06     0.05  -0.06  -0.12    -0.06  -0.06   0.09
    23   1    -0.04   0.02  -0.07    -0.00   0.02  -0.12     0.00  -0.11   0.10
    24   1    -0.01   0.01  -0.00    -0.05  -0.13  -0.06     0.11   0.00   0.09
    25   1     0.00   0.01   0.02    -0.01   0.14   0.21    -0.04  -0.00  -0.18
    26   1     0.02  -0.01   0.02     0.09   0.13   0.10    -0.10  -0.04  -0.08
    27   1    -0.00  -0.01  -0.01    -0.03   0.08   0.17    -0.07  -0.03  -0.10
    28   1    -0.03   0.02  -0.02    -0.16  -0.09   0.18     0.06   0.05  -0.10
    29   1    -0.03   0.04   0.00    -0.16  -0.15   0.10     0.17   0.09  -0.05
    30   1    -0.03   0.04   0.01    -0.15  -0.04   0.21     0.10   0.10  -0.17
    31   1     0.00   0.03   0.05     0.02   0.06   0.09     0.09   0.08  -0.09
    32   1    -0.01   0.04   0.04    -0.04  -0.07   0.01     0.15   0.08  -0.03
    33   1     0.03  -0.02   0.02     0.12   0.04  -0.09    -0.06  -0.12   0.11
    34   1     0.02  -0.01   0.02     0.11  -0.07  -0.16     0.10  -0.09   0.22
    35   1     0.23  -0.35   0.06     0.02   0.08  -0.02    -0.09  -0.08   0.04
    36   1     0.23  -0.32   0.08    -0.02   0.19   0.05    -0.21   0.09  -0.08
    37   1    -0.01   0.03   0.03    -0.08   0.16   0.11    -0.23   0.23  -0.15
    38   1    -0.24   0.36  -0.05    -0.10   0.02   0.10    -0.10   0.17  -0.11
    39   1    -0.23   0.33  -0.08    -0.06  -0.08   0.03     0.03  -0.01   0.01
                      4                      5                      6
                      A                      A                      A
 Frequencies --     68.7334                91.9703               128.8271
 Red. masses --      4.0443                 2.6664                 2.6781
 Frc consts  --      0.0113                 0.0133                 0.0262
 IR Inten    --      4.2652                 0.3314                 0.0042
  Atom  AN      X      Y      Z        X      Y      Z        X      Y      Z
     1  14    -0.00  -0.02  -0.01     0.01  -0.00   0.02    -0.01   0.01   0.05
     2   6    -0.06   0.07  -0.00     0.05  -0.12   0.01    -0.13  -0.11   0.03
     3   6    -0.00  -0.06   0.08     0.03   0.05  -0.09     0.17   0.07  -0.07
     4   6     0.04  -0.03  -0.10    -0.00   0.01   0.08     0.01  -0.00  -0.01
     5   6     0.02   0.02  -0.05     0.01   0.02   0.01     0.01   0.00  -0.00
     6   6     0.01   0.14   0.00    -0.11   0.15   0.02     0.03  -0.03  -0.01
     7   6    -0.04  -0.05   0.02     0.06  -0.08   0.08     0.01   0.02  -0.02
     8   6     0.08   0.04  -0.11     0.08   0.02  -0.15    -0.01   0.00   0.02
     9   6     0.03  -0.03   0.01    -0.03  -0.00  -0.02     0.01   0.01  -0.01
    10   8    -0.06  -0.13   0.28    -0.09  -0.03   0.00     0.01   0.00   0.01
    11   6     0.12   0.03  -0.19    -0.06  -0.00   0.10     0.04   0.03  -0.07
    12   6     0.00  -0.03   0.00     0.01   0.01   0.01    -0.04   0.07   0.09
    13   6    -0.01  -0.01   0.00    -0.01  -0.00   0.01    -0.10  -0.00   0.07
    14   6    -0.03   0.03   0.00    -0.01  -0.02  -0.02    -0.09  -0.07  -0.01
    15   6    -0.04   0.05   0.00     0.01  -0.02  -0.03    -0.01  -0.08  -0.07
    16   6    -0.03   0.02   0.01     0.03   0.00  -0.03     0.04   0.00  -0.05
    17   6    -0.01  -0.02   0.01     0.02   0.02  -0.00     0.02   0.08   0.04
    18   1    -0.10   0.09  -0.05     0.08  -0.15   0.07    -0.43  -0.15   0.07
    19   1    -0.06   0.11   0.05     0.04  -0.17  -0.04    -0.02   0.11   0.08
    20   1    -0.06   0.06  -0.00     0.03  -0.11  -0.02     0.01  -0.36  -0.09
    21   1    -0.03  -0.06   0.14     0.09   0.07  -0.21     0.19   0.12  -0.03
    22   1    -0.02  -0.03   0.07     0.08  -0.01  -0.05     0.20  -0.03  -0.20
    23   1     0.04  -0.12   0.08    -0.08   0.12  -0.10     0.27   0.16  -0.06
    24   1     0.04  -0.13  -0.12     0.02   0.05   0.09     0.03  -0.06  -0.02
    25   1    -0.01   0.20   0.04    -0.10   0.16  -0.05     0.03  -0.01   0.01
    26   1     0.07   0.19  -0.04    -0.18   0.24  -0.03     0.07  -0.06   0.01
    27   1    -0.05   0.13   0.06    -0.14   0.17   0.16     0.02  -0.05  -0.06
    28   1    -0.06  -0.05   0.07    -0.04  -0.10   0.23     0.07   0.04  -0.06
    29   1    -0.04  -0.13  -0.02     0.19  -0.20   0.08    -0.04   0.06  -0.02
    30   1    -0.05  -0.03   0.06     0.06  -0.01  -0.01     0.02  -0.03   0.01
    31   1     0.05   0.06  -0.25     0.03   0.05  -0.35     0.00  -0.00   0.07
    32   1     0.24   0.05  -0.10     0.29  -0.00  -0.14    -0.05   0.00   0.02
    33   1     0.33   0.15  -0.18    -0.15  -0.03   0.10     0.12   0.09  -0.07
    34   1     0.05   0.03  -0.41    -0.04   0.00   0.18     0.02   0.02  -0.16
    35   1     0.00  -0.01  -0.00    -0.02  -0.01   0.02    -0.16  -0.01   0.11
    36   1    -0.03   0.06   0.00    -0.02  -0.04  -0.02    -0.13  -0.13  -0.03
    37   1    -0.06   0.08   0.00     0.02  -0.04  -0.05     0.01  -0.14  -0.13
    38   1    -0.04   0.03   0.01     0.04   0.00  -0.04     0.10   0.01  -0.10
    39   1    -0.01  -0.04   0.01     0.04   0.03   0.00     0.06   0.13   0.05
                      7                      8                      9
                      A                      A                      A
 Frequencies --    135.9838               156.3899               175.9295
 Red. masses --      3.5133                 1.1619                 2.5123
 Frc consts  --      0.0383                 0.0167                 0.0458
 IR Inten    --      0.5427                 0.0129                 0.0475
  Atom  AN      X      Y      Z        X      Y      Z        X      Y      Z
     1  14     0.01  -0.00  -0.02     0.00   0.00   0.01    -0.01   0.00   0.05
     2   6    -0.01   0.09  -0.02    -0.05   0.00   0.00     0.24  -0.07   0.06
     3   6     0.21  -0.04   0.08     0.01   0.03  -0.05    -0.06   0.02   0.02
     4   6    -0.07  -0.09  -0.01     0.01  -0.01  -0.01    -0.01  -0.04  -0.00
     5   6    -0.09  -0.02  -0.02     0.00  -0.01   0.00    -0.02  -0.01  -0.03
     6   6    -0.17   0.01  -0.04     0.00  -0.02   0.00    -0.03  -0.03  -0.04
     7   6    -0.13  -0.01  -0.02    -0.01  -0.01   0.00    -0.03   0.03  -0.06
     8   6    -0.00   0.04  -0.02    -0.00  -0.01   0.01    -0.01   0.01  -0.01
     9   6     0.04  -0.03   0.03     0.01  -0.01  -0.00     0.02  -0.00  -0.03
    10   8     0.13  -0.00   0.05     0.01  -0.01   0.00     0.02  -0.01   0.02
    11   6    -0.02  -0.13   0.07     0.02   0.00  -0.03     0.04   0.01  -0.10
    12   6    -0.04   0.10  -0.04     0.01  -0.00   0.04    -0.06   0.08   0.01
    13   6    -0.01   0.08  -0.03    -0.00  -0.01   0.03    -0.07   0.07   0.01
    14   6     0.05  -0.00  -0.00    -0.02  -0.01   0.00    -0.02  -0.02   0.02
    15   6     0.07  -0.06   0.02    -0.01   0.01  -0.02     0.02  -0.07   0.03
    16   6     0.02  -0.01   0.00     0.02   0.01  -0.01    -0.01  -0.01   0.02
    17   6    -0.03   0.08  -0.03     0.03   0.01   0.02    -0.05   0.07   0.01
    18   1     0.11   0.12  -0.05     0.49   0.03   0.03     0.36  -0.10   0.13
    19   1    -0.08  -0.00   0.01    -0.32  -0.47  -0.05     0.30  -0.12  -0.13
    20   1    -0.08   0.21   0.00    -0.35   0.48   0.02     0.27  -0.06   0.19
    21   1     0.21   0.04   0.23     0.06   0.05  -0.15     0.06   0.06  -0.22
    22   1     0.22  -0.09  -0.00     0.05  -0.01  -0.01     0.04  -0.03   0.25
    23   1     0.35  -0.10   0.08    -0.08   0.09  -0.05    -0.36   0.04   0.00
    24   1    -0.09  -0.04  -0.00    -0.00  -0.03  -0.02     0.03  -0.13  -0.01
    25   1    -0.17   0.06  -0.09    -0.01   0.02   0.01    -0.02  -0.07  -0.06
    26   1    -0.19   0.01  -0.04     0.03  -0.04   0.01    -0.05  -0.03  -0.04
    27   1    -0.22  -0.01  -0.01    -0.02  -0.04  -0.02     0.01  -0.02  -0.04
    28   1    -0.14  -0.02  -0.01    -0.01  -0.01  -0.00    -0.06   0.01  -0.07
    29   1    -0.12  -0.03  -0.02    -0.03  -0.01  -0.00    -0.00   0.04  -0.04
    30   1    -0.13   0.00  -0.01    -0.02  -0.01   0.02    -0.03   0.07  -0.08
    31   1    -0.01   0.10  -0.06     0.00  -0.01   0.03    -0.00   0.02   0.01
    32   1     0.06   0.06  -0.01    -0.02  -0.01   0.01    -0.02   0.00  -0.01
    33   1    -0.10  -0.22   0.06     0.04   0.02  -0.03     0.14   0.11  -0.09
    34   1     0.04  -0.17   0.17     0.01   0.00  -0.06     0.03  -0.01  -0.23
    35   1    -0.01   0.11  -0.05    -0.01  -0.03   0.04    -0.09   0.09   0.01
    36   1     0.08  -0.03   0.01    -0.03  -0.02  -0.00    -0.01  -0.05   0.02
    37   1     0.12  -0.14   0.05    -0.01   0.02  -0.04     0.07  -0.15   0.04
    38   1     0.03  -0.04   0.02     0.03   0.02  -0.02     0.01  -0.03   0.02
    39   1    -0.06   0.10  -0.04     0.05   0.02   0.03    -0.06   0.10   0.00
                     10                     11                     12
                      A                      A                      A
 Frequencies --    186.3602               189.7279               205.9306
 Red. masses --      1.5289                 2.4877                 1.8914
 Frc consts  --      0.0313                 0.0528                 0.0473
 IR Inten    --      0.1663                 0.4272                 0.3714
  Atom  AN      X      Y      Z        X      Y      Z        X      Y      Z
     1  14    -0.01  -0.00  -0.01    -0.04  -0.01  -0.04     0.02   0.01  -0.01
     2   6     0.06  -0.12  -0.02    -0.03   0.03  -0.04    -0.09  -0.14  -0.04
     3   6     0.06  -0.04   0.08     0.10  -0.04   0.03    -0.02  -0.06   0.14
     4   6    -0.00   0.03  -0.00     0.02   0.05  -0.00    -0.01   0.01  -0.01
     5   6    -0.00   0.03   0.00     0.06   0.03   0.01    -0.02   0.01   0.00
     6   6     0.02   0.03   0.01     0.10   0.02   0.03    -0.03  -0.00  -0.01
     7   6     0.02   0.03   0.00     0.15  -0.02   0.04    -0.02   0.01  -0.00
     8   6    -0.02   0.01   0.00     0.02   0.00   0.01    -0.03   0.01   0.01
     9   6    -0.03   0.03  -0.01     0.01   0.02   0.02    -0.02   0.01  -0.00
    10   8    -0.06   0.02  -0.02     0.00   0.02   0.00    -0.02   0.01  -0.00
    11   6    -0.01   0.05  -0.02     0.01   0.03   0.04    -0.01   0.01  -0.01
    12   6    -0.01  -0.00  -0.02    -0.09   0.02  -0.07     0.04   0.02  -0.00
    13   6    -0.00  -0.00  -0.01    -0.07   0.03  -0.06     0.05   0.02  -0.01
    14   6     0.00  -0.00  -0.00    -0.03  -0.02   0.00     0.05   0.03  -0.01
    15   6    -0.01  -0.01   0.01    -0.04  -0.08   0.05     0.05   0.03  -0.02
    16   6    -0.02  -0.01   0.00    -0.10  -0.05   0.03     0.06   0.03  -0.02
    17   6    -0.02  -0.01  -0.01    -0.13  -0.00  -0.03     0.05   0.02  -0.01
    18   1     0.28  -0.17   0.10     0.08   0.05  -0.06    -0.15  -0.22   0.10
    19   1    -0.00  -0.32  -0.15    -0.08  -0.05  -0.04    -0.13  -0.20  -0.04
    20   1    -0.02   0.01  -0.01    -0.09   0.13  -0.01    -0.11  -0.20  -0.21
    21   1    -0.14  -0.11   0.49     0.33   0.20  -0.17     0.16   0.09  -0.07
    22   1    -0.10   0.07  -0.24     0.31  -0.25   0.31     0.13  -0.12   0.56
    23   1     0.52  -0.15   0.10    -0.21  -0.11   0.01    -0.42  -0.24   0.11
    24   1     0.00   0.02  -0.00     0.02   0.09   0.01    -0.02   0.01  -0.01
    25   1     0.02   0.04   0.04     0.10   0.00   0.06    -0.05   0.06  -0.00
    26   1     0.05   0.03   0.01     0.12   0.03   0.02     0.02  -0.04   0.01
    27   1     0.02   0.03   0.00     0.13   0.03   0.02    -0.09  -0.04  -0.05
    28   1     0.10   0.07  -0.04     0.29   0.06   0.07     0.03   0.04  -0.03
    29   1    -0.06   0.07  -0.01     0.09   0.00   0.02    -0.08   0.04  -0.01
    30   1     0.03  -0.06   0.05     0.18  -0.18   0.06    -0.02  -0.04   0.03
    31   1    -0.02  -0.00   0.02     0.02  -0.01   0.01    -0.02   0.01   0.04
    32   1    -0.04   0.01   0.00     0.02   0.01   0.01    -0.05   0.01   0.01
    33   1     0.01   0.07  -0.02    -0.01  -0.01   0.04     0.00   0.02  -0.01
    34   1    -0.03   0.05  -0.05     0.01   0.04   0.08    -0.02   0.02  -0.02
    35   1     0.01   0.00  -0.02    -0.06   0.06  -0.08     0.05   0.02  -0.01
    36   1     0.01   0.00   0.00     0.02  -0.02   0.02     0.04   0.03  -0.02
    37   1    -0.00  -0.01   0.02     0.00  -0.13   0.09     0.05   0.04  -0.03
    38   1    -0.03  -0.01   0.01    -0.11  -0.08   0.05     0.06   0.02  -0.02
    39   1    -0.03  -0.01  -0.01    -0.18  -0.01  -0.05     0.06   0.02  -0.01
                     13                     14                     15
                      A                      A                      A
 Frequencies --    210.9055               233.1660               253.7879
 Red. masses --      2.7070                 2.1096                 1.1457
 Frc consts  --      0.0709                 0.0676                 0.0435
 IR Inten    --      0.9357                 0.0732                 0.2936
  Atom  AN      X      Y      Z        X      Y      Z        X      Y      Z
     1  14     0.01  -0.03   0.01    -0.00   0.00  -0.01     0.00  -0.00   0.01
     2   6     0.10   0.05   0.03     0.05   0.00  -0.00     0.01   0.01   0.01
     3   6     0.19  -0.02  -0.02     0.01  -0.01   0.02    -0.04   0.02  -0.03
     4   6    -0.03   0.01   0.01     0.01   0.01  -0.07    -0.01  -0.01   0.02
     5   6    -0.05   0.03  -0.00     0.02   0.02  -0.07    -0.02  -0.01   0.01
     6   6    -0.08   0.01  -0.02     0.17   0.06   0.01    -0.06   0.00  -0.01
     7   6    -0.04   0.06  -0.03    -0.15   0.01  -0.04     0.05  -0.02   0.01
     8   6    -0.06   0.03   0.02     0.02   0.02  -0.07     0.00   0.00  -0.01
     9   6    -0.05   0.04  -0.01    -0.02  -0.01  -0.00     0.01  -0.00  -0.00
    10   8    -0.06   0.04  -0.01    -0.01  -0.01  -0.01     0.02  -0.00   0.01
    11   6    -0.03   0.05  -0.04    -0.06  -0.06   0.08     0.01  -0.00  -0.01
    12   6     0.05  -0.12   0.01     0.00   0.00   0.06     0.00   0.00  -0.01
    13   6     0.06  -0.12   0.02    -0.02  -0.02   0.05     0.01   0.00  -0.01
    14   6    -0.01  -0.01   0.00    -0.04  -0.02   0.01     0.01   0.01  -0.00
    15   6    -0.07   0.08  -0.01    -0.02  -0.00  -0.01     0.01   0.00   0.00
    16   6    -0.02  -0.02   0.01     0.01   0.01   0.00     0.00   0.00  -0.00
    17   6     0.04  -0.12   0.02     0.02   0.01   0.04     0.00   0.00  -0.01
    18   1     0.07   0.09  -0.04     0.08  -0.00   0.01    -0.02   0.02  -0.00
    19   1     0.16   0.13   0.01     0.09   0.02  -0.07     0.02   0.04   0.03
    20   1     0.15   0.02   0.13     0.08  -0.02   0.06     0.02  -0.00   0.01
    21   1     0.41   0.21  -0.21     0.06   0.03  -0.04    -0.06  -0.03  -0.04
    22   1     0.40  -0.26   0.13     0.05  -0.03   0.10    -0.06   0.04  -0.06
    23   1    -0.02   0.03  -0.03    -0.07  -0.03   0.01    -0.02   0.06  -0.03
    24   1    -0.02  -0.03   0.01     0.05   0.10  -0.04    -0.01  -0.03   0.01
    25   1    -0.07  -0.02  -0.06     0.11   0.21   0.24    -0.10   0.18   0.02
    26   1    -0.13   0.02  -0.02     0.46  -0.01   0.02     0.07  -0.07   0.03
    27   1    -0.05   0.03  -0.00     0.08  -0.03  -0.14    -0.21  -0.09  -0.09
    28   1     0.03   0.09  -0.07    -0.05   0.04  -0.15     0.50   0.19  -0.18
    29   1    -0.09   0.12  -0.02    -0.38   0.04  -0.12    -0.39   0.19  -0.08
    30   1    -0.03   0.00   0.00    -0.17  -0.06   0.20     0.10  -0.47   0.30
    31   1    -0.05   0.03   0.06     0.00   0.00  -0.13    -0.00   0.03  -0.04
    32   1    -0.10   0.04   0.01     0.08   0.04  -0.06     0.04  -0.00  -0.01
    33   1     0.02   0.11  -0.04    -0.20  -0.22   0.06     0.02   0.02  -0.00
    34   1    -0.04   0.04  -0.11    -0.03  -0.03   0.28     0.01  -0.01  -0.03
    35   1     0.09  -0.16   0.02    -0.04  -0.03   0.07     0.01   0.00  -0.01
    36   1    -0.02   0.03  -0.00    -0.06  -0.03   0.00     0.01   0.01  -0.00
    37   1    -0.14   0.20  -0.03    -0.03   0.00  -0.04     0.01   0.01   0.00
    38   1    -0.04   0.00   0.01     0.03   0.02  -0.02     0.00   0.00   0.00
    39   1     0.06  -0.17   0.03     0.04   0.02   0.05     0.00  -0.00  -0.01
                     16                     17                     18
                      A                      A                      A
 Frequencies --    274.0209               302.5830               306.9758
 Red. masses --      1.4546                 1.9955                 3.6645
 Frc consts  --      0.0644                 0.1076                 0.2035
 IR Inten    --      0.8563                 3.4108                 3.7252
  Atom  AN      X      Y      Z        X      Y      Z        X      Y      Z
     1  14     0.02  -0.02   0.04     0.03  -0.07   0.07    -0.04   0.15   0.08
     2   6    -0.02   0.00   0.05    -0.06  -0.01   0.09    -0.03  -0.07   0.08
     3   6     0.02   0.01  -0.01     0.01  -0.03  -0.03     0.02   0.20   0.07
     4   6     0.01  -0.01   0.06     0.03  -0.02   0.04    -0.01   0.01  -0.03
     5   6     0.01  -0.00   0.03     0.02   0.01   0.00    -0.00  -0.02  -0.04
     6   6    -0.00  -0.04   0.01     0.05   0.05   0.02     0.05  -0.07  -0.04
     7   6    -0.03   0.05  -0.01    -0.08   0.08  -0.04    -0.06  -0.10   0.02
     8   6     0.05  -0.00  -0.02     0.02  -0.01  -0.01     0.02   0.01  -0.05
[...]
 ,0.00006759,0.00022977,0.00026653,-0.00011626,-0.00002937,-0.00003098,
 0.00000611,-0.00000960,-0.00000261,-0.00000928,0.00000103,0.00000898,0
 .00000324,0.00005098,0.00002139,0.00001490,-0.00003663,0.00000307,-0.0
 0000811,0.00001824,-0.00000330,-0.00003857,0.00004315,-0.00005563,-0.0
 0048138,0.00037674,0.00175436,-0.10337655,-0.26272187,0.05906521,-0.01
 041741,-0.01749850,0.00890485,-0.00176546,-0.00069506,-0.00506629,0.00
 042831,0.00045888,-0.00054174,-0.00206199,0.00236690,0.00018096,0.0000
 1983,-0.00000300,-0.00004027,-0.00002129,0.00000433,-0.00006049,-0.000
 02642,-0.00001326,0.00009554,-0.00000181,-0.00000377,0.00012042,0.0001
 9170,0.00006615,-0.00017570,-0.00000658,0.00027210,-0.00042550,0.00003
 741,0.00000120,-0.00013189,-0.00000164,0.00000546,-0.00000452,0.000011
 67,0.00000065,-0.00000443,-0.00000762,-0.00000981,0.00000393,0.0000053
 8,-0.00000310,0.00000410,-0.00000072,-0.00000023,-0.00001022,0.0000062
 0,0.00000351,-0.00000006,-0.00000946,0.00000736,-0.00000581,-0.0000031
 5,0.00000766,-0.00000429,0.00004180,-0.00000222,-0.00002090,0.00001562
 ,-0.00002241,0.00002570,0.11587401,0.27904036,0.00109447,0.00207455,-0
 .00144510,-0.00020526,-0.00026255,-0.00001620,-0.00004648,0.00017133,0
 .00023956,-0.00017572,-0.00019656,-0.00009877,0.00003425,-0.00008120,0
 .00001623,0.00000487,0.00003017,0.00000538,0.00003580,0.00001628,0.000
 01624,0.00000685,-0.00002835,0.00002067,0.00003938,-0.00003220,0.00001
 217,-0.00011333,0.00001797,-0.00001162,0.00001331,0.00013401,0.0000505
 9,0.01153045,0.02658871,-0.00452110,0.03476986,0.06085149,-0.07764540,
 -0.00961409,-0.02057647,0.00944488,0.00132023,-0.00359246,-0.00232955,
 0.00005586,-0.00042009,-0.00101905,0.00310867,-0.00077997,-0.00520700,
 -0.00005778,-0.00001576,0.00010382,0.00003968,-0.00000647,0.00007391,0
 .00002407,0.00000611,-0.00006252,0.00005802,-0.00000788,0.00001484,0.0
 0007499,-0.00011089,0.00029249,-0.00066489,-0.00063385,-0.00006333,0.0
 0019928,-0.00015405,0.00015989,-0.00000357,0.00001017,0.00001835,-0.00
 001604,-0.00000445,0.00000551,-0.00000179,0.00000230,-0.00001881,-0.00
 003166,-0.00002866,-0.00003334,0.00000759,-0.00002588,0.00001521,-0.00
 002497,0.00002319,0.00001707,-0.00001362,0.00000648,-0.00000015,0.0000
 0431,-0.00000222,-0.00000242,-0.00004214,-0.00000103,0.00002976,-0.000
 03237,0.00000458,-0.00002588,-0.04038017,-0.06440310,0.08107758,0.0003
 1472,-0.00015648,-0.00013863,-0.00006201,0.00002900,0.00002476,-0.0000
 1988,0.00001075,0.00000768,-0.00001667,0.00003861,0.00002272,-0.000018
 12,-0.00002467,-0.00000489,0.00000196,0.00000330,0.00000165,0.00000343
 ,-0.00000132,0.00000868,0.00000127,0.00000313,0.00001502,0.00002331,-0
 .00000507,0.00000789,-0.00003090,0.00000250,-0.00001270,0.00000001,0.0
 0002588,0.00000399,0.00619616,-0.00236402,0.00078674,0.00338092,0.0003
 6921,-0.00355931,-0.06822940,-0.02197618,0.08776160,-0.00122710,-0.000
 55577,0.01237363,0.00506628,-0.00449085,0.00130184,-0.00018573,-0.0002
 9249,-0.00038121,0.00000151,-0.00001084,0.00001660,0.00000092,0.000019
 64,-0.00003226,-0.00002606,0.00001131,0.00000879,-0.00001930,-0.000003
 67,-0.00000943,0.00000441,0.00001306,0.00000533,0.00000787,-0.00000099
 ,-0.00000302,0.00001890,0.00000081,0.00001402,-0.00000066,0.00000257,0
 .00000115,0.00000138,-0.00000105,0.00000057,-0.00000521,-0.00000109,-0
 .00000334,-0.00000515,-0.00000199,-0.00000474,0.00000229,-0.00000039,-
 0.00000295,-0.00000121,0.00000242,0.00000032,-0.00000426,0.00000137,-0
 .00000293,0.00000079,0.00000400,-0.00000306,-0.00000545,-0.00000326,-0
 .00000603,-0.00000164,-0.00001692,0.00001040,-0.00299414,0.00164950,-0
 .00094872,0.06185061,0.00018946,0.00064869,-0.00038978,-0.00003044,-0.
 00028649,-0.00021116,-0.00001408,-0.00002201,0.00000462,-0.00001368,-0
 .00007091,-0.00004298,0.00003138,0.00001437,0.00002506,-0.00000977,-0.
 00000043,0.00000077,0.00000022,0.00000156,-0.00001742,-0.00000142,-0.0
 0001572,-0.00001321,-0.00001346,0.00001095,-0.00000430,0.00001777,-0.0
 0000375,0.00000627,-0.00001422,-0.00002147,-0.00000220,-0.00254736,-0.
 00219720,-0.00367480,0.00834260,0.00772147,-0.02271147,-0.02188148,-0.
 06454612,0.03910472,-0.00852257,0.00024186,0.02809713,-0.00417154,-0.0
 0401493,-0.00037454,-0.00030371,-0.00113106,-0.00032780,0.00001733,-0.
 00000007,0.00000507,-0.00001498,-0.00000859,0.00002771,0.00003267,0.00
 005547,-0.00011158,0.00000596,0.00000102,-0.00000067,-0.00001610,-0.00
 001054,0.00001140,-0.00002628,-0.00002864,0.00001172,0.00001311,-0.000
 02272,0.00001598,0.00000326,-0.00000433,0.00000091,-0.00000531,0.00000
 086,0.00000275,0.00000891,0.00000612,0.00000348,0.00000119,0.00000224,
 -0.00000184,0.00000381,-0.00000406,0.00000942,-0.00000208,-0.00000223,
 0.00000449,0.00000591,-0.00000269,0.00000329,0.00000233,-0.00000373,0.
 00000344,-0.00001059,0.00000197,0.00000350,0.00000252,0.00000517,-0.00
 000218,0.00143623,0.00044171,0.00077869,0.02587066,0.06283010,0.000391
 49,0.00115359,0.00018149,-0.00007259,-0.00036317,-0.00024125,-0.000053
 15,-0.00017038,-0.00010120,-0.00004169,-0.00018642,-0.00013639,0.00007
 164,0.00004872,0.00006570,-0.00001332,-0.00001021,0.00000565,0.0000056
 8,-0.00000379,-0.00002755,-0.00000121,-0.00005172,-0.00003053,-0.00010
 463,0.00008394,-0.00001151,0.00009690,-0.00003476,0.00000955,-0.000013
 56,-0.00008052,0.00000650,0.00059285,-0.00460987,-0.00105138,0.0074538
 3,0.00610748,-0.01631215,0.08778858,0.03933515,-0.30055938,0.00137781,
 -0.00076645,-0.00368581,0.00174615,0.00087824,0.00199968,-0.00037861,-
 0.00040377,0.00064320,0.00000555,0.00000697,0.00002949,-0.00000072,0.0
 0000837,0.00003652,0.00001615,0.00006513,-0.00013459,0.00001914,0.0000
 1569,-0.00001362,-0.00007033,-0.00002856,0.00000479,0.00000246,-0.0000
 1482,0.00001536,-0.00000113,0.00000515,0.00001371,0.00000724,-0.000017
 35,-0.00000591,-0.00000961,0.00000472,0.00000696,0.00001450,0.00001330
 ,0.00000858,0.00000246,0.00001146,-0.00000009,0.00000446,0.00000146,0.
 00001130,-0.00000289,-0.00001675,0.00000158,0.00001777,-0.00001477,0.0
 0000323,0.00000033,-0.00000381,0.00000709,-0.00001286,0.00001122,0.000
 00725,-0.00001618,0.00001210,-0.00001517,-0.00118332,0.00017733,0.0006
 7509,-0.09651493,-0.04188918,0.31842713,-0.00062301,0.00025952,-0.0000
 5091,0.00004728,-0.00000276,-0.00001913,-0.00002147,-0.00009493,-0.000
 02184,0.00004920,0.00009780,0.00007305,-0.00002872,0.00001252,-0.00003
 415,0.00000102,-0.00000310,-0.00000587,-0.00000619,-0.00000025,0.00000
 631,-0.00000227,0.00000941,0.00001129,0.00002055,0.00001106,0.00000368
 ,-0.00001596,-0.00000734,-0.00000634,0.00001219,-0.00000290,0.00000317
 ,-0.00129124,0.00019770,-0.00000901,0.00500275,-0.00420160,0.00272693,
 0.00204243,-0.00896017,-0.00998904,-0.04310687,-0.02574317,-0.01162339
 ,0.00409830,0.00821443,0.00677443,0.00554313,-0.00270411,0.00346448,0.
 00000297,-0.00001101,-0.00002626,-0.00002250,0.00000412,-0.00000130,0.
 00000313,0.00001559,-0.00000645,0.00002359,0.00000390,-0.00001143,-0.0
 0002030,-0.00001837,0.00001172,0.00000113,0.00000041,-0.00001167,-0.00
 001171,0.00001959,-0.00002091,0.00000020,-0.00000065,-0.00000105,0.000
 00109,-0.00000036,0.00000087,-0.00000182,-0.00000064,0.00000044,0.0000
 0040,0.00000179,0.00000130,-0.00000035,0.00000253,-0.00000365,0.000003
 24,-0.00000056,-0.00000275,-0.00000525,0.00000191,-0.00000290,-0.00000
 089,0.00000175,-0.00000151,0.00000393,-0.00000078,-0.00000114,0.000005
 10,-0.00000062,0.00000334,0.00007269,-0.00058351,-0.00047007,-0.002937
 45,0.00165233,-0.00093924,0.03399230,0.00017894,0.00009794,0.00032622,
 -0.00000992,-0.00004924,-0.00006157,-0.00000934,-0.00004430,-0.0000436
 2,-0.00000350,-0.00009119,-0.00003965,0.00002524,0.00002884,0.00002350
 ,-0.00000160,-0.00001060,0.00000416,0.00000183,-0.00000402,-0.00000412
 ,0.00000136,-0.00001550,-0.00001611,-0.00007996,0.00003754,-0.00000713
 ,0.00007993,-0.00001392,0.00000735,-0.00000997,-0.00004752,-0.00000651
 ,0.00025155,-0.00019400,0.00081162,-0.00454627,-0.00270987,0.00251580,
 -0.00107587,-0.01540743,-0.02145536,-0.02572824,-0.20296832,-0.1393571
 0,0.00037782,0.00733181,0.00498012,-0.00241618,0.00183547,0.00086054,0
 .00001014,0.00000801,0.00000381,0.00000324,-0.00000025,0.00000832,0.00
 000514,0.00000751,-0.00002756,0.00000060,0.00000594,0.00000388,-0.0000
 1344,0.00000019,-0.00003367,0.00004820,0.00004885,-0.00000175,-0.00002
 341,0.00003045,-0.00002265,0.00000244,-0.00000932,-0.00000685,-0.00000
 065,0.00000394,0.00000032,0.00000496,0.00000438,0.00000584,0.00000564,
 0.00000718,0.00000585,-0.00000308,0.00000773,-0.00000217,0.00000163,-0
 .00001131,-0.00000492,0.00001095,-0.00000814,0.00000026,-0.00000231,0.
 00000074,0.00000289,0.00000476,0.00000446,-0.00000429,-0.00001399,0.00
 000404,-0.00000189,-0.00013849,-0.00099894,-0.00108578,0.00145990,0.00
 047980,0.00069906,0.03006821,0.21209844,-0.00011262,0.00038806,0.00005
 518,0.00000789,-0.00010151,-0.00008066,-0.00002202,-0.00009293,-0.0000
 2612,0.00000358,-0.00002970,-0.00000464,0.00001252,0.00002396,0.000012
 14,-0.00000486,-0.00000579,-0.00000159,0.00000067,-0.00000134,-0.00000
 544,0.00000252,-0.00001711,-0.00000814,-0.00007323,0.00004791,0.000000
 05,0.00006133,-0.00001793,0.00000177,0.00001520,-0.00004443,0.00000374
 ,0.00000658,0.00077844,-0.00028497,0.00223359,0.00132493,0.00103816,0.
 00097834,0.00727003,0.00934827,-0.01162228,-0.13934451,-0.18940092,-0.
 00414337,-0.02379231,-0.01534096,0.00393045,0.00211459,-0.00393805,-0.
 00004272,0.00001299,0.00004030,0.00002720,0.00000204,0.00004103,-0.000
 01472,-0.00001933,-0.00002225,0.00001915,0.00000768,-0.00000216,-0.000
 02929,-0.00001905,0.00000635,-0.00001544,-0.00001113,0.00000482,0.0000
 0286,0.00000008,0.00000006,0.00000315,-0.00000978,-0.00000189,-0.00000
 509,0.00000336,0.00000328,0.00000755,0.00000569,0.00000390,0.00000194,
 0.00000497,0.00000087,0.00000063,0.00000193,0.00000164,0.00000022,-0.0
 0000811,-0.00000139,0.00000469,-0.00000691,-0.00000109,-0.00000107,0.0
 0000040,0.00000245,-0.00000842,0.00000885,0.00000924,-0.00001424,0.000
 00841,-0.00001262,0.00012997,0.00046422,0.00032607,-0.00120384,-0.0000
 0497,0.00057596,0.01101494,0.15156180,0.19784840,0.00018016,0.00013645
 ,0.00037835,-0.00002752,-0.00004105,-0.00007431,0.00001195,0.00000861,
 0.00000781,0.00001358,-0.00012370,-0.00007553,0.00003858,0.00001501,0.
 00000838,0.00000171,-0.00000853,0.00000453,0.00000629,0.00000072,-0.00
 000487,-0.00000462,-0.00002089,-0.00000582,-0.00002456,0.00003959,-0.0
 0000186,0.00002429,-0.00001931,-0.00000431,0.00000513,-0.00002195,0.00
 000840,0.00605468,-0.00220674,0.00071910,-0.00006137,0.00038810,0.0000
 2748,0.00572974,-0.00156810,0.00340342,-0.00124577,-0.00885876,0.00118
 322,-0.08546084,-0.10596804,0.03422942,0.00142040,-0.00147249,0.001273
 28,0.00000490,0.00000451,0.00000747,0.00000780,-0.00000822,0.00000063,
 0.00001350,0.00000176,-0.00001676,-0.00001658,0.00000064,0.00000540,0.
 00000145,0.00000801,0.00000656,-0.00000460,0.00000522,-0.00000135,-0.0
 0001330,0.00000746,-0.00003691,0.00000062,-0.00000547,-0.00000566,-0.0
 0000007,0.00000194,0.00000222,-0.00000164,0.00000312,0.00000102,-0.000
 00179,0.00000336,0.00000124,-0.00000036,0.00000260,-0.00000056,-0.0000
 0141,-0.00000726,-0.00000094,0.00000649,-0.00000543,-0.00000041,-0.000
 00110,0.00000013,0.00000045,0.00000419,0.00000313,0.00000141,-0.000005
 13,0.00000655,-0.00000873,-0.00124802,0.00044402,-0.00036749,0.0001270
 6,-0.00057196,0.00011244,-0.00302552,0.00159461,-0.00099832,0.08048232
 ,-0.00033067,0.00037649,0.00104783,0.00001484,-0.00010621,-0.00014609,
 -0.00000583,-0.00029467,-0.00031674,-0.00003039,-0.00018843,-0.0002056
 1,0.00008595,0.00005359,0.00006905,-0.00001281,-0.00001259,0.00000973,
 -0.00000161,0.00000032,-0.00001282,0.00000389,-0.00002896,-0.00003335,
 -0.00011512,0.00001365,-0.00000483,0.00013012,0.00000036,0.00000274,-0
 .00002825,-0.00008572,0.00001228,-0.00184406,-0.00120439,-0.00463340,0
 .00041936,0.00049999,-0.00055380,-0.00191537,0.00240210,0.00021939,-0.
 00100283,-0.00065199,-0.00068068,-0.10603751,-0.27078540,0.06048279,-0
 .00936474,-0.01615397,0.00852488,0.00001493,0.00000110,-0.00000182,-0.
 00001250,0.00000128,0.00001874,0.00000463,0.00002822,-0.00005705,0.000
 02632,0.00001982,0.00000311,-0.00014224,-0.00005676,0.00000343,0.00003
 201,0.00001748,0.00001841,-0.00002380,0.00003791,-0.00000774,0.0000060
 7,-0.00001413,-0.00000955,0.00000230,0.00000705,-0.00000127,0.00000906
 ,0.00000841,0.00001247,0.00000942,0.00001312,0.00000520,-0.00000003,0.
 00000576,0.00000021,0.00000187,-0.00001658,-0.00000278,0.00002431,-0.0
 0001329,0.00000448,-0.00000013,0.00000213,0.00000402,-0.00000480,0.,-0
 .00002097,-0.00001801,-0.00000476,0.00001371,0.00043555,-0.00023128,0.
 00021680,-0.00013463,-0.00008522,-0.00015414,0.00140834,0.00028918,0.0
 0071837,0.11682389,0.28575509,-0.00022190,-0.00028559,0.00055086,-0.00
 000639,0.00000902,-0.00002910,-0.00000807,-0.00012925,-0.00017586,0.00
 001130,-0.00012042,-0.00013275,0.00004959,0.00000452,0.00002071,-0.000
 00378,-0.00000394,0.00000575,-0.00000080,0.00000460,-0.00000906,-0.000
 00396,-0.00001312,-0.00001024,0.00000677,-0.00000368,-0.00000198,0.000
 00938,-0.00000037,-0.00000265,-0.00001337,-0.00001907,0.00001107,0.001
 07069,-0.00388180,-0.00211638,0.00005252,-0.00050270,-0.00113599,0.002
 94050,-0.00098886,-0.00495721,0.01216519,0.02821669,-0.00273293,0.0341
 5598,0.06018867,-0.07730954,-0.00971043,-0.02027988,0.00968549,0.00002
 551,-0.00000149,-0.00001312,-0.00001360,0.00000092,-0.00001374,0.00001
 068,0.00001741,-0.00001146,-0.00000766,0.00000287,-0.00000065,-0.00007
 576,-0.00001956,0.00001136,0.00001494,-0.00000067,0.00001143,-0.000016
 80,0.00000770,-0.00001321,0.00000139,-0.00000140,-0.00000358,0.0000032
 5,0.00000073,-0.00000017,-0.00000101,0.00000188,0.00000399,0.00000137,
 0.00000408,0.00000022,0.00000176,-0.00000041,0.00000239,-0.00000035,-0
 .00000339,0.00000181,0.00000892,-0.00000254,0.00000281,0.00000071,-0.0
 0000076,0.00000058,0.00000307,-0.00000304,-0.00000726,0.00000543,0.000
 00316,0.00000493,-0.00035189,0.00022620,0.00010832,0.00074089,0.001475
 48,-0.00025780,-0.00126147,0.00002613,0.00078149,-0.03863629,-0.064702
 98,0.07702102,-0.00198933,0.00048670,0.00084827,0.00053014,0.00023513,
 0.00011018,0.00008677,-0.00040523,-0.00046081,0.00021636,0.00038829,0.
 00016397,-0.00013139,-0.00001638,-0.00006389,0.00001486,0.00001547,-0.
 00001021,-0.00001882,-0.00000481,0.00000313,0.00001765,0.00001203,0.00
 003253,-0.00002365,0.00006690,-0.00001442,-0.00002594,-0.00003375,-0.0
 0000332,0.00009408,-0.00003825,0.00005388,-0.00290235,-0.00140528,0.01
 081927,0.00517315,-0.00467907,0.00152869,-0.00024057,-0.00019626,-0.00
 034348,0.00617532,-0.00241203,0.00084367,0.00412521,-0.00001290,-0.003
 15861,-0.06858825,-0.02145649,0.08573669,0.00012222,-0.00000302,0.0000
 5673,-0.00043513,-0.00002830,-0.00047174,-0.00015494,0.00025332,0.0000
 1093,0.00003127,0.00002029,0.00001744,-0.00017572,-0.00009358,0.000029
 15,0.00004512,0.00003857,0.00000789,-0.00003116,0.00002718,-0.00003234
 ,-0.00000577,0.00001098,-0.00000370,0.00001863,-0.00000456,0.00000434,
 -0.00003062,-0.00001424,0.00000255,-0.00000019,0.00000107,0.00000273,0
 .00000083,0.00000377,-0.00000898,0.00000755,0.00000113,-0.00000099,-0.
 00002417,-0.00000249,-0.00000628,-0.00000623,-0.00000197,-0.00000528,0
 .00001241,0.00004238,0.00002786,-0.00002557,0.00001929,-0.00007623,0.0
 0022521,-0.00017409,0.00078820,-0.00121346,0.00053337,-0.00029749,0.00
 019491,-0.00006088,-0.00015339,-0.00299066,0.00157249,-0.00094631,0.06
 192221,-0.00015929,-0.00130358,0.00247591,-0.00016189,0.00044942,0.000
 17846,0.00005064,0.00017656,-0.00021619,-0.00009169,-0.00026583,-0.000
 35997,0.00009244,-0.00001809,0.00004367,0.00001786,0.00000060,0.000031
 02,0.00000297,0.00000231,0.00000998,-0.00001654,0.00001703,-0.00000335
 ,0.00017705,-0.00014792,-0.00003512,-0.00010235,0.00005099,-0.00000360
 ,-0.00010671,0.00009479,0.00003141,-0.00798353,-0.00157779,0.02651130,
 -0.00440585,-0.00418790,-0.00002702,-0.00023713,-0.00107284,-0.0002803
 3,-0.00274556,-0.00236819,-0.00343522,0.00790807,0.00762220,-0.0230646
 5,-0.02184578,-0.06513469,0.04198571,0.00032282,-0.00017476,-0.0008647
 9,-0.00007453,-0.00002197,-0.00027915,0.00024298,0.00005280,0.00013628
 ,-0.00000831,-0.00000247,0.00002316,-0.00000133,-0.00000669,-0.0000136
 9,0.00012199,0.00007557,-0.00002224,-0.00007940,0.00012554,-0.00006983
 ,-0.00000904,0.00002364,-0.00001686,0.00003342,-0.00000653,-0.00001639
 ,-0.00003569,-0.00001856,-0.00000415,-0.00000026,-0.00000289,0.0000054
 3,-0.00000445,0.00000555,-0.00001296,0.00000003,0.00000411,-0.00000229
 ,0.00001918,0.00000876,0.00000790,-0.00000086,0.00000275,-0.00000718,0
 .00008530,-0.00004677,-0.00009326,0.00001556,-0.00003841,0.00007085,-0
 .00062178,-0.00006984,0.00151706,0.00052407,0.00001954,0.00018136,0.00
 035391,0.00025144,-0.00122184,0.00140847,0.00040131,0.00077485,0.02731
 521,0.06708081,-0.00041570,-0.00048562,-0.00107772,-0.00010066,-0.0005
 3021,-0.00035817,0.00000252,0.00002910,0.00012119,0.00005859,0.0002904
 9,0.00024632,-0.00011227,-0.00004381,-0.00005811,0.00000468,0.00000461
 ,-0.00001534,-0.00000486,-0.00000379,-0.00000248,0.00000944,-0.0000016
 4,0.00002404,-0.00005523,0.00010437,0.00000827,-0.00002277,-0.00004233
 ,0.00000327,0.00014038,-0.00001992,-0.00000403,0.00151126,0.00196952,-
 0.00269368,0.00168786,0.00072473,0.00186646,-0.00036768,-0.00037018,0.
 00059315,0.00028923,-0.00469335,-0.00053112,0.00790951,0.00606312,-0.0
 1726109,0.08576473,0.04121034,-0.29746170,-0.00029643,-0.00039830,-0.0
 0024778,0.00005331,-0.00013616,-0.00006306,-0.00012137,-0.00026663,0.0
 0010723,0.00000476,0.00000194,-0.00001032,0.00002927,0.00001601,0.0000
 3392,-0.00003573,-0.00004234,0.00000336,0.00002277,-0.00006494,0.00004
 367,-0.00000176,0.00000264,0.00001258,-0.00000836,-0.00000390,0.000009
 86,0.00000110,-0.00000195,-0.00000721,-0.00000724,-0.00000645,-0.00000
 451,0.00000276,-0.00000549,0.00000496,-0.00000092,0.00000749,0.0000036
 4,-0.00002902,0.00000271,-0.00000678,-0.00000441,-0.00000616,-0.000000
 26,-0.00001966,0.00003724,0.00010650,-0.00001889,0.00004448,-0.0001102
 7,0.00016028,-0.00012883,-0.00022337,-0.00028224,0.00018420,-0.0001514
 8,0.00042552,0.00033525,-0.00097229,-0.00114210,0.00015798,0.00071044,
 -0.09503063,-0.04393424,0.31736189\\-0.00000483,0.00001794,0.00005499,
 -0.00002236,-0.00001909,-0.00001055,-0.00004427,-0.00002258,0.00002983
 ,0.00009203,0.00002668,-0.00001236,-0.00002876,-0.00000138,-0.00001187
 ,0.00002772,0.00000220,0.00000395,-0.00002120,-0.00000783,-0.00000615,
 0.00001313,-0.00001077,0.00002550,-0.00002443,-0.00001905,0.00000870,0
 .00005866,0.00001138,0.00000111,-0.00003139,0.00002427,0.00000458,-0.0
 0003060,0.00002079,0.00000505,-0.00004074,0.00001373,-0.00001098,0.000
 00658,0.00002075,0.00001825,0.00000763,-0.00001619,0.00000411,0.000007
 07,0.00000637,-0.00000176,0.00006294,-0.00002643,-0.00000070,-0.000001
 07,-0.00001691,-0.00002942,-0.00000081,0.00000260,0.00000654,-0.000020
 26,-0.00001869,0.00000588,0.00000637,0.00000889,0.00000101,-0.00000555
 ,0.00001572,-0.00002078,0.00000551,-0.00000921,-0.00002007,0.00000348,
 -0.00001026,-0.00001125,-0.00000048,0.00000548,0.00000355,-0.00000238,
 -0.00000228,-0.00001261,0.00001478,0.00000699,0.00000690,0.00002010,0.
 00001503,0.00000618,0.00000926,-0.00000332,-0.00000865,-0.00000107,0.0
 0000667,-0.00001733,0.00000060,0.00000225,-0.00000213,-0.00000344,0.00
 000600,-0.00000841,-0.00003850,-0.00000420,0.00000428,0.00000022,-0.00
 000507,-0.00000296,-0.00000704,0.00000818,0.00000054,0.00000328,-0.000
 00370,-0.00000899,0.00000091,-0.00000997,-0.00000423,-0.00000348,-0.00
 000787,0.00000411,-0.00000759,-0.00000711,0.00000613\\\@


 A MAN BEGINS CUTTING HIS WISDOM TEETH THE 1ST
 TIME HE BITES OFF MORE THAN HE CAN CHEW.
 Job cpu time:       0 days  0 hours  6 minutes  4.6 seconds.
 Elapsed time:       0 days  0 hours  6 minutes 28.4 seconds.
 File lengths (MBytes):  RWF=    424 Int=      0 D2E=      0 Chk=     11 Scr=      1
 Normal termination of Gaussian 16 at Fri Feb 23 22:41:08 2024.
