 Entering Gaussian System, Link 0=g16
 Input=/Volumes/SSD-PMU3/b3lyp_6-31gd_freq/KNQPRQPHYZGZKF-CQSZACIVSA-N_calculating/gaussianinput0.gjf
 Output=/Volumes/SSD-PMU3/b3lyp_6-31gd_freq/KNQPRQPHYZGZKF-CQSZACIVSA-N_calculating/gaussianinput0.log
 Initial command:
 /Applications/g16/l1.exe "/Users/macmini_m1_2022/PycharmProjects/sphere_model/sphere_model_lib/Gau-76925.inp" -scrdir="/Users/macmini_m1_2022/PycharmProjects/sphere_model/sphere_model_lib/"
 Entering Link 1 = /Applications/g16/l1.exe PID=     76926.
  
 Copyright (c) 1988,1990,1992,1993,1995,1998,2003,2009,2016,
            Gaussian, Inc.  All Rights Reserved.
  
 This is part of the Gaussian(R) 16 program.  It is based on
 the Gaussian(R) 09 system (copyright 2009, Gaussian, Inc.),
 the Gaussian(R) 03 system (copyright 2003, Gaussian, Inc.),
 the Gaussian(R) 98 system (copyright 1998, Gaussian, Inc.),
 the Gaussian(R) 94 system (copyright 1995, Gaussian, Inc.),
 the Gaussian 92(TM) system (copyright 1992, Gaussian, Inc.),
 the Gaussian 90(TM) system (copyright 1990, Gaussian, Inc.),
 the Gaussian 88(TM) system (copyright 1988, Gaussian, Inc.),
 the Gaussian 86(TM) system (copyright 1986, Carnegie Mellon
 University), and the Gaussian 82(TM) system (copyright 1983,
 Carnegie Mellon University). Gaussian is a federally registered
 trademark of Gaussian, Inc.
  
 This software contains proprietary and confidential information,
 including trade secrets, belonging to Gaussian, Inc.
  
 This software is provided under written license and may be
 used, copied, transmitted, or stored only in accord with that
 written license.
  
 The following legend is applicable only to US Government
 contracts under FAR:
  
                    RESTRICTED RIGHTS LEGEND
  
 Use, reproduction and disclosure by the US Government is
 subject to restrictions as set forth in subparagraphs (a)
 and (c) of the Commercial Computer Software - Restricted
 Rights clause in FAR 52.227-19.
  
 Gaussian, Inc.
 340 Quinnipiac St., Bldg. 40, Wallingford CT 06492
  
  
 ---------------------------------------------------------------
 Warning -- This program may not be used in any manner that
 competes with the business of Gaussian, Inc. or will provide
 assistance to any competitor of Gaussian, Inc.  The licensee
 of this program is prohibited from giving any competitor of
 Gaussian, Inc. access to this program.  By using this program,
 the user acknowledges that Gaussian, Inc. is engaged in the
 business of creating and licensing software in the field of
 computational chemistry and represents and warrants to the
 licensee that it is not a competitor of Gaussian, Inc. and that
 it will not use this program in any manner prohibited above.
 ---------------------------------------------------------------
  

 Cite this work as:
 Gaussian 16, Revision A.03,
 M. J. Frisch, G. W. Trucks, H. B. Schlegel, G. E. Scuseria, 
 M. A. Robb, J. R. Cheeseman, G. Scalmani, V. Barone, 
 G. A. Petersson, H. Nakatsuji, X. Li, M. Caricato, A. V. Marenich, 
 J. Bloino, B. G. Janesko, R. Gomperts, B. Mennucci, H. P. Hratchian, 
 J. V. Ortiz, A. F. Izmaylov, J. L. Sonnenberg, D. Williams-Young, 
 F. Ding, F. Lipparini, F. Egidi, J. Goings, B. Peng, A. Petrone, 
 T. Henderson, D. Ranasinghe, V. G. Zakrzewski, J. Gao, N. Rega, 
 G. Zheng, W. Liang, M. Hada, M. Ehara, K. Toyota, R. Fukuda, 
 J. Hasegawa, M. Ishida, T. Nakajima, Y. Honda, O. Kitao, H. Nakai, 
 T. Vreven, K. Throssell, J. A. Montgomery, Jr., J. E. Peralta, 
 F. Ogliaro, M. J. Bearpark, J. J. Heyd, E. N. Brothers, K. N. Kudin, 
 V. N. Staroverov, T. A. Keith, R. Kobayashi, J. Normand, 
 K. Raghavachari, A. P. Rendell, J. C. Burant, S. S. Iyengar, 
 J. Tomasi, M. Cossi, J. M. Millam, M. Klene, C. Adamo, R. Cammi, 
 J. W. Ochterski, R. L. Martin, K. Morokuma, O. Farkas, 
 J. B. Foresman, and D. J. Fox, Gaussian, Inc., Wallingford CT, 2016.
 
 ******************************************
 Gaussian 16:  EM64M-G16RevA.03 25-Dec-2016
                23-Feb-2024 
 ******************************************
 %nprocshared=10
 Will use up to   10 processors via shared memory.
 %mem=12GB
 %chk= 0.chk
 ---------------------
 # freq b3lyp/6-31g(d)
 ---------------------
 1/10=4,30=1,38=1/1,3;
 2/12=2,17=6,18=5,40=1/2;
 3/5=1,6=6,7=1,11=2,25=1,30=1,71=2,74=-5,140=1/1,2,3;
 4//1;
 5/5=2,38=5,98=1/2;
 8/6=4,10=90,11=11/1;
 11/6=1,8=1,9=11,15=111,16=1/1,2,10;
 10/6=1/2;
 6/7=2,8=2,9=2,10=2,28=1/1;
 7/8=1,10=1,25=1/1,2,3,16;
 1/10=4,30=1/3;
 99//99;
 ---------
 good luck
 ---------
 Symbolic Z-matrix:
 Charge =  0 Multiplicity = 1
 Si                   -3.65863   2.02436  -0.31583 
 C                    -3.50814   3.43961   0.93879 
 C                    -3.35039   2.73963  -2.04461 
 C                    -2.33675   0.72455   0.1875 
 C                    -2.31208  -0.73321  -0.41117 
 C                    -2.42557  -0.73654  -1.94846 
 C                    -3.40799  -1.63033   0.18102 
 C                    -0.90269  -1.22938   0.00094 
 C                     0.        0.        0. 
 O                     1.21187   0.        0. 
 C                    -0.89052   1.24801   0.00094 
 C                    -5.42093   1.33143  -0.2259 
 C                    -6.16735   1.04563  -1.38407 
 C                    -7.46464   0.53339  -1.30961 
 C                    -8.05123   0.29646  -0.06603 
 C                    -7.33492   0.57714   1.09947 
 C                    -6.03962   1.08868   1.01595 
 H                    -3.68234   3.10041   1.96691 
 H                    -2.51033   3.89355   0.9079 
 H                    -4.23828   4.22882   0.72459 
 H                    -2.36221   3.21107  -2.10231 
 H                    -4.09194   3.51681  -2.26558 
 H                    -3.40356   1.99257  -2.84302 
 H                    -2.48725   0.59533   1.27233 
 H                    -1.67331  -0.09509  -2.42318 
 H                    -2.28392  -1.75142  -2.33933 
 H                    -3.41454  -0.39523  -2.27327 
 H                    -3.3534   -1.64922   1.27669 
 H                    -4.4077   -1.28537  -0.09924 
 H                    -3.2967   -2.66218  -0.17523 
 H                    -0.49224  -2.02471  -0.63018 
 H                    -0.92186  -1.61516   1.03181 
 H                    -0.74018   1.75677  -0.96142 
 H                    -0.56026   1.94914   0.77459 
 H                    -5.73495   1.22849  -2.36519 
 H                    -8.01725   0.32283  -2.22191 
 H                    -9.06096  -0.10119  -0.00444 
 H                    -7.78668   0.39997   2.07235 
 H                    -5.50445   1.30297   1.93914 
 

 GradGradGradGradGradGradGradGradGradGradGradGradGradGradGradGradGradGrad
 Berny optimization.
 Initialization pass.
 Trust Radius=3.00D-01 FncErr=1.00D-07 GrdErr=1.00D-07 EigMax=2.50D+02 EigMin=1.00D-04
 Number of steps in this run=      2 maximum allowed number of steps=      2.
 GradGradGradGradGradGradGradGradGradGradGradGradGradGradGradGradGradGrad

                          Input orientation:                          
 ---------------------------------------------------------------------
 Center     Atomic      Atomic             Coordinates (Angstroms)
 Number     Number       Type             X           Y           Z
 ---------------------------------------------------------------------
      1         14           0       -3.658633    2.024365   -0.315825
      2          6           0       -3.508141    3.439607    0.938785
      3          6           0       -3.350391    2.739633   -2.044605
      4          6           0       -2.336745    0.724545    0.187501
      5          6           0       -2.312077   -0.733213   -0.411171
      6          6           0       -2.425571   -0.736544   -1.948464
      7          6           0       -3.407985   -1.630332    0.181018
      8          6           0       -0.902690   -1.229378    0.000935
      9          6           0        0.000000    0.000000    0.000000
     10          8           0        1.211874    0.000000    0.000000
     11          6           0       -0.890521    1.248014    0.000935
     12          6           0       -5.420933    1.331430   -0.225899
     13          6           0       -6.167347    1.045628   -1.384070
     14          6           0       -7.464641    0.533385   -1.309607
     15          6           0       -8.051232    0.296460   -0.066028
     16          6           0       -7.334924    0.577135    1.099465
     17          6           0       -6.039615    1.088682    1.015952
     18          1           0       -3.682344    3.100411    1.966907
     19          1           0       -2.510328    3.893548    0.907904
     20          1           0       -4.238276    4.228818    0.724587
     21          1           0       -2.362213    3.211070   -2.102314
     22          1           0       -4.091940    3.516809   -2.265580
     23          1           0       -3.403556    1.992573   -2.843018
     24          1           0       -2.487247    0.595328    1.272333
     25          1           0       -1.673313   -0.095092   -2.423182
     26          1           0       -2.283916   -1.751422   -2.339329
     27          1           0       -3.414540   -0.395227   -2.273274
     28          1           0       -3.353399   -1.649219    1.276693
     29          1           0       -4.407704   -1.285371   -0.099241
     30          1           0       -3.296700   -2.662175   -0.175230
     31          1           0       -0.492243   -2.024712   -0.630179
     32          1           0       -0.921859   -1.615155    1.031805
     33          1           0       -0.740183    1.756774   -0.961424
     34          1           0       -0.560259    1.949139    0.774588
     35          1           0       -5.734954    1.228494   -2.365189
     36          1           0       -8.017248    0.322827   -2.221905
     37          1           0       -9.060964   -0.101192   -0.004439
     38          1           0       -7.786675    0.399973    2.072352
     39          1           0       -5.504450    1.302966    1.939139
 ---------------------------------------------------------------------
                    Distance matrix (angstroms):
                    1          2          3          4          5
     1  Si   0.000000
     2  C    1.897262   0.000000
     3  C    1.896128   3.068463   0.000000
     4  C    1.921004   3.050927   3.173382   0.000000
     5  C    3.070267   4.545919   3.975784   1.576095   0.000000
     6  C    3.436360   5.191185   3.598380   2.589405   1.541480
     7  C    3.696821   5.127234   4.904417   2.587092   1.535098
     8  C    4.275793   5.428385   5.092006   2.430871   1.549962
     9  C    4.193256   5.001926   4.786556   2.453671   2.460155
    10  O    5.283904   5.915298   5.700900   3.626682   3.622829
    11  C    2.892318   3.540420   3.529890   1.549319   2.473037
    12  C    1.895771   3.075658   3.094814   3.170398   3.736584
    13  C    2.897019   4.265931   3.352790   4.152884   4.355906
    14  C    4.206700   5.399563   4.725971   5.345390   5.381484
    15  C    4.726836   5.615042   5.655242   5.736105   5.840997
    16  C    4.196741   4.781614   5.517071   5.082834   5.406295
    17  C    2.884130   3.455599   4.395972   3.811846   4.387542
    18  H    2.523748   1.096556   4.041359   3.259089   4.714823
    19  H    2.511964   1.096653   3.279411   3.254488   4.815203
    20  H    2.505605   1.096281   3.267176   4.022960   5.442604
    21  H    2.506096   3.257862   1.096394   3.380341   4.291835
    22  H    2.493329   3.258026   1.096689   4.110359   4.966833
    23  H    2.540232   4.050541   1.094709   3.453987   3.812495
    24  H    2.436501   3.040296   4.042912   1.102818   2.151718
    25  H    3.588112   5.211863   3.315355   2.815602   2.205313
    26  H    4.498998   6.260315   4.625344   3.538089   2.180673
    27  H    3.121797   5.003203   3.143843   2.910489   2.190225
    28  H    4.015532   5.102380   5.503912   2.802620   2.184560
    29  H    3.400348   4.920582   4.593801   2.900147   2.189482
    30  H    4.702597   6.206245   5.716378   3.538779   2.178542
    31  H    5.149745   6.435532   5.733114   3.410162   2.242260
    32  H    4.748910   5.678743   5.858860   2.861634   2.189225
    33  H    3.000959   3.755571   2.992069   2.221381   2.995608
    34  H    3.285511   3.307335   4.044449   2.236114   3.416124
    35  H    3.023973   4.556749   2.841207   4.279955   4.402564
    36  H    5.052316   6.327426   5.258511   6.183424   6.078072
    37  H    5.813788   6.652877   6.696507   6.777448   6.790608
    38  H    5.038132   5.369376   6.488756   5.775790   6.117452
    39  H    3.002053   3.090500   4.751231   3.665673   4.456594
                    6          7          8          9         10
     6  C    0.000000
     7  C    2.509719   0.000000
     8  C    2.522342   2.543560   0.000000
     9  C    3.197249   3.782210   1.525195   0.000000
    10  O    4.191660   4.902433   2.445966   1.211874   0.000000
    11  C    3.177264   3.828176   2.477422   1.533156   2.444914
    12  C    4.026902   3.604105   5.198434   5.586614   6.768889
    13  C    4.182770   4.150222   5.900043   6.406649   7.580362
    14  C    5.235751   4.833228   6.919831   7.597397   8.790989
    15  C    6.021522   5.033220   7.309878   8.056959   9.268084
    16  C    5.925991   4.597533   6.770812   7.439289   8.636531
    17  C    5.018020   3.875000   5.726400   6.220477   7.402802
    18  H    5.624218   5.064050   5.508048   5.200089   6.118386
    19  H    5.440935   5.643350   5.445316   4.720779   5.462490
    20  H    5.923337   5.942600   6.437524   6.030830   6.936286
    21  H    3.951119   5.454028   5.125567   4.506744   5.244501
    22  H    4.579122   5.739921   6.150992   5.851903   6.755090
    23  H    3.033935   4.719137   4.972260   4.861820   5.775404
    24  H    3.485860   2.644294   2.730719   2.856509   3.956860
    25  H    1.096681   3.485385   2.785105   2.946325   3.768973
    26  H    1.096731   2.762308   2.767156   3.708937   4.556368
    27  H    1.095472   2.747558   3.489588   4.121051   5.169883
    28  H    3.477855   1.097196   2.794602   3.949070   5.019122
    29  H    2.765807   1.094066   3.506892   4.592372   5.765560
    30  H    2.758855   1.097268   2.795572   4.241004   5.238809
    31  H    2.671144   3.052069   1.095138   2.176899   2.720404
    32  H    3.451827   2.627716   1.100856   2.126775   2.868129
    33  H    3.167241   4.460362   3.141599   2.135055   2.796626
    34  H    4.255267   4.612427   3.289190   2.170949   2.745830
    35  H    3.871311   4.480049   5.915273   6.324003   7.440547
    36  H    5.697709   5.552853   7.613626   8.325704   9.498304
    37  H    6.943439   5.859081   8.235913   9.061530  10.273337
    38  H    6.797063   5.183841   7.371214   8.067647   9.242754
    39  H    5.362141   4.011283   5.598714   5.979712   7.111047
                   11         12         13         14         15
    11  C    0.000000
    12  C    4.536854   0.000000
    13  C    5.459312   1.407188   0.000000
    14  C    6.741459   2.447047   1.396750   0.000000
    15  C    7.223969   2.831112   2.418163   1.395246   0.000000
    16  C    6.571695   2.447225   2.784002   2.412958   1.396513
    17  C    5.250601   1.408506   2.403804   2.783393   2.417623
    18  H    3.884675   3.310647   4.650421   5.624139   5.575137
    19  H    3.231906   4.039997   5.170839   6.383829   6.677515
    20  H    4.540521   3.270620   4.277902   5.310706   5.534180
    21  H    3.231582   4.050895   4.436672   5.816627   6.708677
    22  H    4.531402   3.271453   3.345312   4.603240   5.557398
    23  H    3.867529   3.369901   3.265544   4.579628   5.673567
    24  H    2.142892   3.375361   4.560963   5.607558   5.730485
    25  H    2.879764   4.572491   4.751562   5.930810   6.810825
    26  H    4.051543   4.879697   4.880271   5.755048   6.528679
    27  H    3.773982   3.346446   3.231825   4.265477   5.181629
    28  H    4.010896   3.926417   4.718068   5.324943   5.259107
    29  H    4.335741   2.808972   3.190719   3.757356   3.972227
    30  H    4.594596   4.523695   4.842490   5.373095   5.600984
    31  H    3.356734   5.976547   6.496318   7.457869   7.927447
    32  H    3.043257   5.523210   6.358566   7.273681   7.462404
    33  H    1.098896   4.757240   5.489851   6.843701   7.509040
    34  H    1.095075   5.000869   6.075819   7.349743   7.717037
    35  H    5.391424   2.164663   1.087657   2.142253   3.394108
    36  H    7.522448   3.426685   2.155584   1.087197   2.156306
    37  H    8.281094   3.918070   3.404643   2.157406   1.086959
    38  H    7.250302   3.427288   3.871169   3.399875   2.157168
    39  H    5.004797   2.166835   3.398437   3.871557   3.394090
                   16         17         18         19         20
    16  C    0.000000
    17  C    1.395163   0.000000
    18  H    4.523353   3.241619   0.000000
    19  H    5.857646   4.509414   1.767534   0.000000
    20  H    4.802557   3.631827   1.767971   1.769694   0.000000
    21  H    6.474323   5.267960   4.279433   3.090166   3.542145
    22  H    5.521065   4.523018   4.272599   3.565730   3.077250
    23  H    5.744762   4.759987   4.943724   4.298951   4.292477
    24  H    4.850792   3.595615   2.861142   3.318373   4.070427
    25  H    6.701848   5.682742   5.789674   5.263647   5.931583
    26  H    6.539126   5.781814   6.636230   6.516247   6.997884
    27  H    5.262154   4.462288   5.501849   5.415818   5.572029
    28  H    4.565151   3.844456   4.810778   5.618633   5.969853
    29  H    3.670755   3.089161   4.902061   5.606744   5.577964
    30  H    5.331532   4.797023   6.159941   6.690969   7.012989
    31  H    7.522204   6.570868   6.571795   6.439268   7.414499
    32  H    6.777766   5.788127   5.543578   5.734492   6.726442
    33  H    7.009238   5.695642   4.363117   3.345684   4.603291
    34  H    6.919828   5.551755   3.534751   2.757040   4.327499
    35  H    3.871434   3.397717   5.146294   5.311672   4.559463
    36  H    3.400255   3.870566   6.637207   7.271308   6.182169
    37  H    2.158227   3.403755   6.562471   7.726652   6.522176
    38  H    1.087186   2.154651   4.914165   6.434349   5.391443
    39  H    2.140682   1.088390   2.559619   4.091372   3.411590
                   21         22         23         24         25
    21  H    0.000000
    22  H    1.764111   0.000000
    23  H    1.765722   1.769351   0.000000
    24  H    4.271532   4.860753   4.441625   0.000000
    25  H    3.392381   4.349761   2.743784   3.846557   0.000000
    26  H    4.968766   5.570336   3.940152   4.311923   1.767285
    27  H    3.760585   3.970259   2.454856   3.796367   1.773253
    28  H    6.001879   6.307217   5.498835   2.405874   4.350526
    29  H    5.330508   5.277657   4.391075   3.017681   3.780788
    30  H    6.251554   6.571287   5.366115   3.655404   3.778702
    31  H    5.751294   6.807408   5.432401   3.803183   2.886732
    32  H    5.932097   6.874534   5.847117   2.719288   3.848663
    33  H    2.459184   4.004101   3.269488   3.064451   2.537100
    34  H    3.621612   4.916603   4.601445   2.407039   3.955187
    35  H    3.921109   2.818830   2.499511   4.917323   4.272256
    36  H    6.351037   5.060778   4.945704   6.547127   6.360871
    37  H    7.761793   6.549343   6.666907   6.732685   7.773528
    38  H    7.399655   6.494874   6.775616   5.363034   7.604480
    39  H    5.463319   4.957413   5.268618   3.169999   5.971769
                   26         27         28         29         30
    26  H    0.000000
    27  H    1.766901   0.000000
    28  H    3.772248   3.765435   0.000000
    29  H    3.121806   2.550520   1.771197   0.000000
    30  H    2.557054   3.091072   1.771264   1.770789   0.000000
    31  H    2.491179   3.727573   3.458810   4.019870   2.911755
    32  H    3.638449   4.315696   2.444078   3.679557   2.862351
    33  H    4.072981   3.674812   4.841369   4.842387   5.165365
    34  H    5.134357   4.788782   4.582785   5.101810   5.445593
    35  H    4.559631   2.833591   5.216928   3.635331   5.087073
    36  H    6.098147   4.658665   6.154725   4.485623   5.948335
    37  H    7.355498   6.092304   6.050949   4.802509   6.309877
    38  H    7.373723   6.215495   4.948353   4.355875   5.881178
    39  H    6.164934   4.999601   3.712311   3.472367   5.006701
                   31         32         33         34         35
    31  H    0.000000
    32  H    1.764794   0.000000
    33  H    3.804055   3.921208   0.000000
    34  H    4.215387   3.591811   1.755880   0.000000
    35  H    6.409339   6.541543   5.215110   6.095490   0.000000
    36  H    8.041780   8.042820   7.523343   8.199424   2.459599
    37  H    8.804230   8.343316   8.579234   8.779107   4.289936
    38  H    8.148099   7.229743   7.790876   7.503679   4.958606
    39  H    6.541946   5.508069   5.596199   5.120424   4.311139
                   36         37         38         39
    36  H    0.000000
    37  H    2.487225   0.000000
    38  H    4.301135   2.487577   0.000000
    39  H    4.958741   4.289283   2.457986   0.000000
 Stoichiometry    C15H22OSi
 Framework group  C1[X(C15H22OSi)]
 Deg. of freedom   111
 Full point group                 C1      NOp   1
 Largest Abelian subgroup         C1      NOp   1
 Largest concise Abelian subgroup C1      NOp   1
                         Standard orientation:                         
 ---------------------------------------------------------------------
 Center     Atomic      Atomic             Coordinates (Angstroms)
 Number     Number       Type             X           Y           Z
 ---------------------------------------------------------------------
      1         14           0        0.268253    1.277560    0.081184
      2          6           0        0.332259    2.737321   -1.129025
      3          6           0        0.052040    1.976648    1.830420
      4          6           0       -1.222336    0.196970   -0.467202
      5          6           0       -1.460567   -1.259703    0.085451
      6          6           0       -1.360950   -1.326150    1.622274
      7          6           0       -0.499971   -2.286415   -0.530700
      8          6           0       -2.923219   -1.535559   -0.346907
      9          6           0       -3.640250   -0.189910   -0.310639
     10          8           0       -4.839558   -0.015898   -0.314873
     11          6           0       -2.579976    0.916745   -0.269394
     12          6           0        1.913621    0.341825   -0.024234
     13          6           0        2.602100   -0.083359    1.127023
     14          6           0        3.813073   -0.774061    1.041093
     15          6           0        4.369491   -1.054744   -0.207237
     16          6           0        3.710129   -0.638731   -1.365867
     17          6           0        2.500948    0.050722   -1.270906
     18          1           0        0.464185    2.408123   -2.166647
     19          1           0       -0.590353    3.328679   -1.087435
     20          1           0        1.166302    3.406615   -0.887676
     21          1           0       -0.858741    2.583111    1.899407
     22          1           0        0.895599    2.632192    2.078206
     23          1           0       -0.008831    1.205711    2.605236
     24          1           0       -1.083300    0.080608   -1.555015
     25          1           0       -2.017191   -0.598100    2.114209
     26          1           0       -1.649789   -2.321608    1.980679
     27          1           0       -0.335869   -1.140436    1.961062
     28          1           0       -0.547988   -2.263863   -1.626613
     29          1           0        0.536625   -2.097281   -0.236288
     30          1           0       -0.760913   -3.301960   -0.207320
     31          1           0       -3.448488   -2.282579    0.257562
     32          1           0       -2.951378   -1.888490   -1.389275
     33          1           0       -2.663444    1.412248    0.707890
     34          1           0       -2.800113    1.681278   -1.021867
     35          1           0        2.192614    0.129709    2.111869
     36          1           0        4.322500   -1.089493    1.948277
     37          1           0        5.312215   -1.591198   -0.277716
     38          1           0        4.139524   -0.849187   -2.342239
     39          1           0        2.009403    0.367667   -2.188797
 ---------------------------------------------------------------------
 Rotational constants (GHZ):           0.7522757           0.2646517           0.2382995
 Standard basis: 6-31G(d) (6D, 7F)
 There are   303 symmetry adapted cartesian basis functions of A   symmetry.
 There are   303 symmetry adapted basis functions of A   symmetry.
   303 basis functions,   588 primitive gaussians,   303 cartesian basis functions
    67 alpha electrons       67 beta electrons
       nuclear repulsion energy      1353.9035971131 Hartrees.
 NAtoms=   39 NActive=   39 NUniq=   39 SFac= 1.00D+00 NAtFMM=   60 NAOKFM=F Big=F
 Integral buffers will be    131072 words long.
 Raffenetti 2 integral format.
 Two-electron integral symmetry is turned on.
 One-electron integrals computed using PRISM.
 NBasis=   303 RedAO= T EigKep=  4.97D-04  NBF=   303
 NBsUse=   303 1.00D-06 EigRej= -1.00D+00 NBFU=   303
 ExpMin= 7.78D-02 ExpMax= 1.61D+04 ExpMxC= 2.43D+03 IAcc=3 IRadAn=         5 AccDes= 0.00D+00
 Harris functional with IExCor=  402 and IRadAn=       5 diagonalized for initial guess.
 HarFok:  IExCor=  402 AccDes= 0.00D+00 IRadAn=         5 IDoV= 1 UseB2=F ITyADJ=14
 ICtDFT=  3500011 ScaDFX=  1.000000  1.000000  1.000000  1.000000
 FoFCou: FMM=F IPFlag=           0 FMFlag=      100000 FMFlg1=           0
         NFxFlg=           0 DoJE=T BraDBF=F KetDBF=T FulRan=T
         wScrn=  0.000000 ICntrl=       500 IOpCl=  0 I1Cent=   200000004 NGrid=           0
         NMat0=    1 NMatS0=      1 NMatT0=    0 NMatD0=    1 NMtDS0=    0 NMtDT0=    0
 Petite list used in FoFCou.
 Requested convergence on RMS density matrix=1.00D-08 within 128 cycles.
 Requested convergence on MAX density matrix=1.00D-06.
 Requested convergence on             energy=1.00D-06.
 No special actions if energy rises.
 Integral accuracy reduced to 1.0D-05 until final iterations.
 Initial convergence to 1.0D-05 achieved.  Increase integral accuracy.
 SCF Done:  E(RB3LYP) =  -949.600142990     A.U. after   14 cycles
            NFock= 14  Conv=0.58D-08     -V/T= 2.0081
 DoSCS=F DFT=T ScalE2(SS,OS)=  1.000000  1.000000
 Range of M.O.s used for correlation:     1   303
 NBasis=   303 NAE=    67 NBE=    67 NFC=     0 NFV=     0
 NROrb=    303 NOA=    67 NOB=    67 NVA=   236 NVB=   236
 Symmetrizing basis deriv contribution to polar:
 IMax=3 JMax=2 DiffMx= 0.00D+00
 G2DrvN: will do    40 centers at a time, making    1 passes.
 Calling FoFCou, ICntrl=  3107 FMM=F I1Cent=   0 AccDes= 0.00D+00.
 End of G2Drv F.D. properties file   721 does not exist.
 End of G2Drv F.D. properties file   722 does not exist.
 End of G2Drv F.D. properties file   788 does not exist.
          IDoAtm=111111111111111111111111111111111111111
          Differentiating once with respect to electric field.
                with respect to dipole field.
          Differentiating once with respect to nuclear coordinates.
 Keep R1 ints in memory in canonical form, NReq=1074665698.
          There are   120 degrees of freedom in the 1st order CPHF.  IDoFFX=6 NUNeed=     3.
    117 vectors produced by pass  0 Test12= 1.58D-14 1.00D-09 XBig12= 1.75D+02 4.88D+00.
 AX will form   117 AO Fock derivatives at one time.
    117 vectors produced by pass  1 Test12= 1.58D-14 1.00D-09 XBig12= 2.24D+01 1.07D+00.
    117 vectors produced by pass  2 Test12= 1.58D-14 1.00D-09 XBig12= 2.32D-01 6.28D-02.
    117 vectors produced by pass  3 Test12= 1.58D-14 1.00D-09 XBig12= 7.17D-04 2.30D-03.
    117 vectors produced by pass  4 Test12= 1.58D-14 1.00D-09 XBig12= 9.49D-07 7.92D-05.
     62 vectors produced by pass  5 Test12= 1.58D-14 1.00D-09 XBig12= 6.16D-10 2.00D-06.
      4 vectors produced by pass  6 Test12= 1.58D-14 1.00D-09 XBig12= 4.15D-13 5.00D-08.
      3 vectors produced by pass  7 Test12= 1.58D-14 1.00D-09 XBig12= 2.99D-16 1.39D-09.
 InvSVY:  IOpt=1 It=  1 EMax= 7.11D-15
 Solved reduced A of dimension   654 with   120 vectors.
 Isotropic polarizability for W=    0.000000      172.06 Bohr**3.
 End of Minotr F.D. properties file   721 does not exist.
 End of Minotr F.D. properties file   722 does not exist.
 End of Minotr F.D. properties file   788 does not exist.

 **********************************************************************

            Population analysis using the SCF density.

 **********************************************************************

 Orbital symmetries:
       Occupied  (A) (A) (A) (A) (A) (A) (A) (A) (A) (A) (A) (A)
                 (A) (A) (A) (A) (A) (A) (A) (A) (A) (A) (A) (A)
                 (A) (A) (A) (A) (A) (A) (A) (A) (A) (A) (A) (A)
                 (A) (A) (A) (A) (A) (A) (A) (A) (A) (A) (A) (A)
                 (A) (A) (A) (A) (A) (A) (A) (A) (A) (A) (A) (A)
                 (A) (A) (A) (A) (A) (A) (A)
       Virtual   (A) (A) (A) (A) (A) (A) (A) (A) (A) (A) (A) (A)
                 (A) (A) (A) (A) (A) (A) (A) (A) (A) (A) (A) (A)
                 (A) (A) (A) (A) (A) (A) (A) (A) (A) (A) (A) (A)
                 (A) (A) (A) (A) (A) (A) (A) (A) (A) (A) (A) (A)
                 (A) (A) (A) (A) (A) (A) (A) (A) (A) (A) (A) (A)
                 (A) (A) (A) (A) (A) (A) (A) (A) (A) (A) (A) (A)
                 (A) (A) (A) (A) (A) (A) (A) (A) (A) (A) (A) (A)
                 (A) (A) (A) (A) (A) (A) (A) (A) (A) (A) (A) (A)
                 (A) (A) (A) (A) (A) (A) (A) (A) (A) (A) (A) (A)
                 (A) (A) (A) (A) (A) (A) (A) (A) (A) (A) (A) (A)
                 (A) (A) (A) (A) (A) (A) (A) (A) (A) (A) (A) (A)
                 (A) (A) (A) (A) (A) (A) (A) (A) (A) (A) (A) (A)
                 (A) (A) (A) (A) (A) (A) (A) (A) (A) (A) (A) (A)
                 (A) (A) (A) (A) (A) (A) (A) (A) (A) (A) (A) (A)
                 (A) (A) (A) (A) (A) (A) (A) (A) (A) (A) (A) (A)
                 (A) (A) (A) (A) (A) (A) (A) (A) (A) (A) (A) (A)
                 (A) (A) (A) (A) (A) (A) (A) (A) (A) (A) (A) (A)
                 (A) (A) (A) (A) (A) (A) (A) (A) (A) (A) (A) (A)
                 (A) (A) (A) (A) (A) (A) (A) (A) (A) (A) (A) (A)
                 (A) (A) (A) (A) (A) (A) (A) (A)
 The electronic state is 1-A.
 Alpha  occ. eigenvalues --  -66.12495 -19.13136 -10.26753 -10.20533 -10.19417
 Alpha  occ. eigenvalues --  -10.19369 -10.19350 -10.19230 -10.19217 -10.19040
 Alpha  occ. eigenvalues --  -10.18400 -10.18005 -10.17940 -10.17841 -10.17249
 Alpha  occ. eigenvalues --  -10.16649 -10.16431  -5.26889  -3.62786  -3.62768
 Alpha  occ. eigenvalues --   -3.62743  -1.03107  -0.85019  -0.84417  -0.75459
 Alpha  occ. eigenvalues --   -0.74482  -0.74473  -0.71213  -0.69646  -0.68819
 Alpha  occ. eigenvalues --   -0.67959  -0.63715  -0.60193  -0.59797  -0.54330
 Alpha  occ. eigenvalues --   -0.52991  -0.52028  -0.48283  -0.46746  -0.45417
 Alpha  occ. eigenvalues --   -0.44808  -0.44430  -0.43919  -0.43045  -0.42140
 Alpha  occ. eigenvalues --   -0.41667  -0.40962  -0.40625  -0.40176  -0.39531
 Alpha  occ. eigenvalues --   -0.39040  -0.38878  -0.37763  -0.37611  -0.36394
 Alpha  occ. eigenvalues --   -0.36320  -0.34640  -0.34352  -0.32969  -0.32641
 Alpha  occ. eigenvalues --   -0.32162  -0.30008  -0.29496  -0.29136  -0.25210
 Alpha  occ. eigenvalues --   -0.25045  -0.22793
 Alpha virt. eigenvalues --   -0.01531  -0.01108  -0.00403   0.05789   0.07882
 Alpha virt. eigenvalues --    0.08477   0.08906   0.10819   0.11401   0.11690
 Alpha virt. eigenvalues --    0.12620   0.12967   0.13359   0.13851   0.14326
 Alpha virt. eigenvalues --    0.14853   0.15354   0.15740   0.16441   0.16679
 Alpha virt. eigenvalues --    0.17232   0.17650   0.18680   0.18900   0.19462
 Alpha virt. eigenvalues --    0.19863   0.21177   0.22127   0.22481   0.22802
 Alpha virt. eigenvalues --    0.23392   0.23640   0.25993   0.26544   0.27825
 Alpha virt. eigenvalues --    0.28864   0.30578   0.30945   0.32195   0.32819
 Alpha virt. eigenvalues --    0.33958   0.35692   0.37105   0.39693   0.40812
 Alpha virt. eigenvalues --    0.43977   0.44832   0.48406   0.49503   0.51576
 Alpha virt. eigenvalues --    0.53530   0.54262   0.55135   0.55354   0.55786
 Alpha virt. eigenvalues --    0.56545   0.58197   0.58512   0.59506   0.60239
 Alpha virt. eigenvalues --    0.60655   0.61608   0.62161   0.63018   0.63667
 Alpha virt. eigenvalues --    0.64877   0.65649   0.66675   0.68030   0.69154
 Alpha virt. eigenvalues --    0.70172   0.70648   0.71614   0.72531   0.73253
 Alpha virt. eigenvalues --    0.73934   0.76015   0.77337   0.78541   0.79196
 Alpha virt. eigenvalues --    0.80376   0.80957   0.82078   0.83204   0.83291
 Alpha virt. eigenvalues --    0.83902   0.84274   0.85095   0.85609   0.86317
 Alpha virt. eigenvalues --    0.86996   0.87163   0.88018   0.88765   0.89707
 Alpha virt. eigenvalues --    0.90030   0.90649   0.91106   0.91471   0.92251
 Alpha virt. eigenvalues --    0.92852   0.93466   0.94510   0.95046   0.95693
 Alpha virt. eigenvalues --    0.96341   0.97057   0.97461   0.98676   0.98864
 Alpha virt. eigenvalues --    1.00152   1.01302   1.01944   1.02852   1.03973
 Alpha virt. eigenvalues --    1.04584   1.06646   1.07499   1.08284   1.11151
 Alpha virt. eigenvalues --    1.12364   1.13640   1.17027   1.17864   1.20184
 Alpha virt. eigenvalues --    1.22904   1.24037   1.25940   1.28152   1.31737
 Alpha virt. eigenvalues --    1.39092   1.41588   1.43353   1.43595   1.44381
 Alpha virt. eigenvalues --    1.46605   1.48548   1.48793   1.49465   1.51433
 Alpha virt. eigenvalues --    1.53051   1.54519   1.58292   1.60125   1.61979
 Alpha virt. eigenvalues --    1.68323   1.70886   1.72627   1.73407   1.74883
 Alpha virt. eigenvalues --    1.75753   1.77373   1.78253   1.80158   1.81620
 Alpha virt. eigenvalues --    1.82201   1.83157   1.83580   1.84522   1.86563
 Alpha virt. eigenvalues --    1.88084   1.88998   1.90589   1.92099   1.94654
 Alpha virt. eigenvalues --    1.97407   1.98387   1.99578   2.02408   2.02878
 Alpha virt. eigenvalues --    2.05510   2.06383   2.06912   2.09992   2.11685
 Alpha virt. eigenvalues --    2.13959   2.14452   2.14955   2.15648   2.16153
 Alpha virt. eigenvalues --    2.16546   2.20982   2.22986   2.23833   2.25791
 Alpha virt. eigenvalues --    2.26867   2.27537   2.28105   2.28329   2.28815
 Alpha virt. eigenvalues --    2.29650   2.29777   2.30283   2.30982   2.31381
 Alpha virt. eigenvalues --    2.33370   2.35776   2.42895   2.49706   2.54771
 Alpha virt. eigenvalues --    2.57183   2.57385   2.58346   2.61601   2.64570
 Alpha virt. eigenvalues --    2.67131   2.67320   2.69281   2.71336   2.74872
 Alpha virt. eigenvalues --    2.75486   2.76369   2.77610   2.78350   2.80786
 Alpha virt. eigenvalues --    3.00465   3.03526   3.06543   3.12696   3.39061
 Alpha virt. eigenvalues --    4.02041   4.09281   4.11744   4.15165   4.20983
 Alpha virt. eigenvalues --    4.22779   4.24464   4.28341   4.31435   4.33380
 Alpha virt. eigenvalues --    4.35355   4.38353   4.46702   4.66857   4.68290
 Alpha virt. eigenvalues --    4.72696
          Condensed to atoms (all electrons):
               1          2          3          4          5          6
     1  Si  12.043760   0.393264   0.384515   0.340704  -0.016096   0.001053
     2  C    0.393264   5.274779  -0.027605  -0.027765   0.000789  -0.000021
     3  C    0.384515  -0.027605   5.291267  -0.018264  -0.001594  -0.000886
     4  C    0.340704  -0.027765  -0.018264   5.283764   0.371707  -0.060736
     5  C   -0.016096   0.000789  -0.001594   0.371707   4.797881   0.382225
     6  C    0.001053  -0.000021  -0.000886  -0.060736   0.382225   5.171532
     7  C   -0.000849  -0.000025  -0.000029  -0.047213   0.377638  -0.063278
     8  C    0.004228  -0.000043  -0.000014  -0.051779   0.323626  -0.061233
     9  C    0.001203   0.000032  -0.000020  -0.040031  -0.030449  -0.002145
    10  O   -0.000149   0.000000   0.000000   0.003526   0.002968  -0.000005
    11  C   -0.007866  -0.001370  -0.003844   0.293763  -0.033568  -0.001498
    12  C    0.380733  -0.025884  -0.027566  -0.018531  -0.000158  -0.001556
    13  C   -0.030082  -0.000389   0.001976  -0.000904   0.000211  -0.000946
    14  C    0.005005  -0.000050   0.000125  -0.000042   0.000005  -0.000020
    15  C   -0.000305   0.000004   0.000002   0.000006   0.000000   0.000001
    16  C    0.003930   0.000102  -0.000037  -0.000035   0.000001   0.000002
    17  C   -0.027404   0.000287   0.000218  -0.000962  -0.000335  -0.000001
    18  H   -0.020657   0.360810   0.001266  -0.001211   0.000007   0.000002
    19  H   -0.016241   0.358056  -0.001404  -0.001114   0.000008  -0.000000
    20  H   -0.018503   0.363069  -0.001001   0.001147  -0.000010   0.000001
    21  H   -0.016874  -0.001291   0.359747  -0.001088   0.000023  -0.000086
    22  H   -0.018610  -0.001404   0.360398   0.001010   0.000007   0.000032
    23  H   -0.023962   0.001232   0.362481  -0.000594  -0.000004   0.000467
    24  H   -0.028328  -0.002183   0.001201   0.347111  -0.037280   0.006414
    25  H   -0.001064   0.000002  -0.000138  -0.006435  -0.028668   0.367733
    26  H   -0.000652  -0.000000   0.000098   0.005940  -0.027415   0.361833
    27  H    0.009193   0.000006  -0.001911  -0.005972  -0.029568   0.364328
    28  H    0.000020  -0.000002   0.000003  -0.006476  -0.027666   0.005815
    29  H    0.003699  -0.000014  -0.000023  -0.004415  -0.026613  -0.004870
    30  H   -0.000124   0.000000  -0.000000   0.005218  -0.029380  -0.004607
    31  H   -0.000148   0.000000   0.000001   0.004673  -0.026822  -0.006235
    32  H   -0.000231   0.000001   0.000000  -0.001521  -0.032887   0.005744
    33  H   -0.008160  -0.000250   0.002525  -0.037978  -0.001226   0.001524
    34  H    0.001296  -0.000060  -0.000080  -0.024335   0.002996   0.000047
    35  H   -0.013358   0.000068   0.003972   0.000114  -0.000030  -0.000246
    36  H   -0.000244   0.000000  -0.000000   0.000000   0.000000   0.000000
    37  H    0.000034   0.000000  -0.000000   0.000000   0.000000   0.000000
    38  H   -0.000245  -0.000000   0.000000   0.000000   0.000000   0.000000
    39  H   -0.006745   0.001445   0.000064   0.000040  -0.000002   0.000001
               7          8          9         10         11         12
     1  Si  -0.000849   0.004228   0.001203  -0.000149  -0.007866   0.380733
     2  C   -0.000025  -0.000043   0.000032   0.000000  -0.001370  -0.025884
     3  C   -0.000029  -0.000014  -0.000020   0.000000  -0.003844  -0.027566
     4  C   -0.047213  -0.051779  -0.040031   0.003526   0.293763  -0.018531
     5  C    0.377638   0.323626  -0.030449   0.002968  -0.033568  -0.000158
     6  C   -0.063278  -0.061233  -0.002145  -0.000005  -0.001498  -0.001556
     7  C    5.164239  -0.042782   0.001693  -0.000068   0.004794  -0.002130
     8  C   -0.042782   5.420191   0.334977  -0.069746  -0.183423   0.000004
     9  C    0.001693   0.334977   4.491807   0.571278   0.320317  -0.000006
    10  O   -0.000068  -0.069746   0.571278   8.014282  -0.072412   0.000000
    11  C    0.004794  -0.183423   0.320317  -0.072412   5.382140   0.000549
    12  C   -0.002130   0.000004  -0.000006   0.000000   0.000549   4.932804
    13  C   -0.001126  -0.000001  -0.000000   0.000000   0.000003   0.498630
    14  C   -0.000065  -0.000000  -0.000000   0.000000   0.000000  -0.026515
    15  C    0.000018   0.000000   0.000000  -0.000000  -0.000000  -0.036502
    16  C    0.000005  -0.000000   0.000000   0.000000   0.000000  -0.024743
    17  C   -0.000753  -0.000005  -0.000000   0.000000   0.000004   0.493703
    18  H   -0.000005  -0.000001  -0.000003   0.000000  -0.000089  -0.001440
    19  H    0.000000   0.000001   0.000003   0.000000   0.000474   0.001110
    20  H    0.000000   0.000000  -0.000000  -0.000000   0.000034  -0.001049
    21  H    0.000000   0.000010  -0.000011   0.000000  -0.000190   0.000966
    22  H    0.000000   0.000001   0.000000  -0.000000   0.000088  -0.001058
    23  H   -0.000001  -0.000001   0.000005   0.000000  -0.000004  -0.000611
    24  H   -0.008119  -0.004216  -0.002441   0.000029  -0.038213  -0.001290
    25  H    0.005688  -0.003470   0.001145  -0.000189   0.003683   0.000035
    26  H   -0.005238  -0.005732  -0.000138   0.000003  -0.000253  -0.000002
    27  H   -0.005236   0.005204   0.000035   0.000002  -0.000169  -0.000058
    28  H    0.363150  -0.006418   0.000044   0.000000   0.000124   0.000010
    29  H    0.366417   0.004603  -0.000068   0.000001   0.000063   0.003951
    30  H    0.363308  -0.005665   0.000121   0.000000  -0.000199   0.000087
    31  H    0.001122   0.344599  -0.021268   0.001075   0.006900   0.000000
    32  H   -0.008410   0.347338  -0.023716  -0.000483   0.004673  -0.000001
    33  H   -0.000030   0.003966  -0.025069   0.000015   0.353405   0.000018
    34  H   -0.000124   0.006260  -0.020286   0.000812   0.352504  -0.000010
    35  H   -0.000023   0.000000   0.000000  -0.000000  -0.000002  -0.054458
    36  H   -0.000000   0.000000   0.000000  -0.000000  -0.000000   0.004326
    37  H   -0.000000   0.000000  -0.000000   0.000000   0.000000   0.000640
    38  H   -0.000001  -0.000000   0.000000  -0.000000  -0.000000   0.004307
    39  H   -0.000037  -0.000001   0.000000  -0.000000  -0.000009  -0.057177
              13         14         15         16         17         18
     1  Si  -0.030082   0.005005  -0.000305   0.003930  -0.027404  -0.020657
     2  C   -0.000389  -0.000050   0.000004   0.000102   0.000287   0.360810
     3  C    0.001976   0.000125   0.000002  -0.000037   0.000218   0.001266
     4  C   -0.000904  -0.000042   0.000006  -0.000035  -0.000962  -0.001211
     5  C    0.000211   0.000005   0.000000   0.000001  -0.000335   0.000007
     6  C   -0.000946  -0.000020   0.000001   0.000002  -0.000001   0.000002
     7  C   -0.001126  -0.000065   0.000018   0.000005  -0.000753  -0.000005
     8  C   -0.000001  -0.000000   0.000000  -0.000000  -0.000005  -0.000001
     9  C   -0.000000  -0.000000   0.000000   0.000000  -0.000000  -0.000003
    10  O    0.000000   0.000000  -0.000000   0.000000   0.000000   0.000000
    11  C    0.000003   0.000000  -0.000000   0.000000   0.000004  -0.000089
    12  C    0.498630  -0.026515  -0.036502  -0.024743   0.493703  -0.001440
    13  C    4.957055   0.511082  -0.027325  -0.051618  -0.009353   0.000036
    14  C    0.511082   4.893281   0.548358  -0.027582  -0.051960   0.000001
    15  C   -0.027325   0.548358   4.850113   0.546032  -0.026700  -0.000000
    16  C   -0.051618  -0.027582   0.546032   4.892232   0.515118  -0.000002
    17  C   -0.009353  -0.051960  -0.026700   0.515118   4.951767  -0.000389
    18  H    0.000036   0.000001  -0.000000  -0.000002  -0.000389   0.549582
    19  H    0.000006   0.000000  -0.000000   0.000001   0.000014  -0.025747
    20  H    0.000001  -0.000003  -0.000000  -0.000008  -0.000117  -0.024477
    21  H    0.000025  -0.000000   0.000000   0.000000   0.000003  -0.000006
    22  H   -0.000167  -0.000031  -0.000000  -0.000002   0.000013   0.000003
    23  H   -0.000966  -0.000007  -0.000000  -0.000000   0.000022  -0.000020
    24  H    0.000036   0.000003  -0.000000   0.000003   0.000146   0.001058
    25  H    0.000001   0.000000  -0.000000   0.000000   0.000000  -0.000000
    26  H   -0.000004   0.000000   0.000000  -0.000000   0.000000  -0.000000
    27  H    0.002375   0.000057  -0.000002  -0.000008  -0.000011   0.000000
    28  H    0.000016   0.000001  -0.000001  -0.000011   0.000223  -0.000001
    29  H    0.001715   0.000314   0.000078   0.000033   0.000823  -0.000002
    30  H    0.000015  -0.000004  -0.000002   0.000004   0.000043  -0.000000
    31  H    0.000000  -0.000000  -0.000000   0.000000   0.000000   0.000000
    32  H   -0.000000   0.000000  -0.000000  -0.000000  -0.000000   0.000000
    33  H    0.000000   0.000000  -0.000000   0.000000   0.000001   0.000019
    34  H   -0.000000  -0.000000   0.000000  -0.000000  -0.000002   0.000072
    35  H    0.362215  -0.050886   0.004962   0.000278   0.006706  -0.000000
    36  H   -0.040676   0.356830  -0.043986   0.004570   0.000761   0.000000
    37  H    0.004755  -0.043092   0.358086  -0.043156   0.004717  -0.000000
    38  H    0.000751   0.004580  -0.043967   0.356527  -0.040462  -0.000001
    39  H    0.006654   0.000331   0.004900  -0.049763   0.360727   0.002241
              19         20         21         22         23         24
     1  Si  -0.016241  -0.018503  -0.016874  -0.018610  -0.023962  -0.028328
     2  C    0.358056   0.363069  -0.001291  -0.001404   0.001232  -0.002183
     3  C   -0.001404  -0.001001   0.359747   0.360398   0.362481   0.001201
     4  C   -0.001114   0.001147  -0.001088   0.001010  -0.000594   0.347111
     5  C    0.000008  -0.000010   0.000023   0.000007  -0.000004  -0.037280
     6  C   -0.000000   0.000001  -0.000086   0.000032   0.000467   0.006414
     7  C    0.000000   0.000000   0.000000   0.000000  -0.000001  -0.008119
     8  C    0.000001   0.000000   0.000010   0.000001  -0.000001  -0.004216
     9  C    0.000003  -0.000000  -0.000011   0.000000   0.000005  -0.002441
    10  O    0.000000  -0.000000   0.000000  -0.000000   0.000000   0.000029
    11  C    0.000474   0.000034  -0.000190   0.000088  -0.000004  -0.038213
    12  C    0.001110  -0.001049   0.000966  -0.001058  -0.000611  -0.001290
    13  C    0.000006   0.000001   0.000025  -0.000167  -0.000966   0.000036
    14  C    0.000000  -0.000003  -0.000000  -0.000031  -0.000007   0.000003
    15  C   -0.000000  -0.000000   0.000000  -0.000000  -0.000000  -0.000000
    16  C    0.000001  -0.000008   0.000000  -0.000002  -0.000000   0.000003
    17  C    0.000014  -0.000117   0.000003   0.000013   0.000022   0.000146
    18  H   -0.025747  -0.024477  -0.000006   0.000003  -0.000020   0.001058
    19  H    0.545768  -0.024587   0.000498  -0.000067  -0.000009  -0.000124
    20  H   -0.024587   0.537880  -0.000082   0.000468  -0.000004   0.000008
    21  H    0.000498  -0.000082   0.541327  -0.024459  -0.024647   0.000001
    22  H   -0.000067   0.000468  -0.024459   0.539089  -0.024411  -0.000016
    23  H   -0.000009  -0.000004  -0.024647  -0.024411   0.543764  -0.000003
    24  H   -0.000124   0.000008   0.000001  -0.000016  -0.000003   0.618624
    25  H   -0.000000   0.000000   0.000052   0.000018   0.000911   0.000033
    26  H   -0.000000  -0.000000  -0.000003  -0.000001  -0.000008  -0.000179
    27  H    0.000000   0.000000  -0.000004   0.000035   0.001959  -0.000008
    28  H   -0.000000   0.000000  -0.000000  -0.000000  -0.000000   0.006530
    29  H   -0.000000   0.000000   0.000001   0.000001  -0.000009  -0.000342
    30  H    0.000000  -0.000000   0.000000  -0.000000   0.000000   0.000021
    31  H   -0.000000  -0.000000  -0.000000  -0.000000   0.000000  -0.000086
    32  H    0.000000  -0.000000  -0.000000  -0.000000  -0.000000   0.002921
    33  H   -0.000053  -0.000008   0.003024  -0.000072  -0.000007   0.005589
    34  H    0.001245   0.000007  -0.000021  -0.000001   0.000003  -0.006884
    35  H   -0.000002  -0.000008  -0.000051   0.000449   0.002097  -0.000002
    36  H   -0.000000   0.000000  -0.000000   0.000001   0.000000   0.000000
    37  H   -0.000000  -0.000000  -0.000000  -0.000000  -0.000000  -0.000000
    38  H   -0.000000   0.000000  -0.000000   0.000000   0.000000  -0.000000
    39  H   -0.000065  -0.000041  -0.000001  -0.000001   0.000000   0.000243
              25         26         27         28         29         30
     1  Si  -0.001064  -0.000652   0.009193   0.000020   0.003699  -0.000124
     2  C    0.000002  -0.000000   0.000006  -0.000002  -0.000014   0.000000
     3  C   -0.000138   0.000098  -0.001911   0.000003  -0.000023  -0.000000
     4  C   -0.006435   0.005940  -0.005972  -0.006476  -0.004415   0.005218
     5  C   -0.028668  -0.027415  -0.029568  -0.027666  -0.026613  -0.029380
     6  C    0.367733   0.361833   0.364328   0.005815  -0.004870  -0.004607
     7  C    0.005688  -0.005238  -0.005236   0.363150   0.366417   0.363308
     8  C   -0.003470  -0.005732   0.005204  -0.006418   0.004603  -0.005665
     9  C    0.001145  -0.000138   0.000035   0.000044  -0.000068   0.000121
    10  O   -0.000189   0.000003   0.000002   0.000000   0.000001   0.000000
    11  C    0.003683  -0.000253  -0.000169   0.000124   0.000063  -0.000199
    12  C    0.000035  -0.000002  -0.000058   0.000010   0.003951   0.000087
    13  C    0.000001  -0.000004   0.002375   0.000016   0.001715   0.000015
    14  C    0.000000   0.000000   0.000057   0.000001   0.000314  -0.000004
    15  C   -0.000000   0.000000  -0.000002  -0.000001   0.000078  -0.000002
    16  C    0.000000  -0.000000  -0.000008  -0.000011   0.000033   0.000004
    17  C    0.000000   0.000000  -0.000011   0.000223   0.000823   0.000043
    18  H   -0.000000  -0.000000   0.000000  -0.000001  -0.000002  -0.000000
    19  H   -0.000000  -0.000000   0.000000  -0.000000  -0.000000   0.000000
    20  H    0.000000  -0.000000   0.000000   0.000000   0.000000  -0.000000
    21  H    0.000052  -0.000003  -0.000004  -0.000000   0.000001   0.000000
    22  H    0.000018  -0.000001   0.000035  -0.000000   0.000001  -0.000000
    23  H    0.000911  -0.000008   0.001959  -0.000000  -0.000009   0.000000
    24  H    0.000033  -0.000179  -0.000008   0.006530  -0.000342   0.000021
    25  H    0.578014  -0.031046  -0.032167  -0.000194  -0.000020  -0.000048
    26  H   -0.031046   0.579375  -0.028491  -0.000059  -0.000104   0.004462
    27  H   -0.032167  -0.028491   0.558540   0.000003   0.003566  -0.000143
    28  H   -0.000194  -0.000059   0.000003   0.585137  -0.028885  -0.030811
    29  H   -0.000020  -0.000104   0.003566  -0.028885   0.541176  -0.029039
    30  H   -0.000048   0.004462  -0.000143  -0.030811  -0.029039   0.586124
    31  H    0.000528   0.004188   0.000058  -0.000117  -0.000135   0.001452
    32  H   -0.000048  -0.000039  -0.000179   0.005451   0.000112   0.000088
    33  H    0.001768  -0.000055  -0.000023   0.000001  -0.000005   0.000004
    34  H   -0.000033   0.000002  -0.000006  -0.000011  -0.000002   0.000003
    35  H   -0.000014   0.000009   0.001176  -0.000000  -0.000011   0.000000
    36  H    0.000000   0.000000  -0.000001   0.000000   0.000004  -0.000000
    37  H   -0.000000  -0.000000  -0.000000  -0.000000  -0.000000  -0.000000
    38  H   -0.000000   0.000000   0.000000  -0.000001   0.000005   0.000000
    39  H   -0.000000   0.000000  -0.000001   0.000076  -0.000095   0.000000
              31         32         33         34         35         36
     1  Si  -0.000148  -0.000231  -0.008160   0.001296  -0.013358  -0.000244
     2  C    0.000000   0.000001  -0.000250  -0.000060   0.000068   0.000000
     3  C    0.000001   0.000000   0.002525  -0.000080   0.003972  -0.000000
     4  C    0.004673  -0.001521  -0.037978  -0.024335   0.000114   0.000000
     5  C   -0.026822  -0.032887  -0.001226   0.002996  -0.000030   0.000000
     6  C   -0.006235   0.005744   0.001524   0.000047  -0.000246   0.000000
     7  C    0.001122  -0.008410  -0.000030  -0.000124  -0.000023  -0.000000
     8  C    0.344599   0.347338   0.003966   0.006260   0.000000   0.000000
     9  C   -0.021268  -0.023716  -0.025069  -0.020286   0.000000   0.000000
    10  O    0.001075  -0.000483   0.000015   0.000812  -0.000000  -0.000000
    11  C    0.006900   0.004673   0.353405   0.352504  -0.000002  -0.000000
    12  C    0.000000  -0.000001   0.000018  -0.000010  -0.054458   0.004326
    13  C    0.000000  -0.000000   0.000000  -0.000000   0.362215  -0.040676
    14  C   -0.000000   0.000000   0.000000  -0.000000  -0.050886   0.356830
    15  C   -0.000000  -0.000000  -0.000000   0.000000   0.004962  -0.043986
    16  C    0.000000  -0.000000   0.000000  -0.000000   0.000278   0.004570
    17  C    0.000000  -0.000000   0.000001  -0.000002   0.006706   0.000761
    18  H    0.000000   0.000000   0.000019   0.000072  -0.000000   0.000000
    19  H   -0.000000   0.000000  -0.000053   0.001245  -0.000002  -0.000000
    20  H   -0.000000  -0.000000  -0.000008   0.000007  -0.000008   0.000000
    21  H   -0.000000  -0.000000   0.003024  -0.000021  -0.000051  -0.000000
    22  H   -0.000000  -0.000000  -0.000072  -0.000001   0.000449   0.000001
    23  H    0.000000  -0.000000  -0.000007   0.000003   0.002097   0.000000
    24  H   -0.000086   0.002921   0.005589  -0.006884  -0.000002   0.000000
    25  H    0.000528  -0.000048   0.001768  -0.000033  -0.000014   0.000000
    26  H    0.004188  -0.000039  -0.000055   0.000002   0.000009   0.000000
    27  H    0.000058  -0.000179  -0.000023  -0.000006   0.001176  -0.000001
    28  H   -0.000117   0.005451   0.000001  -0.000011  -0.000000   0.000000
    29  H   -0.000135   0.000112  -0.000005  -0.000002  -0.000011   0.000004
    30  H    0.001452   0.000088   0.000004   0.000003   0.000000  -0.000000
    31  H    0.550116  -0.023847  -0.000292  -0.000062  -0.000000  -0.000000
    32  H   -0.023847   0.560114   0.000081  -0.000404  -0.000000  -0.000000
    33  H   -0.000292   0.000081   0.555195  -0.026013  -0.000001  -0.000000
    34  H   -0.000062  -0.000404  -0.026013   0.540196   0.000000   0.000000
    35  H   -0.000000  -0.000000  -0.000001   0.000000   0.616364  -0.005341
    36  H   -0.000000  -0.000000  -0.000000   0.000000  -0.005341   0.599568
    37  H    0.000000  -0.000000   0.000000   0.000000  -0.000192  -0.005666
    38  H   -0.000000   0.000000  -0.000000   0.000000   0.000019  -0.000180
    39  H   -0.000000   0.000000  -0.000000  -0.000000  -0.000152   0.000019
              37         38         39
     1  Si   0.000034  -0.000245  -0.006745
     2  C    0.000000  -0.000000   0.001445
     3  C   -0.000000   0.000000   0.000064
     4  C    0.000000   0.000000   0.000040
     5  C    0.000000   0.000000  -0.000002
     6  C    0.000000   0.000000   0.000001
     7  C   -0.000000  -0.000001  -0.000037
     8  C    0.000000  -0.000000  -0.000001
     9  C   -0.000000   0.000000   0.000000
    10  O    0.000000  -0.000000  -0.000000
    11  C    0.000000  -0.000000  -0.000009
    12  C    0.000640   0.004307  -0.057177
    13  C    0.004755   0.000751   0.006654
    14  C   -0.043092   0.004580   0.000331
    15  C    0.358086  -0.043967   0.004900
    16  C   -0.043156   0.356527  -0.049763
    17  C    0.004717  -0.040462   0.360727
    18  H   -0.000000  -0.000001   0.002241
    19  H   -0.000000  -0.000000  -0.000065
    20  H   -0.000000   0.000000  -0.000041
    21  H   -0.000000  -0.000000  -0.000001
    22  H   -0.000000   0.000000  -0.000001
    23  H   -0.000000   0.000000   0.000000
    24  H   -0.000000  -0.000000   0.000243
    25  H   -0.000000  -0.000000  -0.000000
    26  H   -0.000000   0.000000   0.000000
    27  H   -0.000000   0.000000  -0.000001
    28  H   -0.000000  -0.000001   0.000076
    29  H   -0.000000   0.000005  -0.000095
    30  H   -0.000000   0.000000   0.000000
    31  H    0.000000  -0.000000  -0.000000
    32  H   -0.000000   0.000000   0.000000
    33  H    0.000000  -0.000000  -0.000000
    34  H    0.000000   0.000000  -0.000000
    35  H   -0.000192   0.000019  -0.000152
    36  H   -0.005666  -0.000180   0.000019
    37  H    0.597674  -0.005628  -0.000191
    38  H   -0.005628   0.599673  -0.005499
    39  H   -0.000191  -0.005499   0.616992
 Mulliken charges:
               1
     1  Si   0.684259
     2  C   -0.665590
     3  C   -0.685445
     4  C   -0.301322
     5  C    0.089677
     6  C   -0.460386
     7  C   -0.462530
     8  C   -0.360479
     9  C    0.442990
    10  O   -0.450938
    11  C   -0.380410
    12  C   -0.041131
    13  C   -0.184003
    14  C   -0.119718
    15  C   -0.133767
    16  C   -0.121874
    17  C   -0.176844
    18  H    0.158950
    19  H    0.162227
    20  H    0.167284
    21  H    0.163136
    22  H    0.168688
    23  H    0.162327
    24  H    0.139742
    25  H    0.143922
    26  H    0.143508
    27  H    0.157421
    28  H    0.134049
    29  H    0.168094
    30  H    0.139071
    31  H    0.164299
    32  H    0.165244
    33  H    0.172105
    34  H    0.172893
    35  H    0.126347
    36  H    0.130016
    37  H    0.132020
    38  H    0.130121
    39  H    0.126047
 Sum of Mulliken charges =  -0.00000
 Mulliken charges with hydrogens summed into heavy atoms:
               1
     1  Si   0.684259
     2  C   -0.177129
     3  C   -0.191295
     4  C   -0.161579
     5  C    0.089677
     6  C   -0.015535
     7  C   -0.021316
     8  C   -0.030936
     9  C    0.442990
    10  O   -0.450938
    11  C   -0.035412
    12  C   -0.041131
    13  C   -0.057656
    14  C    0.010297
    15  C   -0.001747
    16  C    0.008248
    17  C   -0.050797
 APT charges:
               1
     1  Si   1.468446
     2  C   -0.373613
     3  C   -0.381498
     4  C   -0.296531
     5  C    0.159565
     6  C    0.045524
     7  C    0.064439
     8  C   -0.110883
     9  C    0.821908
    10  O   -0.737439
    11  C   -0.085095
    12  C   -0.373526
    13  C   -0.038828
    14  C   -0.005965
    15  C   -0.008922
    16  C   -0.009626
    17  C   -0.035094
    18  H    0.012746
    19  H    0.005315
    20  H    0.002893
    21  H    0.010340
    22  H    0.010040
    23  H    0.020669
    24  H   -0.048411
    25  H   -0.017725
    26  H   -0.029363
    27  H   -0.019769
    28  H   -0.025482
    29  H   -0.011945
    30  H   -0.035676
    31  H   -0.020827
    32  H   -0.003811
    33  H    0.002123
    34  H   -0.009474
    35  H    0.018586
    36  H    0.004851
    37  H    0.010676
    38  H    0.005034
    39  H    0.016349
 Sum of APT charges =   0.00000
 APT charges with hydrogens summed into heavy atoms:
               1
     1  Si   1.468446
     2  C   -0.352659
     3  C   -0.340449
     4  C   -0.344942
     5  C    0.159565
     6  C   -0.021332
     7  C   -0.008665
     8  C   -0.135521
     9  C    0.821908
    10  O   -0.737439
    11  C   -0.092446
    12  C   -0.373526
    13  C   -0.020242
    14  C   -0.001114
    15  C    0.001754
    16  C   -0.004592
    17  C   -0.018745
 Electronic spatial extent (au):  <R**2>=           4934.6282
 Charge=             -0.0000 electrons
 Dipole moment (field-independent basis, Debye):
    X=              3.2872    Y=             -0.3548    Z=              0.0475  Tot=              3.3066
 Quadrupole moment (field-independent basis, Debye-Ang):
   XX=           -130.2155   YY=           -108.8686   ZZ=           -104.9283
   XY=             -1.6173   XZ=             -1.0689   YZ=              0.0257
 Traceless Quadrupole moment (field-independent basis, Debye-Ang):
   XX=            -15.5446   YY=              5.8022   ZZ=              9.7425
   XY=             -1.6173   XZ=             -1.0689   YZ=              0.0257
 Octapole moment (field-independent basis, Debye-Ang**2):
  XXX=            145.5932  YYY=              1.1140  ZZZ=             -7.0186  XYY=            -16.4894
  XXY=            -23.8574  XXZ=              7.0225  XZZ=             -0.1898  YZZ=             -2.9948
  YYZ=              2.1145  XYZ=              0.2282
 Hexadecapole moment (field-independent basis, Debye-Ang**3):
 XXXX=          -5077.9404 YYYY=          -1418.6820 ZZZZ=           -802.5952 XXXY=            -95.3506
 XXXZ=            -48.5717 YYYX=             16.3813 YYYZ=              0.9125 ZZZX=              8.0583
 ZZZY=             -0.7080 XXYY=           -941.8227 XXZZ=           -816.5371 YYZZ=           -379.7330
 XXYZ=              2.3463 YYXZ=              4.7665 ZZXY=             -8.4664
 N-N= 1.353903597113D+03 E-N=-4.926646772019D+03  KE= 9.420046644380D+02
  Exact polarizability: 207.982 -22.052 150.640  -1.332  -1.230 157.545
 Approx polarizability: 283.044 -41.069 215.260  -1.128  -1.921 266.234
 Calling FoFJK, ICntrl=    100127 FMM=F ISym2X=0 I1Cent= 0 IOpClX= 0 NMat=1 NMatS=1 NMatT=0.
 Full mass-weighted force constant matrix:
 Low frequencies ---   -6.3602   -4.3712   -0.0022   -0.0007    0.0010    3.8591
 Low frequencies ---   23.1443   31.6052   47.2052
 Diagonal vibrational polarizability:
       19.0093542      19.1188887      73.8940401
 Harmonic frequencies (cm**-1), IR intensities (KM/Mole), Raman scattering
 activities (A**4/AMU), depolarization ratios for plane and unpolarized
 incident light, reduced masses (AMU), force constants (mDyne/A),
 and normal coordinates:
                      1                      2                      3
                      A                      A                      A
 Frequencies --     23.0464                31.5983                47.2040
 Red. masses --      4.3709                 3.6193                 5.0405
 Frc consts  --      0.0014                 0.0021                 0.0066
 IR Inten    --      0.8149                 0.0146                 0.3016
  Atom  AN      X      Y      Z        X      Y      Z        X      Y      Z
     1  14    -0.01   0.02  -0.07    -0.00  -0.01   0.02     0.00  -0.11  -0.03
     2   6     0.03  -0.02  -0.11     0.02   0.01   0.05     0.02  -0.11  -0.03
     3   6    -0.03   0.07  -0.09    -0.02  -0.05   0.04     0.01  -0.10  -0.02
     4   6    -0.03   0.03  -0.04    -0.00   0.01  -0.01    -0.03  -0.06  -0.02
     5   6     0.03  -0.00  -0.10    -0.01  -0.01  -0.05    -0.11  -0.04  -0.00
     6   6     0.14  -0.08  -0.11     0.01  -0.05  -0.06    -0.11  -0.03  -0.00
     7   6    -0.01   0.04  -0.23    -0.02   0.01  -0.09    -0.16  -0.09   0.00
     8   6    -0.00   0.01  -0.00    -0.01   0.01  -0.04    -0.13   0.04   0.01
     9   6    -0.01  -0.00   0.12    -0.01   0.02  -0.00    -0.06   0.07   0.02
    10   8    -0.02  -0.01   0.24    -0.00   0.03   0.01    -0.05   0.14   0.08
    11   6    -0.02   0.01   0.08     0.00   0.01   0.02     0.01   0.02  -0.04
    12   6    -0.01  -0.00   0.00    -0.00  -0.01   0.02     0.03  -0.07  -0.01
    13   6    -0.08  -0.01   0.04     0.11   0.19   0.02     0.04  -0.03  -0.00
    14   6    -0.08  -0.03   0.10     0.13   0.21   0.02     0.12   0.11   0.02
    15   6    -0.02  -0.02   0.13     0.02   0.03   0.01     0.19   0.21   0.03
    16   6     0.05  -0.01   0.10    -0.10  -0.18   0.01     0.18   0.16   0.02
    17   6     0.05   0.00   0.03    -0.11  -0.20   0.01     0.09   0.02  -0.00
    18   1     0.07  -0.05  -0.10     0.08   0.02   0.05    -0.01  -0.12  -0.03
    19   1     0.03  -0.02  -0.16     0.01  -0.00   0.02     0.03  -0.09  -0.01
    20   1     0.02  -0.01  -0.10     0.00   0.02   0.10     0.04  -0.13  -0.05
    21   1     0.02   0.15  -0.14    -0.01  -0.04   0.03     0.02  -0.10  -0.02
    22   1     0.02  -0.01  -0.06    -0.02  -0.06   0.06     0.02  -0.11  -0.03
    23   1    -0.14   0.08  -0.08    -0.04  -0.06   0.02     0.01  -0.10  -0.02
    24   1    -0.09   0.09  -0.06    -0.01   0.04  -0.02    -0.03  -0.08  -0.02
    25   1     0.16  -0.12  -0.03     0.02  -0.07  -0.03    -0.06   0.02  -0.01
    26   1     0.19  -0.10  -0.14     0.02  -0.06  -0.08    -0.16  -0.01   0.01
    27   1     0.16  -0.07  -0.18     0.02  -0.06  -0.06    -0.09  -0.08  -0.01
    28   1    -0.10   0.10  -0.22    -0.03   0.04  -0.09    -0.19  -0.12   0.00
    29   1     0.01   0.03  -0.30    -0.02  -0.01  -0.10    -0.15  -0.10  -0.03
    30   1     0.02   0.02  -0.26    -0.03  -0.00  -0.12    -0.18  -0.07   0.04
    31   1     0.05  -0.03  -0.00    -0.01   0.00  -0.06    -0.16   0.06   0.02
    32   1    -0.08   0.06  -0.02    -0.03   0.04  -0.05    -0.16   0.04   0.01
    33   1     0.04  -0.03   0.10     0.01  -0.01   0.03     0.04   0.07  -0.06
    34   1    -0.08   0.03   0.12    -0.00   0.03   0.04     0.04  -0.01  -0.07
    35   1    -0.13  -0.01   0.02     0.20   0.33   0.03    -0.01  -0.09  -0.01
    36   1    -0.13  -0.03   0.13     0.22   0.37   0.02     0.12   0.15   0.03
    37   1    -0.02  -0.03   0.18     0.03   0.04   0.01     0.26   0.32   0.04
    38   1     0.10  -0.01   0.12    -0.19  -0.33   0.00     0.23   0.23   0.03
    39   1     0.11   0.01   0.01    -0.21  -0.36   0.01     0.09  -0.01  -0.01
                      4                      5                      6
                      A                      A                      A
 Frequencies --     66.4110                95.5843               125.8280
 Red. masses --      3.7857                 2.5617                 3.2548
 Frc consts  --      0.0098                 0.0138                 0.0304
 IR Inten    --      4.3591                 0.1607                 0.4170
  Atom  AN      X      Y      Z        X      Y      Z        X      Y      Z
     1  14    -0.00   0.01  -0.00    -0.02  -0.01  -0.00    -0.01  -0.01   0.03
     2   6     0.01   0.05   0.06    -0.02   0.06   0.08     0.29  -0.05   0.00
     3   6    -0.06  -0.05   0.02    -0.08  -0.08   0.02    -0.09   0.07  -0.01
     4   6     0.04  -0.01  -0.09     0.03  -0.03  -0.07    -0.04   0.04  -0.02
     5   6     0.01   0.01  -0.04     0.02  -0.00   0.01     0.01   0.04  -0.00
     6   6    -0.12   0.08  -0.03     0.19   0.05   0.00     0.04   0.07  -0.00
     7   6     0.06  -0.02   0.09    -0.06  -0.05  -0.05     0.02   0.06  -0.01
     8   6     0.04  -0.00  -0.13    -0.03  -0.01   0.17     0.01  -0.01   0.03
     9   6     0.03  -0.02   0.01     0.01   0.02  -0.00    -0.03  -0.04  -0.00
    10   8     0.03  -0.03   0.30     0.02   0.05  -0.03    -0.04  -0.08   0.00
    11   6     0.03  -0.00  -0.22     0.03  -0.00  -0.16    -0.07   0.00  -0.04
    12   6     0.00   0.02   0.00    -0.01   0.01   0.00    -0.06  -0.10   0.07
    13   6     0.00   0.01   0.00    -0.01   0.01   0.00     0.00  -0.10   0.03
    14   6    -0.01  -0.01  -0.00    -0.02  -0.01   0.01     0.05  -0.01  -0.04
    15   6    -0.02  -0.03  -0.00    -0.02  -0.01   0.01     0.03   0.08  -0.07
    16   6    -0.02  -0.02  -0.00    -0.01   0.00   0.01    -0.05   0.06  -0.03
    17   6    -0.01   0.00   0.00    -0.01   0.01   0.00    -0.09  -0.03   0.04
    18   1     0.04   0.10   0.05     0.02   0.13   0.06     0.37  -0.09   0.03
    19   1    -0.00   0.04   0.06    -0.03   0.04   0.09     0.37   0.09  -0.12
    20   1    -0.01   0.06   0.11    -0.04   0.06   0.15     0.36  -0.17   0.09
    21   1    -0.10  -0.13   0.03    -0.15  -0.18   0.05    -0.05   0.15  -0.12
    22   1    -0.11   0.01   0.03    -0.15   0.01   0.02    -0.06   0.01   0.03
    23   1     0.01  -0.07   0.00     0.02  -0.10   0.00    -0.22   0.11   0.02
    24   1     0.13  -0.06  -0.07     0.08  -0.08  -0.06    -0.03   0.04  -0.02
    25   1    -0.15   0.12  -0.12     0.28   0.11   0.04     0.03   0.06  -0.00
    26   1    -0.18   0.10  -0.01     0.17   0.08   0.07     0.07   0.07   0.02
    27   1    -0.15   0.07   0.05     0.24   0.01  -0.12     0.04   0.11  -0.03
    28   1     0.15  -0.07   0.08    -0.22  -0.13  -0.05     0.01   0.05  -0.01
    29   1     0.03  -0.01   0.16    -0.02  -0.03  -0.21     0.02   0.07  -0.02
    30   1     0.03  -0.00   0.11    -0.02  -0.03   0.05     0.03   0.05  -0.00
    31   1     0.04  -0.09  -0.25    -0.01   0.11   0.34     0.04  -0.01   0.06
    32   1     0.12   0.14  -0.18    -0.13  -0.18   0.23     0.00  -0.05   0.04
    33   1     0.00   0.22  -0.33     0.03   0.13  -0.22    -0.08   0.03  -0.05
    34   1     0.02  -0.17  -0.38     0.04  -0.09  -0.25    -0.09  -0.02  -0.06
    35   1     0.01   0.02   0.00    -0.01   0.01   0.00     0.02  -0.16   0.06
    36   1    -0.01  -0.02  -0.00    -0.03  -0.02   0.01     0.11  -0.01  -0.07
    37   1    -0.03  -0.05  -0.01    -0.03  -0.02   0.01     0.08   0.17  -0.12
    38   1    -0.03  -0.03  -0.00    -0.01  -0.00   0.01    -0.07   0.13  -0.06
    39   1    -0.01   0.01   0.00    -0.00   0.02   0.00    -0.15  -0.03   0.07
                      7                      8                      9
                      A                      A                      A
 Frequencies --    134.0534               145.8979               160.0124
 Red. masses --      3.7255                 1.0971                 1.0597
 Frc consts  --      0.0394                 0.0138                 0.0160
 IR Inten    --      0.3602                 0.1992                 0.0711
  Atom  AN      X      Y      Z        X      Y      Z        X      Y      Z
     1  14     0.00   0.01   0.07    -0.00  -0.00   0.01     0.00  -0.00   0.00
     2   6    -0.05  -0.13  -0.11    -0.01  -0.03  -0.02     0.01  -0.02  -0.02
     3   6    -0.14   0.16  -0.01     0.04   0.02   0.01    -0.01  -0.00  -0.00
     4   6     0.08  -0.06   0.03    -0.01   0.01   0.00    -0.01   0.01   0.00
     5   6     0.01  -0.07  -0.01    -0.00   0.01  -0.01    -0.01   0.01  -0.00
     6   6     0.00  -0.12  -0.01     0.01   0.01  -0.01    -0.01   0.01  -0.00
     7   6    -0.03  -0.09  -0.04     0.00   0.02  -0.03    -0.00   0.02  -0.01
     8   6    -0.01   0.01  -0.03    -0.00   0.00  -0.01    -0.01   0.00  -0.00
     9   6     0.06   0.04  -0.02    -0.01  -0.01  -0.01    -0.01  -0.00   0.01
    10   8     0.07   0.11   0.02    -0.01  -0.02   0.00    -0.01  -0.01  -0.00
    11   6     0.10  -0.01  -0.04    -0.02   0.00  -0.02    -0.02   0.00   0.02
    12   6     0.03   0.06   0.12    -0.01  -0.01   0.02     0.01   0.00   0.01
    13   6     0.08   0.01   0.07     0.00  -0.01   0.01     0.02  -0.01   0.00
    14   6     0.05  -0.04  -0.04     0.01  -0.00   0.01     0.01  -0.01  -0.00
    15   6    -0.05  -0.03  -0.09     0.00   0.00   0.00     0.01  -0.01  -0.01
    16   6    -0.10   0.05  -0.03    -0.01  -0.00   0.01     0.01  -0.00  -0.00
    17   6    -0.06   0.09   0.08    -0.01  -0.01   0.01     0.01   0.00   0.01
    18   1    -0.06  -0.27  -0.06    -0.40  -0.07  -0.05     0.43  -0.01   0.04
    19   1    -0.07  -0.16  -0.18     0.14   0.19   0.25    -0.16  -0.25  -0.33
    20   1    -0.07  -0.07  -0.22     0.22  -0.22  -0.28    -0.24   0.21   0.23
    21   1    -0.16   0.14  -0.13    -0.17  -0.31   0.15    -0.21  -0.32   0.11
    22   1    -0.17   0.20   0.00    -0.15   0.33  -0.17    -0.20   0.30  -0.14
    23   1    -0.18   0.22   0.05     0.45   0.03   0.06     0.37   0.00   0.03
    24   1     0.14  -0.05   0.04     0.01   0.02   0.00    -0.03   0.02   0.00
    25   1     0.00  -0.13   0.01     0.01   0.01  -0.01    -0.01   0.02  -0.01
    26   1    -0.01  -0.13  -0.04     0.02   0.01  -0.01    -0.00   0.02   0.00
    27   1     0.00  -0.13  -0.00     0.01   0.02  -0.02    -0.01   0.02  -0.00
    28   1    -0.04  -0.07  -0.04    -0.01   0.03  -0.03     0.00   0.02  -0.01
    29   1    -0.02  -0.12  -0.04     0.00   0.03  -0.03    -0.00   0.02  -0.00
    30   1    -0.06  -0.09  -0.05     0.01   0.02  -0.04     0.01   0.01  -0.01
    31   1    -0.05   0.02  -0.05     0.01  -0.00  -0.01    -0.00  -0.00  -0.01
    32   1    -0.01   0.03  -0.03     0.00   0.00  -0.01    -0.00   0.01  -0.01
    33   1     0.08   0.04  -0.07    -0.03   0.02  -0.03    -0.01  -0.02   0.04
    34   1     0.15  -0.04  -0.08    -0.01  -0.01  -0.03    -0.02   0.02   0.04
    35   1     0.14  -0.01   0.10     0.01  -0.01   0.02     0.02  -0.01   0.01
    36   1     0.10  -0.09  -0.08     0.02   0.00   0.00     0.01  -0.02  -0.01
    37   1    -0.08  -0.07  -0.16     0.01   0.01  -0.00     0.00  -0.02  -0.01
    38   1    -0.17   0.07  -0.07    -0.01   0.00   0.01     0.00  -0.00  -0.00
    39   1    -0.10   0.15   0.12    -0.01  -0.01   0.02     0.01   0.01   0.01
                     10                     11                     12
                      A                      A                      A
 Frequencies --    173.7523               194.1582               202.9877
 Red. masses --      2.4145                 2.6478                 4.4191
 Frc consts  --      0.0429                 0.0588                 0.1073
 IR Inten    --      0.1706                 0.4166                 0.4103
  Atom  AN      X      Y      Z        X      Y      Z        X      Y      Z
     1  14    -0.00  -0.00   0.06     0.00   0.02  -0.02     0.03   0.00   0.01
     2   6    -0.10  -0.04   0.01     0.12   0.13   0.11     0.02   0.04   0.06
     3   6     0.23   0.10   0.05     0.08   0.16  -0.06    -0.03   0.09  -0.02
     4   6    -0.01   0.01   0.01     0.03  -0.06   0.01    -0.07   0.01   0.00
     5   6    -0.01   0.01  -0.02    -0.01  -0.08   0.00    -0.08   0.01  -0.01
     6   6     0.03   0.01  -0.02    -0.03  -0.10   0.00    -0.06   0.02  -0.01
     7   6    -0.02   0.03  -0.06    -0.08  -0.15   0.01    -0.09   0.03  -0.05
     8   6    -0.01  -0.01   0.00    -0.02  -0.03  -0.01    -0.08  -0.04   0.03
     9   6    -0.02  -0.02  -0.04     0.01  -0.02  -0.00    -0.11  -0.06  -0.01
    10   8    -0.02  -0.04   0.01     0.01   0.01   0.00    -0.12  -0.11  -0.00
    11   6    -0.03   0.01  -0.13     0.03  -0.05   0.01    -0.12  -0.02  -0.05
    12   6    -0.03  -0.05   0.03    -0.03   0.01  -0.03     0.16   0.11   0.03
    13   6    -0.01  -0.05   0.02    -0.05   0.02  -0.02     0.20   0.09   0.01
    14   6     0.01  -0.01   0.01    -0.04   0.03   0.00     0.12  -0.05  -0.02
    15   6     0.02   0.04   0.00    -0.02   0.03   0.01     0.03  -0.18  -0.03
    16   6    -0.01   0.01   0.01    -0.01   0.01  -0.00     0.08  -0.05  -0.00
    17   6    -0.04  -0.03   0.03    -0.02   0.00  -0.03     0.16   0.10   0.03
    18   1     0.06  -0.07   0.04     0.19   0.30   0.07    -0.07   0.11   0.03
    19   1    -0.23  -0.22  -0.12     0.16   0.20   0.14     0.05   0.09   0.17
    20   1    -0.26   0.13   0.06     0.15   0.03   0.31     0.07  -0.02   0.05
    21   1     0.36   0.30   0.10     0.03   0.07  -0.04     0.03   0.20  -0.16
    22   1     0.39  -0.06  -0.08     0.04   0.30  -0.27     0.02   0.02   0.01
    23   1     0.15   0.16   0.10     0.26   0.27   0.06    -0.18   0.15   0.02
    24   1     0.10   0.02   0.02     0.03  -0.06   0.01    -0.05   0.01   0.01
    25   1     0.03   0.02  -0.02    -0.04  -0.11   0.01    -0.07   0.01  -0.02
    26   1     0.05   0.02  -0.00    -0.03  -0.11  -0.01    -0.04   0.02   0.01
    27   1     0.03   0.03  -0.05    -0.04  -0.10   0.02    -0.06   0.04  -0.02
    28   1    -0.05   0.04  -0.06    -0.06  -0.14   0.01    -0.22  -0.02  -0.05
    29   1    -0.01   0.03  -0.09    -0.07  -0.24   0.03    -0.07   0.11  -0.18
    30   1     0.00   0.02  -0.06    -0.18  -0.12  -0.00     0.01   0.03   0.03
    31   1     0.00   0.01   0.03    -0.04  -0.03  -0.02    -0.05  -0.02   0.08
    32   1    -0.01  -0.04   0.01    -0.02  -0.02  -0.01    -0.11  -0.09   0.05
    33   1    -0.09   0.15  -0.21     0.04  -0.06   0.02    -0.15   0.03  -0.08
    34   1    -0.01  -0.11  -0.25     0.05  -0.03   0.02    -0.13  -0.07  -0.09
    35   1    -0.01  -0.07   0.03    -0.07   0.02  -0.03     0.25   0.13   0.03
    36   1     0.03   0.00   0.00    -0.06   0.03   0.01     0.10  -0.10  -0.02
    37   1     0.04   0.08  -0.01    -0.02   0.04   0.03    -0.06  -0.35  -0.05
    38   1    -0.02   0.04   0.00     0.01   0.01   0.01     0.03  -0.09  -0.02
    39   1    -0.06  -0.04   0.03    -0.01  -0.00  -0.03     0.19   0.17   0.03
                     13                     14                     15
                      A                      A                      A
 Frequencies --    209.0392               232.8587               257.5817
 Red. masses --      2.7317                 2.0641                 1.1677
 Frc consts  --      0.0703                 0.0659                 0.0456
 IR Inten    --      0.9655                 0.0632                 0.1779
  Atom  AN      X      Y      Z        X      Y      Z        X      Y      Z
     1  14    -0.01   0.04   0.00    -0.01  -0.01  -0.00    -0.00  -0.01   0.00
     2   6     0.16  -0.06  -0.11    -0.00  -0.02  -0.01     0.01  -0.00   0.01
     3   6     0.12  -0.13   0.09     0.06  -0.02   0.01    -0.00   0.02  -0.01
     4   6     0.00  -0.01   0.03     0.01  -0.01  -0.07    -0.00  -0.01   0.02
     5   6    -0.01  -0.02   0.03     0.01  -0.01  -0.07    -0.01  -0.01   0.01
     6   6    -0.02  -0.08   0.02     0.03   0.17  -0.07    -0.03  -0.06   0.01
     7   6    -0.03  -0.01  -0.00    -0.05  -0.11   0.02     0.05   0.05   0.00
     8   6    -0.02  -0.01   0.02     0.01  -0.01  -0.07    -0.01  -0.00  -0.01
     9   6    -0.01  -0.01  -0.01     0.01  -0.02   0.01     0.00   0.01  -0.00
    10   8    -0.01  -0.01   0.00     0.01  -0.02  -0.00     0.01   0.03   0.00
    11   6    -0.01  -0.01  -0.06     0.01  -0.03   0.10     0.01  -0.00  -0.01
    12   6     0.00   0.11  -0.01     0.00   0.02   0.05    -0.01  -0.01  -0.02
    13   6    -0.02   0.11  -0.00     0.02   0.02   0.04    -0.02  -0.01  -0.01
    14   6    -0.06   0.04   0.01     0.01  -0.00   0.01    -0.01   0.00  -0.00
    15   6    -0.09  -0.02   0.01    -0.03  -0.00  -0.01     0.00   0.01   0.00
    16   6    -0.05   0.03   0.00    -0.04   0.03   0.01     0.00  -0.01  -0.00
    17   6    -0.00   0.11  -0.01    -0.03   0.04   0.04    -0.00  -0.01  -0.01
    18   1     0.26  -0.23  -0.05    -0.02  -0.03  -0.01     0.02   0.02   0.01
    19   1     0.23   0.05  -0.32     0.00  -0.01  -0.00     0.01   0.01   0.01
    20   1     0.22  -0.13  -0.11     0.01  -0.02  -0.02     0.01  -0.01   0.04
    21   1     0.15  -0.12   0.29     0.10   0.04   0.08    -0.01   0.01  -0.03
    22   1     0.18  -0.21   0.12     0.12  -0.08  -0.04    -0.02   0.04  -0.03
    23   1     0.18  -0.27  -0.04     0.06  -0.03   0.00     0.01   0.04   0.01
    24   1     0.04  -0.04   0.03    -0.05   0.06  -0.08     0.01  -0.02   0.02
    25   1     0.01  -0.08   0.05     0.22   0.39  -0.15     0.07   0.03   0.02
    26   1    -0.06  -0.09  -0.02    -0.18   0.29   0.10    -0.18  -0.02  -0.01
    27   1    -0.01  -0.14   0.03     0.08  -0.01  -0.14    -0.00  -0.21   0.03
    28   1    -0.06  -0.02  -0.00    -0.20  -0.36   0.02    -0.31  -0.28   0.01
    29   1    -0.02  -0.00  -0.04    -0.02  -0.05  -0.16     0.10   0.43  -0.39
    30   1    -0.00  -0.02   0.01    -0.01  -0.05   0.27     0.45   0.07   0.39
    31   1    -0.02   0.01   0.04     0.02  -0.05  -0.10    -0.02  -0.01  -0.03
    32   1    -0.02  -0.03   0.03     0.01   0.05  -0.09     0.00   0.01  -0.01
    33   1    -0.04   0.07  -0.10     0.09  -0.19   0.19    -0.00   0.01  -0.01
    34   1     0.01  -0.06  -0.12    -0.03   0.09   0.24     0.02  -0.01  -0.02
    35   1    -0.01   0.15  -0.01     0.04   0.01   0.05    -0.03  -0.01  -0.02
    36   1    -0.08   0.02   0.01     0.02  -0.02  -0.01    -0.01   0.01   0.00
    37   1    -0.14  -0.11   0.02    -0.05  -0.03  -0.04     0.01   0.02   0.01
    38   1    -0.05   0.00   0.01    -0.06   0.03  -0.00     0.01  -0.01   0.00
    39   1     0.02   0.13  -0.01    -0.04   0.06   0.06    -0.00  -0.02  -0.02
                     16                     17                     18
                      A                      A                      A
 Frequencies --    275.6423               296.2581               302.2065
 Red. masses --      1.6889                 3.8553                 1.5311
 Frc consts  --      0.0756                 0.1994                 0.0824
 IR Inten    --      3.0187                 3.4233                 3.2231
  Atom  AN      X      Y      Z        X      Y      Z        X      Y      Z
     1  14    -0.03  -0.06  -0.03    -0.03  -0.10   0.14     0.02   0.07   0.04
     2   6     0.01  -0.02   0.04     0.04  -0.18   0.10    -0.00   0.01  -0.04
     3   6     0.05  -0.02  -0.04    -0.05   0.10   0.08    -0.03   0.00   0.07
     4   6    -0.01  -0.04  -0.06     0.00  -0.02   0.03     0.02   0.03   0.01
     5   6    -0.01  -0.02  -0.03    -0.00  -0.01  -0.02     0.01   0.01  -0.01
     6   6    -0.03   0.03  -0.03     0.05   0.10  -0.03    -0.02   0.02  -0.01
     7   6     0.08   0.04   0.00     0.02   0.01  -0.02    -0.08  -0.07  -0.01
     8   6    -0.03  -0.04   0.03     0.00  -0.01  -0.04     0.02   0.01  -0.01
[...]
 0,0.00018705,0.00021463,0.00039154,0.00030790,0.00002325,-0.00007311,0
 .00015561,0.00015918,0.00030705,-0.00017734,0.00011776,0.00007438,-0.0
 0006155,-0.00004886,0.00001058,-0.00007920,-0.00008720,0.00004004,0.00
 022806,0.00000791,0.00003370,-0.00009749,-0.00000154,0.00006014,-0.000
 24865,0.00005288,0.00366712,0.00189849,-0.00598533,-0.02657593,-0.0482
 4232,0.04253580,-0.00447746,0.00143092,0.01129252,-0.00443902,0.005577
 29,-0.00045066,-0.00011820,-0.00033768,-0.00028923,-0.00317185,0.00612
 047,-0.00128559,0.00001085,0.00002596,0.00001213,-0.00000399,-0.000093
 51,-0.00013633,0.00002116,0.00002063,0.00001466,0.00014423,-0.00007134
 ,-0.00005718,-0.00015317,-0.00043422,0.00006848,-0.00032908,-0.0000200
 8,0.00000717,0.00000889,-0.00005259,0.00001536,-0.00012073,0.00002392,
 -0.00002127,-0.00004662,0.00000341,-0.00002785,0.00009913,0.00001881,-
 0.00004364,-0.00003221,0.00001879,-0.00004070,-0.00005708,0.00004803,0
 .00007044,-0.00000110,-0.00002897,0.00000807,0.00002541,-0.00002086,0.
 00000709,-0.00003104,0.00000341,-0.00002754,-0.00002256,0.00001887,-0.
 00000156,0.00000834,-0.00000052,-0.00000281,0.03255299,0.03948786,0.00
 126307,0.00067393,-0.00215158,-0.00029570,-0.00012562,0.00024580,0.000
 71770,0.00027671,0.00018162,-0.00027830,-0.00022065,0.00021777,0.00005
 373,-0.00001356,-0.00016431,-0.00032845,0.00006412,-0.00016807,0.00001
 373,0.00005359,0.00004178,-0.00002073,0.00000980,0.00007167,-0.0000661
 4,-0.00007039,0.00000544,0.00000416,0.00003117,0.00000666,-0.00001648,
 0.00011915,-0.00005561,0.00991034,0.00413983,-0.01962148,0.09962946,0.
 04222013,-0.28093343,-0.00102836,-0.00043239,0.00119853,0.00010118,0.0
 0019307,0.00179951,-0.00070909,-0.00028661,0.00030609,-0.00404804,-0.0
 0142265,-0.00275696,0.00004846,0.00008152,0.00011352,-0.00003672,-0.00
 008706,-0.00005548,0.00002106,0.00001909,-0.00000900,0.00019157,0.0001
 4139,0.00023353,-0.00005336,-0.00030941,0.00006717,-0.00003898,0.00022
 345,0.00060097,0.00009183,-0.00005382,0.00008319,0.00005870,-0.0000188
 2,0.00003310,0.00010591,-0.00005281,0.00004788,0.00007766,0.00003987,0
 .00007511,0.00002570,-0.00002846,0.00005228,0.00001915,-0.00003062,-0.
 00009041,-0.00002802,0.00002281,0.00000157,-0.00001815,0.00001513,-0.0
 0000654,0.00003284,-0.00000393,0.00003073,-0.00003528,-0.00001713,0.00
 002448,0.00000262,0.00000085,0.00000770,-0.10644973,-0.04546718,0.3008
 4075,0.00074825,0.00014263,-0.00088022,-0.00044340,-0.00016405,0.00007
 907,-0.00011846,-0.00004004,0.00004746,-0.00021354,-0.00013954,0.00008
 833,-0.00000292,-0.00007156,-0.00005671,-0.00001906,0.00003020,-0.0000
 0012,0.00000486,0.00002216,0.00002707,0.00000306,0.00003759,0.00002513
 ,0.00003758,-0.00012346,0.00000101,-0.00008228,0.00005408,0.00000294,-
 0.00002836,0.00017289,-0.00004298,-0.00410640,-0.00432466,0.00136032,-
 0.01058726,-0.00485594,-0.02684253,-0.12851015,-0.03569110,-0.11828643
 ,0.01075057,0.00317580,0.01272782,0.00024889,-0.00277013,0.00269542,-0
 .00052757,-0.00013636,0.00093939,0.00001495,0.00004332,0.00001074,-0.0
 0001215,-0.00012695,-0.00010885,0.00001288,0.00001233,0.00001698,-0.00
 000289,-0.00002238,0.00005333,0.00000636,-0.00001336,-0.00001350,-0.00
 001032,0.00001592,0.00002082,0.00002374,-0.00001068,0.00000567,0.00001
 229,-0.00000179,-0.00000048,-0.00001825,0.00002520,0.00001020,0.000004
 37,-0.00003679,-0.00002044,0.00000710,-0.00000450,0.00001182,-0.000007
 05,-0.00004447,-0.00002991,-0.00002037,0.00003372,-0.00000414,-0.00001
 626,0.00001397,-0.00000072,0.00000709,-0.00000187,0.00000364,0.0000035
 3,-0.00000951,0.00000598,0.00000178,-0.00000434,0.00000378,0.00037747,
 0.00166199,0.00031488,0.13182323,0.00020503,0.00036347,-0.00040307,-0.
 00005600,-0.00002359,0.00003277,-0.00005587,-0.00005135,0.00002584,-0.
 00018044,-0.00007761,0.00007083,0.00001570,-0.00002409,-0.00002048,-0.
 00000569,0.00000820,-0.00000225,0.00000870,-0.00000034,0.00001281,-0.0
 0000491,-0.00000397,0.00000786,0.00001979,-0.00002476,0.00000592,-0.00
 004893,0.00001292,-0.00000196,-0.00001807,0.00007498,-0.00001328,-0.00
 452749,0.00538732,0.00044302,-0.00497968,0.00044005,-0.01049110,-0.035
 71849,-0.04952874,-0.04469537,0.00337662,0.00376284,0.00499642,-0.0027
 3080,0.00618777,0.00113586,-0.00018896,-0.00031740,0.00037971,0.000005
 45,0.00000586,0.00000183,0.00001151,-0.00001863,-0.00001734,0.00000376
 ,-0.00001957,-0.00001523,-0.00000410,0.00000259,0.00002226,-0.00000603
 ,-0.00000598,0.00000235,0.00000254,0.00001178,0.00000708,0.00002885,-0
 .00002033,0.00000773,-0.00000736,-0.00000610,-0.00000024,0.00000762,-0
 .00000176,0.00000309,0.00000354,0.00001060,-0.00000954,-0.00000780,-0.
 00000254,-0.00000660,-0.00000866,0.00000514,0.00002019,0.00000643,-0.0
 0000176,0.00000134,-0.00000358,0.00000369,-0.00000076,0.00000258,0.000
 00043,-0.00000034,-0.00000079,-0.00000170,0.00000468,-0.00000240,-0.00
 000419,-0.00000208,0.00169559,-0.00318094,0.00003592,0.04090548,0.0411
 9525,0.00053844,0.00018365,0.00002343,-0.00007714,-0.00000805,0.000001
 48,-0.00011366,-0.00003292,0.00002037,-0.00005103,-0.00005447,0.000010
 88,0.00000455,-0.00002165,-0.00001207,0.00001266,0.00000066,0.00000449
 ,0.00001850,0.00000249,0.00000869,0.00000105,0.00000672,0.00000750,0.0
 0004415,-0.00004981,-0.00000045,-0.00005978,0.00002138,0.00000149,-0.0
 0000715,0.00006817,-0.00001417,0.00048286,0.00022619,0.00151037,0.0027
 8868,0.00107274,0.00508437,-0.11794769,-0.04471333,-0.25556183,-0.0169
 9783,-0.00653036,-0.01909968,0.00394508,0.00161858,-0.00325426,0.00088
 461,0.00036483,0.00012968,0.00001039,0.00000445,0.00001006,-0.00000707
 ,-0.00002024,-0.00001548,0.00000764,0.00001006,0.00000747,-0.00001203,
 -0.00001653,0.00002329,0.00000546,0.00001176,-0.00001250,0.00001090,-0
 .00000042,-0.00001107,0.00000096,0.00000397,0.00000552,0.00000225,-0.0
 0000088,0.00000157,-0.00001323,0.00001552,0.00000337,-0.00000111,-0.00
 001658,-0.00001405,0.00000879,-0.00000353,0.00000852,-0.00000582,-0.00
 002982,-0.00002303,-0.00002123,0.00002227,0.00000235,-0.00000784,0.000
 00631,0.00000176,0.00000285,-0.00000193,-0.00000092,0.00000161,-0.0000
 0374,0.00000342,-0.00000225,-0.00000222,-0.00000022,-0.00032221,-0.000
 16013,0.00091770,0.12766028,0.04838923,0.27025324,0.00027215,0.0003496
 6,-0.00001520,-0.00007525,-0.00003003,-0.00001141,-0.00011407,-0.00004
 194,0.00000573,-0.00010274,-0.00005213,-0.00001214,0.00000412,-0.00004
 234,-0.00000425,0.00003109,-0.00000150,0.00000712,0.00003299,0.0000113
 0,0.00000744,0.00000289,0.00001256,0.00000567,0.00005642,-0.00006802,0
 .00000159,-0.00007710,0.00003030,-0.00000116,-0.00001563,0.00009050,-0
 .00001435,0.00031527,0.00069432,-0.00007953,0.00189818,-0.00223173,0.0
 0274699,-0.00854701,-0.00445152,-0.00172200,-0.29695879,-0.10259153,0.
 01455745,-0.01114653,-0.00547731,0.00353386,0.00134594,-0.00236501,-0.
 00334471,0.00002502,0.00002753,0.00003589,-0.00001389,-0.00003133,0.00
 000779,0.00000797,0.00000440,0.00000313,-0.00002079,-0.00002175,0.0000
 1508,0.00000893,0.00002663,-0.00000664,0.00003136,0.00000122,-0.000022
 31,0.00000463,-0.00000228,0.00000863,-0.00000123,-0.00000035,-0.000003
 28,-0.00001376,0.00001731,0.00000516,-0.00000525,-0.00001241,-0.000015
 86,-0.00000229,-0.00000815,-0.00000158,-0.00000860,-0.00005167,-0.0000
 0934,-0.00002769,0.00002744,0.00000827,-0.00000882,0.00000706,0.000003
 13,0.00000043,-0.00000254,-0.00000438,0.00000261,-0.00000285,0.0000028
 1,-0.00000199,-0.00000360,-0.00000083,-0.00052862,-0.00027001,-0.00011
 757,0.00025912,0.00163715,0.00027126,0.31376417,0.00047384,-0.00059577
 ,-0.00001111,-0.00010653,-0.00002593,-0.00005749,-0.00007212,0.0000168
 6,0.00003686,0.00007839,0.00006505,0.00001069,-0.00001115,0.00001928,-
 0.00000147,0.00001095,-0.00000468,0.00001101,0.00000474,-0.00001009,0.
 00000243,-0.00000315,-0.00001025,0.00000069,0.00003349,0.00001989,0.00
 000051,-0.00002229,-0.00000954,-0.00000036,0.00002056,-0.00002214,0.00
 001884,0.00060550,-0.00114675,-0.00002952,-0.00216775,0.00667131,0.001
 17171,-0.00461333,0.00101678,-0.00060596,-0.10255140,-0.07688811,0.005
 80154,-0.00546878,0.00063519,0.00131036,-0.00233360,0.00645297,-0.0013
 3209,-0.00000854,-0.00001149,-0.00000012,-0.00000510,-0.00001532,-0.00
 003739,-0.00000359,0.00001649,0.00002518,-0.00000405,-0.00000913,0.000
 01405,0.00001141,0.00000010,-0.00001607,-0.00000458,-0.00001468,-0.000
 00496,0.00001749,-0.00001047,0.00001043,-0.00000603,-0.00000231,0.0000
 0105,-0.00000250,0.00000332,-0.00000379,-0.00000496,0.00000205,-0.0000
 0986,0.00000589,-0.00000418,0.00000275,-0.00000765,0.00002385,-0.00000
 811,0.00000284,-0.00000327,0.00000450,-0.00000033,0.00000071,0.0000004
 8,0.00000021,-0.00000033,-0.00000213,-0.00000235,-0.00000118,0.0000015
 9,0.00000296,-0.00000119,-0.00000026,-0.00029836,0.00005138,-0.0000379
 0,0.00163588,-0.00325580,0.00007253,0.11352809,0.07021705,-0.00001446,
 -0.00000984,-0.00018041,-0.00000991,-0.00000482,0.00000723,0.00004342,
 0.00000859,0.00001309,0.00000113,0.00000966,0.00000672,0.00000259,-0.0
 0000507,-0.00001171,-0.00002875,0.00000951,-0.00001212,-0.00000416,0.0
 0001183,0.00000632,-0.00000165,0.00000202,0.00000627,-0.00000343,-0.00
 000257,0.00000050,0.00000330,0.00000096,0.00000030,0.00000438,-0.00000
 242,0.00000545,-0.00006443,-0.00002830,-0.00095055,0.00149193,0.000650
 74,-0.00511138,0.02784797,0.01093718,0.00365112,0.01454278,0.00578910,
 -0.06183552,-0.02602478,-0.01023549,0.00658279,-0.00212230,-0.00081315
 ,-0.00448141,0.00001731,0.00002461,0.00004765,-0.00000628,-0.00000589,
 0.00001985,0.00000021,-0.00000220,0.00000062,0.00001413,0.00001226,0.0
 0002091,-0.00000714,-0.00002839,0.00000315,-0.00003355,0.00001119,0.00
 004452,0.00001910,-0.00001353,0.00002105,0.00000266,-0.00000190,0.0000
 0218,0.00000971,-0.00000569,0.00000515,0.00000530,0.00000747,0.0000061
 1,0.00000603,-0.00000931,0.00000711,-0.00000151,0.00000152,-0.00002059
 ,-0.00000205,0.00000089,0.00000494,-0.00000139,0.00000097,-0.00000045,
 0.00000281,-0.00000086,0.00000246,-0.00000708,-0.00000140,0.00000215,0
 .00000208,0.00000035,0.00000058,0.00148114,0.00057560,-0.00006046,-0.0
 0044046,-0.00019962,0.00104608,-0.01577372,-0.00630910,0.06006018,0.00
 077804,0.00013507,0.00089380,-0.00009845,-0.00004624,-0.00003461,-0.00
 048504,-0.00016093,-0.00004951,-0.00014449,-0.00009652,0.00001324,-0.0
 0001350,-0.00007658,-0.00002667,0.00003267,0.00001298,0.00000472,0.000
 02715,0.00002143,0.00004786,0.00000662,0.00003579,0.00001228,0.0000360
 9,-0.00010195,0.00000363,-0.00006436,0.00004386,-0.00000636,-0.0000224
 7,0.00013310,-0.00002961,-0.00419440,-0.00442217,-0.00061193,-0.000730
 00,-0.00021800,-0.00086350,-0.00049544,-0.00300465,-0.00287958,0.01083
 517,0.00330327,-0.01605041,-0.10478314,-0.02717512,0.10300035,-0.00786
 032,-0.00397082,0.02837121,-0.00001170,-0.00000187,-0.00004030,-0.0000
 0412,-0.00003305,-0.00004177,0.00000209,0.00000832,0.00001595,-0.00003
 096,-0.00005760,0.00016958,0.00001943,0.00001018,-0.00003721,0.0000114
 2,0.00002333,-0.00000252,-0.00002096,0.00001567,-0.00002902,0.00000820
 ,0.00000004,-0.00001298,-0.00000961,0.00001456,0.00000471,-0.00001256,
 -0.00001705,-0.00001411,-0.00003417,0.00000353,-0.00003133,-0.00000998
 ,-0.00003574,0.00002137,-0.00000690,0.00001687,-0.00000946,-0.00000794
 ,0.00000781,0.00000032,-0.00000413,0.00000149,-0.00000608,0.00001738,-
 0.00000461,-0.00000125,-0.00000435,-0.00000579,0.00000124,-0.00006516,
 0.00055737,0.00013212,0.00047028,0.00004978,-0.00091863,0.00028497,0.0
 0161786,0.00046989,0.10619497,0.00021343,0.00039027,0.00040717,-0.0000
 7154,-0.00005109,-0.00003102,-0.00010503,-0.00010294,-0.00005665,-0.00
 005955,-0.00004187,-0.00002472,0.00002736,-0.00000825,-0.00000238,-0.0
 0000071,-0.00000937,0.00000727,-0.00000588,-0.00001365,0.00001034,-0.0
 0000455,-0.00001422,0.00000578,0.00002718,0.00000210,-0.00000096,-0.00
 003912,-0.00000038,-0.00000113,-0.00000978,0.00002447,-0.00001615,-0.0
 0458594,0.00552856,-0.00010211,-0.00027495,-0.00031092,-0.00032955,-0.
 00297995,0.00597113,-0.00114406,0.00333856,0.00374702,-0.00620999,-0.0
 2719267,-0.04654701,0.04023434,-0.00394652,0.00080309,0.01108230,-0.00
 000472,0.00001042,-0.00000104,0.00000807,-0.00001995,-0.00001549,-0.00
 000138,-0.00001584,0.00000750,0.00000824,-0.00003786,0.00004167,0.0000
 0468,-0.00001145,0.00002667,0.00000795,0.00001732,-0.00001994,-0.00001
 548,0.00001458,-0.00001185,-0.00000384,-0.00000230,0.00000378,-0.00000
 297,0.00000405,-0.00000212,-0.00001429,0.00000010,-0.00000882,0.000013
 45,0.00000276,0.00000713,-0.00000797,0.00000254,-0.00003002,0.00000051
 ,0.00000241,-0.00000208,-0.00000233,0.00000232,-0.00000012,0.00000277,
 0.00000046,-0.00000026,0.00000379,0.00000006,0.00000210,-0.00000625,-0
 .00000388,-0.00000144,0.00056465,-0.00125955,0.00001734,0.00004421,0.0
 0039106,-0.00036714,0.00161897,-0.00318787,0.00017973,0.03173546,0.037
 94089,-0.00062019,-0.00021677,-0.00001169,0.00012938,0.00004889,0.0000
 1682,0.00012133,0.00002865,0.00002116,0.00008639,0.00007025,-0.0000201
 4,0.00000470,0.00004160,0.00001151,-0.00003038,-0.00000282,-0.00000669
 ,-0.00004016,-0.00001433,-0.00002195,-0.00000347,-0.00001458,-0.000006
 22,-0.00004754,0.00006402,-0.00000349,0.00006789,-0.00002778,0.0000037
 2,0.00001321,-0.00009035,0.00001644,0.00028976,0.00011243,0.00161320,-
 0.00079048,-0.00032820,0.00034274,-0.00413130,-0.00162696,-0.00242908,
 0.01365241,0.00535818,-0.01917755,0.10272921,0.04024020,-0.28236068,-0
 .00126834,-0.00049207,0.00196351,-0.00000551,-0.00001408,-0.00000775,0
 .00000835,0.00003707,0.00002576,-0.00000456,-0.00000858,-0.00001811,0.
 00001158,0.00001703,-0.00003441,-0.00001182,-0.00001485,0.00000995,-0.
 00001471,0.00000065,0.00000653,-0.00000301,0.00000158,0.00000472,0.000
 00215,0.00000073,0.00000683,0.00000696,-0.00001095,-0.00000388,0.00000
 839,0.00000298,0.00001282,0.00002119,0.00000477,0.00001890,0.00000998,
 0.00002922,-0.00001148,0.00001479,-0.00001637,-0.00000240,0.00000660,-
 0.00000562,-0.00000211,0.00000172,0.00000094,0.00000555,-0.00000569,0.
 00000258,-0.00000185,0.00000310,0.00000400,0.00000058,0.00012381,0.000
 05165,-0.00001295,0.00075037,0.00030679,-0.00108042,-0.00024945,-0.000
 09414,0.00102082,-0.11116354,-0.04357003,0.29918304,-0.00063927,0.0004
 6467,0.00131984,-0.00000995,0.00003107,-0.00006140,0.00014787,0.000051
 84,-0.00007787,0.00008262,0.00002808,-0.00009323,0.00003785,0.00005341
 ,0.00004044,0.00000947,-0.00002991,0.00000070,-0.00002488,-0.00000639,
 -0.00003990,-0.00000476,-0.00002590,-0.00001775,-0.00004595,0.00008581
 ,-0.00000879,0.00007796,-0.00003787,0.00000558,-0.00001567,-0.00012225
 ,-0.00006277,0.01080883,0.00410622,0.01227881,0.00028731,-0.00290955,0
 .00286694,-0.00052989,-0.00011020,0.00092007,-0.00390642,-0.00447882,0
 .00198949,-0.01113231,-0.00568465,-0.02777340,-0.12441843,-0.03454354,
 -0.11290979,-0.00019216,-0.00056308,0.00000683,-0.00005107,0.00015671,
 0.00008869,0.00006391,0.00012491,-0.00009470,0.00001712,0.00000564,-0.
 00004638,-0.00000771,0.00000261,0.00000927,0.00000974,0.00000200,-0.00
 003721,-0.00020320,0.00009271,-0.00006182,-0.00000227,0.00000362,0.000
 00312,0.00000136,-0.00000890,-0.00001206,0.00000219,0.00000348,0.00000
 571,0.00000544,0.00002321,0.00001243,0.00002356,-0.00001215,0.00000530
 ,0.00000450,-0.00001641,-0.00000432,0.00001139,-0.00001030,0.00000024,
 -0.00000158,0.00000204,0.00000185,0.00001572,0.00000601,-0.00000858,-0
 .00001112,0.00000161,0.00000300,0.00053170,0.00002406,0.00075324,-0.00
 009072,0.00056994,-0.00013728,-0.00067821,-0.00035197,-0.00142080,0.00
 038964,0.00171613,0.00032688,0.12943738,0.00057814,-0.00107724,0.00057
 617,0.00020786,-0.00013249,-0.00003355,-0.00011977,-0.00013601,-0.0000
 9463,0.00015866,0.00009820,-0.00011956,0.00008836,0.00010885,0.0000154
 1,-0.00006238,-0.00001345,-0.00000152,-0.00000196,0.00006419,-0.000064
 37,-0.00001609,-0.00007755,0.00000379,0.00000843,0.00012670,-0.0000074
 7,0.00000565,-0.00005358,0.00000281,0.00006952,-0.00014000,0.00015046,
 0.00395829,0.00176275,0.00473505,-0.00285446,0.00626782,0.00123657,-0.
 00009136,-0.00027183,0.00034919,-0.00441877,0.00563442,0.00079477,-0.0
 0570716,0.00112751,-0.01084435,-0.03470513,-0.05105011,-0.04572604,-0.
 00057361,-0.00044283,-0.00027395,0.00006601,0.00017239,-0.00015750,-0.
 00003120,-0.00005838,0.00004778,-0.00001538,0.00002490,0.00007194,0.00
 002377,0.00001727,-0.00001635,-0.00000266,0.00000911,-0.00003337,0.000
 16499,-0.00002781,0.00015867,-0.00000826,-0.00000741,0.00003085,0.0000
 0633,-0.00000533,-0.00000598,0.00001997,0.00000282,-0.00000381,0.00013
 400,-0.00009305,0.00010596,-0.00009212,0.00004239,-0.00011191,-0.00006
 543,0.00001589,0.00007255,0.00000423,-0.00000658,0.00000290,0.00001461
 ,-0.00000828,0.00000654,-0.00004286,0.00000340,0.00000820,-0.00000501,
 0.00000045,-0.00001497,0.00002600,0.00051209,0.00030013,0.00056609,-0.
 00129279,-0.00006777,-0.00032441,0.00001817,-0.00055461,0.00168096,-0.
 00321722,0.00012426,0.04135612,0.04210262,-0.00110149,-0.00077116,-0.0
 0233437,-0.00029368,-0.00012873,-0.00001069,0.00028233,0.00019458,0.00
 021982,0.00021149,0.00032840,-0.00011959,-0.00002118,-0.00005097,-0.00
 001161,-0.00010070,0.00005812,-0.00003935,-0.00006830,0.00005261,-0.00
 008659,0.00000630,0.00002596,0.00002667,0.00007728,-0.00002209,-0.0000
 0188,-0.00003805,0.00000798,0.00000647,0.00007812,-0.00007370,0.000127
 73,-0.01348344,-0.00537787,-0.01978744,0.00391000,0.00144899,-0.003569
 33,0.00076911,0.00030579,0.00014211,0.00059456,0.00015246,0.00159728,0
 .00249128,0.00103883,0.00417252,-0.11463248,-0.04592961,-0.25347096,0.
 00016813,0.00019773,0.00078532,-0.00006858,-0.00010948,0.00029671,0.00
 002764,-0.00003634,-0.00002068,0.00004326,0.00004253,-0.00007358,-0.00
 002735,-0.00007098,0.00002905,-0.00006299,-0.00001305,0.00012112,0.000
 16866,-0.00012587,0.00028518,0.00001318,-0.00001045,0.00001372,0.00001
 602,0.00000458,0.00002811,0.00001498,-0.00000329,0.00002776,0.00007934
 ,-0.00007446,0.00010847,-0.00002467,0.00000279,-0.00009021,-0.00001437
 ,0.00001944,0.00005999,-0.00001654,0.00001193,0.00000018,0.00001291,-0
 .00000918,0.00000806,-0.00007138,-0.00001137,0.00001233,0.00002552,0.0
 0000061,0.00000313,-0.00094040,-0.00035877,-0.00111826,-0.00013497,-0.
 00003428,0.00001306,0.00018274,0.00006465,0.00006930,-0.00030187,-0.00
 008404,0.00092825,0.12222961,0.04933771,0.27165220\\-0.00001891,0.0000
 5916,0.00000650,0.00006120,0.00001963,0.00000108,-0.00002815,0.0000277
 8,-0.00000285,-0.00000093,-0.00008928,-0.00001930,-0.00004575,-0.00001
 376,-0.00002344,0.00002303,-0.00001570,-0.00000456,-0.00003486,0.00002
 554,-0.00000360,0.00004597,-0.00003637,0.00002104,-0.00002918,-0.00002
 103,-0.00000327,0.00003060,0.00000563,-0.00000307,-0.00001503,0.000020
 49,-0.00002793,0.00001528,-0.00002336,0.00001456,-0.00000385,0.0000159
 8,-0.00002558,-0.00000207,-0.00001409,-0.00000350,-0.00000765,0.000013
 23,0.00000055,-0.00001289,-0.00001060,0.00002155,-0.00000132,0.0000021
 6,-0.00000097,-0.00000582,-0.00000132,-0.00000155,-0.00000248,-0.00001
 227,-0.00001247,-0.00000231,0.00000389,0.00000390,-0.00000352,0.000003
 03,0.00001133,0.00000381,-0.00000630,0.00000202,0.00000056,0.00003238,
 0.00001966,-0.00001282,0.00000402,0.00000118,-0.00000812,-0.00000171,-
 0.00000010,0.00000771,0.00000223,0.00001302,-0.00001329,0.00001352,0.0
 0001351,0.00000694,0.00000020,0.00001286,0.00002004,0.00001068,0.00000
 028,0.00000639,-0.00000860,0.00000177,0.00000785,0.00001216,0.00000565
 ,-0.00000081,0.00000373,-0.00000936,0.00000446,0.00000884,-0.00000416,
 -0.00000165,-0.00001253,0.00000370,-0.00000484,-0.00000862,0.00000623,
 0.00000628,-0.00000159,0.00000431,0.00000718,-0.00000101,-0.00000199,0
 .00000264,-0.00000087,-0.00000983,0.00000631,-0.00000532,-0.00000715\\
 \@


 A COMPUTER IS LIKE A HORSE, IT WILL SENSE WEAKNESS.
     -- GREG WETTSTEIN
 Job cpu time:       0 days  0 hours  6 minutes 13.9 seconds.
 Elapsed time:       0 days  0 hours  6 minutes 43.4 seconds.
 File lengths (MBytes):  RWF=    424 Int=      0 D2E=      0 Chk=     16 Scr=      1
 Normal termination of Gaussian 16 at Fri Feb 23 22:27:42 2024.
