 Entering Gaussian System, Link 0=g16
 Input=/Volumes/SSD-PMU3/b3lyp_6-31gd_freq/KNQPRQPHYZGZKF-CQSZACIVSA-N_calculating/gaussianinput1.gjf
 Output=/Volumes/SSD-PMU3/b3lyp_6-31gd_freq/KNQPRQPHYZGZKF-CQSZACIVSA-N_calculating/gaussianinput1.log
 Initial command:
 /Applications/g16/l1.exe "/Users/macmini_m1_2022/PycharmProjects/sphere_model/sphere_model_lib/Gau-77133.inp" -scrdir="/Users/macmini_m1_2022/PycharmProjects/sphere_model/sphere_model_lib/"
 Entering Link 1 = /Applications/g16/l1.exe PID=     77134.
  
 Copyright (c) 1988,1990,1992,1993,1995,1998,2003,2009,2016,
            Gaussian, Inc.  All Rights Reserved.
  
 This is part of the Gaussian(R) 16 program.  It is based on
 the Gaussian(R) 09 system (copyright 2009, Gaussian, Inc.),
 the Gaussian(R) 03 system (copyright 2003, Gaussian, Inc.),
 the Gaussian(R) 98 system (copyright 1998, Gaussian, Inc.),
 the Gaussian(R) 94 system (copyright 1995, Gaussian, Inc.),
 the Gaussian 92(TM) system (copyright 1992, Gaussian, Inc.),
 the Gaussian 90(TM) system (copyright 1990, Gaussian, Inc.),
 the Gaussian 88(TM) system (copyright 1988, Gaussian, Inc.),
 the Gaussian 86(TM) system (copyright 1986, Carnegie Mellon
 University), and the Gaussian 82(TM) system (copyright 1983,
 Carnegie Mellon University). Gaussian is a federally registered
 trademark of Gaussian, Inc.
  
 This software contains proprietary and confidential information,
 including trade secrets, belonging to Gaussian, Inc.
  
 This software is provided under written license and may be
 used, copied, transmitted, or stored only in accord with that
 written license.
  
 The following legend is applicable only to US Government
 contracts under FAR:
  
                    RESTRICTED RIGHTS LEGEND
  
 Use, reproduction and disclosure by the US Government is
 subject to restrictions as set forth in subparagraphs (a)
 and (c) of the Commercial Computer Software - Restricted
 Rights clause in FAR 52.227-19.
  
 Gaussian, Inc.
 340 Quinnipiac St., Bldg. 40, Wallingford CT 06492
  
  
 ---------------------------------------------------------------
 Warning -- This program may not be used in any manner that
 competes with the business of Gaussian, Inc. or will provide
 assistance to any competitor of Gaussian, Inc.  The licensee
 of this program is prohibited from giving any competitor of
 Gaussian, Inc. access to this program.  By using this program,
 the user acknowledges that Gaussian, Inc. is engaged in the
 business of creating and licensing software in the field of
 computational chemistry and represents and warrants to the
 licensee that it is not a competitor of Gaussian, Inc. and that
 it will not use this program in any manner prohibited above.
 ---------------------------------------------------------------
  

 Cite this work as:
 Gaussian 16, Revision A.03,
 M. J. Frisch, G. W. Trucks, H. B. Schlegel, G. E. Scuseria, 
 M. A. Robb, J. R. Cheeseman, G. Scalmani, V. Barone, 
 G. A. Petersson, H. Nakatsuji, X. Li, M. Caricato, A. V. Marenich, 
 J. Bloino, B. G. Janesko, R. Gomperts, B. Mennucci, H. P. Hratchian, 
 J. V. Ortiz, A. F. Izmaylov, J. L. Sonnenberg, D. Williams-Young, 
 F. Ding, F. Lipparini, F. Egidi, J. Goings, B. Peng, A. Petrone, 
 T. Henderson, D. Ranasinghe, V. G. Zakrzewski, J. Gao, N. Rega, 
 G. Zheng, W. Liang, M. Hada, M. Ehara, K. Toyota, R. Fukuda, 
 J. Hasegawa, M. Ishida, T. Nakajima, Y. Honda, O. Kitao, H. Nakai, 
 T. Vreven, K. Throssell, J. A. Montgomery, Jr., J. E. Peralta, 
 F. Ogliaro, M. J. Bearpark, J. J. Heyd, E. N. Brothers, K. N. Kudin, 
 V. N. Staroverov, T. A. Keith, R. Kobayashi, J. Normand, 
 K. Raghavachari, A. P. Rendell, J. C. Burant, S. S. Iyengar, 
 J. Tomasi, M. Cossi, J. M. Millam, M. Klene, C. Adamo, R. Cammi, 
 J. W. Ochterski, R. L. Martin, K. Morokuma, O. Farkas, 
 J. B. Foresman, and D. J. Fox, Gaussian, Inc., Wallingford CT, 2016.
 
 ******************************************
 Gaussian 16:  EM64M-G16RevA.03 25-Dec-2016
                23-Feb-2024 
 ******************************************
 %nprocshared=10
 Will use up to   10 processors via shared memory.
 %mem=12GB
 %chk= 1.chk
 ---------------------
 # freq b3lyp/6-31g(d)
 ---------------------
 1/10=4,30=1,38=1/1,3;
 2/12=2,17=6,18=5,40=1/2;
 3/5=1,6=6,7=1,11=2,25=1,30=1,71=2,74=-5,140=1/1,2,3;
 4//1;
 5/5=2,38=5,98=1/2;
 8/6=4,10=90,11=11/1;
 11/6=1,8=1,9=11,15=111,16=1/1,2,10;
 10/6=1/2;
 6/7=2,8=2,9=2,10=2,28=1/1;
 7/8=1,10=1,25=1/1,2,3,16;
 1/10=4,30=1/3;
 99//99;
 ---------
 good luck
 ---------
 Symbolic Z-matrix:
 Charge =  0 Multiplicity = 1
 Si                   -3.68302   2.01213  -0.21452 
 C                    -5.43691   1.31036  -0.05905 
 C                    -3.50202   3.40551   1.06036 
 C                    -2.33174   0.719     0.22711 
 C                    -2.31727  -0.73452  -0.38091 
 C                    -3.3982   -1.63744   0.22992 
 C                    -2.45614  -0.72956  -1.91564 
 C                    -0.90075  -1.23213   0.00331 
 C                     0.        0.        0. 
 O                     1.21192   0.        0. 
 C                    -0.89292   1.24457   0.00331 
 C                    -3.45175   2.74919  -1.94753 
 C                    -2.44802   3.70406  -2.20336 
 C                    -2.27112   4.25885  -3.47215 
 C                    -3.10483   3.87556  -4.52369 
 C                    -4.11459   2.9394   -4.29605 
 C                    -4.28188   2.38726  -3.02486 
 H                    -5.66305   0.5361   -0.80011 
 H                    -5.59206   0.86962   0.93281 
 H                    -6.17554   2.11159  -0.18281 
 H                    -3.64224   3.02378   2.07934 
 H                    -2.51659   3.88392   1.02314 
 H                    -4.25286   4.18638   0.89215 
 H                    -2.45248   0.58343   1.31557 
 H                    -3.32931  -1.65318   1.32484 
 H                    -3.28751  -2.66968  -0.12476 
 H                    -4.4061   -1.3045   -0.03818 
 H                    -3.43985  -0.36556  -2.23 
 H                    -1.70371  -0.09616  -2.39905 
 H                    -2.33612  -1.74545  -2.31169 
 H                    -0.8997   -1.62984   1.02979 
 H                    -0.49976  -2.01907  -0.64433 
 H                    -0.54737   1.95911   0.75775 
 H                    -0.77308   1.73648  -0.97206 
 H                    -1.7939    4.03213  -1.39843 
 H                    -1.48607   4.99233  -3.63805 
 H                    -2.97148   4.30684  -5.51246 
 H                    -4.77341   2.64036  -5.10755 
 H                    -5.08019   1.66424  -2.87366 
 

 GradGradGradGradGradGradGradGradGradGradGradGradGradGradGradGradGradGrad
 Berny optimization.
 Initialization pass.
 Trust Radius=3.00D-01 FncErr=1.00D-07 GrdErr=1.00D-07 EigMax=2.50D+02 EigMin=1.00D-04
 Number of steps in this run=      2 maximum allowed number of steps=      2.
 GradGradGradGradGradGradGradGradGradGradGradGradGradGradGradGradGradGrad

                          Input orientation:                          
 ---------------------------------------------------------------------
 Center     Atomic      Atomic             Coordinates (Angstroms)
 Number     Number       Type             X           Y           Z
 ---------------------------------------------------------------------
      1         14           0       -3.683016    2.012128   -0.214522
      2          6           0       -5.436910    1.310361   -0.059049
      3          6           0       -3.502016    3.405512    1.060359
      4          6           0       -2.331738    0.718995    0.227112
      5          6           0       -2.317275   -0.734516   -0.380909
      6          6           0       -3.398199   -1.637436    0.229919
      7          6           0       -2.456141   -0.729563   -1.915641
      8          6           0       -0.900752   -1.232135    0.003306
      9          6           0        0.000000    0.000000    0.000000
     10          8           0        1.211919    0.000000    0.000000
     11          6           0       -0.892916    1.244566    0.003306
     12          6           0       -3.451746    2.749193   -1.947526
     13          6           0       -2.448022    3.704057   -2.203357
     14          6           0       -2.271120    4.258848   -3.472148
     15          6           0       -3.104829    3.875556   -4.523693
     16          6           0       -4.114590    2.939399   -4.296051
     17          6           0       -4.281883    2.387257   -3.024856
     18          1           0       -5.663055    0.536100   -0.800107
     19          1           0       -5.592057    0.869621    0.932812
     20          1           0       -6.175541    2.111587   -0.182812
     21          1           0       -3.642237    3.023781    2.079344
     22          1           0       -2.516585    3.883915    1.023142
     23          1           0       -4.252861    4.186379    0.892145
     24          1           0       -2.452477    0.583431    1.315573
     25          1           0       -3.329308   -1.653183    1.324838
     26          1           0       -3.287511   -2.669679   -0.124755
     27          1           0       -4.406101   -1.304499   -0.038178
     28          1           0       -3.439850   -0.365557   -2.229997
     29          1           0       -1.703707   -0.096158   -2.399050
     30          1           0       -2.336117   -1.745445   -2.311693
     31          1           0       -0.899698   -1.629839    1.029786
     32          1           0       -0.499760   -2.019066   -0.644327
     33          1           0       -0.547370    1.959105    0.757753
     34          1           0       -0.773084    1.736476   -0.972062
     35          1           0       -1.793902    4.032133   -1.398431
     36          1           0       -1.486073    4.992332   -3.638048
     37          1           0       -2.971483    4.306837   -5.512457
     38          1           0       -4.773413    2.640364   -5.107552
     39          1           0       -5.080194    1.664236   -2.873657
 ---------------------------------------------------------------------
                    Distance matrix (angstroms):
                    1          2          3          4          5
     1  Si   0.000000
     2  C    1.895466   0.000000
     3  C    1.897262   3.063747   0.000000
     4  C    1.921766   3.173908   3.046510   0.000000
     5  C    3.071968   3.743960   4.541002   1.575625   0.000000
     6  C    3.687542   3.595741   5.111921   2.586525   1.535178
     7  C    3.451941   4.061183   5.200892   2.589438   1.541010
     8  C    4.279449   5.200471   5.421412   2.429963   1.549769
     9  C    4.202295   5.592899   4.998599   2.450619   2.460563
    10  O    5.296703   6.776980   5.911265   3.622988   3.624888
    11  C    2.901940   4.544898   3.548866   1.548071   2.468438
    12  C    1.897381   3.094747   3.079067   3.178863   3.984663
    13  C    2.888477   4.388768   3.442655   3.851142   4.799931
    14  C    4.201586   5.510449   4.773563   5.120426   5.872953
    15  C    4.730287   5.652599   5.617859   5.756014   6.247853
    16  C    4.207727   4.728053   5.411436   5.344882   5.661831
    17  C    2.897817   3.360030   4.281824   4.142639   4.538238
    18  H    2.538134   1.095349   4.045361   3.490888   3.603392
    19  H    2.503225   1.096408   3.288660   3.339219   3.875992
    20  H    2.494710   1.096748   3.219853   4.108792   4.798517
    21  H    2.507374   3.275574   1.097138   3.234225   4.683286
    22  H    2.529024   4.040126   1.096051   3.268723   4.831251
    23  H    2.505355   3.252418   1.096274   4.019420   5.438967
    24  H    2.428290   3.365242   3.021723   1.103496   2.152514
    25  H    3.991146   3.890980   5.068547   2.797745   2.185803
    26  H    4.699340   4.523820   6.193420   3.538421   2.179869
    27  H    3.399112   2.810782   4.920199   2.909964   2.192154
    28  H    3.126444   3.392634   5.005124   2.905435   2.194409
    29  H    3.624182   4.625009   5.240527   2.820572   2.203828
    30  H    4.509060   4.901762   6.265973   3.538222   2.179509
    31  H    4.749641   5.515127   5.668135   2.865667   2.191161
    32  H    5.154452   5.983568   6.430050   3.407716   2.241165
    33  H    3.283353   4.999564   3.303573   2.236833   3.418290
    34  H    3.019529   4.771419   3.789919   2.214201   2.973178
    35  H    3.008457   4.740622   3.058751   3.729416   4.902062
    36  H    5.042688   6.478831   5.353228   5.823746   6.640530
    37  H    5.817223   6.693045   6.655506   6.798863   7.223297
    38  H    5.052266   5.262748   6.343897   6.173498   6.305837
    39  H    3.023927   2.859107   4.582485   4.249972   4.427361
                    6          7          8          9         10
     6  C    0.000000
     7  C    2.512993   0.000000
     8  C    2.540249   2.520748   0.000000
     9  C    3.779129   3.199152   1.526277   0.000000
    10  O    4.897678   4.201977   2.445720   1.211919   0.000000
    11  C    3.825406   3.165946   2.476713   1.531749   2.445258
    12  C    4.897617   3.618562   5.115104   4.823429   5.753320
    13  C    5.946025   4.442953   5.624002   4.956575   5.654201
    14  C    7.052785   5.228880   6.641354   5.945720   6.505779
    15  C    7.285326   5.331965   7.172181   6.717417   7.356497
    16  C    6.476499   4.677402   6.798156   6.635207   7.447672
    17  C    5.250963   3.778658   5.805326   5.760492   6.710485
    18  H    3.303753   3.623619   5.143117   5.744368   6.942106
    19  H    3.404762   4.528249   5.223955   5.735633   6.922461
    20  H    4.683925   4.990868   6.248081   6.529129   7.685492
    21  H    5.020645   5.608415   5.471608   5.170378   6.085208
    22  H    5.647279   5.470309   5.461222   4.739706   5.480270
    23  H    5.923328   5.939558   6.433270   6.033947   6.941579
    24  H    2.646750   3.487795   2.725101   2.843548   3.936867
    25  H    1.097197   3.480833   2.796715   3.946201   5.011083
    26  H    1.097074   2.768122   2.789185   4.236800   5.233318
    27  H    1.094801   2.767266   3.506341   4.595313   5.767610
    28  H    2.769584   1.094990   3.490791   4.115712   5.171603
    29  H    3.486878   1.095921   2.776057   2.944029   3.776978
    30  H    2.756715   1.096941   2.771819   3.721283   4.580291
    31  H    2.623424   3.450877   1.100832   2.127508   2.859329
    32  H    3.051376   2.665799   1.095209   2.177509   2.724267
    33  H    4.619626   4.244924   3.298194   2.170690   2.739960
    34  H    4.440638   3.131193   3.127346   2.134927   2.810781
    35  H    6.113044   4.835268   5.520426   4.629448   5.220025
    36  H    7.910197   6.053743   7.235057   6.353518   6.740766
    37  H    8.275950   6.210313   8.086518   7.600378   8.150882
    38  H    6.977061   5.187914   7.490969   7.472890   8.299567
    39  H    4.833459   3.678821   5.842398   6.069263   7.114652
                   11         12         13         14         15
    11  C    0.000000
    12  C    3.552078   0.000000
    13  C    3.651960   1.408786   0.000000
    14  C    4.802512   2.448961   1.396037   0.000000
    15  C    5.684047   2.832963   2.417595   1.395611   0.000000
    16  C    5.633481   2.447674   2.782359   2.412083   1.395646
    17  C    4.686214   1.407397   2.402471   2.783180   2.418058
    18  H    4.888929   3.332302   4.726680   5.701217   5.617969
    19  H    4.804840   4.050934   5.268258   6.474500   6.707861
    20  H    5.356537   3.307539   4.529124   5.538498   5.602152
    21  H    3.877410   4.040714   4.497828   5.850164   6.679403
    22  H    3.262289   3.314663   3.232235   4.517572   5.577946
    23  H    4.553408   3.281923   3.615551   4.793704   5.544898
    24  H    2.142749   4.041890   4.703317   6.038531   6.735034
    25  H    4.009913   5.486736   6.474940   7.686543   8.051252
    26  H    4.590403   5.719584   6.756466   7.761609   7.888227
    27  H    4.340728   4.581356   5.797215   6.877581   6.974677
    28  H    3.750601   3.127555   4.188817   4.928893   4.833251
    29  H    2.868142   3.369798   3.877362   4.521015   4.717177
    30  H    4.047495   4.645322   5.451727   6.115751   6.089295
    31  H    3.052198   5.878202   6.426583   7.538225   8.124845
    32  H    3.350417   5.757503   6.243431   7.109606   7.522130
    33  H    1.095061   4.046996   3.927532   5.113922   6.173091
    34  H    1.098944   3.025286   2.862321   3.854465   4.756762
    35  H    3.247641   2.167000   1.087848   2.139962   3.392685
    36  H    5.258996   3.428324   2.154840   1.087116   2.156833
    37  H    6.642408   3.919903   3.404041   2.157701   1.086940
    38  H    6.567144   3.427012   3.869526   3.399339   2.156563
    39  H    5.097679   2.164877   3.396837   3.870543   3.393320
                   16         17         18         19         20
    16  C    0.000000
    17  C    1.395989   0.000000
    18  H    4.516106   3.206856   0.000000
    19  H    5.814456   4.436543   1.766150   0.000000
    20  H    4.674562   3.426244   1.768009   1.768488   0.000000
    21  H    6.393426   5.183355   4.308538   3.123578   3.516685
    22  H    5.633786   4.662891   4.942912   4.307279   4.240688
    23  H    5.337739   4.310520   4.263438   3.577147   3.026052
    24  H    6.309004   5.043792   3.845277   3.175748   4.294371
    25  H    7.300881   6.012686   3.841188   3.411489   4.954548
    26  H    7.038858   5.913710   4.046768   4.353852   5.586107
    27  H    6.018732   4.750236   2.355477   2.660096   3.849868
    28  H    3.955577   2.986437   2.792886   4.020077   4.220333
    29  H    4.315736   3.634003   4.316573   5.210883   5.457394
    30  H    5.389657   4.623184   4.307999   5.288339   5.843801
    31  H    7.718679   6.634482   5.543408   5.317418   6.580515
    32  H    7.140620   6.275911   5.763051   6.063280   7.034897
    33  H    6.263144   5.332732   5.533724   5.163960   5.708259
    34  H    4.864318   4.116934   5.038084   5.253807   5.472674
    35  H    3.869866   3.397194   5.248865   5.464628   4.936090
    36  H    3.399500   3.870268   6.734916   7.399230   6.498343
    37  H    2.157829   3.404423   6.608272   7.760371   6.594712
    38  H    1.087200   2.154829   4.875805   6.347575   5.147682
    39  H    2.140476   1.087622   2.431466   3.922069   2.939482
                   21         22         23         24         25
    21  H    0.000000
    22  H    1.767056   0.000000
    23  H    1.770293   1.767286   0.000000
    24  H    2.820316   3.314034   4.049927   0.000000
    25  H    4.747757   5.604551   5.927956   2.402366   0.000000
    26  H    6.115502   6.697879   6.997965   3.654388   1.770969
    27  H    4.878667   5.622838   5.571241   3.035386   1.771687
    28  H    5.486255   5.430777   5.579326   3.800862   3.782466
    29  H    5.792058   5.311605   5.972460   3.849795   4.351350
    30  H    6.613068   6.545486   7.008924   4.312106   3.770848
    31  H    5.502660   5.745942   6.714986   2.718706   2.447571
    32  H    6.536348   6.457029   7.413101   3.798329   3.466673
    33  H    3.529637   2.766430   4.325445   2.415176   4.594496
    34  H    4.381811   3.410591   4.646089   3.063192   4.826989
    35  H    4.065469   2.531453   3.364076   4.437689   6.488180
    36  H    6.419720   4.900738   5.369108   6.701545   8.496506
    37  H    7.728621   6.565048   6.532639   7.794557   9.077361
    38  H    7.285468   6.650196   6.217516   7.132619   7.867377
    39  H    5.333695   5.165666   4.607271   5.061885   5.630118
                   26         27         28         29         30
    26  H    0.000000
    27  H    1.767047   0.000000
    28  H    3.124777   2.572805   0.000000
    29  H    3.782045   3.786389   1.765035   0.000000
    30  H    2.557744   3.106145   1.768896   1.768536   0.000000
    31  H    2.848839   3.679844   4.321686   3.841292   3.638976
    32  H    2.909434   4.017154   3.727274   2.868121   2.495433
    33  H    5.450948   5.116094   4.764152   3.940384   5.132719
    34  H    5.143391   4.828921   3.621130   2.502179   4.044930
    35  H    6.983366   6.095368   4.768682   4.248783   5.874390
    36  H    8.619444   7.818933   5.874251   5.241680   6.919496
    37  H    8.820373   7.969501   5.729326   5.539578   6.875951
    38  H    7.431872   6.433927   4.369700   4.924188   5.743915
    39  H    5.436267   4.160256   2.687952   3.837304   4.412673
                   31         32         33         34         35
    31  H    0.000000
    32  H    1.764682   0.000000
    33  H    3.616442   4.218286   0.000000
    34  H    3.918610   3.779711   1.758627   0.000000
    35  H    6.225252   6.233818   3.240435   2.548313   0.000000
    36  H    8.123156   7.687319   5.422610   4.268071   2.456140
    37  H    9.073994   8.356145   7.120653   5.661705   4.288050
    38  H    8.420642   7.739171   7.261223   5.824253   4.957024
    39  H    6.600329   6.286255   5.815546   4.708766   4.310794
                   36         37         38         39
    36  H    0.000000
    37  H    2.487922   0.000000
    38  H    4.300907   2.487576   0.000000
    39  H    4.957643   4.288737   2.457077   0.000000
 Stoichiometry    C15H22OSi
 Framework group  C1[X(C15H22OSi)]
 Deg. of freedom   111
 Full point group                 C1      NOp   1
 Largest Abelian subgroup         C1      NOp   1
 Largest concise Abelian subgroup C1      NOp   1
                         Standard orientation:                         
 ---------------------------------------------------------------------
 Center     Atomic      Atomic             Coordinates (Angstroms)
 Number     Number       Type             X           Y           Z
 ---------------------------------------------------------------------
      1         14           0        0.371760    1.202679    0.776467
      2          6           0        0.495210    2.926060   -0.002963
      3          6           0        0.564372    1.401201    2.653457
      4          6           0       -1.352044    0.396378    0.508951
      5          6           0       -2.047697    0.329833   -0.903222
      6          6           0       -2.601215    1.690284   -1.349944
      7          6           0       -1.111554   -0.228935   -1.992316
      8          6           0       -3.197741   -0.677789   -0.650481
      9          6           0       -2.682975   -1.658427    0.399704
     10          8           0       -3.175531   -2.729568    0.680406
     11          6           0       -1.434122   -1.052664    1.047525
     12          6           0        1.792929    0.120058    0.137514
     13          6           0        2.212213   -1.022411    0.847191
     14          6           0        3.260434   -1.823988    0.391531
     15          6           0        3.926167   -1.496618   -0.790568
     16          6           0        3.538775   -0.364097   -1.508308
     17          6           0        2.487167    0.429660   -1.046946
     18          1           0        0.457853    2.912250   -1.097588
     19          1           0       -0.322393    3.568627    0.344519
     20          1           0        1.437635    3.404959    0.289178
     21          1           0       -0.232687    2.033841    3.063548
     22          1           0        0.526392    0.442657    3.183626
     23          1           0        1.522615    1.874203    2.898116
     24          1           0       -2.021076    1.006044    1.140144
     25          1           0       -3.265532    2.117412   -0.588310
     26          1           0       -3.180091    1.588484   -2.276287
     27          1           0       -1.801015    2.412724   -1.540601
     28          1           0       -0.272613    0.446987   -2.188051
     29          1           0       -0.689535   -1.202494   -1.718225
     30          1           0       -1.658930   -0.359771   -2.933878
     31          1           0       -4.067892   -0.164317   -0.213429
     32          1           0       -3.552357   -1.202565   -1.543981
     33          1           0       -1.495541   -1.129573    2.138154
     34          1           0       -0.575078   -1.664304    0.738303
     35          1           0        1.720873   -1.292244    1.779494
     36          1           0        3.559327   -2.700402    0.961077
     37          1           0        4.744116   -2.117137   -1.147438
     38          1           0        4.056497   -0.097338   -2.426353
     39          1           0        2.209521    1.309722   -1.622556
 ---------------------------------------------------------------------
 Rotational constants (GHZ):           0.5727187           0.3000435           0.2697785
 Standard basis: 6-31G(d) (6D, 7F)
 There are   303 symmetry adapted cartesian basis functions of A   symmetry.
 There are   303 symmetry adapted basis functions of A   symmetry.
   303 basis functions,   588 primitive gaussians,   303 cartesian basis functions
    67 alpha electrons       67 beta electrons
       nuclear repulsion energy      1358.8101566784 Hartrees.
 NAtoms=   39 NActive=   39 NUniq=   39 SFac= 1.00D+00 NAtFMM=   60 NAOKFM=F Big=F
 Integral buffers will be    131072 words long.
 Raffenetti 2 integral format.
 Two-electron integral symmetry is turned on.
 One-electron integrals computed using PRISM.
 NBasis=   303 RedAO= T EigKep=  4.98D-04  NBF=   303
 NBsUse=   303 1.00D-06 EigRej= -1.00D+00 NBFU=   303
 ExpMin= 7.78D-02 ExpMax= 1.61D+04 ExpMxC= 2.43D+03 IAcc=3 IRadAn=         5 AccDes= 0.00D+00
 Harris functional with IExCor=  402 and IRadAn=       5 diagonalized for initial guess.
 HarFok:  IExCor=  402 AccDes= 0.00D+00 IRadAn=         5 IDoV= 1 UseB2=F ITyADJ=14
 ICtDFT=  3500011 ScaDFX=  1.000000  1.000000  1.000000  1.000000
 FoFCou: FMM=F IPFlag=           0 FMFlag=      100000 FMFlg1=           0
         NFxFlg=           0 DoJE=T BraDBF=F KetDBF=T FulRan=T
         wScrn=  0.000000 ICntrl=       500 IOpCl=  0 I1Cent=   200000004 NGrid=           0
         NMat0=    1 NMatS0=      1 NMatT0=    0 NMatD0=    1 NMtDS0=    0 NMtDT0=    0
 Petite list used in FoFCou.
 Requested convergence on RMS density matrix=1.00D-08 within 128 cycles.
 Requested convergence on MAX density matrix=1.00D-06.
 Requested convergence on             energy=1.00D-06.
 No special actions if energy rises.
 Integral accuracy reduced to 1.0D-05 until final iterations.
 Initial convergence to 1.0D-05 achieved.  Increase integral accuracy.
 SCF Done:  E(RB3LYP) =  -949.599997294     A.U. after   14 cycles
            NFock= 14  Conv=0.70D-08     -V/T= 2.0081
 DoSCS=F DFT=T ScalE2(SS,OS)=  1.000000  1.000000
 Range of M.O.s used for correlation:     1   303
 NBasis=   303 NAE=    67 NBE=    67 NFC=     0 NFV=     0
 NROrb=    303 NOA=    67 NOB=    67 NVA=   236 NVB=   236
 Symmetrizing basis deriv contribution to polar:
 IMax=3 JMax=2 DiffMx= 0.00D+00
 G2DrvN: will do    40 centers at a time, making    1 passes.
 Calling FoFCou, ICntrl=  3107 FMM=F I1Cent=   0 AccDes= 0.00D+00.
 End of G2Drv F.D. properties file   721 does not exist.
 End of G2Drv F.D. properties file   722 does not exist.
 End of G2Drv F.D. properties file   788 does not exist.
          IDoAtm=111111111111111111111111111111111111111
          Differentiating once with respect to electric field.
                with respect to dipole field.
          Differentiating once with respect to nuclear coordinates.
 Keep R1 ints in memory in canonical form, NReq=1074665698.
          There are   120 degrees of freedom in the 1st order CPHF.  IDoFFX=6 NUNeed=     3.
    117 vectors produced by pass  0 Test12= 1.58D-14 1.00D-09 XBig12= 1.49D+02 5.21D+00.
 AX will form   117 AO Fock derivatives at one time.
    117 vectors produced by pass  1 Test12= 1.58D-14 1.00D-09 XBig12= 2.35D+01 7.22D-01.
    117 vectors produced by pass  2 Test12= 1.58D-14 1.00D-09 XBig12= 2.11D-01 3.79D-02.
    117 vectors produced by pass  3 Test12= 1.58D-14 1.00D-09 XBig12= 5.23D-04 2.11D-03.
    117 vectors produced by pass  4 Test12= 1.58D-14 1.00D-09 XBig12= 5.21D-07 5.26D-05.
     60 vectors produced by pass  5 Test12= 1.58D-14 1.00D-09 XBig12= 3.47D-10 1.28D-06.
      4 vectors produced by pass  6 Test12= 1.58D-14 1.00D-09 XBig12= 2.59D-13 5.26D-08.
      2 vectors produced by pass  7 Test12= 1.58D-14 1.00D-09 XBig12= 2.13D-16 1.61D-09.
 InvSVY:  IOpt=1 It=  1 EMax= 1.42D-14
 Solved reduced A of dimension   651 with   120 vectors.
 Isotropic polarizability for W=    0.000000      171.65 Bohr**3.
 End of Minotr F.D. properties file   721 does not exist.
 End of Minotr F.D. properties file   722 does not exist.
 End of Minotr F.D. properties file   788 does not exist.

 **********************************************************************

            Population analysis using the SCF density.

 **********************************************************************

 Orbital symmetries:
       Occupied  (A) (A) (A) (A) (A) (A) (A) (A) (A) (A) (A) (A)
                 (A) (A) (A) (A) (A) (A) (A) (A) (A) (A) (A) (A)
                 (A) (A) (A) (A) (A) (A) (A) (A) (A) (A) (A) (A)
                 (A) (A) (A) (A) (A) (A) (A) (A) (A) (A) (A) (A)
                 (A) (A) (A) (A) (A) (A) (A) (A) (A) (A) (A) (A)
                 (A) (A) (A) (A) (A) (A) (A)
       Virtual   (A) (A) (A) (A) (A) (A) (A) (A) (A) (A) (A) (A)
                 (A) (A) (A) (A) (A) (A) (A) (A) (A) (A) (A) (A)
                 (A) (A) (A) (A) (A) (A) (A) (A) (A) (A) (A) (A)
                 (A) (A) (A) (A) (A) (A) (A) (A) (A) (A) (A) (A)
                 (A) (A) (A) (A) (A) (A) (A) (A) (A) (A) (A) (A)
                 (A) (A) (A) (A) (A) (A) (A) (A) (A) (A) (A) (A)
                 (A) (A) (A) (A) (A) (A) (A) (A) (A) (A) (A) (A)
                 (A) (A) (A) (A) (A) (A) (A) (A) (A) (A) (A) (A)
                 (A) (A) (A) (A) (A) (A) (A) (A) (A) (A) (A) (A)
                 (A) (A) (A) (A) (A) (A) (A) (A) (A) (A) (A) (A)
                 (A) (A) (A) (A) (A) (A) (A) (A) (A) (A) (A) (A)
                 (A) (A) (A) (A) (A) (A) (A) (A) (A) (A) (A) (A)
                 (A) (A) (A) (A) (A) (A) (A) (A) (A) (A) (A) (A)
                 (A) (A) (A) (A) (A) (A) (A) (A) (A) (A) (A) (A)
                 (A) (A) (A) (A) (A) (A) (A) (A) (A) (A) (A) (A)
                 (A) (A) (A) (A) (A) (A) (A) (A) (A) (A) (A) (A)
                 (A) (A) (A) (A) (A) (A) (A) (A) (A) (A) (A) (A)
                 (A) (A) (A) (A) (A) (A) (A) (A) (A) (A) (A) (A)
                 (A) (A) (A) (A) (A) (A) (A) (A) (A) (A) (A) (A)
                 (A) (A) (A) (A) (A) (A) (A) (A)
 The electronic state is 1-A.
 Alpha  occ. eigenvalues --  -66.12516 -19.13027 -10.26656 -10.20589 -10.19323
 Alpha  occ. eigenvalues --  -10.19291 -10.19265 -10.19128 -10.19121 -10.18824
 Alpha  occ. eigenvalues --  -10.18396 -10.18011 -10.17897 -10.17782 -10.17612
 Alpha  occ. eigenvalues --  -10.16759 -10.16431  -5.26903  -3.62801  -3.62781
 Alpha  occ. eigenvalues --   -3.62756  -1.02998  -0.84943  -0.84435  -0.75498
 Alpha  occ. eigenvalues --   -0.74401  -0.74346  -0.71212  -0.69761  -0.68803
 Alpha  occ. eigenvalues --   -0.68034  -0.63705  -0.60121  -0.59745  -0.54343
 Alpha  occ. eigenvalues --   -0.52981  -0.51983  -0.48106  -0.46680  -0.45578
 Alpha  occ. eigenvalues --   -0.44683  -0.44425  -0.43934  -0.43090  -0.42066
 Alpha  occ. eigenvalues --   -0.41419  -0.41079  -0.40556  -0.40353  -0.39494
 Alpha  occ. eigenvalues --   -0.39137  -0.38792  -0.37798  -0.37625  -0.36399
 Alpha  occ. eigenvalues --   -0.36324  -0.34674  -0.34256  -0.32962  -0.32596
 Alpha  occ. eigenvalues --   -0.32215  -0.30103  -0.29620  -0.28939  -0.25105
 Alpha  occ. eigenvalues --   -0.24847  -0.22835
 Alpha virt. eigenvalues --   -0.01543  -0.01054  -0.00157   0.05682   0.07616
 Alpha virt. eigenvalues --    0.08930   0.09079   0.10962   0.11350   0.11840
 Alpha virt. eigenvalues --    0.12264   0.12839   0.13451   0.13764   0.14203
 Alpha virt. eigenvalues --    0.14986   0.15121   0.15924   0.16299   0.16549
 Alpha virt. eigenvalues --    0.17403   0.17932   0.18783   0.19085   0.19318
 Alpha virt. eigenvalues --    0.19417   0.21052   0.21821   0.22532   0.22592
 Alpha virt. eigenvalues --    0.24333   0.24483   0.25908   0.26856   0.27901
 Alpha virt. eigenvalues --    0.28136   0.30462   0.30718   0.32462   0.33039
 Alpha virt. eigenvalues --    0.34452   0.35523   0.37456   0.39615   0.40268
 Alpha virt. eigenvalues --    0.43621   0.46930   0.47455   0.49959   0.50776
 Alpha virt. eigenvalues --    0.54056   0.54469   0.54862   0.55564   0.55794
 Alpha virt. eigenvalues --    0.56518   0.56795   0.58801   0.59825   0.60648
 Alpha virt. eigenvalues --    0.60795   0.61793   0.61874   0.62318   0.64824
 Alpha virt. eigenvalues --    0.64984   0.66032   0.66855   0.67087   0.68461
 Alpha virt. eigenvalues --    0.69508   0.70647   0.71950   0.72138   0.74665
 Alpha virt. eigenvalues --    0.75488   0.76267   0.77846   0.78145   0.79290
 Alpha virt. eigenvalues --    0.80159   0.81163   0.81652   0.82965   0.83825
 Alpha virt. eigenvalues --    0.83891   0.84464   0.85231   0.86019   0.86359
 Alpha virt. eigenvalues --    0.86685   0.87794   0.88501   0.89495   0.89897
 Alpha virt. eigenvalues --    0.90159   0.90318   0.91707   0.91993   0.92674
 Alpha virt. eigenvalues --    0.93242   0.93412   0.94517   0.94760   0.95139
 Alpha virt. eigenvalues --    0.95735   0.97334   0.97997   0.98113   0.99365
 Alpha virt. eigenvalues --    0.99733   1.00688   1.02012   1.02618   1.04307
 Alpha virt. eigenvalues --    1.04506   1.05866   1.07026   1.09902   1.11176
 Alpha virt. eigenvalues --    1.12795   1.14032   1.16444   1.18548   1.20739
 Alpha virt. eigenvalues --    1.21971   1.25691   1.26204   1.29830   1.32465
 Alpha virt. eigenvalues --    1.37192   1.40737   1.43375   1.44664   1.44917
 Alpha virt. eigenvalues --    1.46217   1.48635   1.49005   1.49922   1.51689
 Alpha virt. eigenvalues --    1.54144   1.55142   1.58235   1.60451   1.62181
 Alpha virt. eigenvalues --    1.68755   1.71464   1.72202   1.73602   1.75402
 Alpha virt. eigenvalues --    1.75910   1.76995   1.78476   1.80061   1.80702
 Alpha virt. eigenvalues --    1.82017   1.82246   1.84240   1.84723   1.86413
 Alpha virt. eigenvalues --    1.88290   1.88995   1.90704   1.92941   1.94340
 Alpha virt. eigenvalues --    1.97477   1.98354   1.99969   2.02652   2.03148
 Alpha virt. eigenvalues --    2.05581   2.06774   2.06951   2.10750   2.11037
 Alpha virt. eigenvalues --    2.12626   2.14174   2.14988   2.15371   2.16512
 Alpha virt. eigenvalues --    2.16589   2.20818   2.23552   2.24141   2.25703
 Alpha virt. eigenvalues --    2.26748   2.27783   2.28076   2.28363   2.29231
 Alpha virt. eigenvalues --    2.29520   2.29897   2.30719   2.31002   2.31268
 Alpha virt. eigenvalues --    2.34063   2.35773   2.42819   2.50320   2.54799
 Alpha virt. eigenvalues --    2.57487   2.57787   2.58142   2.61490   2.64655
 Alpha virt. eigenvalues --    2.67133   2.67485   2.69274   2.71275   2.74944
 Alpha virt. eigenvalues --    2.75584   2.76473   2.77499   2.78325   2.80485
 Alpha virt. eigenvalues --    3.00581   3.03621   3.06650   3.12486   3.39086
 Alpha virt. eigenvalues --    4.02257   4.09273   4.12271   4.13968   4.19086
 Alpha virt. eigenvalues --    4.22539   4.24845   4.28813   4.31896   4.34807
 Alpha virt. eigenvalues --    4.35217   4.39384   4.47179   4.67027   4.68714
 Alpha virt. eigenvalues --    4.73378
          Condensed to atoms (all electrons):
               1          2          3          4          5          6
     1  Si  12.043719   0.386044   0.390691   0.343275  -0.017332  -0.001687
     2  C    0.386044   5.281101  -0.026608  -0.022915   0.000019  -0.001475
     3  C    0.390691  -0.026608   5.278745  -0.027809   0.000846  -0.000039
     4  C    0.343275  -0.022915  -0.027809   5.276973   0.374095  -0.047660
     5  C   -0.017332   0.000019   0.000846   0.374095   4.802833   0.373132
     6  C   -0.001687  -0.001475  -0.000039  -0.047660   0.373132   5.164703
     7  C    0.003318  -0.001171  -0.000012  -0.061955   0.384094  -0.063603
     8  C    0.003531  -0.000008  -0.000043  -0.054447   0.323006  -0.041463
     9  C    0.001552  -0.000002   0.000052  -0.040533  -0.030209   0.001688
    10  O   -0.000161   0.000000   0.000000   0.003568   0.002980  -0.000070
    11  C   -0.008576   0.000557  -0.001412   0.298887  -0.033883   0.004877
    12  C    0.383184  -0.027954  -0.027235  -0.013644  -0.002060  -0.000051
    13  C   -0.028115   0.000125   0.000389  -0.000925  -0.000028  -0.000001
    14  C    0.004332  -0.000034   0.000106  -0.000024   0.000000  -0.000000
    15  C   -0.000301   0.000001   0.000003   0.000005   0.000001   0.000000
    16  C    0.005464   0.000135  -0.000047  -0.000045  -0.000003   0.000000
    17  C   -0.030387   0.001509  -0.000300  -0.000603  -0.000026   0.000002
    18  H   -0.024244   0.361956   0.001285  -0.001010   0.000418  -0.001330
    19  H   -0.016899   0.360850  -0.001371  -0.000782  -0.000325  -0.000020
    20  H   -0.017073   0.359185  -0.001473   0.001002  -0.000014   0.000085
    21  H   -0.015805  -0.001337   0.357536  -0.001075   0.000010  -0.000006
    22  H   -0.021078   0.001255   0.361922  -0.001245   0.000002   0.000001
    23  H   -0.018391  -0.001218   0.363076   0.001152  -0.000011   0.000000
    24  H   -0.028315  -0.000727  -0.002071   0.346229  -0.037715  -0.008366
    25  H    0.000173  -0.000005  -0.000003  -0.006297  -0.026911   0.363212
    26  H   -0.000155   0.000040   0.000000   0.005092  -0.028649   0.365840
    27  H    0.000734   0.000832  -0.000016  -0.003329  -0.028140   0.364923
    28  H    0.009022  -0.000353   0.000004  -0.005986  -0.029676  -0.004852
    29  H   -0.000384   0.000034   0.000000  -0.006470  -0.028410   0.005595
    30  H   -0.000445   0.000002  -0.000000   0.006016  -0.027663  -0.005702
    31  H   -0.000173  -0.000001   0.000001  -0.001156  -0.033005  -0.008485
    32  H   -0.000145   0.000000   0.000000   0.004751  -0.026940   0.001022
    33  H   -0.000112  -0.000013   0.000292  -0.025082   0.003135  -0.000128
    34  H   -0.008075   0.000036  -0.000059  -0.037721  -0.001421  -0.000035
    35  H   -0.009329   0.000048   0.001942   0.000137   0.000023  -0.000000
    36  H   -0.000247   0.000000  -0.000001   0.000000   0.000000   0.000000
    37  H    0.000038  -0.000000   0.000000   0.000000  -0.000000  -0.000000
    38  H   -0.000262  -0.000000   0.000000   0.000000   0.000000  -0.000000
    39  H   -0.012586   0.003452   0.000062   0.000104   0.000034  -0.000009
               7          8          9         10         11         12
     1  Si   0.003318   0.003531   0.001552  -0.000161  -0.008576   0.383184
     2  C   -0.001171  -0.000008  -0.000002   0.000000   0.000557  -0.027954
     3  C   -0.000012  -0.000043   0.000052   0.000000  -0.001412  -0.027235
     4  C   -0.061955  -0.054447  -0.040533   0.003568   0.298887  -0.013644
     5  C    0.384094   0.323006  -0.030209   0.002980  -0.033883  -0.002060
     6  C   -0.063603  -0.041463   0.001688  -0.000070   0.004877  -0.000051
     7  C    5.163421  -0.060975  -0.002293  -0.000004  -0.001726   0.000067
     8  C   -0.060975   5.424799   0.333558  -0.070253  -0.182586  -0.000022
     9  C   -0.002293   0.333558   4.489657   0.571785   0.320147  -0.000001
    10  O   -0.000004  -0.070253   0.571785   8.014486  -0.072087   0.000000
    11  C   -0.001726  -0.182586   0.320147  -0.072087   5.392023  -0.004727
    12  C    0.000067  -0.000022  -0.000001   0.000000  -0.004727   4.931652
    13  C   -0.000198  -0.000000   0.000037   0.000000  -0.002697   0.492583
    14  C    0.000006  -0.000000   0.000001   0.000000  -0.000077  -0.025889
    15  C    0.000000   0.000000   0.000000  -0.000000   0.000003  -0.036283
    16  C   -0.000072  -0.000000  -0.000000   0.000000   0.000003  -0.026135
    17  C   -0.001461  -0.000005   0.000003   0.000000   0.000008   0.500145
    18  H   -0.000206  -0.000001  -0.000000   0.000000  -0.000002  -0.000839
    19  H    0.000046  -0.000003  -0.000000   0.000000   0.000008   0.001000
    20  H    0.000005   0.000000   0.000000  -0.000000  -0.000005  -0.000881
    21  H    0.000002  -0.000002  -0.000004   0.000000  -0.000109   0.001103
    22  H   -0.000001   0.000001  -0.000002   0.000000   0.000436  -0.001450
    23  H    0.000001   0.000000  -0.000000  -0.000000   0.000033  -0.000945
    24  H    0.006390  -0.004304  -0.002521   0.000037  -0.039472   0.000959
    25  H    0.005762  -0.006304   0.000050   0.000000   0.000092   0.000002
    26  H   -0.004191  -0.005731   0.000119   0.000000  -0.000201   0.000000
    27  H   -0.004687   0.004965  -0.000068   0.000001   0.000054  -0.000014
    28  H    0.364636   0.005215   0.000025   0.000002  -0.000093  -0.001510
    29  H    0.370830  -0.003493   0.000970  -0.000184   0.003523   0.000500
    30  H    0.360146  -0.005987  -0.000120   0.000003  -0.000284   0.000090
    31  H    0.005665   0.346811  -0.023411  -0.000525   0.004528   0.000001
    32  H   -0.006166   0.344728  -0.020943   0.001074   0.006757   0.000001
    33  H    0.000057   0.006495  -0.020096   0.000905   0.351597  -0.000047
    34  H    0.001664   0.003345  -0.022973  -0.000013   0.347557   0.003541
    35  H   -0.000013   0.000001   0.000038   0.000001   0.000347  -0.057269
    36  H   -0.000000  -0.000000  -0.000000  -0.000000  -0.000001   0.004305
    37  H    0.000000   0.000000  -0.000000  -0.000000   0.000000   0.000638
    38  H    0.000000  -0.000000   0.000000  -0.000000   0.000000   0.004319
    39  H   -0.000601   0.000001  -0.000000  -0.000000   0.000003  -0.055014
              13         14         15         16         17         18
     1  Si  -0.028115   0.004332  -0.000301   0.005464  -0.030387  -0.024244
     2  C    0.000125  -0.000034   0.000001   0.000135   0.001509   0.361956
     3  C    0.000389   0.000106   0.000003  -0.000047  -0.000300   0.001285
     4  C   -0.000925  -0.000024   0.000005  -0.000045  -0.000603  -0.001010
     5  C   -0.000028   0.000000   0.000001  -0.000003  -0.000026   0.000418
     6  C   -0.000001  -0.000000   0.000000   0.000000   0.000002  -0.001330
     7  C   -0.000198   0.000006   0.000000  -0.000072  -0.001461  -0.000206
     8  C   -0.000000  -0.000000   0.000000  -0.000000  -0.000005  -0.000001
     9  C    0.000037   0.000001   0.000000  -0.000000   0.000003  -0.000000
    10  O    0.000000   0.000000  -0.000000   0.000000   0.000000   0.000000
    11  C   -0.002697  -0.000077   0.000003   0.000003   0.000008  -0.000002
    12  C    0.492583  -0.025889  -0.036283  -0.026135   0.500145  -0.000839
    13  C    4.954768   0.514723  -0.026654  -0.052445  -0.007630   0.000031
    14  C    0.514723   4.891466   0.547516  -0.027744  -0.051558  -0.000000
    15  C   -0.026654   0.547516   4.848527   0.547410  -0.026863  -0.000000
    16  C   -0.052445  -0.027744   0.547410   4.894796   0.510857   0.000002
    17  C   -0.007630  -0.051558  -0.026863   0.510857   4.955110  -0.001101
    18  H    0.000031  -0.000000  -0.000000   0.000002  -0.001101   0.546628
    19  H    0.000003   0.000000   0.000000  -0.000000   0.000023  -0.026040
    20  H    0.000017  -0.000001  -0.000000  -0.000032  -0.000280  -0.025009
    21  H    0.000010   0.000001  -0.000000   0.000000   0.000007  -0.000008
    22  H   -0.000496  -0.000000  -0.000000   0.000001   0.000035  -0.000021
    23  H   -0.000184  -0.000014   0.000000  -0.000002   0.000015  -0.000006
    24  H   -0.000015   0.000001  -0.000000   0.000000   0.000007   0.000003
    25  H    0.000000   0.000000  -0.000000   0.000000   0.000000  -0.000020
    26  H    0.000000  -0.000000   0.000000   0.000000   0.000000   0.000009
    27  H    0.000000   0.000000   0.000000  -0.000000  -0.000030   0.003473
    28  H   -0.000020  -0.000024   0.000001   0.000091   0.002530   0.001165
    29  H    0.000119   0.000008   0.000006  -0.000001   0.000181  -0.000003
    30  H    0.000003  -0.000000  -0.000000   0.000002   0.000056  -0.000003
    31  H   -0.000000   0.000000  -0.000000   0.000000   0.000000  -0.000000
    32  H    0.000000   0.000000  -0.000000   0.000000   0.000000   0.000000
    33  H   -0.000134   0.000005   0.000000  -0.000000   0.000001  -0.000000
    34  H    0.005754   0.000410  -0.000023  -0.000019   0.000004  -0.000001
    35  H    0.360804  -0.048469   0.004879   0.000317   0.006692   0.000000
    36  H   -0.040263   0.356792  -0.043761   0.004570   0.000749   0.000000
    37  H    0.004773  -0.043115   0.358045  -0.043163   0.004747  -0.000000
    38  H    0.000749   0.004585  -0.044057   0.356673  -0.040479  -0.000000
    39  H    0.006711   0.000294   0.004994  -0.050804   0.360996   0.002873
              19         20         21         22         23         24
     1  Si  -0.016899  -0.017073  -0.015805  -0.021078  -0.018391  -0.028315
     2  C    0.360850   0.359185  -0.001337   0.001255  -0.001218  -0.000727
     3  C   -0.001371  -0.001473   0.357536   0.361922   0.363076  -0.002071
     4  C   -0.000782   0.001002  -0.001075  -0.001245   0.001152   0.346229
     5  C   -0.000325  -0.000014   0.000010   0.000002  -0.000011  -0.037715
     6  C   -0.000020   0.000085  -0.000006   0.000001   0.000000  -0.008366
     7  C    0.000046   0.000005   0.000002  -0.000001   0.000001   0.006390
     8  C   -0.000003   0.000000  -0.000002   0.000001   0.000000  -0.004304
     9  C   -0.000000   0.000000  -0.000004  -0.000002  -0.000000  -0.002521
    10  O    0.000000  -0.000000   0.000000   0.000000  -0.000000   0.000037
    11  C    0.000008  -0.000005  -0.000109   0.000436   0.000033  -0.039472
    12  C    0.001000  -0.000881   0.001103  -0.001450  -0.000945   0.000959
    13  C    0.000003   0.000017   0.000010  -0.000496  -0.000184  -0.000015
    14  C    0.000000  -0.000001   0.000001  -0.000000  -0.000014   0.000001
    15  C    0.000000  -0.000000  -0.000000  -0.000000   0.000000  -0.000000
    16  C   -0.000000  -0.000032   0.000000   0.000001  -0.000002   0.000000
    17  C    0.000023  -0.000280   0.000007   0.000035   0.000015   0.000007
    18  H   -0.026040  -0.025009  -0.000008  -0.000021  -0.000006   0.000003
    19  H    0.542416  -0.024813   0.000384  -0.000012  -0.000071   0.000326
    20  H   -0.024813   0.539405  -0.000068   0.000007   0.000635  -0.000024
    21  H    0.000384  -0.000068   0.549135  -0.025740  -0.024994   0.001116
    22  H   -0.000012   0.000007  -0.025740   0.545880  -0.024188  -0.000142
    23  H   -0.000071   0.000635  -0.024994  -0.024188   0.537993   0.000013
    24  H    0.000326  -0.000024   0.001116  -0.000142   0.000013   0.623896
    25  H    0.000181  -0.000003  -0.000001  -0.000000   0.000000   0.006573
    26  H    0.000001  -0.000001  -0.000000   0.000000  -0.000000   0.000028
    27  H    0.000601   0.000095  -0.000002  -0.000000   0.000000  -0.000261
    28  H   -0.000028   0.000001   0.000000   0.000000   0.000000  -0.000007
    29  H   -0.000001  -0.000000  -0.000000  -0.000000  -0.000000   0.000041
    30  H    0.000000   0.000000  -0.000000  -0.000000  -0.000000  -0.000179
    31  H   -0.000000  -0.000000   0.000000   0.000000  -0.000000   0.002879
    32  H   -0.000000  -0.000000  -0.000000   0.000000  -0.000000  -0.000091
    33  H   -0.000001   0.000000   0.000067   0.001222   0.000008  -0.006527
    34  H    0.000001  -0.000001   0.000010  -0.000101  -0.000005   0.005696
    35  H   -0.000001  -0.000002  -0.000064   0.002366  -0.000029  -0.000028
    36  H   -0.000000   0.000000  -0.000000  -0.000000   0.000000  -0.000000
    37  H   -0.000000  -0.000000  -0.000000  -0.000000  -0.000000   0.000000
    38  H   -0.000000   0.000000  -0.000000   0.000000   0.000000  -0.000000
    39  H   -0.000051   0.000225  -0.000002  -0.000000  -0.000007  -0.000005
              25         26         27         28         29         30
     1  Si   0.000173  -0.000155   0.000734   0.009022  -0.000384  -0.000445
     2  C   -0.000005   0.000040   0.000832  -0.000353   0.000034   0.000002
     3  C   -0.000003   0.000000  -0.000016   0.000004   0.000000  -0.000000
     4  C   -0.006297   0.005092  -0.003329  -0.005986  -0.006470   0.006016
     5  C   -0.026911  -0.028649  -0.028140  -0.029676  -0.028410  -0.027663
     6  C    0.363212   0.365840   0.364923  -0.004852   0.005595  -0.005702
     7  C    0.005762  -0.004191  -0.004687   0.364636   0.370830   0.360146
     8  C   -0.006304  -0.005731   0.004965   0.005215  -0.003493  -0.005987
     9  C    0.000050   0.000119  -0.000068   0.000025   0.000970  -0.000120
    10  O    0.000000   0.000000   0.000001   0.000002  -0.000184   0.000003
    11  C    0.000092  -0.000201   0.000054  -0.000093   0.003523  -0.000284
    12  C    0.000002   0.000000  -0.000014  -0.001510   0.000500   0.000090
    13  C    0.000000   0.000000   0.000000  -0.000020   0.000119   0.000003
    14  C    0.000000  -0.000000   0.000000  -0.000024   0.000008  -0.000000
    15  C   -0.000000   0.000000   0.000000   0.000001   0.000006  -0.000000
    16  C    0.000000   0.000000  -0.000000   0.000091  -0.000001   0.000002
    17  C    0.000000   0.000000  -0.000030   0.002530   0.000181   0.000056
    18  H   -0.000020   0.000009   0.003473   0.001165  -0.000003  -0.000003
    19  H    0.000181   0.000001   0.000601  -0.000028  -0.000001   0.000000
    20  H   -0.000003  -0.000001   0.000095   0.000001  -0.000000   0.000000
    21  H   -0.000001  -0.000000  -0.000002   0.000000  -0.000000  -0.000000
    22  H   -0.000000   0.000000  -0.000000   0.000000  -0.000000  -0.000000
    23  H    0.000000  -0.000000   0.000000   0.000000  -0.000000  -0.000000
    24  H    0.006573   0.000028  -0.000261  -0.000007   0.000041  -0.000179
    25  H    0.582330  -0.030376  -0.030297  -0.000006  -0.000187  -0.000046
    26  H   -0.030376   0.579698  -0.030596  -0.000182  -0.000052   0.004500
    27  H   -0.030297  -0.030596   0.569671   0.003388  -0.000026  -0.000121
    28  H   -0.000006  -0.000182   0.003388   0.560600  -0.030718  -0.029135
    29  H   -0.000187  -0.000052  -0.000026  -0.030718   0.562819  -0.030558
    30  H   -0.000046   0.004500  -0.000121  -0.029135  -0.030558   0.584978
    31  H    0.005346   0.000143   0.000117  -0.000179  -0.000038  -0.000036
    32  H   -0.000124   0.001434  -0.000144   0.000060   0.000569   0.004221
    33  H   -0.000011   0.000003  -0.000002  -0.000008  -0.000032   0.000002
    34  H    0.000002   0.000004  -0.000007  -0.000096   0.002020  -0.000052
    35  H   -0.000000   0.000000   0.000000  -0.000001  -0.000015   0.000000
    36  H   -0.000000   0.000000   0.000000   0.000000   0.000000  -0.000000
    37  H    0.000000  -0.000000   0.000000  -0.000000  -0.000000  -0.000000
    38  H   -0.000000  -0.000000   0.000000   0.000002   0.000000   0.000000
    39  H    0.000000   0.000000  -0.000014   0.001622  -0.000012   0.000004
              31         32         33         34         35         36
     1  Si  -0.000173  -0.000145  -0.000112  -0.008075  -0.009329  -0.000247
     2  C   -0.000001   0.000000  -0.000013   0.000036   0.000048   0.000000
     3  C    0.000001   0.000000   0.000292  -0.000059   0.001942  -0.000001
     4  C   -0.001156   0.004751  -0.025082  -0.037721   0.000137   0.000000
     5  C   -0.033005  -0.026940   0.003135  -0.001421   0.000023   0.000000
     6  C   -0.008485   0.001022  -0.000128  -0.000035  -0.000000   0.000000
     7  C    0.005665  -0.006166   0.000057   0.001664  -0.000013  -0.000000
     8  C    0.346811   0.344728   0.006495   0.003345   0.000001  -0.000000
     9  C   -0.023411  -0.020943  -0.020096  -0.022973   0.000038  -0.000000
    10  O   -0.000525   0.001074   0.000905  -0.000013   0.000001  -0.000000
    11  C    0.004528   0.006757   0.351597   0.347557   0.000347  -0.000001
    12  C    0.000001   0.000001  -0.000047   0.003541  -0.057269   0.004305
    13  C   -0.000000   0.000000  -0.000134   0.005754   0.360804  -0.040263
    14  C    0.000000   0.000000   0.000005   0.000410  -0.048469   0.356792
    15  C   -0.000000  -0.000000   0.000000  -0.000023   0.004879  -0.043761
    16  C    0.000000   0.000000  -0.000000  -0.000019   0.000317   0.004570
    17  C    0.000000   0.000000   0.000001   0.000004   0.006692   0.000749
    18  H   -0.000000   0.000000  -0.000000  -0.000001   0.000000   0.000000
    19  H   -0.000000  -0.000000  -0.000001   0.000001  -0.000001  -0.000000
    20  H   -0.000000  -0.000000   0.000000  -0.000001  -0.000002   0.000000
    21  H    0.000000  -0.000000   0.000067   0.000010  -0.000064  -0.000000
    22  H    0.000000   0.000000   0.001222  -0.000101   0.002366  -0.000000
    23  H   -0.000000  -0.000000   0.000008  -0.000005  -0.000029   0.000000
    24  H    0.002879  -0.000091  -0.006527   0.005696  -0.000028  -0.000000
    25  H    0.005346  -0.000124  -0.000011   0.000002  -0.000000  -0.000000
    26  H    0.000143   0.001434   0.000003   0.000004   0.000000   0.000000
    27  H    0.000117  -0.000144  -0.000002  -0.000007   0.000000   0.000000
    28  H   -0.000179   0.000060  -0.000008  -0.000096  -0.000001   0.000000
    29  H   -0.000038   0.000569  -0.000032   0.002020  -0.000015   0.000000
    30  H   -0.000036   0.004221   0.000002  -0.000052   0.000000  -0.000000
    31  H    0.561431  -0.023879  -0.000398   0.000090  -0.000000  -0.000000
    32  H   -0.023879   0.549292  -0.000062  -0.000281  -0.000000  -0.000000
    33  H   -0.000398  -0.000062   0.544680  -0.025485   0.000314  -0.000000
    34  H    0.000090  -0.000281  -0.025485   0.545390   0.000590  -0.000009
    35  H   -0.000000  -0.000000   0.000314   0.000590   0.614609  -0.005435
    36  H   -0.000000  -0.000000  -0.000000  -0.000009  -0.005435   0.597442
    37  H   -0.000000  -0.000000   0.000000   0.000000  -0.000192  -0.005623
    38  H   -0.000000  -0.000000   0.000000  -0.000000   0.000020  -0.000180
    39  H   -0.000000  -0.000000  -0.000000  -0.000006  -0.000154   0.000019
              37         38         39
     1  Si   0.000038  -0.000262  -0.012586
     2  C   -0.000000  -0.000000   0.003452
     3  C    0.000000   0.000000   0.000062
     4  C    0.000000   0.000000   0.000104
     5  C   -0.000000   0.000000   0.000034
     6  C   -0.000000  -0.000000  -0.000009
     7  C    0.000000   0.000000  -0.000601
     8  C    0.000000  -0.000000   0.000001
     9  C   -0.000000   0.000000  -0.000000
    10  O   -0.000000  -0.000000  -0.000000
    11  C    0.000000   0.000000   0.000003
    12  C    0.000638   0.004319  -0.055014
    13  C    0.004773   0.000749   0.006711
    14  C   -0.043115   0.004585   0.000294
    15  C    0.358045  -0.044057   0.004994
    16  C   -0.043163   0.356673  -0.050804
    17  C    0.004747  -0.040479   0.360996
    18  H   -0.000000  -0.000000   0.002873
    19  H   -0.000000  -0.000000  -0.000051
    20  H   -0.000000   0.000000   0.000225
    21  H   -0.000000  -0.000000  -0.000002
    22  H   -0.000000   0.000000  -0.000000
    23  H   -0.000000   0.000000  -0.000007
    24  H    0.000000  -0.000000  -0.000005
    25  H    0.000000  -0.000000   0.000000
    26  H   -0.000000  -0.000000   0.000000
    27  H    0.000000   0.000000  -0.000014
    28  H   -0.000000   0.000002   0.001622
    29  H   -0.000000   0.000000  -0.000012
    30  H   -0.000000   0.000000   0.000004
    31  H   -0.000000  -0.000000  -0.000000
    32  H   -0.000000  -0.000000  -0.000000
    33  H    0.000000   0.000000  -0.000000
    34  H    0.000000  -0.000000  -0.000006
    35  H   -0.000192   0.000020  -0.000154
    36  H   -0.005623  -0.000180   0.000019
    37  H    0.597380  -0.005656  -0.000193
    38  H   -0.005656   0.600070  -0.005429
    39  H   -0.000193  -0.005429   0.619340
 Mulliken charges:
               1
     1  Si   0.685197
     2  C   -0.673359
     3  C   -0.668454
     4  C   -0.300574
     5  C    0.087794
     6  C   -0.460100
     7  C   -0.456778
     8  C   -0.360829
     9  C    0.443496
    10  O   -0.451546
    11  C   -0.383503
    12  C   -0.042122
    13  C   -0.181793
    14  C   -0.123297
    15  C   -0.133446
    16  C   -0.119809
    17  C   -0.182955
    18  H    0.162001
    19  H    0.164580
    20  H    0.169020
    21  H    0.159835
    22  H    0.161350
    23  H    0.167138
    24  H    0.136576
    25  H    0.136868
    26  H    0.143222
    27  H    0.148901
    28  H    0.154512
    29  H    0.153368
    30  H    0.140308
    31  H    0.164277
    32  H    0.164866
    33  H    0.169355
    34  H    0.180269
    35  H    0.127872
    36  H    0.131642
    37  H    0.132320
    38  H    0.129644
    39  H    0.124153
 Sum of Mulliken charges =  -0.00000
 Mulliken charges with hydrogens summed into heavy atoms:
               1
     1  Si   0.685197
     2  C   -0.177758
     3  C   -0.180131
     4  C   -0.163998
     5  C    0.087794
     6  C   -0.031108
     7  C   -0.008589
     8  C   -0.031687
     9  C    0.443496
    10  O   -0.451546
    11  C   -0.033879
    12  C   -0.042122
    13  C   -0.053921
    14  C    0.008345
    15  C   -0.001126
    16  C    0.009835
    17  C   -0.058801
 APT charges:
               1
     1  Si   1.468060
     2  C   -0.381258
     3  C   -0.372873
     4  C   -0.289939
     5  C    0.161542
     6  C    0.064857
     7  C    0.036897
     8  C   -0.110928
     9  C    0.817297
    10  O   -0.717266
    11  C   -0.109211
    12  C   -0.374019
    13  C   -0.032705
    14  C   -0.011840
    15  C   -0.007188
    16  C   -0.009791
    17  C   -0.029246
    18  H    0.019949
    19  H    0.008938
    20  H    0.000957
    21  H   -0.000678
    22  H    0.019313
    23  H    0.002178
    24  H   -0.064982
    25  H   -0.026318
    26  H   -0.030036
    27  H   -0.017421
    28  H   -0.013560
    29  H   -0.010707
    30  H   -0.034134
    31  H   -0.006213
    32  H   -0.018771
    33  H   -0.006928
    34  H    0.016909
    35  H    0.018503
    36  H    0.007098
    37  H    0.011018
    38  H    0.005193
    39  H    0.017305
 Sum of APT charges =   0.00000
 APT charges with hydrogens summed into heavy atoms:
               1
     1  Si   1.468060
     2  C   -0.351416
     3  C   -0.352060
     4  C   -0.354921
     5  C    0.161542
     6  C   -0.008919
     7  C   -0.021505
     8  C   -0.135912
     9  C    0.817297
    10  O   -0.717266
    11  C   -0.099229
    12  C   -0.374019
    13  C   -0.014202
    14  C   -0.004742
    15  C    0.003830
    16  C   -0.004599
    17  C   -0.011941
 Electronic spatial extent (au):  <R**2>=           4714.5254
 Charge=             -0.0000 electrons
 Dipole moment (field-independent basis, Debye):
    X=              1.5712    Y=              2.6582    Z=             -0.6985  Tot=              3.1659
 Quadrupole moment (field-independent basis, Debye-Ang):
   XX=           -113.5863   YY=           -117.7212   ZZ=           -107.0772
   XY=            -13.0109   XZ=              0.5054   YZ=              1.3339
 Traceless Quadrupole moment (field-independent basis, Debye-Ang):
   XX=             -0.7914   YY=             -4.9263   ZZ=              5.7177
   XY=            -13.0109   XZ=              0.5054   YZ=              1.3339
 Octapole moment (field-independent basis, Debye-Ang**2):
  XXX=             15.2793  YYY=             18.4985  ZZZ=             -0.8899  XYY=             40.1314
  XXY=             18.4055  XXZ=            -22.3561  XZZ=             -1.6326  YZZ=             -2.9811
  YYZ=             -3.2531  XYZ=            -13.8869
 Hexadecapole moment (field-independent basis, Debye-Ang**3):
 XXXX=          -3686.9187 YYYY=          -1670.1883 ZZZZ=          -1146.6229 XXXY=           -167.1353
 XXXZ=            -42.4205 YYYX=            -98.8223 YYYZ=             21.5545 ZZZX=            -19.0464
 ZZZY=            -20.5819 XXYY=           -950.3338 XXZZ=           -764.9992 YYZZ=           -453.6689
 XXYZ=             38.8950 YYXZ=             30.1082 ZZXY=              8.2220
 N-N= 1.358810156678D+03 E-N=-4.936484554097D+03  KE= 9.420052444958D+02
  Exact polarizability: 187.199 -16.607 168.653 -12.737  -9.455 159.085
 Approx polarizability: 253.009 -26.547 261.722 -29.454 -26.475 250.307
 Calling FoFJK, ICntrl=    100127 FMM=F ISym2X=0 I1Cent= 0 IOpClX= 0 NMat=1 NMatS=1 NMatT=0.
 Full mass-weighted force constant matrix:
 Low frequencies ---   -7.0879   -4.4656   -0.0004    0.0012    0.0018    5.3872
 Low frequencies ---   21.0034   46.4847   48.1311
 Diagonal vibrational polarizability:
       40.1822462      22.7108892      37.6669436
 Harmonic frequencies (cm**-1), IR intensities (KM/Mole), Raman scattering
 activities (A**4/AMU), depolarization ratios for plane and unpolarized
 incident light, reduced masses (AMU), force constants (mDyne/A),
 and normal coordinates:
                      1                      2                      3
                      A                      A                      A
 Frequencies --     20.7977                46.4682                48.1302
 Red. masses --      4.0640                 3.6257                 5.2205
 Frc consts  --      0.0010                 0.0046                 0.0071
 IR Inten    --      0.5316                 0.0582                 0.5490
  Atom  AN      X      Y      Z        X      Y      Z        X      Y      Z
     1  14     0.00   0.02  -0.02     0.00  -0.00  -0.05    -0.01   0.08   0.04
     2   6     0.01  -0.02  -0.09    -0.01  -0.04  -0.12    -0.01   0.07   0.02
     3   6     0.01   0.09  -0.03     0.03   0.07  -0.06    -0.01   0.11   0.04
     4   6     0.01  -0.00   0.01     0.00  -0.02   0.01     0.01   0.05   0.03
     5   6    -0.05   0.06   0.04    -0.05   0.01   0.03     0.06  -0.01   0.00
     6   6    -0.12   0.07   0.16    -0.09   0.01   0.09     0.02  -0.05  -0.05
     7   6    -0.08   0.18  -0.04    -0.07   0.06  -0.02     0.12  -0.00   0.05
     8   6    -0.00   0.00   0.02    -0.03  -0.01   0.03     0.10  -0.06  -0.02
     9   6     0.07  -0.05  -0.07    -0.00  -0.02   0.02     0.13  -0.03  -0.01
    10   8     0.13  -0.09  -0.13    -0.01  -0.01   0.04     0.22  -0.09  -0.07
    11   6     0.07  -0.04  -0.07     0.03  -0.03  -0.03     0.03   0.06   0.07
    12   6    -0.00  -0.02   0.01     0.01  -0.02  -0.02    -0.03   0.05   0.03
    13   6     0.03   0.05   0.10    -0.12  -0.11  -0.09    -0.15  -0.04  -0.03
    14   6     0.03   0.02   0.13    -0.09  -0.10  -0.06    -0.24  -0.12  -0.09
    15   6    -0.02  -0.07   0.08     0.06   0.01   0.06    -0.21  -0.12  -0.08
    16   6    -0.06  -0.14  -0.01     0.19   0.10   0.14    -0.09  -0.03  -0.00
    17   6    -0.05  -0.11  -0.04     0.16   0.08   0.09    -0.00   0.05   0.05
    18   1    -0.02  -0.06  -0.09    -0.05  -0.08  -0.12    -0.01   0.06   0.02
    19   1     0.04   0.01  -0.09     0.00  -0.02  -0.12    -0.01   0.07   0.01
    20   1     0.03  -0.03  -0.14    -0.00  -0.03  -0.17    -0.01   0.08   0.01
    21   1     0.03   0.13  -0.06     0.03   0.06  -0.06    -0.02   0.09   0.03
    22   1    -0.03   0.11   0.01     0.07   0.09  -0.03     0.03   0.11   0.04
    23   1     0.03   0.06  -0.05     0.03   0.10  -0.10    -0.02   0.14   0.03
    24   1     0.02  -0.06   0.08     0.02  -0.04   0.05    -0.03   0.06  -0.02
    25   1    -0.11  -0.01   0.21    -0.07  -0.02   0.13    -0.03  -0.06  -0.09
    26   1    -0.15   0.12   0.17    -0.12   0.03   0.11     0.07  -0.09  -0.08
    27   1    -0.16   0.12   0.18    -0.11   0.04   0.08     0.00  -0.02  -0.02
    28   1    -0.11   0.23  -0.03    -0.08   0.08  -0.01     0.09   0.04   0.05
    29   1    -0.02   0.18  -0.12    -0.06   0.05  -0.07     0.17   0.03   0.09
    30   1    -0.11   0.22  -0.02    -0.09   0.10  -0.01     0.15  -0.06   0.04
    31   1    -0.01  -0.06   0.08    -0.03  -0.03   0.05     0.07  -0.09  -0.03
    32   1    -0.02   0.05  -0.01    -0.03  -0.01   0.03     0.13  -0.07  -0.02
    33   1     0.10  -0.10  -0.07     0.09  -0.07  -0.03    -0.05   0.10   0.07
    34   1     0.08   0.01  -0.12     0.01  -0.03  -0.10     0.09   0.09   0.17
    35   1     0.07   0.12   0.14    -0.23  -0.19  -0.18    -0.16  -0.04  -0.05
    36   1     0.06   0.08   0.20    -0.20  -0.17  -0.11    -0.33  -0.19  -0.15
    37   1    -0.02  -0.09   0.10     0.08   0.02   0.09    -0.29  -0.20  -0.13
    38   1    -0.09  -0.21  -0.05     0.31   0.18   0.23    -0.07  -0.03   0.01
    39   1    -0.08  -0.17  -0.10     0.26   0.15   0.15     0.08   0.11   0.11
                      4                      5                      6
                      A                      A                      A
 Frequencies --     73.2511               103.6241               113.1802
 Red. masses --      3.6534                 2.6712                 3.6452
 Frc consts  --      0.0115                 0.0169                 0.0275
 IR Inten    --      4.0574                 0.2378                 0.5710
  Atom  AN      X      Y      Z        X      Y      Z        X      Y      Z
     1  14    -0.00   0.01   0.02    -0.02  -0.03  -0.02    -0.01  -0.03   0.04
     2   6    -0.03   0.02   0.03     0.05  -0.03  -0.01    -0.08  -0.11  -0.15
     3   6    -0.04   0.01   0.02     0.08  -0.07  -0.02     0.07   0.21   0.01
     4   6     0.03  -0.05  -0.03    -0.07   0.07   0.03    -0.00  -0.06   0.09
     5   6     0.05  -0.02  -0.04    -0.01   0.02  -0.00     0.06  -0.00   0.05
     6   6    -0.06  -0.03   0.06    -0.10  -0.02  -0.01     0.10   0.02   0.06
     7   6     0.11   0.15  -0.08     0.09   0.12   0.04     0.12   0.01   0.09
     8   6     0.11  -0.12  -0.13     0.05  -0.07  -0.08     0.03   0.02  -0.05
     9   6     0.02  -0.02   0.02    -0.01   0.01   0.02    -0.07  -0.02  -0.04
    10   8    -0.13   0.11   0.21     0.03  -0.01   0.01    -0.13  -0.01  -0.10
    11   6     0.10  -0.07  -0.09    -0.12   0.11   0.13    -0.07  -0.08   0.04
    12   6     0.01   0.02   0.02    -0.05  -0.07  -0.05     0.00  -0.02   0.05
    13   6     0.00   0.02   0.02    -0.02  -0.05  -0.03     0.05  -0.02   0.01
    14   6    -0.03  -0.01  -0.01     0.04   0.01   0.00     0.05   0.00  -0.04
    15   6    -0.06  -0.04  -0.03     0.07   0.04   0.03    -0.01   0.04  -0.07
    16   6    -0.04  -0.03  -0.02     0.02   0.01   0.01    -0.05   0.04  -0.03
    17   6    -0.01   0.00   0.00    -0.04  -0.04  -0.03    -0.05   0.02   0.03
    18   1    -0.03   0.02   0.03    -0.06  -0.03  -0.01    -0.09  -0.23  -0.15
    19   1    -0.03   0.00   0.04     0.13   0.03   0.06    -0.08  -0.09  -0.21
    20   1    -0.03   0.03   0.03     0.11  -0.11  -0.10    -0.08  -0.05  -0.23
    21   1    -0.07  -0.02   0.00     0.14  -0.03   0.03     0.07   0.23  -0.03
    22   1    -0.03   0.00   0.02     0.04  -0.08  -0.04     0.15   0.28   0.14
    23   1    -0.06   0.03   0.04     0.12  -0.13  -0.06     0.07   0.29  -0.11
    24   1    -0.00  -0.11  -0.00    -0.06   0.15  -0.03    -0.01  -0.06   0.08
    25   1    -0.12  -0.15   0.07    -0.23  -0.12  -0.06     0.09   0.02   0.06
    26   1    -0.02   0.00   0.03     0.01  -0.03  -0.08     0.11   0.03   0.05
    27   1    -0.11   0.06   0.14    -0.15   0.07   0.12     0.11   0.01   0.08
    28   1     0.04   0.25  -0.03     0.01   0.22   0.05     0.13   0.00   0.15
    29   1     0.20   0.18  -0.14     0.21   0.18   0.08     0.09   0.00   0.09
    30   1     0.12   0.17  -0.09     0.14   0.02   0.02     0.16   0.04   0.06
    31   1    -0.02  -0.19  -0.31    -0.05  -0.13  -0.21     0.01   0.02  -0.10
    32   1     0.30  -0.21  -0.15     0.19  -0.14  -0.10     0.08   0.05  -0.09
    33   1     0.24  -0.14  -0.09    -0.27   0.21   0.13    -0.13  -0.11   0.04
    34   1     0.06  -0.04  -0.25    -0.07   0.10   0.30    -0.08  -0.10   0.07
    35   1     0.02   0.03   0.03    -0.02  -0.06  -0.04     0.08  -0.05   0.03
    36   1    -0.04  -0.02  -0.01     0.07   0.03   0.02     0.08  -0.00  -0.07
    37   1    -0.09  -0.06  -0.05     0.12   0.09   0.06    -0.01   0.05  -0.11
    38   1    -0.06  -0.05  -0.04     0.03   0.04   0.02    -0.10   0.07  -0.05
    39   1    -0.00   0.01   0.01    -0.06  -0.06  -0.04    -0.08   0.02   0.06
                      7                      8                      9
                      A                      A                      A
 Frequencies --    133.4617               155.3927               167.3894
 Red. masses --      2.8849                 1.0937                 2.1101
 Frc consts  --      0.0303                 0.0156                 0.0348
 IR Inten    --      0.0737                 0.0254                 0.1085
  Atom  AN      X      Y      Z        X      Y      Z        X      Y      Z
     1  14    -0.01   0.02  -0.02     0.01  -0.00  -0.00    -0.03   0.01   0.01
     2   6    -0.20   0.07   0.06    -0.04   0.00  -0.00     0.12   0.01   0.03
     3   6     0.23  -0.06  -0.04    -0.01  -0.02   0.00     0.12   0.03  -0.00
     4   6     0.01  -0.03   0.03     0.00   0.01  -0.00    -0.01  -0.01   0.00
     5   6     0.02  -0.00   0.02    -0.00   0.01  -0.00     0.01  -0.01  -0.01
     6   6     0.04  -0.00   0.01    -0.02   0.00   0.00     0.04  -0.01  -0.03
     7   6     0.04  -0.00   0.03    -0.00   0.01  -0.01    -0.00  -0.04  -0.00
     8   6     0.01   0.01  -0.01    -0.00   0.00  -0.00    -0.00  -0.00   0.00
     9   6    -0.01  -0.01  -0.02    -0.01   0.01   0.00     0.02  -0.02  -0.02
    10   8    -0.04  -0.00  -0.03     0.00   0.00  -0.01    -0.00   0.00   0.01
    11   6    -0.00  -0.04  -0.00    -0.02   0.02   0.02     0.06  -0.05  -0.08
    12   6    -0.02   0.05  -0.09     0.03   0.01   0.01    -0.10  -0.04  -0.02
    13   6    -0.07   0.07  -0.02     0.02   0.01   0.01    -0.09  -0.03  -0.01
    14   6    -0.07   0.03   0.07     0.01  -0.01   0.00    -0.03   0.03   0.02
    15   6    -0.01  -0.03   0.08     0.00  -0.02  -0.00     0.00   0.08   0.06
    16   6     0.04  -0.06   0.01     0.01  -0.02  -0.00    -0.05   0.04   0.02
    17   6     0.03  -0.01  -0.07     0.02  -0.00   0.00    -0.10  -0.02  -0.01
    18   1    -0.08   0.12   0.06    -0.07  -0.00   0.00    -0.15   0.07   0.04
    19   1    -0.35  -0.09   0.01    -0.05  -0.02   0.02     0.36   0.19   0.26
    20   1    -0.32   0.22   0.19    -0.05   0.03  -0.02     0.31  -0.22  -0.18
    21   1     0.34  -0.01   0.11    -0.33  -0.48   0.09     0.05  -0.13   0.11
    22   1     0.23  -0.08  -0.07     0.55  -0.07  -0.06     0.39   0.03   0.00
    23   1     0.31  -0.16  -0.16    -0.25   0.49  -0.02     0.05   0.23  -0.14
    24   1    -0.00  -0.04   0.04     0.01   0.03  -0.01    -0.06  -0.08   0.02
    25   1     0.06   0.02   0.02    -0.01   0.00   0.01     0.02   0.00  -0.05
    26   1     0.01  -0.01   0.03    -0.03  -0.00   0.01     0.07   0.01  -0.05
    27   1     0.04  -0.02  -0.02    -0.02   0.01  -0.01     0.06  -0.02   0.01
    28   1     0.05  -0.01   0.05    -0.01   0.02  -0.01     0.01  -0.06  -0.01
    29   1     0.03  -0.01   0.03     0.00   0.02  -0.01    -0.02  -0.05   0.00
    30   1     0.06   0.00   0.02    -0.01   0.01  -0.01    -0.01  -0.04   0.00
    31   1     0.01   0.01  -0.02    -0.00   0.01  -0.01     0.01   0.00   0.02
    32   1     0.02   0.02  -0.02     0.00   0.00  -0.00    -0.02   0.01   0.00
    33   1     0.00  -0.07  -0.01    -0.05   0.05   0.02     0.17  -0.13  -0.08
    34   1    -0.01  -0.04  -0.03    -0.02   0.01   0.06     0.05  -0.00  -0.20
    35   1    -0.11   0.12  -0.03     0.03   0.01   0.01    -0.11  -0.05  -0.03
    36   1    -0.11   0.05   0.12     0.00  -0.01   0.01    -0.00   0.05   0.03
    37   1     0.00  -0.05   0.15    -0.01  -0.04  -0.01     0.06   0.13   0.10
    38   1     0.09  -0.11   0.02     0.01  -0.03  -0.01    -0.03   0.06   0.04
    39   1     0.07  -0.04  -0.12     0.03  -0.00  -0.00    -0.13  -0.03  -0.02
                     10                     11                     12
                      A                      A                      A
 Frequencies --    190.5514               195.4339               200.1020
 Red. masses --      2.9977                 2.1320                 1.9648
 Frc consts  --      0.0641                 0.0480                 0.0464
 IR Inten    --      0.1496                 0.6039                 0.1582
  Atom  AN      X      Y      Z        X      Y      Z        X      Y      Z
     1  14     0.02  -0.02   0.07     0.02   0.01  -0.01     0.01  -0.02   0.00
     2   6    -0.12  -0.06  -0.02     0.06   0.05   0.08     0.03   0.06   0.16
     3   6     0.17   0.00   0.06     0.05   0.06  -0.01     0.02   0.18  -0.02
     4   6     0.00   0.05  -0.05    -0.01  -0.03  -0.01    -0.01  -0.00  -0.02
     5   6    -0.02   0.03  -0.06    -0.03  -0.04  -0.01    -0.02  -0.01  -0.02
     6   6    -0.11  -0.03  -0.14    -0.06  -0.04   0.01    -0.03  -0.01  -0.01
     7   6    -0.06   0.01  -0.09    -0.04  -0.03  -0.02    -0.04   0.00  -0.05
     8   6    -0.01   0.02  -0.01    -0.03  -0.04  -0.03    -0.01  -0.03  -0.02
     9   6     0.02   0.04  -0.01    -0.06  -0.03  -0.01    -0.01  -0.01  -0.00
    10   8     0.04   0.03   0.02    -0.07  -0.03  -0.04    -0.00  -0.01   0.00
    11   6     0.02   0.05  -0.05    -0.07  -0.02   0.03    -0.02   0.01   0.01
    12   6     0.02  -0.04   0.12     0.09   0.08   0.02    -0.01  -0.06  -0.00
    13   6     0.07  -0.06   0.07     0.06   0.08   0.03     0.01  -0.06  -0.02
    14   6     0.05  -0.04  -0.01    -0.01   0.01   0.01     0.04  -0.03  -0.02
    15   6    -0.02  -0.00  -0.04    -0.04  -0.06  -0.03     0.05   0.00  -0.01
    16   6    -0.04   0.03   0.03     0.03  -0.02  -0.01     0.01  -0.01  -0.00
    17   6    -0.02   0.01   0.11     0.10   0.05   0.02    -0.02  -0.04  -0.01
    18   1    -0.27  -0.14  -0.01    -0.35   0.18   0.09     0.39   0.21   0.15
    19   1    -0.13  -0.11   0.04     0.32   0.19   0.45    -0.17  -0.10  -0.01
    20   1    -0.12   0.05  -0.18     0.27  -0.19  -0.22    -0.14   0.15   0.54
    21   1     0.29   0.09   0.16     0.11   0.14  -0.03     0.00   0.21  -0.11
    22   1     0.15   0.01   0.08    -0.00   0.09   0.04     0.09   0.27   0.15
    23   1     0.25  -0.10  -0.09     0.10  -0.00  -0.07     0.00   0.28  -0.13
    24   1    -0.01   0.04  -0.06     0.01   0.01  -0.02    -0.01   0.02  -0.03
    25   1    -0.02   0.05  -0.10    -0.12  -0.10  -0.00    -0.06  -0.04  -0.02
    26   1    -0.24  -0.16  -0.04    -0.01  -0.03  -0.02     0.01   0.01  -0.04
    27   1    -0.16  -0.03  -0.35    -0.09   0.00   0.08    -0.02   0.00   0.04
    28   1    -0.07   0.01  -0.14    -0.03  -0.03  -0.02    -0.06   0.02  -0.07
    29   1    -0.05   0.01  -0.10    -0.04  -0.03  -0.02    -0.02   0.01  -0.06
    30   1    -0.11  -0.00  -0.07    -0.04  -0.02  -0.02    -0.06  -0.00  -0.03
    31   1     0.00   0.03   0.02    -0.05  -0.04  -0.05    -0.03  -0.03  -0.03
    32   1    -0.04   0.01   0.01    -0.00  -0.04  -0.03     0.00  -0.04  -0.01
    33   1     0.06   0.05  -0.05    -0.14   0.02   0.03    -0.04   0.03   0.01
    34   1     0.03   0.07  -0.09    -0.07  -0.06   0.10    -0.02   0.00   0.03
    35   1     0.11  -0.10   0.08     0.07   0.12   0.05     0.01  -0.09  -0.03
    36   1     0.08  -0.06  -0.06    -0.04  -0.01   0.01     0.06  -0.03  -0.03
    37   1    -0.04   0.00  -0.11    -0.11  -0.14  -0.07     0.08   0.04   0.00
    38   1    -0.09   0.07   0.01     0.03  -0.06  -0.03     0.01   0.01   0.00
    39   1    -0.05   0.03   0.16     0.13   0.07   0.02    -0.03  -0.05  -0.00
                     13                     14                     15
                      A                      A                      A
 Frequencies --    216.4614               232.3731               249.4977
 Red. masses --      1.7742                 1.5090                 1.4251
 Frc consts  --      0.0490                 0.0480                 0.0523
 IR Inten    --      0.8265                 0.1056                 0.0856
  Atom  AN      X      Y      Z        X      Y      Z        X      Y      Z
     1  14    -0.00   0.02   0.01    -0.00  -0.00  -0.00     0.00  -0.01  -0.00
     2   6     0.14  -0.02  -0.06    -0.00  -0.01  -0.00    -0.06  -0.01  -0.01
     3   6     0.09  -0.06   0.01     0.01  -0.00  -0.00     0.01  -0.01  -0.00
     4   6    -0.02  -0.01  -0.01     0.02  -0.02  -0.02     0.02  -0.02  -0.03
     5   6    -0.02  -0.02  -0.01     0.03  -0.02  -0.03     0.02  -0.02  -0.03
     6   6    -0.02  -0.02   0.01     0.07   0.02   0.07     0.09   0.04   0.05
     7   6    -0.03  -0.01  -0.02    -0.05  -0.00  -0.11    -0.06  -0.02  -0.10
     8   6    -0.02  -0.03  -0.02     0.04  -0.04  -0.04     0.01   0.00   0.00
     9   6    -0.02  -0.02  -0.01     0.01  -0.00   0.02     0.01   0.01   0.01
    10   8    -0.02  -0.02  -0.01     0.02  -0.01   0.02     0.02   0.00   0.02
    11   6    -0.03  -0.01   0.00    -0.04   0.03   0.07    -0.01   0.02   0.03
    12   6     0.02   0.05   0.04    -0.02  -0.00  -0.00    -0.01  -0.01   0.02
    13   6     0.01   0.06   0.04    -0.02   0.00   0.00    -0.01  -0.01   0.01
    14   6    -0.03   0.03   0.01    -0.02   0.01   0.01    -0.01  -0.00   0.00
    15   6    -0.06   0.00  -0.01    -0.01   0.02   0.01    -0.01   0.01   0.00
    16   6    -0.03   0.03   0.01    -0.02   0.01   0.01    -0.02   0.01   0.01
    17   6     0.01   0.06   0.04    -0.02   0.00  -0.00    -0.02   0.01   0.02
    18   1     0.62  -0.14  -0.08    -0.04  -0.00  -0.00    -0.13  -0.02  -0.01
    19   1    -0.03  -0.02  -0.49     0.02   0.01   0.02    -0.04  -0.02   0.04
    20   1     0.00   0.05   0.29     0.02  -0.03  -0.04    -0.04   0.01  -0.08
    21   1     0.11  -0.13   0.14     0.02   0.01   0.01     0.03   0.01   0.01
    22   1     0.19  -0.10  -0.06     0.00  -0.00   0.00     0.00  -0.01  -0.00
    23   1     0.10  -0.04  -0.06     0.02  -0.01  -0.01     0.03  -0.03  -0.02
    24   1    -0.02  -0.01  -0.01     0.01   0.03  -0.07     0.02   0.01  -0.06
    25   1    -0.09  -0.07  -0.02     0.30   0.12   0.22    -0.22  -0.17  -0.10
    26   1     0.05   0.02  -0.04    -0.17   0.07   0.21     0.45   0.22  -0.19
    27   1    -0.02   0.01   0.11     0.10  -0.07  -0.14     0.12   0.12   0.52
    28   1    -0.03  -0.01  -0.02     0.16  -0.21   0.10    -0.18   0.07  -0.31
    29   1    -0.03  -0.02  -0.03    -0.36  -0.20  -0.34     0.11   0.07  -0.05
    30   1    -0.04  -0.01  -0.01    -0.05   0.40  -0.17    -0.19  -0.20   0.00
    31   1    -0.04  -0.05  -0.04     0.00  -0.05  -0.10     0.03   0.02   0.02
    32   1     0.01  -0.04  -0.02     0.10  -0.08  -0.04    -0.02  -0.01   0.02
    33   1    -0.04  -0.00  -0.00    -0.14   0.12   0.07    -0.06   0.07   0.03
    34   1    -0.02  -0.01   0.01    -0.02  -0.02   0.20    -0.00  -0.01   0.10
    35   1     0.02   0.07   0.05    -0.03   0.00   0.00    -0.00  -0.01   0.01
    36   1    -0.04   0.02   0.00    -0.01   0.01   0.01    -0.00  -0.00  -0.00
    37   1    -0.10  -0.03  -0.05    -0.00   0.03   0.02    -0.01   0.02  -0.00
    38   1    -0.03   0.02   0.00    -0.01   0.01   0.01    -0.02   0.02   0.01
    39   1     0.03   0.07   0.05    -0.03   0.00   0.00    -0.03   0.01   0.03
                     16                     17                     18
                      A                      A                      A
 Frequencies --    265.2341               295.3363               318.6589
 Red. masses --      1.2321                 3.0175                 3.7314
 Frc consts  --      0.0511                 0.1551                 0.2232
 IR Inten    --      0.4638                 5.9913                 4.6671
  Atom  AN      X      Y      Z        X      Y      Z        X      Y      Z
     1  14    -0.02   0.00  -0.01     0.06   0.02   0.14     0.08   0.14  -0.04
     2   6    -0.03   0.01  -0.00     0.01  -0.06  -0.02    -0.00   0.18  -0.06
     3   6     0.00  -0.01  -0.02    -0.02   0.04   0.18    -0.00  -0.05  -0.02
     4   6    -0.04   0.03   0.01     0.04   0.00   0.02     0.08   0.00  -0.01
     5   6    -0.03   0.02   0.01     0.03  -0.00  -0.00     0.05  -0.03   0.01
     6   6    -0.00   0.02  -0.01    -0.09  -0.06  -0.05    -0.11  -0.07   0.11
     7   6     0.00  -0.02   0.07    -0.05  -0.02  -0.06     0.00  -0.12   0.01
     8   6    -0.02  -0.01  -0.02     0.03   0.01   0.01     0.06   0.00  -0.01
[...]
 170917,-0.00124917,0.00008123,0.00005991,0.00003975,0.00009639,-0.0000
 5577,-0.00012155,-0.00026292,-0.00005900,0.00057144,-0.00000056,0.0000
 1856,-0.00010069,-0.00001621,0.00003004,0.00003880,-0.00008029,-0.0000
 1623,-0.00000998,-0.00006179,0.00015397,0.00009555,0.00054542,-0.00046
 769,-0.00017674,-0.00025086,0.00014463,0.00002073,-0.00027345,0.000325
 61,0.00014188,-0.01132094,-0.00455713,-0.01665894,-0.05956082,-0.07183
 082,-0.05716968,0.00803282,0.00714919,0.01058888,-0.00354568,0.0031118
 0,0.00355219,-0.00012256,-0.00056464,0.00050047,-0.00602179,0.00122088
 ,0.00286510,0.00005917,0.00007253,-0.00001579,0.00000505,0.00003327,0.
 00003455,0.00002141,-0.00001605,-0.00001536,0.00008367,-0.00004041,-0.
 00000275,0.00005841,0.00035218,0.00017955,0.00013304,-0.00001025,-0.00
 009025,0.00021849,-0.00007538,0.00002870,-0.00000121,-0.00000446,0.000
 00576,0.00001337,0.00002236,-0.00000575,0.00002570,0.00000012,-0.00000
 391,0.00007124,0.00002590,0.00000241,-0.00001732,-0.00000500,-0.000040
 81,0.00002535,-0.00000122,0.00001756,0.00001033,0.00000179,-0.00000326
 ,0.00003015,0.00005164,0.00000131,0.00008526,-0.00003839,0.00017885,0.
 00031355,-0.00071518,-0.00012922,0.06956637,0.06946987,0.00078924,0.00
 049275,-0.00046798,-0.00003103,-0.00010682,0.00009044,0.00001310,-0.00
 009793,-0.00008242,-0.00007440,-0.00011059,0.00023115,0.00001846,0.000
 05294,0.00001345,0.00000202,0.00000222,0.00000091,-0.00004663,-0.00003
 022,0.00000418,-0.00002204,0.00004871,0.00004294,0.00011484,-0.0002068
 5,-0.00019558,0.00000972,0.00007867,0.00000852,-0.00042388,0.00038633,
 0.00036349,0.00446745,0.00119874,0.00851410,-0.12434762,-0.05607763,-0
 .21020292,-0.01969629,-0.01034710,-0.01823263,0.00121558,0.00441897,-0
 .00361283,0.00081764,0.00058302,0.00000313,0.00039170,0.00214826,0.001
 31889,-0.00001545,0.00000196,-0.00001079,-0.00003251,-0.00000184,0.000
 02688,0.00001557,0.00000178,-0.00000191,-0.00006509,0.00015003,0.00011
 626,0.00041796,0.00000899,-0.00070711,-0.00007247,-0.00003183,0.000053
 52,0.00013793,-0.00005657,0.00000456,0.00000064,0.00000452,0.00000139,
 0.00000027,-0.00000544,-0.00000265,0.00001644,0.00000695,0.00000118,0.
 00004901,0.00001060,0.00000482,-0.00001346,0.00000544,-0.00002363,0.00
 001628,-0.00000880,-0.00000165,0.00000068,-0.00000156,0.00000043,0.000
 03654,0.00001126,0.00000191,-0.00003259,-0.00001878,0.00001952,-0.0000
 0229,0.00005298,-0.00036799,0.13611193,0.05867594,0.22303448,0.0000826
 5,0.00001821,-0.00063195,0.00000807,0.00000550,0.00009159,0.00000382,-
 0.00002955,0.00013850,-0.00002363,-0.00000555,0.00011756,-0.00000123,0
 .00003010,-0.00000535,0.00000116,-0.00000015,-0.00000289,-0.00002034,-
 0.00000953,-0.00001154,-0.00000335,-0.00000430,-0.00000266,-0.00005528
 ,0.00003384,-0.00000307,0.00005881,-0.00001330,0.00000490,-0.00000365,
 -0.00002149,-0.00001167,0.00375886,-0.00297296,-0.00000568,0.00035846,
 -0.00140375,-0.00103879,-0.19503859,-0.14661656,0.02686657,-0.01011912
 ,-0.01255975,0.00518291,0.00196359,-0.00307280,-0.00459498,0.00023285,
 0.00048564,-0.00034106,0.00001273,0.00001509,-0.00000915,-0.00003058,0
 .00000529,0.00000713,-0.00001541,-0.00000531,-0.00000859,-0.00000311,0
 .00002952,0.00002727,-0.00000057,-0.00001378,-0.00001398,-0.00001533,-
 0.00000443,-0.00000311,0.00003795,-0.00003402,0.00002127,0.00000065,0.
 00000124,0.00000502,0.00000072,-0.00000716,-0.00000220,0.00000524,0.00
 000574,-0.00000081,0.00002927,-0.00000210,0.00000574,-0.00001256,0.000
 00598,0.00000358,0.00000797,-0.00001570,0.00000364,0.00000021,0.000000
 84,0.00000471,0.00000464,-0.00000384,-0.00000309,0.00000285,-0.0000007
 8,0.00000515,-0.00001619,0.00000348,-0.00000874,-0.00106183,0.00214904
 ,0.00092471,0.20190013,-0.00038276,0.00024984,-0.00062629,0.00002265,-
 0.00015937,0.00028847,0.00000803,-0.00003462,0.00009017,0.00000022,-0.
 00002292,0.00007611,0.00001639,0.00004476,0.00002280,-0.00000740,-0.00
 000086,-0.00000901,-0.00003065,-0.00000909,0.00000528,0.00000993,-0.00
 000117,-0.00001014,-0.00013809,-0.00000262,0.00001908,0.00012885,0.000
 01015,-0.00002677,-0.00000803,-0.00010941,0.00005635,-0.00256453,0.003
 76885,0.00367160,-0.00902339,-0.00553819,0.00013228,-0.14672525,-0.173
 36280,0.03234557,-0.00493739,-0.00270202,0.00279076,-0.00343840,0.0044
 1500,-0.00058264,0.00052150,0.00026945,-0.00013894,0.00000863,0.000004
 49,-0.00001887,-0.00009788,-0.00005292,0.00000812,0.00004078,0.0000209
 9,-0.00001136,0.00000783,0.00002702,0.00003376,0.00001701,0.00000874,0
 .00000391,-0.00000276,-0.00001593,-0.00001692,0.00004756,-0.00002557,0
 .00000426,0.00000127,0.00000383,-0.00000014,0.00000250,-0.00000923,-0.
 00000206,0.00001078,0.00000710,0.00000405,0.00001614,0.00003048,-0.000
 00343,-0.00000916,0.00000968,0.00000118,0.00000450,-0.00001438,-0.0000
 0154,0.00000227,0.00000241,0.00000131,0.00001148,-0.00001098,0.0000014
 8,-0.00000099,0.00000895,0.00000155,-0.00005890,0.00002635,-0.00000924
 ,0.00236362,-0.00164152,-0.00062125,0.16180771,0.17739440,0.00060714,0
 .00033299,0.00083737,-0.00000298,0.00012004,-0.00042222,-0.00001300,0.
 00000029,-0.00009629,0.00000693,0.00000450,-0.00016469,0.00000850,-0.0
 0004968,-0.00000680,0.00000505,0.00000077,0.00000596,0.00001676,0.0000
 1737,0.00001278,0.00000019,-0.00000777,0.00000783,0.00004121,0.0000167
 0,0.00000501,-0.00006405,-0.00001192,0.00000063,0.00002657,0.00003198,
 -0.00001749,-0.00072325,0.00322048,-0.00466644,0.02244401,0.02022165,0
 .00009587,0.02685136,0.03268165,-0.06563934,-0.01811177,-0.01758712,0.
 00829417,-0.00360429,0.00023461,-0.00327416,-0.00047119,-0.00009203,-0
 .00121549,-0.00002778,0.00000285,0.00002507,0.00014878,0.00004621,-0.0
 0000444,-0.00000071,-0.00001240,0.00000446,-0.00001016,-0.00003415,-0.
 00002205,-0.00002825,-0.00000974,-0.00001877,0.00001275,0.00000329,-0.
 00000112,-0.00006453,0.00004142,-0.00001713,-0.00000023,-0.00000304,0.
 ,-0.00000396,0.00000783,0.00000125,-0.00000965,-0.00000988,-0.00000362
 ,-0.00001701,-0.00000143,-0.00002012,0.00000360,-0.00000432,0.00000051
 ,-0.00000975,0.00001212,-0.00000022,0.00000105,-0.00000223,-0.00000123
 ,-0.00001084,0.00000256,0.00000055,-0.00000502,0.00000185,-0.00002250,
 0.00001779,0.00001503,0.00002674,0.00048588,-0.00105298,0.00079218,-0.
 02781495,-0.03648338,0.06433883,-0.00041200,0.00032450,-0.00002049,0.0
 0000397,-0.00005562,0.00003910,0.00003416,0.00000099,0.00004709,0.0000
 2875,0.00002355,-0.00008310,0.00000775,-0.00002343,-0.00002219,-0.0000
 0650,0.00000602,0.00000424,-0.00003430,0.00000124,-0.00000461,-0.00000
 351,0.00000996,0.00000711,0.00002648,-0.00002385,-0.00000650,-0.000015
 61,0.00000763,0.00000746,-0.00000910,0.00000663,0.00001048,-0.00113246
 ,0.00023601,-0.00005953,0.00072760,-0.00463740,-0.00371999,0.00647539,
 0.00892589,-0.01795202,-0.05541522,-0.02486819,0.02728172,0.00151518,-
 0.00840131,0.02256309,-0.00034598,-0.00625996,-0.00126729,0.00001938,0
 .00004110,0.00000720,-0.00000074,0.00000507,0.00001635,0.00001557,0.00
 000511,-0.00000963,0.00003037,0.00002325,0.00000749,0.00001904,0.00002
 487,0.00004683,-0.00000568,-0.00001555,-0.00000610,-0.00002329,0.00002
 210,-0.00000717,0.00000021,-0.00000208,0.00000488,0.00000320,0.0000014
 1,-0.00000108,0.00000372,0.00000190,-0.00000158,0.00002102,0.00000843,
 0.00000054,0.00000274,-0.00000389,-0.00000546,0.00001302,-0.00000307,0
 .00000530,0.00000361,0.00000014,0.00000458,-0.00000203,0.00000399,-0.0
 0000099,0.00000496,-0.00000128,0.00000818,0.00001268,-0.00000964,-0.00
 000122,0.00019037,0.00036939,-0.00102701,-0.00096767,0.00214409,0.0010
 9686,0.05017556,0.00029285,-0.00042483,-0.00024994,0.00000623,-0.00000
 672,0.00005917,-0.00002071,-0.00000064,-0.00001701,-0.00003022,-0.0000
 2366,0.00015350,0.00000098,0.00003383,0.00000688,-0.00000488,0.0000000
 3,-0.00000631,-0.00002835,-0.00000148,-0.00001440,-0.00000282,0.000000
 31,0.00000354,-0.00003786,0.00002066,-0.00000149,0.00004712,-0.0000093
 8,-0.00000698,-0.00001704,-0.00000942,-0.00000214,0.00031339,-0.000919
 95,-0.00067690,-0.00432672,0.00384023,-0.00039059,0.00131391,0.0069315
 5,-0.00914452,-0.02485735,-0.09136986,0.10438358,-0.00080124,-0.004457
 70,0.02052586,-0.00659192,0.00162636,0.00071315,0.00002958,0.00004854,
 -0.00002053,0.00000323,0.00000890,0.00002978,0.00000744,-0.00001313,-0
 .00001998,-0.00001464,-0.00000454,0.00000199,0.00000802,0.00000437,-0.
 00001125,0.00000611,0.00001356,0.00000162,0.00004861,-0.00004116,0.000
 01797,0.00000205,0.00000196,-0.00000033,0.00000134,-0.00000740,-0.0000
 0082,0.00000631,0.00000498,0.00000020,0.00000834,0.00002158,0.00000134
 ,-0.00000256,0.00000983,0.00001033,0.00000639,-0.00002031,0.00000527,-
 0.00000005,0.00000042,-0.00000042,0.00000636,-0.00000442,-0.00000042,0
 .00000462,-0.00000091,0.00000638,-0.00001031,-0.00000424,-0.00001865,-
 0.00005071,0.00025394,-0.00051839,0.00233413,-0.00168174,-0.00051361,0
 .03027720,0.08812915,0.00006945,-0.00036394,0.00030899,0.00001915,0.00
 007930,-0.00009123,-0.00002451,0.00003356,-0.00012517,-0.00001022,0.00
 001767,-0.00000788,-0.00001096,-0.00002566,-0.00000963,0.00000152,0.00
 000136,0.00000788,0.00002725,0.00000618,0.00000823,-0.00000392,0.00002
 095,0.00000989,0.00012300,-0.00008349,-0.00002014,-0.00009673,0.000030
 59,0.00000597,-0.00003855,0.00008259,0.00001355,-0.00009694,-0.0006024
 7,0.00026783,-0.00465455,-0.00127125,-0.00117467,0.00531258,0.01105048
 ,-0.01725805,0.02731698,0.10434563,-0.28910293,-0.00083903,0.00048205,
 -0.00089147,-0.00024448,0.00151451,0.00213688,-0.00000562,-0.00001472,
 0.00000571,0.00003051,0.00001065,-0.00001350,-0.00001348,-0.00000724,0
 .00000836,0.00001115,-0.00001319,-0.00003398,0.00002267,0.00002130,0.0
 0003987,0.00000572,0.00001238,0.00001479,-0.00000475,0.00001229,-0.000
 00879,-0.00000098,-0.00000207,-0.00000352,-0.00000089,0.00001120,0.000
 00198,-0.00000431,-0.00000690,-0.00000076,-0.00002419,-0.00001909,-0.0
 0000074,0.00001014,-0.00001080,-0.00000923,-0.00000788,0.00002159,-0.0
 0000311,-0.00000084,-0.00000075,-0.00000481,-0.00000287,0.00001136,0.0
 0000226,0.00000733,-0.00000860,0.00001549,0.00003378,-0.00003365,-0.00
 002217,0.00023015,0.00057478,-0.00104157,0.00053828,-0.00099792,0.0007
 3307,-0.02851792,-0.11427014,0.30581817,0.00017642,-0.00020960,0.00032
 426,-0.00000172,0.00004399,-0.00004873,-0.00001569,0.00004915,-0.00008
 545,0.00004570,-0.00003617,-0.00002112,-0.00000945,-0.00001721,-0.0000
 1930,0.00000583,0.00000251,0.00001172,0.00002125,0.00001893,0.00003173
 ,0.00000427,0.00001404,0.00000719,0.00003350,-0.00005798,-0.00000613,-
 0.00003412,0.00002530,0.00000429,-0.00002070,0.00002014,0.00003336,0.0
 0365058,-0.00302409,0.00006711,-0.00014544,-0.00018741,0.00085273,0.00
 047456,-0.00614734,0.00122947,-0.01001918,-0.00455317,-0.01885511,-0.1
 5254471,-0.05780939,-0.12874459,0.00540051,0.00117112,0.00440370,-0.00
 000462,-0.00001196,0.00000161,0.00001749,0.00000184,-0.00001297,-0.000
 01308,-0.00000422,0.00000665,-0.00000334,-0.00001333,-0.00003020,0.000
 00329,0.00000316,0.00001152,0.00000195,0.00001867,0.00002265,-0.000012
 77,0.00001966,0.00000180,-0.00000199,-0.00000293,0.00000479,-0.0000020
 2,0.00001040,-0.00000076,-0.00000283,-0.00000665,-0.00000331,-0.000004
 20,-0.00001574,-0.00001830,-0.00000860,-0.00001280,-0.00001504,-0.0000
 1158,0.00002721,-0.00000918,0.00000314,-0.00000078,0.00000136,-0.00000
 496,0.00000783,-0.00000046,0.00000182,-0.00000201,0.00000823,0.0000001
 7,-0.00001195,-0.00001055,-0.00058109,0.00074049,0.00009358,-0.0004755
 7,-0.00039526,-0.00107342,-0.00089344,0.00222521,0.00095473,0.15592279
 ,0.00013145,0.00034027,0.00018436,0.00000418,0.00001003,-0.00003641,-0
 .00003200,-0.00009860,0.00019011,-0.00004281,-0.00000680,0.00003919,0.
 00000759,0.00001332,0.00002811,0.00000082,-0.00000484,-0.00000766,0.00
 001046,-0.00002079,-0.00001210,-0.00000175,-0.00000737,-0.00000854,0.0
 0001326,0.00000588,-0.00000003,-0.00000567,-0.00000262,-0.00000551,-0.
 00001108,0.00001795,-0.00001909,-0.00332549,0.00312772,0.00354177,-0.0
 0018507,-0.00054856,0.00049833,-0.00584652,0.00130762,0.00296291,-0.01
 227428,-0.00226963,-0.01779086,-0.05762487,-0.06784220,-0.05247074,0.0
 0884962,0.00657887,0.01023494,-0.00001173,-0.00002095,-0.00000047,-0.0
 0000587,0.00000118,-0.00000459,-0.00000271,0.00000473,0.00000367,0.000
 00849,0.00005029,0.00005539,0.00001335,-0.00001071,-0.00001192,-0.0000
 0441,-0.00001489,-0.00001323,0.00001527,-0.00001952,-0.00000653,-0.000
 00008,0.00000263,-0.00000892,0.00000060,-0.00000488,0.00000228,-0.0000
 0186,0.00000249,0.00000497,-0.00001474,-0.00000002,0.00002006,0.000009
 88,0.00000366,0.00000380,0.00000550,-0.00000751,-0.00000006,-0.0000042
 3,0.00000089,-0.00000503,0.00000577,-0.00000318,0.00000270,-0.00000323
 ,-0.00000036,-0.00000199,0.00001358,-0.00000150,0.00000649,0.00076979,
 -0.00071844,-0.00034798,-0.00079223,-0.00005800,-0.00087919,0.00241262
 ,-0.00161351,-0.00061226,0.06576250,0.06350922,-0.00077053,-0.00083378
 ,0.00060910,0.00006330,0.00009145,-0.00014510,0.00009074,0.00021641,-0
 .00036187,0.00006516,0.00012178,-0.00025312,-0.00001487,-0.00008580,-0
 .00006664,-0.00001260,0.00001124,0.00001615,-0.00002350,0.00003751,0.0
 0002094,0.00000077,0.00004601,0.00003445,0.00009219,-0.00010639,-0.000
 00655,-0.00008448,0.00004289,0.00000156,0.00004709,0.00008063,-0.00001
 613,0.00062359,0.00422885,-0.00393484,0.00082302,0.00063399,-0.0000312
 1,0.00023621,0.00210974,0.00136114,0.00467664,0.00230608,0.00768566,-0
 .12891501,-0.05262628,-0.21317212,-0.01904201,-0.00992567,-0.01708122,
 -0.00000206,0.00002349,0.00001384,0.00006366,0.00002122,-0.00000069,-0
 .00000226,-0.00001577,-0.00001031,-0.00001136,-0.00011396,-0.00010017,
 -0.00001098,0.00001555,0.00003882,0.00000613,-0.00000493,0.00001240,-0
 .00008278,0.00008607,-0.00002644,0.00000064,-0.00000633,0.00000659,0.0
 0000035,0.00002250,0.00000020,0.00000294,-0.00001371,-0.00000658,-0.00
 000209,-0.00003522,-0.00002513,0.00001879,-0.00001352,-0.00001286,-0.0
 0001093,0.00003450,0.00000207,0.00000791,-0.00000353,0.00000240,-0.000
 01796,0.00001621,0.00000136,0.00000397,-0.00000269,0.00000300,0.000027
 63,-0.00001847,0.00000851,0.00013136,-0.00036225,-0.00004282,0.0002661
 1,0.00025545,0.00031006,0.00039620,-0.00110264,0.00058748,0.14042908,0
 .05556744,0.22383999,-0.00192410,-0.00010804,0.00097377,0.00001262,-0.
 00034128,0.00042959,0.00014584,0.00002218,0.00006217,0.00015970,0.0001
 3340,-0.00050495,0.00010686,-0.00018060,-0.00027091,-0.00003741,0.0000
 5868,0.00003916,-0.00063705,0.00003396,-0.00006506,-0.00002176,0.00011
 098,0.00015928,-0.00002061,-0.00022683,-0.00002875,0.00004293,0.000088
 31,0.00000075,0.00004379,0.00008019,0.00002392,-0.01119495,-0.01068561
 ,0.00277945,0.00174073,-0.00326525,-0.00451757,0.00014190,0.00050665,-
 0.00040815,0.00400175,-0.00272123,-0.00012217,0.00015804,-0.00245171,-
 0.00100559,-0.19769036,-0.14405782,0.02601088,0.00039198,0.00031964,0.
 00034370,0.00005432,0.00018561,0.00020500,-0.00003184,0.00002571,0.000
 03419,0.00003462,0.00003601,-0.00001462,0.00004117,0.00005555,0.000080
 86,-0.00001651,-0.00000721,0.00000129,-0.00012738,0.00016624,-0.000024
 85,0.00000317,-0.00002388,0.00005024,0.00001846,0.00001870,-0.00000860
 ,0.00003941,0.00001113,-0.00003098,0.00020837,0.00024658,-0.00009710,0
 .00007332,-0.00001197,-0.00000930,0.00017861,-0.00007123,0.00006884,0.
 00005638,-0.00000761,0.00004633,-0.00003081,0.00003129,-0.00000647,0.0
 0001629,0.00000443,0.00002473,0.00004554,-0.00006009,0.00000185,-0.000
 45676,-0.00090542,0.00024148,-0.00060665,0.00062710,0.00029235,-0.0000
 6721,-0.00015204,-0.00011075,-0.00095216,0.00215590,0.00092992,0.20609
 979,0.00025773,-0.00186638,0.00047648,0.00006242,-0.00000518,0.0005969
 8,0.00008638,0.00033556,-0.00043958,0.00008421,0.00000813,0.00022312,-
 0.00003806,0.00006776,0.00005193,-0.00001421,-0.00000799,-0.00001489,0
 .00000273,0.00000939,0.00001414,0.00001585,0.00000762,-0.00000865,0.00
 004149,-0.00002917,-0.00001344,-0.00000622,0.00000794,-0.00000155,-0.0
 0006024,-0.00001611,0.00003879,-0.00437470,-0.00328826,-0.00006440,-0.
 00361613,0.00455302,-0.00052958,0.00056154,0.00015954,0.00003773,-0.00
 254368,0.00404452,0.00385517,-0.01022546,-0.00543813,0.00027313,-0.143
 13888,-0.16831520,0.03093537,-0.00011631,0.00021077,0.00050979,0.00022
 552,-0.00006189,0.00018015,0.00020451,-0.00017493,-0.00034893,-0.00003
 385,-0.00012431,-0.00013238,0.00001114,0.00002009,0.00005205,-0.000000
 29,0.00000664,0.00004008,0.00005530,-0.00004543,0.00000929,-0.00000317
 ,0.00000699,-0.00001110,0.00000604,-0.00000390,0.00000004,0.00000407,0
 .00000223,0.00001756,0.00014304,-0.00010740,0.00013469,0.00003472,-0.0
 0000270,-0.00001442,-0.00000021,0.00002101,-0.00001391,-0.00000463,0.0
 0000175,-0.00001081,0.00000645,0.00000166,0.00000544,0.00001141,-0.000
 00017,0.00000681,0.00001867,-0.00001258,-0.00002197,-0.00045447,0.0000
 2854,0.00024853,0.00065767,-0.00084913,-0.00026133,-0.00057783,-0.0003
 3518,0.00000372,0.00235787,-0.00170186,-0.00069806,0.16035959,0.172892
 73,-0.00161742,-0.00150085,-0.00048390,0.00011780,-0.00023789,0.000033
 43,0.00021818,0.00020924,-0.00010689,0.00013488,0.00007902,0.00002630,
 -0.00006187,0.00006903,0.00005101,-0.00007268,-0.00000308,-0.00003216,
 0.00000164,0.00003280,-0.00009007,0.00000706,0.00001083,-0.00003160,-0
 .00001350,0.00002807,-0.00001260,0.00007086,-0.00001588,-0.00000157,-0
 .00001120,-0.00010680,0.00005373,-0.01738795,-0.01687104,0.00684931,-0
 .00391481,0.00007070,-0.00344940,-0.00042028,-0.00012582,-0.00105695,-
 0.00121775,0.00288763,-0.00471861,0.02280939,0.02065602,-0.00037936,0.
 02549265,0.03030223,-0.06430098,0.00056257,0.00069424,-0.00070924,-0.0
 0016527,0.00008537,0.00019698,0.00014289,0.00002087,-0.00011929,-0.000
 02317,-0.00004998,-0.00004663,0.00003100,0.00007875,0.00008841,-0.0000
 1313,-0.00000582,0.00002125,0.00000759,-0.00001803,-0.00000506,0.00001
 080,0.00000314,-0.00000884,0.00002843,-0.00002846,0.00000276,0.0000389
 7,0.00003871,0.00001287,-0.00012376,0.00006215,0.00013796,0.00005031,-
 0.00000807,0.00000445,0.00002827,-0.00001433,-0.00000609,-0.00001084,0
 .00000290,-0.00000601,0.00001832,-0.00000959,0.00000305,0.00001512,0.0
 0000187,0.00001065,0.00001748,-0.00001660,-0.00001820,-0.00108843,-0.0
 0090516,0.00034618,0.00029961,-0.00025366,0.00012176,0.00115916,0.0010
 6691,-0.00016310,0.00045306,-0.00110341,0.00073809,-0.02557396,-0.0351
 2599,0.06704839\\0.00001184,0.00004695,-0.00001200,-0.00005573,-0.0000
 0612,-0.00001771,0.00000714,-0.00001309,-0.00000540,-0.00002613,0.0000
 2045,0.00009133,0.00011851,-0.00006858,-0.00004624,0.00004882,0.000042
 09,-0.00004313,-0.00004552,0.00006451,-0.00001269,-0.00016823,0.000075
 45,-0.00004350,-0.00006808,0.00006546,-0.00004932,0.00014893,-0.000011
 06,0.00001204,-0.00001942,-0.00008222,0.00012140,0.00005248,0.00001515
 ,-0.00006919,-0.00000695,0.00000659,0.00002275,-0.00000061,-0.00000097
 ,-0.00000450,0.00000423,0.00000654,0.00000984,0.00001781,0.00002948,-0
 .00001981,-0.00001596,-0.00005944,0.00004735,0.00003611,0.00000508,0.0
 0002539,0.00000639,0.00000621,0.00000150,0.00000305,-0.00001031,0.0000
 0507,0.00000553,-0.00000158,0.00000381,-0.00002191,0.00001264,0.000003
 86,-0.00000477,-0.00001273,-0.00000362,-0.00002703,-0.00000879,-0.0000
 0629,-0.00001161,-0.00000179,0.00001109,-0.00002459,-0.00001450,0.0000
 2599,0.00000814,-0.00000685,0.00001275,-0.00000318,-0.00001608,0.00001
 290,-0.00000316,-0.00000487,-0.00000833,-0.00000665,-0.00000296,0.0000
 0591,0.00002761,-0.00000252,0.00000895,0.00000172,0.00001632,-0.000001
 11,0.00000424,-0.00000983,-0.00002594,0.00002049,-0.00004979,-0.000038
 66,-0.00002316,-0.00002375,-0.00001220,-0.00000168,-0.00000500,0.00000
 152,-0.00000237,-0.00000611,0.00000784,0.00000403,-0.00000024,0.000000
 82,0.00000966,0.00000629,-0.00001245\\\@


 VIRTUE IS LEARNED AT YOUR MOTHER'S KNEE,
 VICES ARE PICKED UP AT SOME OTHER JOINT.
 Job cpu time:       0 days  0 hours  6 minutes 29.7 seconds.
 Elapsed time:       0 days  0 hours  6 minutes 48.1 seconds.
 File lengths (MBytes):  RWF=    424 Int=      0 D2E=      0 Chk=     16 Scr=      1
 Normal termination of Gaussian 16 at Fri Feb 23 22:34:35 2024.
