 Entering Gaussian System, Link 0=g16
 Input=/Volumes/SSD-PMU3/b3lyp_6-31gd_freq/OXTQEWUBDTVSFB-ZCFIWIBFSA-N_calculating/gaussianinput0.gjf
 Output=/Volumes/SSD-PMU3/b3lyp_6-31gd_freq/OXTQEWUBDTVSFB-ZCFIWIBFSA-N_calculating/gaussianinput0.log
 Initial command:
 /Applications/g16/l1.exe "/Users/macmini_m1_2022/PycharmProjects/sphere_model/sphere_model_lib/Gau-50313.inp" -scrdir="/Users/macmini_m1_2022/PycharmProjects/sphere_model/sphere_model_lib/"
 Entering Link 1 = /Applications/g16/l1.exe PID=     50314.
  
 Copyright (c) 1988,1990,1992,1993,1995,1998,2003,2009,2016,
            Gaussian, Inc.  All Rights Reserved.
  
 This is part of the Gaussian(R) 16 program.  It is based on
 the Gaussian(R) 09 system (copyright 2009, Gaussian, Inc.),
 the Gaussian(R) 03 system (copyright 2003, Gaussian, Inc.),
 the Gaussian(R) 98 system (copyright 1998, Gaussian, Inc.),
 the Gaussian(R) 94 system (copyright 1995, Gaussian, Inc.),
 the Gaussian 92(TM) system (copyright 1992, Gaussian, Inc.),
 the Gaussian 90(TM) system (copyright 1990, Gaussian, Inc.),
 the Gaussian 88(TM) system (copyright 1988, Gaussian, Inc.),
 the Gaussian 86(TM) system (copyright 1986, Carnegie Mellon
 University), and the Gaussian 82(TM) system (copyright 1983,
 Carnegie Mellon University). Gaussian is a federally registered
 trademark of Gaussian, Inc.
  
 This software contains proprietary and confidential information,
 including trade secrets, belonging to Gaussian, Inc.
  
 This software is provided under written license and may be
 used, copied, transmitted, or stored only in accord with that
 written license.
  
 The following legend is applicable only to US Government
 contracts under FAR:
  
                    RESTRICTED RIGHTS LEGEND
  
 Use, reproduction and disclosure by the US Government is
 subject to restrictions as set forth in subparagraphs (a)
 and (c) of the Commercial Computer Software - Restricted
 Rights clause in FAR 52.227-19.
  
 Gaussian, Inc.
 340 Quinnipiac St., Bldg. 40, Wallingford CT 06492
  
  
 ---------------------------------------------------------------
 Warning -- This program may not be used in any manner that
 competes with the business of Gaussian, Inc. or will provide
 assistance to any competitor of Gaussian, Inc.  The licensee
 of this program is prohibited from giving any competitor of
 Gaussian, Inc. access to this program.  By using this program,
 the user acknowledges that Gaussian, Inc. is engaged in the
 business of creating and licensing software in the field of
 computational chemistry and represents and warrants to the
 licensee that it is not a competitor of Gaussian, Inc. and that
 it will not use this program in any manner prohibited above.
 ---------------------------------------------------------------
  

 Cite this work as:
 Gaussian 16, Revision A.03,
 M. J. Frisch, G. W. Trucks, H. B. Schlegel, G. E. Scuseria, 
 M. A. Robb, J. R. Cheeseman, G. Scalmani, V. Barone, 
 G. A. Petersson, H. Nakatsuji, X. Li, M. Caricato, A. V. Marenich, 
 J. Bloino, B. G. Janesko, R. Gomperts, B. Mennucci, H. P. Hratchian, 
 J. V. Ortiz, A. F. Izmaylov, J. L. Sonnenberg, D. Williams-Young, 
 F. Ding, F. Lipparini, F. Egidi, J. Goings, B. Peng, A. Petrone, 
 T. Henderson, D. Ranasinghe, V. G. Zakrzewski, J. Gao, N. Rega, 
 G. Zheng, W. Liang, M. Hada, M. Ehara, K. Toyota, R. Fukuda, 
 J. Hasegawa, M. Ishida, T. Nakajima, Y. Honda, O. Kitao, H. Nakai, 
 T. Vreven, K. Throssell, J. A. Montgomery, Jr., J. E. Peralta, 
 F. Ogliaro, M. J. Bearpark, J. J. Heyd, E. N. Brothers, K. N. Kudin, 
 V. N. Staroverov, T. A. Keith, R. Kobayashi, J. Normand, 
 K. Raghavachari, A. P. Rendell, J. C. Burant, S. S. Iyengar, 
 J. Tomasi, M. Cossi, J. M. Millam, M. Klene, C. Adamo, R. Cammi, 
 J. W. Ochterski, R. L. Martin, K. Morokuma, O. Farkas, 
 J. B. Foresman, and D. J. Fox, Gaussian, Inc., Wallingford CT, 2016.
 
 ******************************************
 Gaussian 16:  EM64M-G16RevA.03 25-Dec-2016
                21-Feb-2024 
 ******************************************
 %nprocshared=8
 Will use up to    8 processors via shared memory.
 %mem=4GB
 %chk= 0.chk
 ---------------------
 # freq b3lyp/6-31g(d)
 ---------------------
 1/10=4,30=1,38=1/1,3;
 2/12=2,17=6,18=5,40=1/2;
 3/5=1,6=6,7=1,11=2,25=1,30=1,71=2,74=-5,140=1/1,2,3;
 4//1;
 5/5=2,38=5,98=1/2;
 8/6=4,10=90,11=11/1;
 11/6=1,8=1,9=11,15=111,16=1/1,2,10;
 10/6=1/2;
 6/7=2,8=2,9=2,10=2,28=1/1;
 7/8=1,10=1,25=1/1,2,3,16;
 1/10=4,30=1/3;
 99//99;
 ---------
 good luck
 ---------
 Symbolic Z-matrix:
 Charge =  0 Multiplicity = 1
 O                     1.21234   0.        0. 
 C                     0.        0.        0. 
 C                    -0.88593  -1.25709  -0.01328 
 C                    -0.34614  -2.35519  -0.9313 
 C                    -2.28716  -0.70861  -0.33593 
 C                    -2.33386   0.73534   0.24794 
 C                    -3.39623   1.59417  -0.45008 
 C                    -2.61858   0.69806   1.76255 
 C                    -0.89477   1.24189  -0.01328 
 H                    -0.87237  -1.63446   1.02147 
 H                    -0.38179  -2.04087  -1.98116 
 H                    -0.93135  -3.27601  -0.83484 
 H                     0.69624  -2.57572  -0.6823 
 H                    -3.09569  -1.33708   0.05469 
 H                    -2.41415  -0.66204  -1.4271 
 H                    -3.22007   1.64229  -1.53165 
 H                    -4.40054   1.18105  -0.29253 
 H                    -3.3957    2.62081  -0.06349 
 H                    -1.87518   0.10685   2.31028 
 H                    -3.60451   0.26191   1.96389 
 H                    -2.60742   1.71015   2.18468 
 H                    -0.81215   1.68565  -1.01682 
 H                    -0.53709   1.99671   0.69529 
 

 GradGradGradGradGradGradGradGradGradGradGradGradGradGradGradGradGradGrad
 Berny optimization.
 Initialization pass.
 Trust Radius=3.00D-01 FncErr=1.00D-07 GrdErr=1.00D-07 EigMax=2.50D+02 EigMin=1.00D-04
 Number of steps in this run=      2 maximum allowed number of steps=      2.
 GradGradGradGradGradGradGradGradGradGradGradGradGradGradGradGradGradGrad

                          Input orientation:                          
 ---------------------------------------------------------------------
 Center     Atomic      Atomic             Coordinates (Angstroms)
 Number     Number       Type             X           Y           Z
 ---------------------------------------------------------------------
      1          8           0        1.212342    0.000000    0.000000
      2          6           0        0.000000    0.000000    0.000000
      3          6           0       -0.885925   -1.257088   -0.013281
      4          6           0       -0.346143   -2.355194   -0.931295
      5          6           0       -2.287155   -0.708606   -0.335927
      6          6           0       -2.333856    0.735344    0.247936
      7          6           0       -3.396229    1.594169   -0.450080
      8          6           0       -2.618578    0.698058    1.762551
      9          6           0       -0.894765    1.241888   -0.013281
     10          1           0       -0.872366   -1.634458    1.021470
     11          1           0       -0.381785   -2.040874   -1.981162
     12          1           0       -0.931349   -3.276006   -0.834844
     13          1           0        0.696236   -2.575721   -0.682299
     14          1           0       -3.095691   -1.337077    0.054688
     15          1           0       -2.414149   -0.662041   -1.427096
     16          1           0       -3.220073    1.642294   -1.531646
     17          1           0       -4.400539    1.181047   -0.292526
     18          1           0       -3.395701    2.620812   -0.063487
     19          1           0       -1.875182    0.106854    2.310282
     20          1           0       -3.604511    0.261908    1.963888
     21          1           0       -2.607419    1.710151    2.184682
     22          1           0       -0.812147    1.685649   -1.016817
     23          1           0       -0.537094    1.996709    0.695290
 ---------------------------------------------------------------------
                    Distance matrix (angstroms):
                    1          2          3          4          5
     1  O    0.000000
     2  C    1.212342   0.000000
     3  C    2.446052   1.537956   0.000000
     4  C    2.973739   2.556182   1.529690   0.000000
     5  C    3.586286   2.417860   1.538954   2.614047   0.000000
     6  C    3.630113   2.459489   2.476797   3.859147   1.558226
     7  C    4.897231   3.778666   3.823884   5.013189   2.558486
     8  C    4.274321   3.232773   3.158839   4.662951   2.547971
     9  C    2.445887   1.530708   2.498992   3.752697   2.418114
    10  H    2.839166   2.115627   1.101500   2.147012   2.168261
    11  H    3.260584   2.869831   2.177391   1.096489   2.848187
    12  H    4.003073   3.506650   2.180151   1.095292   2.945958
    13  H    2.714081   2.754018   2.165551   1.094160   3.536483
    14  H    4.511088   3.372546   2.212258   3.093338   1.096032
    15  H    3.953016   2.881496   2.165277   2.718315   1.099521
    16  H    4.968840   3.925804   4.019962   4.959819   2.797644
    17  H    5.743246   4.565653   4.286606   5.417670   2.835324
    18  H    5.301580   4.289927   4.619481   5.900299   3.519676
    19  H    3.857671   2.977437   2.870176   4.348271   2.799485
    20  H    5.208409   4.113144   3.688801   5.084119   2.822494
    21  H    4.721020   3.807373   4.074198   5.599081   3.508051
    22  H    2.823807   2.129533   3.110021   4.068524   2.893392
    23  H    2.744231   2.181455   3.348276   4.649871   3.383024
                    6          7          8          9         10
     6  C    0.000000
     7  C    1.534094   0.000000
     8  C    1.541595   2.510676   0.000000
     9  C    1.547839   2.563634   2.533942   0.000000
    10  H    2.889683   4.354237   3.006508   3.056890   0.000000
    11  H    4.060400   4.964335   5.149794   3.861636   3.069469
    12  H    4.385244   5.471954   5.038491   4.592131   2.478722
    13  H    4.583661   5.847237   5.261455   4.189631   2.499863
    14  H    2.216454   2.989535   2.699298   3.391129   2.442596
    15  H    2.182857   2.647551   3.473544   2.816442   3.052567
    16  H    2.185143   1.096874   3.479240   2.805854   4.771502
    17  H    2.182184   1.097329   2.762608   3.517404   4.701240
    18  H    2.186204   1.097019   2.763208   2.856332   5.064748
    19  H    2.204235   3.485009   1.096435   2.765586   2.387225
    20  H    2.187052   2.765057   1.096735   3.494607   3.456729
    21  H    2.185422   2.752752   1.096655   2.825508   3.943334
    22  H    2.195058   2.647081   3.458817   1.100379   3.896325
    23  H    2.240429   3.106214   2.675466   1.095334   3.661171
                   11         12         13         14         15
    11  H    0.000000
    12  H    1.772461   0.000000
    13  H    1.770660   1.778399   0.000000
    14  H    3.464867   3.038929   4.056612   0.000000
    15  H    2.517672   3.063049   3.727115   1.765179   0.000000
    16  H    4.671581   5.469320   5.818120   3.377659   2.443441
    17  H    5.420577   5.674038   6.343685   2.857295   2.937681
    18  H    5.873030   6.437428   6.643104   3.971002   3.687817
    19  H    5.025879   4.714486   4.771157   2.943176   3.853528
    20  H    5.590366   5.243618   5.792311   2.541790   3.710716
    21  H    6.031409   6.065353   6.123922   3.749784   4.325458
    22  H    3.873260   4.966422   4.532813   3.936949   2.871652
    23  H    4.846606   5.504386   4.932136   4.250990   3.885461
                   16         17         18         19         20
    16  H    0.000000
    17  H    1.772475   0.000000
    18  H    1.773086   1.770616   0.000000
    19  H    4.350485   3.782318   3.777134   0.000000
    20  H    3.777832   2.563178   3.117415   1.770483   0.000000
    21  H    3.767100   3.103513   2.550481   1.767062   1.772103
    22  H    2.462729   3.695372   2.908285   3.833044   4.325383
    23  H    3.504744   4.070294   3.022727   2.823160   3.745387
                   21         22         23
    21  H    0.000000
    22  H    3.670585   0.000000
    23  H    2.566447   1.761739   0.000000
 Stoichiometry    C8H14O
 Framework group  C1[X(C8H14O)]
 Deg. of freedom    63
 Full point group                 C1      NOp   1
 Largest Abelian subgroup         C1      NOp   1
 Largest concise Abelian subgroup C1      NOp   1
                         Standard orientation:                         
 ---------------------------------------------------------------------
 Center     Atomic      Atomic             Coordinates (Angstroms)
 Number     Number       Type             X           Y           Z
 ---------------------------------------------------------------------
      1          8           0        1.946574    1.662100   -0.047447
      2          6           0        1.024889    0.874571   -0.039156
      3          6           0        1.127803   -0.605421    0.366235
      4          6           0        2.404892   -1.274489   -0.144983
      5          6           0       -0.207958   -1.204202   -0.108719
      6          6           0       -1.253551   -0.051557   -0.029886
      7          6           0       -2.444644   -0.302832   -0.963481
      8          6           0       -1.762005    0.120417    1.415249
      9          6           0       -0.416918    1.180214   -0.452486
     10          1           0        1.155203   -0.605024    1.467394
     11          1           0        2.402651   -1.338257   -1.239613
     12          1           0        2.506649   -2.290283    0.251845
     13          1           0        3.281311   -0.692379    0.155390
     14          1           0       -0.517077   -2.080994    0.471769
     15          1           0       -0.106272   -1.529712   -1.154018
     16          1           0       -2.115445   -0.427868   -2.002291
     17          1           0       -2.986676   -1.211461   -0.672402
     18          1           0       -3.156479    0.531379   -0.934617
     19          1           0       -0.946872    0.318262    2.121354
     20          1           0       -2.284997   -0.781691    1.755112
     21          1           0       -2.464192    0.960106    1.482383
     22          1           0       -0.418551    1.297792   -1.546564
     23          1           0       -0.756891    2.133127   -0.032806
 ---------------------------------------------------------------------
 Rotational constants (GHZ):           2.5374581           1.2253794           1.0395028
 Standard basis: 6-31G(d) (6D, 7F)
 There are   163 symmetry adapted cartesian basis functions of A   symmetry.
 There are   163 symmetry adapted basis functions of A   symmetry.
   163 basis functions,   308 primitive gaussians,   163 cartesian basis functions
    35 alpha electrons       35 beta electrons
       nuclear repulsion energy       476.6013688670 Hartrees.
 NAtoms=   23 NActive=   23 NUniq=   23 SFac= 1.00D+00 NAtFMM=   60 NAOKFM=F Big=F
 Integral buffers will be    131072 words long.
 Raffenetti 2 integral format.
 Two-electron integral symmetry is turned on.
 One-electron integrals computed using PRISM.
 NBasis=   163 RedAO= T EigKep=  2.49D-03  NBF=   163
 NBsUse=   163 1.00D-06 EigRej= -1.00D+00 NBFU=   163
 ExpMin= 1.61D-01 ExpMax= 5.48D+03 ExpMxC= 8.25D+02 IAcc=3 IRadAn=         5 AccDes= 0.00D+00
 Harris functional with IExCor=  402 and IRadAn=       5 diagonalized for initial guess.
 HarFok:  IExCor=  402 AccDes= 0.00D+00 IRadAn=         5 IDoV= 1 UseB2=F ITyADJ=14
 ICtDFT=  3500011 ScaDFX=  1.000000  1.000000  1.000000  1.000000
 FoFCou: FMM=F IPFlag=           0 FMFlag=      100000 FMFlg1=           0
         NFxFlg=           0 DoJE=T BraDBF=F KetDBF=T FulRan=T
         wScrn=  0.000000 ICntrl=       500 IOpCl=  0 I1Cent=   200000004 NGrid=           0
         NMat0=    1 NMatS0=      1 NMatT0=    0 NMatD0=    1 NMtDS0=    0 NMtDT0=    0
 Petite list used in FoFCou.
 Requested convergence on RMS density matrix=1.00D-08 within 128 cycles.
 Requested convergence on MAX density matrix=1.00D-06.
 Requested convergence on             energy=1.00D-06.
 No special actions if energy rises.
 Integral accuracy reduced to 1.0D-05 until final iterations.
 Initial convergence to 1.0D-05 achieved.  Increase integral accuracy.
 SCF Done:  E(RB3LYP) =  -388.517324161     A.U. after   13 cycles
            NFock= 13  Conv=0.75D-08     -V/T= 2.0097
 DoSCS=F DFT=T ScalE2(SS,OS)=  1.000000  1.000000
 Range of M.O.s used for correlation:     1   163
 NBasis=   163 NAE=    35 NBE=    35 NFC=     0 NFV=     0
 NROrb=    163 NOA=    35 NOB=    35 NVA=   128 NVB=   128
 Symmetrizing basis deriv contribution to polar:
 IMax=3 JMax=2 DiffMx= 0.00D+00
 G2DrvN: will do    24 centers at a time, making    1 passes.
 Calling FoFCou, ICntrl=  3107 FMM=F I1Cent=   0 AccDes= 0.00D+00.
 End of G2Drv F.D. properties file   721 does not exist.
 End of G2Drv F.D. properties file   722 does not exist.
 End of G2Drv F.D. properties file   788 does not exist.
          IDoAtm=11111111111111111111111
          Differentiating once with respect to electric field.
                with respect to dipole field.
          Differentiating once with respect to nuclear coordinates.
 Keep R1 ints in memory in canonical form, NReq=97235276.
          There are    72 degrees of freedom in the 1st order CPHF.  IDoFFX=6 NUNeed=     3.
     69 vectors produced by pass  0 Test12= 6.22D-15 1.39D-09 XBig12= 5.71D+01 1.73D+00.
 AX will form    69 AO Fock derivatives at one time.
     69 vectors produced by pass  1 Test12= 6.22D-15 1.39D-09 XBig12= 8.56D+00 8.23D-01.
     69 vectors produced by pass  2 Test12= 6.22D-15 1.39D-09 XBig12= 8.01D-02 3.93D-02.
     69 vectors produced by pass  3 Test12= 6.22D-15 1.39D-09 XBig12= 1.93D-04 1.70D-03.
     69 vectors produced by pass  4 Test12= 6.22D-15 1.39D-09 XBig12= 1.90D-07 4.30D-05.
     32 vectors produced by pass  5 Test12= 6.22D-15 1.39D-09 XBig12= 1.54D-10 1.87D-06.
      3 vectors produced by pass  6 Test12= 6.22D-15 1.39D-09 XBig12= 1.34D-13 5.79D-08.
 InvSVY:  IOpt=1 It=  1 EMax= 2.66D-15
 Solved reduced A of dimension   380 with    72 vectors.
 Isotropic polarizability for W=    0.000000       82.34 Bohr**3.
 End of Minotr F.D. properties file   721 does not exist.
 End of Minotr F.D. properties file   722 does not exist.
 End of Minotr F.D. properties file   788 does not exist.

 **********************************************************************

            Population analysis using the SCF density.

 **********************************************************************

 Orbital symmetries:
       Occupied  (A) (A) (A) (A) (A) (A) (A) (A) (A) (A) (A) (A)
                 (A) (A) (A) (A) (A) (A) (A) (A) (A) (A) (A) (A)
                 (A) (A) (A) (A) (A) (A) (A) (A) (A) (A) (A)
       Virtual   (A) (A) (A) (A) (A) (A) (A) (A) (A) (A) (A) (A)
                 (A) (A) (A) (A) (A) (A) (A) (A) (A) (A) (A) (A)
                 (A) (A) (A) (A) (A) (A) (A) (A) (A) (A) (A) (A)
                 (A) (A) (A) (A) (A) (A) (A) (A) (A) (A) (A) (A)
                 (A) (A) (A) (A) (A) (A) (A) (A) (A) (A) (A) (A)
                 (A) (A) (A) (A) (A) (A) (A) (A) (A) (A) (A) (A)
                 (A) (A) (A) (A) (A) (A) (A) (A) (A) (A) (A) (A)
                 (A) (A) (A) (A) (A) (A) (A) (A) (A) (A) (A) (A)
                 (A) (A) (A) (A) (A) (A) (A) (A) (A) (A) (A) (A)
                 (A) (A) (A) (A) (A) (A) (A) (A) (A) (A) (A) (A)
                 (A) (A) (A) (A) (A) (A) (A) (A)
 The electronic state is 1-A.
 Alpha  occ. eigenvalues --  -19.13446 -10.26744 -10.20527 -10.19455 -10.18745
 Alpha  occ. eigenvalues --  -10.18632 -10.18082 -10.17975 -10.17840  -1.03366
 Alpha  occ. eigenvalues --   -0.85160  -0.77580  -0.71893  -0.69080  -0.68318
 Alpha  occ. eigenvalues --   -0.62078  -0.54653  -0.52133  -0.48086  -0.45930
 Alpha  occ. eigenvalues --   -0.45095  -0.43691  -0.42461  -0.41006  -0.40592
 Alpha  occ. eigenvalues --   -0.38834  -0.37609  -0.37521  -0.36322  -0.35866
 Alpha  occ. eigenvalues --   -0.33803  -0.32596  -0.32272  -0.31396  -0.23415
 Alpha virt. eigenvalues --   -0.01457   0.07053   0.11025   0.11512   0.13094
 Alpha virt. eigenvalues --    0.13311   0.14488   0.15158   0.15931   0.16591
 Alpha virt. eigenvalues --    0.17398   0.17962   0.18132   0.19981   0.20226
 Alpha virt. eigenvalues --    0.22064   0.22987   0.23287   0.25261   0.25884
 Alpha virt. eigenvalues --    0.28555   0.28966   0.33364   0.34837   0.48874
 Alpha virt. eigenvalues --    0.50141   0.50706   0.51861   0.54936   0.57230
 Alpha virt. eigenvalues --    0.58138   0.58962   0.60426   0.62826   0.65298
 Alpha virt. eigenvalues --    0.68102   0.68517   0.70868   0.72122   0.72859
 Alpha virt. eigenvalues --    0.74129   0.77325   0.78294   0.80469   0.83821
 Alpha virt. eigenvalues --    0.84164   0.85017   0.87085   0.88324   0.89645
 Alpha virt. eigenvalues --    0.90133   0.91079   0.91179   0.92090   0.93154
 Alpha virt. eigenvalues --    0.93506   0.94222   0.95368   0.96425   0.99224
 Alpha virt. eigenvalues --    0.99568   1.01384   1.01832   1.04193   1.12415
 Alpha virt. eigenvalues --    1.15783   1.20125   1.28739   1.34652   1.39294
 Alpha virt. eigenvalues --    1.44508   1.47390   1.51684   1.54441   1.60413
 Alpha virt. eigenvalues --    1.64094   1.67563   1.71959   1.74263   1.77804
 Alpha virt. eigenvalues --    1.79078   1.80963   1.83723   1.84067   1.86733
 Alpha virt. eigenvalues --    1.87702   1.92362   1.93925   1.95139   2.00384
 Alpha virt. eigenvalues --    2.01684   2.02234   2.04795   2.07340   2.08383
 Alpha virt. eigenvalues --    2.10771   2.15176   2.19916   2.22220   2.23596
 Alpha virt. eigenvalues --    2.24089   2.25887   2.28162   2.28720   2.32045
 Alpha virt. eigenvalues --    2.41138   2.42922   2.46718   2.55336   2.56464
 Alpha virt. eigenvalues --    2.58379   2.63313   2.68341   2.70774   2.74867
 Alpha virt. eigenvalues --    2.78833   2.82370   3.00646   3.06386   4.03572
 Alpha virt. eigenvalues --    4.12762   4.22007   4.28581   4.32992   4.35989
 Alpha virt. eigenvalues --    4.50116   4.70923   4.72296
          Condensed to atoms (all electrons):
               1          2          3          4          5          6
     1  O    8.024206   0.565475  -0.078607  -0.000400   0.003913   0.002825
     2  C    0.565475   4.521355   0.327212  -0.029951  -0.046169  -0.032336
     3  C   -0.078607   0.327212   5.223691   0.357846   0.317859  -0.025140
     4  C   -0.000400  -0.029951   0.357846   5.067471  -0.039180   0.002416
     5  C    0.003913  -0.046169   0.317859  -0.039180   5.174849   0.376427
     6  C    0.002825  -0.032336  -0.025140   0.002416   0.376427   4.787799
     7  C   -0.000064   0.002249   0.004077  -0.000123  -0.049476   0.378688
     8  C   -0.000011  -0.003428  -0.000849   0.000133  -0.056839   0.381262
     9  C   -0.069403   0.329305  -0.172872   0.007151  -0.065673   0.334803
    10  H   -0.001277  -0.032909   0.360191  -0.031405  -0.041726  -0.000792
    11  H    0.000449  -0.004308  -0.038043   0.379116  -0.006002   0.000081
    12  H    0.000129   0.004220  -0.028642   0.370413  -0.002064   0.000038
    13  H    0.009156  -0.004273  -0.033539   0.368832   0.004711  -0.000165
    14  H   -0.000061   0.003366  -0.022008   0.001192   0.356408  -0.028493
    15  H   -0.000023  -0.003586  -0.038740  -0.005180   0.364301  -0.036012
    16  H   -0.000001   0.000037   0.000086  -0.000009  -0.005713  -0.027571
    17  H    0.000001  -0.000086   0.000119  -0.000002  -0.004484  -0.029078
    18  H    0.000000   0.000075  -0.000183   0.000002   0.005184  -0.028141
    19  H   -0.000164   0.000990   0.002829  -0.000038  -0.005652  -0.030648
    20  H    0.000001   0.000019  -0.000088  -0.000010  -0.005496  -0.029590
    21  H    0.000002   0.000047  -0.000197   0.000000   0.005509  -0.027771
    22  H   -0.000801  -0.023795   0.004836  -0.000392   0.000149  -0.034446
    23  H    0.000878  -0.019349   0.005733  -0.000058   0.004819  -0.027990
               7          8          9         10         11         12
     1  O   -0.000064  -0.000011  -0.069403  -0.001277   0.000449   0.000129
     2  C    0.002249  -0.003428   0.329305  -0.032909  -0.004308   0.004220
     3  C    0.004077  -0.000849  -0.172872   0.360191  -0.038043  -0.028642
     4  C   -0.000123   0.000133   0.007151  -0.031405   0.379116   0.370413
     5  C   -0.049476  -0.056839  -0.065673  -0.041726  -0.006002  -0.002064
     6  C    0.378688   0.381262   0.334803  -0.000792   0.000081   0.000038
     7  C    5.144385  -0.063150  -0.042827  -0.000009  -0.000011   0.000002
     8  C   -0.063150   5.152556  -0.053622   0.001341   0.000001  -0.000004
     9  C   -0.042827  -0.053622   5.397156   0.004628   0.000317  -0.000206
    10  H   -0.000009   0.001341   0.004628   0.581469   0.005170  -0.005003
    11  H   -0.000011   0.000001   0.000317   0.005170   0.572570  -0.032411
    12  H    0.000002  -0.000004  -0.000206  -0.005003  -0.032411   0.577799
    13  H    0.000003   0.000002   0.000569  -0.001050  -0.027282  -0.029590
    14  H   -0.000080  -0.007751   0.005274  -0.007275  -0.000199   0.001070
    15  H   -0.007070   0.005767  -0.000266   0.005430   0.006121  -0.000162
    16  H    0.364437   0.005680  -0.005525  -0.000002  -0.000001   0.000000
    17  H    0.365913  -0.004489   0.004939  -0.000008  -0.000000   0.000000
    18  H    0.366654  -0.004242  -0.004772   0.000005   0.000000   0.000000
    19  H    0.005656   0.367633  -0.003115   0.003151   0.000002   0.000002
    20  H   -0.004627   0.368588   0.005101   0.000029   0.000000   0.000000
    21  H   -0.005050   0.367012  -0.005858  -0.000064   0.000000  -0.000000
    22  H   -0.007684   0.005441   0.349417   0.000090   0.000076   0.000002
    23  H    0.001424  -0.006805   0.347979  -0.000475  -0.000010   0.000002
              13         14         15         16         17         18
     1  O    0.009156  -0.000061  -0.000023  -0.000001   0.000001   0.000000
     2  C   -0.004273   0.003366  -0.003586   0.000037  -0.000086   0.000075
     3  C   -0.033539  -0.022008  -0.038740   0.000086   0.000119  -0.000183
     4  C    0.368832   0.001192  -0.005180  -0.000009  -0.000002   0.000002
     5  C    0.004711   0.356408   0.364301  -0.005713  -0.004484   0.005184
     6  C   -0.000165  -0.028493  -0.036012  -0.027571  -0.029078  -0.028141
     7  C    0.000003  -0.000080  -0.007070   0.364437   0.365913   0.366654
     8  C    0.000002  -0.007751   0.005767   0.005680  -0.004489  -0.004242
     9  C    0.000569   0.005274  -0.000266  -0.005525   0.004939  -0.004772
    10  H   -0.001050  -0.007275   0.005430  -0.000002  -0.000008   0.000005
    11  H   -0.027282  -0.000199   0.006121  -0.000001  -0.000000   0.000000
    12  H   -0.029590   0.001070  -0.000162   0.000000   0.000000   0.000000
    13  H    0.542430  -0.000162   0.000102   0.000000  -0.000000  -0.000000
    14  H   -0.000162   0.590118  -0.035146  -0.000193   0.002268  -0.000162
    15  H    0.000102  -0.035146   0.603099   0.005566  -0.000003   0.000070
    16  H    0.000000  -0.000193   0.005566   0.578828  -0.029781  -0.030165
    17  H   -0.000000   0.002268  -0.000003  -0.029781   0.579827  -0.031497
    18  H   -0.000000  -0.000162   0.000070  -0.030165  -0.031497   0.577976
    19  H    0.000005   0.000078  -0.000023  -0.000194  -0.000057  -0.000050
    20  H   -0.000000   0.004395   0.000014  -0.000042   0.004241  -0.000205
    21  H   -0.000000   0.000053  -0.000176  -0.000039  -0.000228   0.004411
    22  H   -0.000012  -0.000113   0.001892   0.005248   0.000095   0.000255
    23  H   -0.000008  -0.000139  -0.000173  -0.000148  -0.000133   0.001108
              19         20         21         22         23
     1  O   -0.000164   0.000001   0.000002  -0.000801   0.000878
     2  C    0.000990   0.000019   0.000047  -0.023795  -0.019349
     3  C    0.002829  -0.000088  -0.000197   0.004836   0.005733
     4  C   -0.000038  -0.000010   0.000000  -0.000392  -0.000058
     5  C   -0.005652  -0.005496   0.005509   0.000149   0.004819
     6  C   -0.030648  -0.029590  -0.027771  -0.034446  -0.027990
     7  C    0.005656  -0.004627  -0.005050  -0.007684   0.001424
     8  C    0.367633   0.368588   0.367012   0.005441  -0.006805
     9  C   -0.003115   0.005101  -0.005858   0.349417   0.347979
    10  H    0.003151   0.000029  -0.000064   0.000090  -0.000475
    11  H    0.000002   0.000000   0.000000   0.000076  -0.000010
    12  H    0.000002   0.000000  -0.000000   0.000002   0.000002
    13  H    0.000005  -0.000000  -0.000000  -0.000012  -0.000008
    14  H    0.000078   0.004395   0.000053  -0.000113  -0.000139
    15  H   -0.000023   0.000014  -0.000176   0.001892  -0.000173
    16  H   -0.000194  -0.000042  -0.000039   0.005248  -0.000148
    17  H   -0.000057   0.004241  -0.000228   0.000095  -0.000133
    18  H   -0.000050  -0.000205   0.004411   0.000255   0.001108
    19  H    0.575364  -0.030283  -0.030370  -0.000035   0.000580
    20  H   -0.030283   0.573767  -0.029865  -0.000172   0.000076
    21  H   -0.030370  -0.029865   0.573140  -0.000062   0.003805
    22  H   -0.000035  -0.000172  -0.000062   0.556477  -0.023917
    23  H    0.000580   0.000076   0.003805  -0.023917   0.545708
 Mulliken charges:
               1
     1  O   -0.456222
     2  C    0.445841
     3  C   -0.165570
     4  C   -0.447823
     5  C   -0.285655
     6  C    0.093834
     7  C   -0.453318
     8  C   -0.454228
     9  C   -0.362502
    10  H    0.160492
    11  H    0.144363
    12  H    0.144404
    13  H    0.170269
    14  H    0.137562
    15  H    0.134200
    16  H    0.139501
    17  H    0.142443
    18  H    0.143677
    19  H    0.144339
    20  H    0.144147
    21  H    0.145704
    22  H    0.167451
    23  H    0.167093
 Sum of Mulliken charges =  -0.00000
 Mulliken charges with hydrogens summed into heavy atoms:
               1
     1  O   -0.456222
     2  C    0.445841
     3  C   -0.005079
     4  C    0.011213
     5  C   -0.013894
     6  C    0.093834
     7  C   -0.027696
     8  C   -0.020039
     9  C   -0.027958
 APT charges:
               1
     1  O   -0.678044
     2  C    0.756766
     3  C   -0.048978
     4  C    0.094803
     5  C    0.063144
     6  C    0.126714
     7  C    0.075998
     8  C    0.056299
     9  C   -0.102776
    10  H   -0.030996
    11  H   -0.023371
    12  H   -0.027480
    13  H    0.000094
    14  H   -0.037445
    15  H   -0.041392
    16  H   -0.029844
    17  H   -0.029094
    18  H   -0.030648
    19  H   -0.021213
    20  H   -0.025685
    21  H   -0.026689
    22  H   -0.009694
    23  H   -0.010471
 Sum of APT charges =   0.00000
 APT charges with hydrogens summed into heavy atoms:
               1
     1  O   -0.678044
     2  C    0.756766
     3  C   -0.079974
     4  C    0.044047
     5  C   -0.015692
     6  C    0.126714
     7  C   -0.013588
     8  C   -0.017288
     9  C   -0.122941
 Electronic spatial extent (au):  <R**2>=           1302.6563
 Charge=             -0.0000 electrons
 Dipole moment (field-independent basis, Debye):
    X=             -2.1477    Y=             -1.8172    Z=              0.0675  Tot=              2.8141
 Quadrupole moment (field-independent basis, Debye-Ang):
   XX=            -60.9462   YY=            -59.5017   ZZ=            -54.8465
   XY=             -5.6664   XZ=              0.2573   YZ=             -0.2817
 Traceless Quadrupole moment (field-independent basis, Debye-Ang):
   XX=             -2.5148   YY=             -1.0702   ZZ=              3.5850
   XY=             -5.6664   XZ=              0.2573   YZ=             -0.2817
 Octapole moment (field-independent basis, Debye-Ang**2):
  XXX=             -2.7135  YYY=             -0.8685  ZZZ=             -2.1166  XYY=             -9.0621
  XXY=             -8.7877  XXZ=              1.7560  XZZ=              4.7709  YZZ=              2.4133
  YYZ=              1.6531  XYZ=              0.5133
 Hexadecapole moment (field-independent basis, Debye-Ang**3):
 XXXX=          -1060.5200 YYYY=           -438.9272 ZZZZ=           -258.6431 XXXY=            -12.5382
 XXXZ=             -0.9341 YYYX=             -8.2537 YYYZ=             -2.2158 ZZZX=              1.7999
 ZZZY=             -1.3216 XXYY=           -260.4056 XXZZ=           -219.2169 YYZZ=           -114.1604
 XXYZ=             -1.6094 YYXZ=             -0.0860 ZZXY=              4.2493
 N-N= 4.766013688670D+02 E-N=-1.854474583896D+03  KE= 3.847770258002D+02
  Exact polarizability:  93.294  -0.031  81.070   0.725  -0.977  72.659
 Approx polarizability: 120.564   6.721 118.167   0.992  -1.762 107.100
 Calling FoFJK, ICntrl=    100127 FMM=F ISym2X=0 I1Cent= 0 IOpClX= 0 NMat=1 NMatS=1 NMatT=0.
 Full mass-weighted force constant matrix:
 Low frequencies ---   -6.1203   -3.5766   -0.0005   -0.0001    0.0004    6.3391
 Low frequencies ---   62.1529  122.6807  206.4744
 Diagonal vibrational polarizability:
        5.2377978       7.0784899      21.5352802
 Harmonic frequencies (cm**-1), IR intensities (KM/Mole), Raman scattering
 activities (A**4/AMU), depolarization ratios for plane and unpolarized
 incident light, reduced masses (AMU), force constants (mDyne/A),
 and normal coordinates:
                      1                      2                      3
                      A                      A                      A
 Frequencies --     62.1527               122.6784               206.4733
 Red. masses --      3.4819                 2.6117                 1.0518
 Frc consts  --      0.0079                 0.0232                 0.0264
 IR Inten    --      3.4330                 0.1951                 0.2576
  Atom  AN      X      Y      Z        X      Y      Z        X      Y      Z
     1   8    -0.06   0.05   0.27    -0.03   0.01   0.04     0.01  -0.00  -0.03
     2   6    -0.01  -0.01   0.04    -0.02  -0.00  -0.03     0.00   0.01   0.01
     3   6     0.01  -0.03  -0.02    -0.05  -0.01  -0.03    -0.00   0.01   0.02
     4   6    -0.02   0.01  -0.17     0.04  -0.00   0.19    -0.02   0.00  -0.00
     5   6    -0.01  -0.04   0.05     0.00   0.01  -0.18     0.01   0.01   0.00
     6   6     0.01  -0.01  -0.03     0.00  -0.00  -0.05     0.00   0.00   0.00
     7   6    -0.03  -0.07   0.04    -0.12   0.04   0.10     0.00  -0.03   0.00
     8   6     0.08   0.17  -0.03     0.17  -0.03   0.02     0.00   0.01  -0.00
     9   6     0.04  -0.08  -0.17    -0.01  -0.02  -0.10    -0.00   0.00  -0.00
    10   1     0.12  -0.08  -0.03    -0.20  -0.01  -0.02    -0.01  -0.02   0.02
    11   1    -0.11   0.08  -0.17     0.22  -0.03   0.19     0.21   0.52  -0.03
    12   1     0.01  -0.02  -0.25    -0.02   0.01   0.23    -0.32  -0.20  -0.46
    13   1    -0.00  -0.01  -0.19    -0.02   0.01   0.32     0.04  -0.33   0.45
    14   1    -0.02   0.02   0.13    -0.01  -0.08  -0.32     0.01   0.00  -0.01
    15   1    -0.05  -0.12   0.08     0.05   0.17  -0.23     0.02   0.03  -0.00
    16   1    -0.07  -0.19   0.04    -0.25   0.04   0.05     0.00  -0.03   0.00
    17   1    -0.04  -0.03   0.16    -0.11   0.06   0.16     0.03  -0.05   0.01
    18   1    -0.00  -0.05  -0.02    -0.08   0.07   0.19    -0.02  -0.05   0.00
    19   1     0.11   0.22  -0.08     0.24   0.00  -0.07    -0.00   0.06  -0.01
    20   1     0.07   0.22   0.10     0.25  -0.06   0.08     0.04  -0.00   0.02
    21   1     0.11   0.20  -0.09     0.15  -0.06   0.10    -0.03  -0.01  -0.02
    22   1     0.16  -0.32  -0.20     0.02  -0.10  -0.11     0.01   0.00  -0.00
    23   1    -0.01   0.00  -0.41    -0.02   0.01  -0.17    -0.01   0.00  -0.01
                      4                      5                      6
                      A                      A                      A
 Frequencies --    232.6972               238.3959               251.5832
 Red. masses --      1.6947                 1.1337                 1.7466
 Frc consts  --      0.0541                 0.0380                 0.0651
 IR Inten    --      1.0359                 0.0764                 2.5865
  Atom  AN      X      Y      Z        X      Y      Z        X      Y      Z
     1   8     0.01  -0.08  -0.03    -0.00   0.03   0.01    -0.07   0.12  -0.00
     2   6    -0.02  -0.05   0.03     0.01   0.02  -0.00     0.01   0.04  -0.04
     3   6    -0.01  -0.03   0.04     0.01   0.01  -0.01     0.04   0.03  -0.02
     4   6     0.07   0.15  -0.01    -0.03  -0.07  -0.00    -0.02  -0.11   0.02
     5   6    -0.01  -0.05   0.02     0.01   0.02  -0.01     0.03  -0.01   0.05
     6   6    -0.01  -0.03   0.00     0.01   0.01   0.00     0.02  -0.03   0.01
     7   6    -0.03   0.10  -0.01     0.02  -0.02  -0.01     0.02   0.08  -0.02
     8   6    -0.01  -0.01  -0.00     0.01  -0.01   0.00     0.01  -0.08   0.02
     9   6     0.00  -0.05  -0.01    -0.01   0.03   0.02    -0.00  -0.04  -0.03
    10   1    -0.00  -0.07   0.03     0.00   0.02  -0.01     0.06   0.09  -0.02
    11   1     0.09   0.28  -0.02    -0.07  -0.14  -0.00     0.01  -0.11   0.02
    12   1     0.22   0.13  -0.12    -0.08  -0.05   0.06    -0.20  -0.14   0.01
    13   1    -0.02   0.26   0.05     0.01  -0.11  -0.06     0.06  -0.26   0.06
    14   1    -0.02  -0.04   0.03     0.02   0.00  -0.04     0.07   0.02   0.12
    15   1    -0.00  -0.06   0.02     0.02   0.05  -0.02     0.01  -0.09   0.07
    16   1    -0.00  -0.28   0.04     0.06  -0.26   0.03     0.06  -0.21   0.03
    17   1    -0.37   0.37   0.18    -0.11   0.10   0.14    -0.27   0.30   0.12
    18   1     0.26   0.36  -0.27     0.12   0.07  -0.20     0.26   0.30  -0.23
    19   1    -0.03   0.09  -0.01    -0.04   0.48  -0.08     0.03  -0.39   0.07
    20   1     0.06  -0.03   0.04     0.44  -0.19   0.18    -0.22  -0.00  -0.14
    21   1    -0.08  -0.06  -0.03    -0.37  -0.31  -0.09     0.21   0.08   0.12
    22   1     0.03  -0.08  -0.01    -0.03   0.08   0.03    -0.02  -0.10  -0.03
    23   1    -0.01  -0.04  -0.05    -0.00   0.00   0.08    -0.02  -0.02  -0.08
                      7                      8                      9
                      A                      A                      A
 Frequencies --    301.2153               317.9226               335.3680
 Red. masses --      1.5293                 2.6826                 2.3645
 Frc consts  --      0.0818                 0.1598                 0.1567
 IR Inten    --      0.3377                 1.1881                 0.5504
  Atom  AN      X      Y      Z        X      Y      Z        X      Y      Z
     1   8    -0.05   0.03  -0.02     0.03  -0.05  -0.04     0.13  -0.02   0.01
     2   6    -0.02  -0.01  -0.00    -0.04   0.03   0.08     0.07   0.04   0.01
     3   6     0.00   0.00   0.04    -0.09   0.04   0.15     0.01   0.06   0.06
     4   6    -0.01   0.00  -0.00    -0.18   0.06  -0.02    -0.05   0.02  -0.02
     5   6    -0.01  -0.04   0.08    -0.02   0.04   0.02     0.02   0.07   0.01
     6   6     0.01  -0.02   0.00     0.01   0.02  -0.05     0.00   0.04  -0.01
     7   6     0.01   0.13  -0.04     0.06  -0.06  -0.08    -0.08  -0.01   0.11
     8   6     0.04  -0.06   0.02     0.19  -0.07   0.02    -0.13  -0.14  -0.03
     9   6     0.01  -0.06  -0.06    -0.01   0.04  -0.02     0.07  -0.00  -0.11
    10   1     0.04   0.02   0.04    -0.06  -0.02   0.15     0.02   0.05   0.06
    11   1    -0.04   0.04  -0.00    -0.41   0.03  -0.02    -0.17   0.00  -0.02
    12   1    -0.01  -0.01  -0.04    -0.11   0.06  -0.03    -0.05   0.02  -0.02
    13   1     0.00  -0.02  -0.01    -0.12   0.06  -0.23     0.00  -0.01  -0.12
    14   1    -0.01   0.03   0.18    -0.09   0.03  -0.04     0.02   0.04  -0.03
    15   1    -0.00  -0.16   0.12     0.12   0.07   0.02     0.08   0.11   0.00
    16   1     0.01   0.56  -0.10     0.16  -0.20  -0.04    -0.24  -0.07   0.07
    17   1     0.11  -0.03  -0.37     0.03  -0.02  -0.02    -0.03   0.00   0.24
    18   1    -0.07   0.05   0.27     0.07  -0.04  -0.27    -0.09  -0.02   0.17
    19   1     0.04   0.18  -0.05     0.33  -0.26  -0.09    -0.26  -0.16   0.11
    20   1     0.30  -0.18   0.09     0.17  -0.07  -0.01    -0.07  -0.26  -0.25
    21   1    -0.17  -0.23   0.03     0.30  -0.01   0.26    -0.26  -0.25   0.00
    22   1     0.05  -0.18  -0.07     0.08   0.02  -0.03     0.16  -0.27  -0.15
    23   1    -0.02  -0.01  -0.18    -0.07   0.03  -0.06     0.03   0.10  -0.37
                     10                     11                     12
                      A                      A                      A
 Frequencies --    380.9283               404.5307               501.7105
 Red. masses --      2.2256                 2.1714                 2.7818
 Frc consts  --      0.1903                 0.2094                 0.4126
 IR Inten    --      2.0572                 0.4515                 4.4267
  Atom  AN      X      Y      Z        X      Y      Z        X      Y      Z
     1   8    -0.08   0.06  -0.10     0.00  -0.03   0.02    -0.09   0.08  -0.08
     2   6    -0.01  -0.01   0.13    -0.01  -0.01  -0.06     0.02  -0.04   0.12
     3   6     0.04  -0.04   0.13    -0.04  -0.01  -0.08     0.04  -0.13   0.03
     4   6    -0.02  -0.04  -0.03     0.01   0.02   0.01     0.14  -0.06  -0.01
     5   6     0.08   0.03  -0.11    -0.05   0.06  -0.05    -0.12   0.07   0.03
     6   6     0.02  -0.05   0.03    -0.03   0.05   0.14    -0.06   0.16  -0.05
     7   6     0.02   0.03   0.02     0.15  -0.01  -0.04    -0.06  -0.04  -0.04
     8   6    -0.05   0.08  -0.00    -0.05  -0.01   0.17     0.02  -0.04   0.00
     9   6     0.02  -0.09   0.04    -0.00  -0.03  -0.07     0.09   0.05   0.01
    10   1    -0.00  -0.20   0.13    -0.08   0.01  -0.08     0.08  -0.27   0.03
    11   1    -0.21  -0.06  -0.03     0.11   0.01   0.01     0.20  -0.02  -0.01
    12   1     0.03  -0.04  -0.04     0.02   0.03   0.03     0.27  -0.06  -0.03
    13   1     0.05  -0.05  -0.19    -0.05   0.06   0.09     0.05   0.04   0.04
    14   1     0.09  -0.20  -0.44    -0.02  -0.04  -0.18    -0.28   0.17   0.10
    15   1     0.22   0.39  -0.21    -0.14   0.24  -0.12    -0.17  -0.04   0.06
    16   1     0.01   0.10   0.01     0.42  -0.02   0.05    -0.04  -0.18  -0.02
    17   1    -0.02   0.03  -0.05     0.14  -0.05  -0.16     0.09  -0.08   0.12
    18   1     0.05   0.06   0.08     0.09  -0.06  -0.25    -0.19  -0.15  -0.18
    19   1    -0.10   0.13   0.04    -0.06  -0.03   0.19     0.09  -0.14  -0.05
    20   1    -0.14   0.16   0.07    -0.03  -0.04   0.11     0.14  -0.15  -0.13
    21   1    -0.00   0.13  -0.17    -0.08  -0.03   0.22    -0.04  -0.11   0.26
    22   1     0.16  -0.24   0.02    -0.00  -0.39  -0.11     0.30  -0.06  -0.00
    23   1    -0.04  -0.04  -0.13     0.03   0.11  -0.37     0.18   0.14  -0.13
                     13                     14                     15
                      A                      A                      A
 Frequencies --    527.4356               565.8116               608.3138
 Red. masses --      3.3269                 3.2416                 3.1660
 Frc consts  --      0.5453                 0.6114                 0.6903
 IR Inten    --      0.8442                 3.4366                 1.4568
  Atom  AN      X      Y      Z        X      Y      Z        X      Y      Z
     1   8    -0.16   0.00  -0.00     0.09   0.13  -0.07     0.02   0.16   0.03
     2   6    -0.06  -0.09  -0.09     0.06   0.12   0.14     0.19  -0.08  -0.18
     3   6    -0.08  -0.08   0.04    -0.12  -0.02  -0.15    -0.04  -0.04   0.08
     4   6    -0.07   0.04   0.01    -0.10   0.05   0.03    -0.09   0.06   0.02
     5   6    -0.02  -0.04  -0.01    -0.12  -0.14  -0.07    -0.07  -0.03  -0.01
     6   6     0.18   0.08  -0.00     0.05  -0.07   0.01    -0.06  -0.04   0.02
     7   6     0.20   0.04   0.18     0.05  -0.02   0.04    -0.09  -0.03  -0.07
     8   6    -0.00  -0.03  -0.09     0.01   0.00  -0.03    -0.02   0.00   0.08
     9   6     0.07   0.06  -0.06     0.09  -0.04   0.11     0.17  -0.10  -0.00
    10   1    -0.12  -0.03   0.04    -0.25  -0.15  -0.14    -0.09   0.10   0.08
    11   1    -0.11   0.12   0.01     0.06  -0.01   0.03    -0.20   0.22   0.01
    12   1     0.05   0.02  -0.07    -0.07   0.08   0.10     0.12   0.02  -0.13
    13   1    -0.12   0.11   0.01    -0.19   0.13   0.11    -0.14   0.17  -0.03
    14   1    -0.17   0.01  -0.02    -0.05   0.01   0.20    -0.05  -0.14  -0.17
    15   1    -0.01  -0.04  -0.01    -0.29  -0.39  -0.01     0.02   0.15  -0.06
    16   1     0.08  -0.03   0.15     0.02  -0.04   0.04    -0.03  -0.02  -0.05
    17   1     0.28   0.04   0.32     0.07  -0.02   0.08    -0.08  -0.05  -0.10
    18   1     0.17   0.01   0.21     0.05  -0.02   0.05    -0.10  -0.05  -0.10
    19   1    -0.20  -0.05   0.14    -0.04   0.08   0.00     0.03   0.01   0.01
    20   1    -0.04  -0.10  -0.34    -0.03   0.05   0.03    -0.00   0.02   0.15
    21   1    -0.10  -0.10  -0.19     0.02   0.02  -0.18    -0.00   0.01   0.11
    22   1    -0.09   0.25  -0.03     0.35  -0.27   0.08    -0.17   0.24   0.04
    23   1     0.23   0.01   0.19    -0.16  -0.00  -0.19     0.46  -0.15   0.37
                     16                     17                     18
                      A                      A                      A
 Frequencies --    727.3293               782.9846               886.2387
 Red. masses --      3.4284                 3.1613                 1.9248
 Frc consts  --      1.0686                 1.1419                 0.8907
 IR Inten    --      3.8086                 0.3436                 3.6877
  Atom  AN      X      Y      Z        X      Y      Z        X      Y      Z
     1   8    -0.13  -0.09  -0.00    -0.05  -0.03  -0.02    -0.00   0.01   0.02
     2   6    -0.03  -0.16   0.02    -0.06   0.01   0.05     0.00   0.00  -0.13
     3   6     0.03   0.16  -0.14     0.00  -0.00  -0.01    -0.00  -0.05   0.03
     4   6    -0.09   0.08   0.01    -0.03   0.02   0.01     0.00  -0.02   0.03
     5   6     0.07   0.12   0.01     0.16  -0.19  -0.08     0.05  -0.10   0.01
     6   6    -0.01   0.03  -0.01     0.04   0.03  -0.04    -0.02   0.05   0.04
     7   6    -0.04  -0.00  -0.03    -0.08  -0.01  -0.07    -0.03   0.02  -0.01
     8   6     0.02   0.00  -0.04    -0.07   0.03   0.21     0.02  -0.01  -0.08
     9   6     0.17  -0.12   0.16     0.10   0.17  -0.08    -0.03   0.10   0.15
    10   1     0.04   0.28  -0.14    -0.12  -0.10  -0.00    -0.08   0.30   0.04
    11   1     0.01  -0.08   0.02    -0.12  -0.03   0.01    -0.20   0.17   0.02
    12   1    -0.34   0.12   0.17    -0.14   0.01   0.02     0.18  -0.09  -0.18
    13   1    -0.02  -0.04   0.06     0.06  -0.08  -0.06     0.00   0.04  -0.10
    14   1     0.26   0.15   0.15     0.24  -0.08   0.13    -0.01  -0.14  -0.08
    15   1     0.01   0.01   0.04     0.17  -0.41  -0.01     0.14  -0.02  -0.01
    16   1    -0.09  -0.06  -0.03    -0.12  -0.05  -0.08     0.01  -0.07   0.01
    17   1     0.02  -0.02   0.06    -0.03  -0.02  -0.02     0.09  -0.03   0.06
    18   1    -0.09  -0.05  -0.03    -0.12  -0.05  -0.10    -0.16  -0.08  -0.12
    19   1     0.05  -0.00  -0.08    -0.14   0.02   0.31     0.07   0.02  -0.14
    20   1     0.05  -0.01  -0.03    -0.09   0.01   0.13     0.03   0.02  -0.01
    21   1     0.02  -0.00   0.01    -0.10   0.01   0.19     0.05   0.02  -0.07
    22   1     0.39  -0.25   0.14     0.25   0.25  -0.08     0.05  -0.49   0.08
    23   1     0.36   0.02  -0.03     0.21   0.20  -0.04    -0.01   0.34  -0.39
                     19                     20                     21
                      A                      A                      A
 Frequencies --    905.2685               919.0926               936.8309
 Red. masses --      1.6812                 2.1271                 1.7422
 Frc consts  --      0.8117                 1.0586                 0.9009
 IR Inten    --      1.5945                 1.9275                 1.0559
  Atom  AN      X      Y      Z        X      Y      Z        X      Y      Z
     1   8    -0.01   0.01  -0.01     0.00   0.02   0.00     0.03   0.02  -0.00
     2   6    -0.02   0.02   0.00     0.06  -0.04  -0.01     0.02   0.01   0.03
     3   6    -0.04  -0.07  -0.05    -0.01  -0.12  -0.03     0.01  -0.03  -0.03
     4   6    -0.07  -0.02  -0.03    -0.10  -0.03   0.03    -0.06   0.03  -0.01
     5   6     0.03   0.01   0.13     0.16   0.15  -0.03     0.08  -0.11   0.04
     6   6     0.01  -0.06   0.04     0.04   0.03  -0.03    -0.05   0.11  -0.00
     7   6    -0.03  -0.05  -0.02    -0.01  -0.00  -0.03     0.01   0.07   0.01
     8   6     0.01  -0.02  -0.03    -0.00   0.00   0.04    -0.02   0.07  -0.04
     9   6     0.05   0.11  -0.02    -0.10  -0.04   0.02    -0.05  -0.10  -0.01
    10   1     0.29  -0.07  -0.06    -0.14  -0.24  -0.03     0.18  -0.12  -0.03
    11   1     0.35  -0.06  -0.03     0.00   0.17   0.02     0.14  -0.08  -0.00
    12   1     0.07   0.06   0.13     0.29  -0.03  -0.07    -0.12   0.08   0.14
    13   1    -0.33   0.22   0.27    -0.35   0.30   0.13    -0.12   0.05   0.13
    14   1     0.10  -0.24  -0.22     0.18   0.39   0.33     0.20  -0.26  -0.12
    15   1     0.13   0.39   0.02     0.06  -0.26   0.09     0.12   0.10  -0.03
    16   1    -0.07   0.08  -0.04    -0.12  -0.00  -0.07     0.07  -0.10   0.05
    17   1    -0.21   0.02  -0.14    -0.03   0.02   0.02     0.27  -0.04   0.18
    18   1     0.13   0.09   0.11     0.02   0.02   0.05    -0.24  -0.13  -0.17
    19   1     0.03  -0.00  -0.06    -0.05   0.03   0.10     0.08  -0.15  -0.09
    20   1     0.00   0.01   0.02    -0.04   0.02   0.02     0.18  -0.14  -0.28
    21   1     0.03   0.00  -0.05    -0.00   0.01  -0.02    -0.13  -0.05   0.38
    22   1     0.15   0.06  -0.03    -0.16  -0.14   0.01    -0.13   0.05   0.01
    23   1     0.07   0.15  -0.08    -0.14  -0.02  -0.04    -0.12  -0.18   0.12
                     22                     23                     24
                      A                      A                      A
 Frequencies --    959.5876               973.8559              1013.5256
 Red. masses --      1.4520                 1.7208                 1.2311
 Frc consts  --      0.7878                 0.9616                 0.7451
 IR Inten    --      0.3638                 4.9195                 1.3768
  Atom  AN      X      Y      Z        X      Y      Z        X      Y      Z
     1   8    -0.00   0.00  -0.00     0.00  -0.01   0.01    -0.00  -0.01  -0.00
     2   6     0.01  -0.01   0.03    -0.03   0.04  -0.04    -0.02   0.01   0.02
     3   6     0.01  -0.00  -0.00    -0.01   0.01  -0.00    -0.04   0.01  -0.05
     4   6    -0.01   0.01   0.00     0.01  -0.01  -0.01     0.03  -0.05   0.04
     5   6     0.02  -0.00  -0.01    -0.05  -0.00   0.04     0.01   0.01   0.03
     6   6     0.01   0.02   0.10     0.15   0.02  -0.03    -0.00  -0.01   0.00
     7   6    -0.11  -0.01   0.03    -0.05   0.00  -0.10     0.00  -0.05   0.01
     8   6     0.10   0.00  -0.06     0.07   0.04   0.09    -0.00   0.08  -0.01
     9   6    -0.00   0.01  -0.03    -0.00  -0.06   0.05     0.02  -0.01  -0.00
    10   1    -0.06  -0.13  -0.00     0.12   0.22  -0.00    -0.31   0.22  -0.04
    11   1    -0.02  -0.02   0.01     0.08  -0.01  -0.01    -0.23   0.19   0.02
    12   1    -0.05   0.01   0.02     0.03  -0.00   0.00     0.26  -0.13  -0.23
    13   1     0.02  -0.02  -0.01    -0.03   0.02   0.03     0.03   0.05  -0.14
    14   1     0.11   0.02   0.08    -0.30  -0.04  -0.16     0.22  -0.08   0.00
    15   1    -0.09  -0.04  -0.01     0.10   0.15   0.00    -0.13   0.11  -0.02
    16   1     0.42   0.08   0.19    -0.28  -0.10  -0.16    -0.00   0.10  -0.01
    17   1    -0.17  -0.10  -0.35     0.06   0.00   0.11    -0.19   0.02  -0.13
    18   1    -0.14  -0.02  -0.34    -0.12  -0.06  -0.00     0.18   0.09   0.11
    19   1    -0.21   0.02   0.29    -0.28   0.02   0.50     0.02  -0.15   0.03
    20   1    -0.03  -0.03  -0.36    -0.05  -0.03  -0.28     0.16  -0.13  -0.30
    21   1    -0.03  -0.09  -0.33    -0.10  -0.09  -0.15    -0.13  -0.06   0.33
    22   1    -0.10   0.03  -0.02     0.07  -0.07   0.05     0.24   0.13   0.01
    23   1     0.09   0.01   0.05    -0.29  -0.15   0.01    -0.13  -0.09   0.05
                     25                     26                     27
                      A                      A                      A
 Frequencies --   1043.7919              1076.7542              1104.1816
 Red. masses --      1.6150                 1.3920                 2.0501
 Frc consts  --      1.0367                 0.9509                 1.4727
 IR Inten    --      4.8392                 2.1083                12.5016
  Atom  AN      X      Y      Z        X      Y      Z        X      Y      Z
     1   8     0.00  -0.02  -0.00    -0.00   0.01   0.00    -0.02   0.01  -0.01
     2   6    -0.06   0.06   0.02     0.03  -0.04  -0.02     0.09  -0.10   0.07
     3   6    -0.08   0.05  -0.00     0.05   0.01   0.01     0.12  -0.05  -0.11
     4   6     0.03  -0.11  -0.02    -0.04  -0.01  -0.01    -0.05   0.05   0.10
     5   6     0.02   0.03   0.02    -0.01  -0.01  -0.05    -0.04  -0.00   0.07
     6   6    -0.03  -0.03  -0.02    -0.05  -0.00  -0.10     0.00   0.00  -0.01
     7   6    -0.01   0.09   0.03     0.00  -0.02   0.10     0.00   0.05  -0.01
     8   6     0.00  -0.06   0.01    -0.02   0.02   0.03     0.01  -0.07   0.01
     9   6     0.06  -0.04  -0.03    -0.03   0.00   0.02    -0.06   0.06  -0.07
    10   1    -0.11   0.21  -0.00     0.31   0.33   0.01     0.06   0.19  -0.10
    11   1     0.12   0.11  -0.04     0.10   0.03  -0.01    -0.40   0.18   0.09
    12   1     0.40  -0.11  -0.14     0.05   0.02   0.03    -0.07  -0.03  -0.11
    13   1    -0.16   0.17   0.02    -0.14   0.09   0.09     0.06   0.00  -0.13
    14   1     0.20  -0.03   0.03    -0.33   0.10  -0.04     0.11  -0.17  -0.10
    15   1     0.18   0.01   0.04     0.32  -0.18   0.03    -0.21   0.24  -0.03
    16   1     0.18  -0.12   0.12     0.35   0.12   0.19    -0.01  -0.08   0.00
    17   1     0.29  -0.06   0.13    -0.12  -0.04  -0.21     0.16  -0.01   0.11
    18   1    -0.29  -0.15  -0.24     0.10   0.07  -0.09    -0.14  -0.07  -0.08
    19   1    -0.01   0.10  -0.02    -0.02  -0.02   0.05    -0.03   0.11   0.01
    20   1    -0.11   0.08   0.22    -0.00  -0.01  -0.02    -0.12   0.09   0.21
    21   1     0.09   0.04  -0.21    -0.05  -0.01   0.08     0.10   0.03  -0.24
    22   1     0.13   0.16  -0.01     0.37   0.09   0.02     0.21   0.20  -0.06
    23   1     0.01  -0.13   0.11    -0.20  -0.03  -0.04    -0.38  -0.08  -0.00
                     28                     29                     30
                      A                      A                      A
 Frequencies --   1156.6339              1169.5695              1194.4169
 Red. masses --      2.7699                 1.7221                 1.7765
 Frc consts  --      2.1833                 1.3879                 1.4933
 IR Inten    --     38.1764                 3.2017                 0.7149
  Atom  AN      X      Y      Z        X      Y      Z        X      Y      Z
     1   8     0.01  -0.05   0.01     0.00  -0.01  -0.01    -0.02  -0.01   0.01
     2   6    -0.17   0.19  -0.06     0.01  -0.02   0.11     0.01  -0.03  -0.09
     3   6     0.19  -0.08  -0.03     0.09   0.11  -0.01     0.08   0.06   0.12
     4   6    -0.08   0.01   0.10    -0.06  -0.07   0.02    -0.03  -0.02  -0.03
     5   6     0.02   0.02  -0.03    -0.06  -0.06  -0.06    -0.08   0.02  -0.07
     6   6     0.07  -0.03   0.05    -0.03   0.02   0.04    -0.01  -0.11   0.02
     7   6    -0.05   0.01   0.01     0.04  -0.02  -0.04     0.01   0.04  -0.01
     8   6    -0.06   0.00  -0.03     0.03   0.01  -0.01     0.01   0.04  -0.00
     9   6     0.10  -0.06   0.00    -0.05   0.00  -0.04     0.02   0.07   0.02
    10   1     0.34  -0.21  -0.04     0.29   0.29  -0.01     0.14  -0.25   0.11
    11   1    -0.28   0.20   0.08     0.03   0.20   0.01     0.16  -0.00  -0.03
    12   1     0.08  -0.05  -0.09     0.31  -0.07  -0.07     0.09   0.04   0.08
    13   1    -0.09   0.09  -0.04    -0.25   0.22   0.05    -0.14   0.08   0.11
    14   1    -0.43   0.18  -0.03     0.01  -0.06  -0.01     0.50  -0.05   0.15
    15   1    -0.32  -0.01  -0.06    -0.05  -0.11  -0.05    -0.40  -0.06  -0.07
    16   1     0.09  -0.02   0.05    -0.18  -0.00  -0.10    -0.04  -0.09  -0.01
    17   1    -0.02  -0.04  -0.08    -0.02   0.05   0.08     0.15  -0.01   0.11
    18   1    -0.11  -0.04  -0.13     0.09   0.02   0.15    -0.10  -0.06  -0.01
    19   1     0.12  -0.06  -0.21    -0.05  -0.00   0.09    -0.02  -0.07   0.06
    20   1     0.07  -0.02   0.10     0.00  -0.01  -0.12     0.06  -0.05  -0.16
    21   1     0.01   0.04   0.15    -0.02  -0.03  -0.07    -0.08  -0.04   0.07
    22   1     0.04   0.06   0.02    -0.35  -0.08  -0.04     0.26   0.05   0.01
    23   1     0.09  -0.10   0.09     0.46   0.16   0.04    -0.34  -0.01  -0.10
                     31                     32                     33
                      A                      A                      A
 Frequencies --   1223.8022              1267.7947              1284.9725
 Red. masses --      1.8931                 2.0627                 1.5482
 Frc consts  --      1.6705                 1.9534                 1.5061
 IR Inten    --     16.7680                 6.7984                 3.8634
  Atom  AN      X      Y      Z        X      Y      Z        X      Y      Z
     1   8    -0.03  -0.01  -0.01     0.01  -0.01   0.01     0.01   0.02  -0.00
     2   6     0.05  -0.07   0.06    -0.02   0.03  -0.04     0.02  -0.02   0.02
     3   6    -0.02   0.06   0.02     0.02   0.02   0.08     0.00  -0.02   0.03
     4   6    -0.00  -0.03  -0.04    -0.02  -0.01  -0.05    -0.00   0.01  -0.05
     5   6    -0.01  -0.02  -0.03     0.05  -0.07  -0.03     0.07   0.01  -0.00
     6   6     0.18   0.02   0.07    -0.02   0.22   0.07     0.03  -0.11   0.08
     7   6    -0.07  -0.01   0.00     0.01  -0.07  -0.02    -0.01   0.05  -0.03
     8   6    -0.08  -0.00  -0.04     0.01  -0.09  -0.01    -0.01   0.03  -0.02
     9   6     0.07   0.05  -0.02    -0.02  -0.08  -0.01    -0.11  -0.00  -0.04
    10   1    -0.07   0.29   0.03    -0.09   0.15   0.08    -0.32   0.34   0.04
    11   1     0.14  -0.01  -0.04     0.18  -0.05  -0.04     0.13  -0.09  -0.04
    12   1     0.07   0.01   0.04     0.05   0.04   0.08    -0.07   0.06   0.09
    13   1    -0.08   0.05   0.06    -0.09   0.02   0.10    -0.04  -0.01   0.09
    14   1    -0.11   0.06   0.02     0.07  -0.03   0.04    -0.39   0.16  -0.02
    15   1    -0.07  -0.03  -0.03    -0.42   0.03  -0.10    -0.26   0.04  -0.04
    16   1     0.04   0.00   0.03    -0.13   0.16  -0.09    -0.05  -0.12  -0.02
    17   1    -0.10  -0.05  -0.17    -0.23   0.07  -0.04     0.12  -0.00   0.08
    18   1    -0.10  -0.03  -0.17     0.17   0.07   0.10    -0.15  -0.08  -0.04
    19   1     0.15  -0.05  -0.28     0.01   0.19  -0.10     0.04  -0.09  -0.05
    20   1     0.11  -0.02   0.20    -0.13   0.08   0.18     0.09  -0.05  -0.05
    21   1     0.06   0.09   0.26     0.16   0.07  -0.22    -0.02   0.00   0.10
    22   1    -0.44  -0.14  -0.04     0.41   0.21   0.02     0.40   0.17  -0.02
    23   1    -0.46  -0.16   0.02    -0.18  -0.17   0.07     0.35   0.13   0.03
                     34                     35                     36
                      A                      A                      A
 Frequencies --   1301.6863              1336.5995              1339.0364
 Red. masses --      1.9749                 1.6738                 1.6042
 Frc consts  --      1.9715                 1.7618                 1.6947
 IR Inten    --      4.6019                11.0990                 0.6242
  Atom  AN      X      Y      Z        X      Y      Z        X      Y      Z
     1   8     0.00   0.00  -0.01     0.00  -0.01  -0.00     0.02   0.01  -0.00
     2   6    -0.02   0.02   0.02    -0.03   0.04   0.03    -0.02   0.03   0.01
     3   6    -0.06  -0.14   0.01     0.09  -0.10   0.03    -0.07  -0.08   0.03
     4   6     0.02   0.04   0.01    -0.02   0.02  -0.05     0.02   0.03   0.01
     5   6     0.01   0.05  -0.08     0.03   0.01   0.02    -0.05   0.03  -0.03
     6   6    -0.11  -0.02   0.16    -0.08  -0.02  -0.13     0.13   0.01  -0.08
     7   6     0.04   0.00  -0.05     0.01   0.00   0.03    -0.04  -0.00   0.02
     8   6     0.03   0.02  -0.03     0.03   0.00   0.02    -0.04  -0.00   0.02
     9   6     0.08   0.02  -0.04     0.08   0.01   0.02    -0.08  -0.03   0.01
    10   1     0.41   0.53   0.00    -0.39   0.49   0.05     0.48   0.33   0.02
    11   1    -0.07  -0.10   0.01     0.09  -0.09  -0.04    -0.06  -0.08   0.02
    12   1    -0.13   0.01  -0.02    -0.09   0.08   0.12    -0.04  -0.01  -0.04
    13   1     0.11  -0.10  -0.00    -0.06  -0.03   0.14     0.09  -0.08  -0.00
    14   1     0.11   0.15   0.12     0.07  -0.04  -0.03     0.52  -0.08   0.11
    15   1     0.25  -0.24   0.04    -0.41   0.09  -0.05    -0.24   0.04  -0.05
    16   1    -0.16  -0.06  -0.09     0.09   0.02   0.05     0.08   0.03   0.05
    17   1     0.00   0.07   0.13     0.05  -0.02   0.00     0.02  -0.07  -0.09
    18   1    -0.03  -0.06   0.14     0.06   0.04   0.01     0.02   0.05  -0.12
    19   1     0.03  -0.05  -0.02    -0.10   0.03   0.17     0.03  -0.00  -0.05
    20   1     0.03  -0.03  -0.15    -0.07   0.05   0.01     0.04  -0.02   0.09
    21   1    -0.04  -0.03  -0.09    -0.04  -0.05   0.03     0.04   0.05   0.05
    22   1    -0.04   0.10  -0.02    -0.43  -0.14   0.00     0.09  -0.06   0.01
    23   1    -0.28  -0.15   0.04    -0.04   0.00  -0.05     0.37   0.12   0.03
                     37                     38                     39
                      A                      A                      A
 Frequencies --   1374.5698              1431.0370              1433.8755
 Red. masses --      1.6605                 1.2367                 1.2328
 Frc consts  --      1.8485                 1.4921                 1.4934
 IR Inten    --      2.0374                 4.6251                 4.1659
  Atom  AN      X      Y      Z        X      Y      Z        X      Y      Z
     1   8     0.01  -0.01   0.00    -0.00  -0.00  -0.00    -0.01  -0.00  -0.00
     2   6    -0.03   0.04  -0.01     0.01  -0.00   0.00     0.01  -0.00   0.01
     3   6     0.14  -0.06  -0.00    -0.01   0.00  -0.00     0.00  -0.00  -0.01
     4   6    -0.04   0.02  -0.03    -0.05   0.03   0.02    -0.10   0.05   0.04
     5   6    -0.14   0.03  -0.00     0.00  -0.00  -0.01     0.01  -0.00   0.01
     6   6     0.06   0.03   0.05     0.00   0.00   0.02    -0.01  -0.01  -0.02
     7   6    -0.02  -0.01  -0.01    -0.07  -0.01  -0.06     0.04   0.01   0.03
     8   6    -0.02  -0.01  -0.00     0.03  -0.01  -0.09    -0.01   0.01   0.04
     9   6    -0.03  -0.02  -0.01    -0.00   0.00  -0.01     0.00   0.00   0.00
    10   1    -0.54   0.09   0.02     0.05  -0.02  -0.01    -0.00   0.00  -0.01
    11   1     0.11  -0.05  -0.02     0.22  -0.09   0.02     0.43  -0.19   0.04
    12   1    -0.01   0.07   0.08     0.24  -0.01  -0.12     0.47   0.00  -0.21
    13   1    -0.01  -0.05   0.06     0.15  -0.19  -0.13     0.29  -0.39  -0.22
    14   1     0.32  -0.13   0.01    -0.02   0.03   0.02    -0.04   0.02   0.01
    15   1     0.62  -0.16   0.12     0.02   0.01  -0.01    -0.04   0.04  -0.01
    16   1     0.01   0.01  -0.01     0.34   0.04   0.08    -0.19  -0.03  -0.04
    17   1    -0.01  -0.01  -0.00     0.21  -0.06   0.28    -0.12   0.03  -0.16
    18   1     0.02   0.02   0.03     0.18   0.17   0.25    -0.11  -0.10  -0.14
    19   1     0.05   0.00  -0.09    -0.25   0.01   0.25     0.11  -0.01  -0.10
    20   1     0.07  -0.05   0.00    -0.05   0.18   0.32     0.02  -0.07  -0.14
    21   1     0.07   0.06  -0.01    -0.03  -0.08   0.35     0.00   0.03  -0.16
    22   1     0.12   0.02  -0.01     0.03  -0.01  -0.01    -0.03  -0.01   0.00
    23   1     0.12   0.00   0.06    -0.01  -0.02   0.03    -0.00   0.01  -0.01
                     40                     41                     42
                      A                      A                      A
 Frequencies --   1450.3435              1476.5788              1514.4365
 Red. masses --      1.2172                 1.0918                 1.0578
 Frc consts  --      1.5085                 1.4026                 1.4293
 IR Inten    --      2.6698                 7.6810                 0.4954
  Atom  AN      X      Y      Z        X      Y      Z        X      Y      Z
     1   8     0.00   0.00   0.00     0.00   0.00  -0.00    -0.00  -0.00  -0.00
     2   6    -0.01   0.01  -0.01    -0.00   0.00  -0.01     0.00  -0.00   0.00
     3   6     0.01  -0.01  -0.00    -0.00   0.00   0.00    -0.01   0.00  -0.00
     4   6     0.01  -0.00  -0.00     0.00  -0.00  -0.00    -0.00   0.00  -0.00
     5   6    -0.02   0.00  -0.00     0.01   0.01   0.01     0.01   0.04   0.02
     6   6    -0.01   0.00   0.00    -0.02   0.00  -0.01    -0.00  -0.00  -0.01
     7   6     0.08   0.02   0.06    -0.01  -0.00  -0.01     0.02  -0.03  -0.01
     8   6     0.04  -0.01  -0.09     0.00   0.01   0.02    -0.02   0.02  -0.02
     9   6    -0.01   0.01  -0.01    -0.01   0.07  -0.04    -0.00  -0.00   0.00
    10   1     0.01  -0.01  -0.00     0.00  -0.01   0.00     0.01  -0.01  -0.00
    11   1    -0.03   0.00  -0.00    -0.00  -0.00  -0.00    -0.03   0.01  -0.00
    12   1    -0.04  -0.00   0.01     0.00   0.00   0.00     0.05   0.02   0.03
    13   1    -0.02   0.02   0.01    -0.00  -0.00   0.01     0.02  -0.05   0.04
    14   1     0.05   0.01   0.04    -0.02  -0.05  -0.09     0.00  -0.17  -0.27
    15   1     0.08   0.02   0.00    -0.07  -0.09   0.02    -0.10  -0.29   0.10
    16   1    -0.37  -0.05  -0.09     0.04   0.02   0.01     0.06   0.41  -0.04
    17   1    -0.25   0.09  -0.29     0.08  -0.04   0.05    -0.17   0.20   0.32
    18   1    -0.22  -0.21  -0.24     0.07   0.06   0.01    -0.14  -0.14  -0.17
    19   1    -0.26   0.01   0.27     0.09  -0.04  -0.07    -0.08  -0.34   0.17
    20   1    -0.10   0.22   0.33    -0.03  -0.01  -0.07     0.33  -0.09   0.24
    21   1    -0.07  -0.12   0.37    -0.05  -0.03  -0.11     0.05   0.08  -0.19
    22   1     0.09  -0.14  -0.02     0.20  -0.63  -0.10    -0.01   0.02   0.00
    23   1     0.04  -0.05   0.16     0.02  -0.24   0.64     0.00   0.01  -0.03
                     43                     44                     45
                      A                      A                      A
 Frequencies --   1517.0815              1525.6542              1528.8540
 Red. masses --      1.0571                 1.0523                 1.0497
 Frc consts  --      1.4334                 1.4432                 1.4455
 IR Inten    --      1.4772                 3.2866                 4.1510
  Atom  AN      X      Y      Z        X      Y      Z        X      Y      Z
     1   8     0.00   0.00  -0.00    -0.00   0.00  -0.00    -0.00  -0.00  -0.00
     2   6     0.00  -0.00  -0.00     0.00  -0.00   0.00     0.01  -0.00   0.00
     3   6    -0.01   0.00  -0.00    -0.02  -0.00  -0.01     0.01   0.03  -0.01
     4   6    -0.00  -0.00  -0.00    -0.01  -0.02  -0.04     0.01   0.04  -0.02
     5   6     0.01   0.04   0.01     0.01   0.02   0.01    -0.00   0.00   0.00
     6   6    -0.00   0.00  -0.01     0.01   0.00   0.01     0.00   0.00   0.01
     7   6     0.01   0.03  -0.02    -0.01   0.00   0.01    -0.00   0.00   0.00
     8   6    -0.02  -0.03  -0.01     0.02   0.00  -0.00     0.01  -0.00   0.00
     9   6    -0.00   0.00   0.00    -0.00  -0.01   0.00    -0.00  -0.00   0.00
    10   1     0.04  -0.01  -0.00     0.04  -0.01  -0.02    -0.00  -0.04  -0.01
    11   1    -0.03   0.03  -0.00    -0.18   0.43  -0.05    -0.42  -0.50   0.02
    12   1     0.05   0.02   0.04     0.29   0.23   0.51     0.29  -0.04  -0.26
    13   1     0.02  -0.05   0.02     0.16  -0.35   0.14    -0.09  -0.15   0.60
    14   1     0.01  -0.17  -0.29    -0.00  -0.08  -0.14    -0.03  -0.03  -0.06
    15   1    -0.12  -0.30   0.09    -0.03  -0.16   0.05     0.00  -0.06   0.02
    16   1     0.16  -0.35   0.08    -0.11  -0.03  -0.02    -0.02  -0.01  -0.00
    17   1    -0.18   0.08  -0.17     0.13  -0.11  -0.08     0.03  -0.03  -0.02
    18   1    -0.16  -0.14   0.37     0.11   0.10  -0.09     0.03   0.03  -0.01
    19   1    -0.16   0.32   0.07     0.07  -0.01  -0.06     0.03   0.01  -0.04
    20   1     0.10  -0.13  -0.14    -0.15   0.09   0.00    -0.07   0.04  -0.01
    21   1     0.30   0.23   0.17    -0.13  -0.12   0.02    -0.05  -0.05   0.02
    22   1     0.00  -0.03   0.00    -0.00   0.06   0.01    -0.00   0.03   0.00
    23   1     0.01  -0.01   0.02    -0.00   0.02  -0.05    -0.01   0.01  -0.02
                     46                     47                     48
                      A                      A                      A
 Frequencies --   1530.9071              1535.9416              1537.7613
 Red. masses --      1.0673                 1.0564                 1.0537
 Frc consts  --      1.4738                 1.4683                 1.4681
 IR Inten    --      9.3388                 3.5669                 5.7232
  Atom  AN      X      Y      Z        X      Y      Z        X      Y      Z
     1   8     0.00   0.00  -0.00     0.00   0.00   0.00     0.00   0.00  -0.00
     2   6    -0.00   0.00  -0.00    -0.00   0.00  -0.00    -0.00  -0.00   0.00
     3   6    -0.00  -0.00  -0.01     0.00   0.00  -0.00    -0.00  -0.00  -0.00
     4   6    -0.00  -0.00  -0.02     0.00   0.00  -0.00    -0.00   0.00  -0.00
     5   6    -0.01  -0.05  -0.01     0.01  -0.01  -0.00    -0.00  -0.00  -0.00
     6   6    -0.00  -0.00  -0.02    -0.04   0.01   0.01    -0.01  -0.04   0.01
     7   6     0.02   0.00  -0.02    -0.01   0.01   0.03     0.00  -0.03   0.01
     8   6    -0.02   0.00   0.01    -0.03   0.01  -0.02    -0.01  -0.04  -0.00
     9   6     0.00   0.01  -0.00     0.01   0.00  -0.00     0.00   0.01  -0.00
    10   1     0.02  -0.01  -0.01     0.01  -0.02  -0.00     0.02  -0.01  -0.01
    11   1    -0.17   0.13  -0.02    -0.04  -0.00  -0.00    -0.04   0.03  -0.00
    12   1     0.17   0.11   0.22     0.04   0.01   0.02     0.04   0.02   0.04
    13   1     0.05  -0.19   0.18     0.00  -0.03   0.05     0.02  -0.04   0.04
    14   1    -0.00   0.23   0.38    -0.03   0.05   0.08    -0.03   0.05   0.06
    15   1     0.12   0.43  -0.14     0.03   0.08  -0.03     0.04   0.06  -0.02
    16   1     0.22  -0.00   0.05    -0.23  -0.20  -0.03    -0.12   0.41  -0.08
    17   1    -0.24   0.19   0.11     0.28  -0.25  -0.25     0.09   0.01   0.26
    18   1    -0.21  -0.19   0.21     0.25   0.22  -0.08     0.06   0.05  -0.36
    19   1    -0.04  -0.06   0.06    -0.19  -0.17   0.24    -0.14   0.49   0.01
    20   1     0.15  -0.09   0.03     0.45  -0.20   0.16    -0.02  -0.12  -0.28
    21   1     0.09   0.09  -0.08     0.27   0.25  -0.14     0.31   0.22   0.28
    22   1     0.01  -0.10  -0.01     0.01  -0.02  -0.00    -0.00  -0.03  -0.01
    23   1     0.01  -0.03   0.09    -0.03  -0.02   0.02     0.01  -0.00   0.03
                     49                     50                     51
                      A                      A                      A
 Frequencies --   1837.8848              3009.2811              3030.4630
 Red. masses --     12.5900                 1.0809                 1.0657
 Frc consts  --     25.0560                 5.7672                 5.7662
 IR Inten    --    196.1488                 3.8964                16.6645
  Atom  AN      X      Y      Z        X      Y      Z        X      Y      Z
     1   8    -0.40  -0.35   0.00    -0.00   0.00   0.00    -0.00  -0.00  -0.00
     2   6     0.62   0.53  -0.00     0.00   0.00  -0.00    -0.00   0.00   0.00
     3   6    -0.03  -0.03   0.00    -0.00   0.00  -0.08     0.00   0.00  -0.01
     4   6     0.02   0.00  -0.00     0.00  -0.00   0.01    -0.00   0.00   0.00
     5   6    -0.01  -0.02   0.00    -0.00   0.00   0.02    -0.00  -0.04  -0.04
     6   6    -0.02  -0.01  -0.01     0.00  -0.00   0.00    -0.00   0.00  -0.00
     7   6     0.00   0.00   0.00    -0.00   0.00  -0.00     0.01   0.00   0.01
     8   6     0.00   0.00   0.00     0.00   0.00   0.01     0.00   0.00   0.00
     9   6    -0.04  -0.03  -0.00    -0.00   0.00  -0.00     0.01  -0.02   0.04
    10   1     0.01   0.01  -0.00     0.02  -0.01   0.97     0.00  -0.00   0.15
    11   1    -0.02   0.04  -0.02    -0.00  -0.00  -0.07    -0.00  -0.00  -0.06
    12   1    -0.11   0.01   0.05    -0.00   0.03  -0.01     0.00  -0.03   0.01
    13   1    -0.01   0.07  -0.01    -0.01  -0.01  -0.00     0.02   0.01   0.01
    14   1    -0.01  -0.02   0.01    -0.00   0.01  -0.00     0.08   0.22  -0.17
    15   1     0.02   0.02  -0.01     0.02  -0.06  -0.20    -0.06   0.20   0.67
    16   1    -0.00  -0.00   0.00    -0.00   0.00   0.00     0.03  -0.01  -0.09
    17   1    -0.01   0.00   0.00     0.00   0.00  -0.00    -0.05  -0.08   0.03
    18   1     0.00  -0.00   0.00     0.00  -0.00  -0.00    -0.05   0.06   0.01
    19   1    -0.01   0.01   0.01    -0.06  -0.01  -0.05    -0.03  -0.01  -0.02
    20   1     0.00  -0.01  -0.01     0.02   0.03  -0.01     0.01   0.02  -0.01
    21   1     0.01   0.00   0.00     0.03  -0.03   0.00     0.02  -0.02  -0.00
    22   1     0.04  -0.00   0.00    -0.00  -0.00   0.01    -0.00   0.05  -0.58
    23   1     0.14   0.03   0.03     0.00  -0.01  -0.00    -0.05   0.15   0.08
                     52                     53                     54
                      A                      A                      A
 Frequencies --   3032.2988              3036.2482              3043.5401
 Red. masses --      1.0545                 1.0443                 1.0398
 Frc consts  --      5.7125                 5.6722                 5.6751
 IR Inten    --     12.6223                50.5166                13.9588
  Atom  AN      X      Y      Z        X      Y      Z        X      Y      Z
     1   8     0.00   0.00   0.00    -0.00  -0.00   0.00    -0.00  -0.00  -0.00
     2   6     0.00   0.00  -0.00     0.00   0.00  -0.00     0.00  -0.00  -0.00
     3   6     0.00  -0.00  -0.01    -0.00   0.00  -0.01     0.00   0.00   0.00
     4   6    -0.00   0.00   0.00    -0.00   0.00   0.00    -0.00   0.00   0.00
     5   6    -0.00  -0.02  -0.02    -0.00  -0.02  -0.02     0.00  -0.01  -0.01
     6   6    -0.00  -0.00  -0.00     0.00  -0.00   0.00     0.00  -0.00  -0.00
     7   6     0.02   0.01   0.02    -0.03  -0.01  -0.02    -0.02  -0.00  -0.01
     8   6     0.00   0.00   0.00     0.01  -0.00  -0.02    -0.02   0.00   0.04
     9   6    -0.01   0.02  -0.04    -0.00   0.01  -0.02    -0.00   0.01  -0.02
    10   1     0.00  -0.00   0.07     0.00  -0.00   0.11     0.00  -0.00  -0.03
    11   1    -0.00  -0.00  -0.04    -0.00  -0.00  -0.07    -0.00  -0.00  -0.04
    12   1     0.00  -0.02   0.01     0.00  -0.03   0.01     0.00  -0.03   0.01
    13   1     0.01   0.01   0.01     0.02   0.01   0.01     0.02   0.02   0.01
    14   1     0.04   0.12  -0.09     0.05   0.13  -0.10     0.01   0.04  -0.03
    15   1    -0.03   0.10   0.34    -0.03   0.10   0.35    -0.02   0.06   0.21
    16   1     0.13  -0.04  -0.35    -0.11   0.04   0.33    -0.07   0.03   0.22
    17   1    -0.17  -0.30   0.10     0.19   0.33  -0.11     0.12   0.20  -0.07
    18   1    -0.22   0.27   0.02     0.24  -0.29  -0.02     0.15  -0.18  -0.01
    19   1    -0.00  -0.00  -0.00     0.21   0.05   0.17    -0.36  -0.08  -0.30
    20   1     0.00  -0.00  -0.00    -0.15  -0.27   0.09     0.24   0.42  -0.15
    21   1     0.00  -0.00  -0.00    -0.20   0.24   0.01     0.31  -0.38  -0.02
    22   1     0.01  -0.06   0.63     0.00  -0.03   0.32     0.00  -0.02   0.23
    23   1     0.06  -0.17  -0.09     0.03  -0.09  -0.05     0.01  -0.04  -0.02
                     55                     56                     57
                      A                      A                      A
 Frequencies --   3052.2795              3089.5564              3099.9667
 Red. masses --      1.0365                 1.0990                 1.1015
 Frc consts  --      5.6895                 6.1806                 6.2364
 IR Inten    --     33.3894                16.2613                12.4263
  Atom  AN      X      Y      Z        X      Y      Z        X      Y      Z
     1   8    -0.00  -0.00   0.00    -0.00  -0.00  -0.00    -0.00   0.00   0.00
     2   6     0.00   0.00  -0.00     0.00   0.00   0.00     0.00  -0.00  -0.00
     3   6    -0.00  -0.00  -0.00     0.00  -0.00   0.01    -0.00  -0.00  -0.00
     4   6     0.03  -0.03  -0.03    -0.00   0.00  -0.01     0.00   0.00  -0.00
     5   6    -0.00  -0.01  -0.01    -0.02  -0.05   0.07     0.00   0.00   0.00
     6   6     0.00   0.00  -0.00    -0.00  -0.00   0.00    -0.00  -0.00   0.00
     7   6    -0.00  -0.00  -0.00     0.01  -0.00  -0.01    -0.01  -0.07   0.04
     8   6     0.00   0.00   0.00    -0.00   0.01  -0.00    -0.00   0.03  -0.00
     9   6    -0.00   0.00  -0.00     0.00  -0.00  -0.00     0.01  -0.02  -0.02
    10   1     0.00  -0.00   0.04    -0.01   0.00  -0.09     0.00   0.00  -0.00
    11   1     0.01   0.03   0.67     0.00   0.00   0.06    -0.00   0.00   0.00
    12   1    -0.04   0.52  -0.21     0.00  -0.04   0.02     0.00  -0.00   0.00
    13   1    -0.36  -0.25  -0.13     0.02   0.01   0.00    -0.00  -0.00  -0.00
    14   1     0.01   0.03  -0.02     0.26   0.72  -0.49    -0.00  -0.00   0.00
    15   1    -0.01   0.03   0.10     0.03  -0.11  -0.32    -0.00  -0.00  -0.00
    16   1    -0.01   0.00   0.02    -0.04   0.01   0.12     0.09  -0.05  -0.25
    17   1     0.01   0.02  -0.01    -0.03  -0.05   0.01     0.34   0.57  -0.19
    18   1     0.02  -0.02  -0.00    -0.03   0.04  -0.00    -0.30   0.34   0.02
    19   1    -0.01  -0.00  -0.01    -0.01  -0.00  -0.01    -0.02   0.00  -0.02
    20   1     0.00   0.01  -0.00    -0.03  -0.05   0.02    -0.13  -0.22   0.08
    21   1     0.01  -0.01  -0.00     0.07  -0.08  -0.01     0.16  -0.18  -0.01
    22   1     0.00  -0.00   0.03     0.00  -0.00   0.01     0.01  -0.01   0.07
    23   1     0.00  -0.01  -0.00    -0.01   0.03   0.01    -0.10   0.27   0.12
                     58                     59                     60
                      A                      A                      A
 Frequencies --   3102.5198              3104.9998              3108.4937
 Red. masses --      1.0982                 1.1001                 1.1014
 Frc consts  --      6.2284                 6.2492                 6.2705
 IR Inten    --      1.8589                34.2235                43.5549
  Atom  AN      X      Y      Z        X      Y      Z        X      Y      Z
     1   8     0.00   0.00   0.00     0.00   0.00   0.00     0.00  -0.00   0.00
     2   6    -0.00  -0.00  -0.00    -0.00  -0.00  -0.00     0.00   0.00  -0.00
     3   6     0.00   0.00   0.00    -0.00   0.00  -0.00    -0.00   0.00  -0.00
     4   6    -0.00   0.00  -0.00     0.00  -0.00   0.01     0.00  -0.00   0.00
     5   6    -0.00  -0.00   0.00     0.00   0.01  -0.01     0.00  -0.00  -0.00
     6   6     0.00   0.00   0.00     0.00   0.00  -0.00    -0.00   0.00   0.00
     7   6    -0.03   0.05   0.03     0.04  -0.00  -0.06    -0.02   0.02   0.02
     8   6     0.01   0.00   0.00    -0.02   0.02  -0.01    -0.08   0.02  -0.03
     9   6     0.02  -0.05  -0.04     0.01  -0.04  -0.03    -0.00   0.01   0.01
    10   1    -0.00   0.00  -0.01     0.00   0.00   0.02     0.00  -0.00   0.03
    11   1     0.00   0.00   0.00    -0.00  -0.00  -0.04    -0.00  -0.00  -0.03
    12   1     0.00  -0.01   0.00    -0.00   0.04  -0.01    -0.00   0.03  -0.01
    13   1    -0.00   0.00  -0.00    -0.01  -0.01  -0.00    -0.01  -0.01  -0.00
    14   1     0.01   0.03  -0.02    -0.04  -0.11   0.07     0.00  -0.00  -0.00
    15   1     0.00  -0.01  -0.03    -0.01   0.02   0.07     0.00  -0.00   0.00
    16   1     0.12  -0.03  -0.36    -0.19   0.07   0.59     0.06  -0.02  -0.18
    17   1    -0.08  -0.11   0.05    -0.15  -0.27   0.08    -0.01  -0.01   0.01
[...]
 08,0.05582157,-0.02215802,-0.01567251,0.01131451,-0.00113487,0.0003394
 9,-0.00023774,-0.00087943,0.00152138,0.00172695,0.00092563,-0.00438382
 ,-0.00336209,-0.00099928,0.00058846,-0.00032499,0.00007023,-0.00000839
 ,0.00003800,-0.00012401,-0.00016973,0.00001711,-0.00005608,-0.00018086
 ,0.00013023,0.11987547,0.14377450,-0.00059216,-0.00042393,0.00005895,-
 0.00264315,-0.00024662,-0.00010226,-0.00638435,-0.00483952,0.00216055,
 0.00025830,0.00004729,-0.00021161,0.07287078,0.05751691,-0.08594438,-0
 .00971461,-0.00778494,0.00355336,0.00005941,0.00040980,-0.00035752,-0.
 00094108,-0.00053160,0.00081531,-0.00027174,-0.00216807,-0.00085838,0.
 00010755,-0.00073459,0.00098519,-0.00008517,0.00013931,0.00019112,0.00
 013244,-0.00016408,0.00011299,-0.00000302,-0.00017809,0.00007639,-0.07
 659893,-0.06008890,0.09022228,-0.00058645,-0.00050165,0.00044522,0.000
 79671,0.00169343,-0.00080965,-0.00497805,0.00324162,-0.03026628,0.0021
 6776,-0.00062136,-0.00149018,-0.05347453,-0.00227813,-0.02613988,-0.00
 062956,0.00021911,0.00202760,0.00034653,0.00047615,0.00085572,-0.00001
 768,0.00130199,0.00063760,0.00009780,-0.00001709,-0.00040872,-0.005285
 33,0.00115586,-0.00148554,-0.00017677,0.00004228,0.00099225,-0.0000457
 1,0.00020441,0.00021038,0.00019851,-0.00045282,0.00010566,0.00353017,-
 0.00061830,0.02463735,0.05747106,0.00028337,0.00033118,-0.00012886,-0.
 00024487,-0.00089197,0.00012196,0.00294428,-0.00161528,0.01299192,-0.0
 0073744,0.00043303,0.00112990,-0.00284914,-0.04925473,0.01331114,-0.00
 164794,0.00033382,-0.03080923,-0.00024297,0.00152528,-0.00175079,-0.00
 061270,-0.00590233,-0.00098210,0.00069309,0.00081639,0.00031942,0.0032
 9806,0.00002105,0.00048108,0.00020201,0.00010781,-0.00047384,0.0000080
 0,-0.00017601,0.00008975,-0.00015229,0.00011678,-0.00016875,0.00256282
 ,-0.00051351,0.01928047,-0.00366207,0.05491991,-0.00060249,-0.00025393
 ,0.00017751,0.00019824,0.00089969,-0.00044763,-0.00147466,0.00101943,-
 0.00722235,0.00111502,-0.00086731,0.00095728,-0.02580053,0.01337990,-0
 .29645162,0.00022136,0.00049065,-0.01318740,-0.00053681,0.00175816,0.0
 0051471,-0.00056008,-0.00321846,0.00060846,0.00025998,0.00012061,-0.00
 000932,-0.00139462,-0.00040936,0.00076764,-0.00054775,0.00065318,0.000
 78982,-0.00011117,0.00011976,0.00001619,0.00005867,-0.00021927,0.00040
 585,-0.00100387,0.00071743,-0.01180868,0.03031969,-0.01293918,0.323454
 17,0.00018034,-0.00014885,-0.00001890,0.00008109,0.00028557,0.00007922
 ,0.00005519,-0.00025421,-0.00015415,-0.00000493,-0.00001083,0.00005807
 ,0.00040387,-0.00098019,-0.00030066,0.00277478,0.00045820,-0.02301781,
 -0.05708371,-0.00203956,0.04526591,-0.00331353,0.00263085,-0.00161775,
 0.00157466,-0.00000836,-0.00128560,0.00002858,-0.00005492,0.00000872,-
 0.00000103,0.00002205,0.00000996,-0.00000012,-0.00002122,-0.00000167,0
 .00000788,0.00000277,-0.00000885,0.00004064,0.00000871,0.00010112,0.00
 022734,0.00003824,0.00036106,0.05959802,-0.00005722,-0.00007872,0.0000
 1846,-0.00015389,0.00018657,0.00002042,0.00007917,0.00008830,-0.000197
 81,-0.00005303,-0.00003495,-0.00001034,-0.00055036,0.00096716,0.001846
 92,-0.00382475,-0.00218484,0.01827698,-0.00176600,-0.04962461,0.008090
 40,0.00286843,-0.00222506,0.00105370,-0.00076174,0.00001326,-0.0004462
 7,-0.00014773,0.00006674,-0.00004792,0.00003143,-0.00001390,-0.0000297
 8,0.00001115,-0.00001167,-0.00000574,-0.00001851,0.00002122,-0.0000001
 1,0.00006742,-0.00001620,-0.00009464,0.00017689,-0.00041694,-0.0006835
 2,-0.00041380,0.05038488,0.00000152,0.00001509,-0.00003573,-0.00013606
 ,0.00009042,0.00029250,-0.00013540,-0.00004508,0.00036110,-0.00009514,
 -0.00001062,-0.00004817,0.00046816,-0.00117943,0.00006065,0.00333906,0
 .00000616,-0.01569666,0.04407541,0.00906794,-0.30093842,-0.00372904,0.
 00261284,-0.00028295,0.00121378,-0.00008834,0.00041704,0.00022396,-0.0
 0011218,0.00010740,-0.00002121,0.00001637,0.00004242,0.00000371,-0.000
 00834,-0.00000220,-0.00001101,0.00002366,0.00002460,0.00001815,-0.0001
 4060,0.00014666,-0.00000740,0.00068082,0.00096574,-0.04763850,-0.01101
 637,0.32811345,-0.00105623,0.00113238,0.00000512,-0.00019621,-0.002554
 49,-0.00003444,-0.00009870,0.00031023,-0.00009732,0.00016803,0.0000348
 2,-0.00004907,0.00102075,-0.00108411,0.00015220,-0.02168901,-0.0094272
 9,0.00414296,-0.26332634,-0.09125115,0.03549701,0.00046250,-0.00081695
 ,0.00131865,-0.00173084,0.00449763,-0.00243777,0.00006340,0.00003192,0
 .00001097,-0.00001902,-0.00001151,0.00000517,-0.00000741,0.00007702,0.
 00003470,-0.00000441,-0.00006596,-0.00001869,0.00010845,0.00085497,-0.
 00003185,-0.00007426,0.00018327,0.00016520,-0.00406556,-0.00171091,0.0
 0080960,0.28831891,-0.00000424,-0.00050933,-0.00000205,0.00129309,0.00
 093997,-0.00004918,-0.00022452,0.00006125,0.00009441,-0.00006963,-0.00
 002450,-0.00005270,0.00003921,0.00137169,-0.00039212,0.01799467,0.0075
 3917,-0.00339426,-0.09178376,-0.08865819,0.01505942,-0.00000422,0.0004
 5121,-0.00071870,0.00211108,-0.00141115,0.00189041,-0.00003535,0.00000
 756,-0.00002598,0.00001045,-0.00000178,0.00000345,0.00001042,-0.000008
 96,-0.00000426,-0.00002340,0.00003046,0.00002008,-0.00019567,-0.000047
 03,0.00023061,-0.00006792,-0.00002843,-0.00014318,0.00029085,-0.000978
 19,-0.00002591,0.09912851,0.09264692,-0.00039574,0.00040339,-0.0000910
 0,-0.00059215,-0.00081193,0.00043553,0.00002486,-0.00018052,-0.0002780
 1,0.00005390,0.00002075,-0.00000230,0.00045092,-0.00036389,0.00026486,
 -0.01393875,-0.00673900,0.00116205,0.03593001,0.01508578,-0.05606190,-
 0.00092397,-0.00076561,0.00089947,-0.00136607,0.00247060,-0.00087997,-
 0.00001167,0.00004914,-0.00001139,0.00000300,0.00000454,0.00000319,0.0
 0000117,-0.00000016,0.00001558,-0.00000058,-0.00002367,-0.00001202,0.0
 0014661,0.00012132,0.00017861,0.00017889,0.00013202,-0.00008985,0.0301
 8154,0.01325604,-0.00339371,-0.03798209,-0.01829891,0.05605180,0.00007
 814,-0.00031067,-0.00003198,0.00017390,0.00073896,0.00009050,0.0002072
 1,0.00115547,0.00055656,-0.00042702,0.00000863,-0.00025057,-0.00288579
 ,0.00168116,-0.00263381,-0.00002535,0.02277909,0.00948654,-0.04930801,
 -0.00362588,-0.00104379,0.00049768,-0.00030609,0.00106698,0.00163771,-
 0.00031371,0.00050163,-0.00008192,0.00002529,-0.00007293,0.00002238,-0
 .00001679,0.00000911,0.00002338,-0.00001392,-0.00002345,-0.00006897,0.
 00013796,0.00011203,-0.00004264,0.00060283,-0.00009187,-0.00018051,-0.
 00028515,-0.00015694,-0.00080271,0.00601040,0.00205213,0.00089112,-0.0
 2868552,-0.01211477,0.05043786,0.00013756,0.00030212,0.00001407,0.0000
 3113,-0.00087886,0.00003925,-0.00070206,-0.00067928,-0.00069185,0.0005
 0948,0.00004932,0.00029315,0.00374442,-0.00016317,0.00259993,-0.000837
 33,-0.01749797,-0.00698763,-0.00318007,-0.27537158,-0.08725347,-0.0006
 1914,0.00021970,-0.00124443,-0.00094147,0.00113610,0.00013119,0.000153
 53,-0.00004856,0.00008730,-0.00003632,0.00001416,-0.00001288,-0.000038
 48,0.00001898,0.00001133,0.00008959,-0.00015457,-0.00012846,-0.0001375
 5,0.00000587,0.00003789,-0.00010059,0.00036602,0.00011456,-0.00012868,
 0.00277015,0.00055889,-0.00011985,-0.01117971,-0.00447012,0.00112598,0
 .29998053,0.00000906,-0.00007983,0.00000336,0.00024676,0.00023298,-0.0
 0011299,-0.00014561,0.00074097,0.00096387,-0.00027076,0.00004360,-0.00
 018025,-0.00214299,0.00093730,-0.00163799,0.00110481,0.01504612,0.0046
 4021,-0.00089158,-0.08776567,-0.08387993,0.00020374,0.00098743,0.00115
 584,0.00052935,-0.00020632,0.00032185,0.00015505,-0.00003758,-0.000023
 45,-0.00001105,-0.00000798,0.00002108,0.00000597,0.00000421,-0.0000021
 4,-0.00004255,0.00007766,0.00008146,0.00006160,-0.00015899,0.00008434,
 -0.00009540,0.00016057,0.00053257,-0.00117830,-0.03094799,-0.01046804,
 -0.00028405,0.00594446,0.00149079,0.00284543,0.09575712,0.08717750,0.0
 0005749,-0.00021266,0.00003153,0.00023512,0.00050594,0.00003827,-0.000
 25024,0.00068565,-0.00001018,0.00006205,-0.00016782,0.00023526,-0.0000
 0689,0.00038458,-0.00057103,0.00458019,-0.00521326,0.00343372,0.000316
 67,-0.00022246,0.00092964,-0.17222669,0.09657994,-0.08679649,0.0006234
 0,-0.00058059,-0.00000913,-0.00002279,0.00019980,0.00095614,-0.0000378
 5,0.00007634,0.00008718,-0.00000135,-0.00002031,-0.00003034,0.00001417
 ,-0.00000359,-0.00001726,-0.00016593,0.00002399,-0.00013018,-0.0000126
 6,-0.00021899,-0.00002646,0.00059766,0.00005295,0.00019996,0.00044335,
 0.00002745,0.00027844,-0.00012302,0.00002681,0.00009781,0.18463692,-0.
 00031594,-0.00010587,-0.00010909,0.00017173,0.00040792,0.00034753,0.00
 041489,-0.00041289,-0.00029949,-0.00013080,0.00002747,-0.00010066,-0.0
 0028930,0.00016052,0.00008256,-0.00076146,-0.00094289,-0.00037567,-0.0
 0053576,0.00049827,0.00055284,0.09648416,-0.12610682,0.06904561,0.0003
 5683,0.00036051,0.00001190,0.00051382,-0.00044199,-0.00088668,0.000019
 01,-0.00003323,-0.00002677,0.00000744,-0.00002307,-0.00001590,-0.00002
 916,0.00004207,0.00002574,-0.00010810,-0.00001751,0.00003081,-0.000041
 06,0.00005841,0.00016805,0.00032170,0.00038620,0.00013357,0.00028017,-
 0.00004569,-0.00002731,-0.00020029,0.00053081,-0.00021766,-0.10828412,
 0.13394559,0.00013095,-0.00036347,0.00005188,0.00077675,0.00085464,-0.
 00066083,-0.00009393,-0.00004408,-0.00070004,0.00023902,-0.00035274,0.
 00034900,-0.00043442,0.00071331,0.00112927,-0.02360608,0.01832132,-0.0
 1408592,0.00295192,-0.00102715,-0.00659577,-0.08623147,0.06857638,-0.1
 1112339,-0.00087572,-0.00063819,0.00136659,0.00052853,-0.00103853,0.00
 028291,-0.00010094,0.00016562,0.00015340,-0.00000110,0.00005276,-0.000
 00353,0.00000282,-0.00002467,-0.00003119,-0.00005471,-0.00031834,-0.00
 004839,0.00000803,0.00010026,0.00021985,-0.00152279,0.00134548,-0.0012
 0864,0.00005639,-0.00028407,0.00017733,0.00021429,0.00010585,0.0001940
 2,0.09450647,-0.07591463,0.12106146,-0.00019237,0.00035634,0.00003975,
 0.00059249,-0.00088587,-0.00027188,-0.00015153,0.00040012,-0.00011883,
 0.00011184,-0.00006315,0.00003256,-0.00001398,-0.00066485,-0.00043567,
 -0.00637162,-0.00202997,0.00080479,0.00039977,0.00035947,-0.00079293,-
 0.26126358,-0.09369197,0.03963099,0.00130705,0.00004515,0.00180525,-0.
 00010583,-0.00013072,0.00011551,-0.00001902,0.00002703,0.00002795,-0.0
 0000328,0.00006990,0.00003490,-0.00000183,-0.00003290,-0.00000872,0.00
 036034,0.00085217,0.00026379,0.00029235,0.00026239,-0.00008688,0.00024
 991,0.00013450,0.00009406,0.00066062,-0.00019101,0.00016070,-0.0000002
 7,0.00004769,0.00002266,-0.01944811,-0.00952941,0.00380580,0.28277912,
 -0.00037472,0.00017349,-0.00009896,0.00011494,-0.00040442,0.00051526,0
 .00011417,-0.00025687,0.00001744,0.00001412,0.00005662,-0.00004033,0.0
 0106117,0.00076356,-0.00026034,-0.00024683,-0.00157204,-0.00049703,-0.
 00065863,-0.00014573,-0.00009311,-0.09354472,-0.09151558,0.01782005,-0
 .00008950,0.00079565,0.00005670,0.00005417,0.00005248,-0.00008900,0.00
 000070,-0.00001338,-0.00001882,0.00000314,-0.00000108,0.00000175,-0.00
 000789,-0.00000849,-0.00000302,-0.00011001,0.00011276,-0.00007527,0.,0
 .00002900,0.00009947,0.00029387,-0.00000300,-0.00009494,0.00037229,0.0
 0015656,0.00039853,-0.00013630,-0.00004440,0.00004461,0.01728795,0.008
 19127,-0.00414940,0.10389886,0.09430096,0.00040686,-0.00053560,0.00020
 967,-0.00040627,0.00138601,-0.00040449,-0.00002341,-0.00020535,-0.0000
 1605,-0.00007441,-0.00007198,0.00003964,0.00060293,0.00163504,0.001425
 48,0.03014140,0.01284573,-0.00590657,0.00137513,-0.00015696,0.00148526
 ,0.03886029,0.01717159,-0.05611148,-0.00010722,-0.00008021,-0.00643971
 ,-0.00002360,-0.00010574,0.00003754,0.00001209,0.00001509,0.00001208,0
 .00001085,-0.00003859,-0.00001814,-0.00000595,0.00003071,-0.00000126,-
 0.00048764,-0.00085912,0.00014723,-0.00030225,0.00010398,0.00026952,-0
 .00015251,-0.00035702,0.00031971,-0.00089199,0.00004289,-0.00024593,-0
 .00014566,0.00005281,-0.00008666,-0.01426478,-0.00789092,0.00272018,-0
 .04451256,-0.01955896,0.06125614,-0.00002342,-0.00016846,-0.00000201,0
 .00012740,0.00046201,-0.00012771,0.00007584,0.00012113,-0.00040005,0.0
 0006097,-0.00014207,0.00016542,-0.00001034,-0.00069389,0.00110704,-0.0
 0147661,0.00585498,0.00273065,0.00000984,-0.00054141,-0.00060324,-0.04
 983949,-0.00327980,-0.00133173,0.00079589,0.00124125,0.00023050,0.0000
 1516,-0.00020632,0.00031451,-0.00003886,0.00007669,0.00003393,0.000002
 61,0.00000514,-0.00000835,0.00000140,0.00000098,-0.00001328,0.00021971
 ,0.00035144,-0.00004681,0.00025021,0.00042471,0.00004082,-0.00017929,0
 .00009422,0.00007157,0.00000229,-0.00014809,-0.00004957,0.00025839,0.0
 0009682,-0.00021554,0.00048022,0.02185186,0.00953368,0.00100351,-0.028
 38996,-0.01186138,0.04852829,0.00016345,0.00020270,0.00003639,-0.00013
 133,-0.00060674,0.00016851,-0.00022062,0.00016929,-0.00005136,0.000071
 29,0.00009074,-0.00007236,-0.00007513,0.00119707,0.00010529,-0.0000770
 9,0.00030540,0.00082660,0.00000147,0.00049870,0.00066574,-0.00329287,-
 0.27460707,-0.09043642,-0.00027850,0.00075268,0.00023038,-0.00009501,0
 .00023834,-0.00010564,0.00000946,-0.00004932,-0.00003233,-0.00001001,0
 .00000642,0.00001156,0.00002421,-0.00004295,-0.00000930,0.00018075,0.0
 0033064,0.00020483,0.00018871,0.00008325,-0.00018925,-0.00002444,0.000
 31786,-0.00004925,0.00006743,-0.00006113,-0.00002244,-0.00028823,0.000
 50511,-0.00019492,-0.00094746,-0.01595524,-0.00619587,0.00048625,-0.01
 116127,-0.00385480,0.00346950,0.29735482,0.00007165,0.00022120,-0.0000
 2430,-0.00000245,-0.00055954,0.00022348,-0.00055776,0.00047320,-0.0003
 2442,0.00030501,-0.00008669,0.00015465,0.00071362,0.00212561,-0.006586
 53,-0.00018372,-0.03121237,-0.01303891,0.00043939,-0.00162398,0.001411
 07,-0.00107295,-0.08946262,-0.08397421,-0.00170412,-0.00047638,0.00086
 345,0.00018994,-0.00016060,0.00021413,-0.00005773,0.00003585,0.0000968
 3,-0.00003154,0.00002829,0.00000372,0.00006078,-0.00010319,-0.00002706
 ,-0.00013398,0.00031268,0.00013765,0.00044073,-0.00201677,-0.00090222,
 0.00022449,0.00026300,0.00044787,-0.00008420,0.00010508,-0.00008735,-0
 .00035903,0.00102943,-0.00018771,0.00135420,0.01555818,0.00646737,-0.0
 0081843,0.00581142,0.00176138,0.00065142,0.09906441,0.09279750,-0.0008
 8642,0.00021022,0.00352030,0.00046309,0.00715626,-0.02128515,-0.000707
 15,0.00078675,0.00271834,0.00065519,0.00027052,-0.00019974,0.00031437,
 0.00088226,-0.00006489,-0.00290438,-0.01151506,0.02893218,0.00145838,-
 0.00010932,0.00194851,-0.00569928,-0.00279716,-0.00034531,-0.04396249,
 -0.00629967,0.01010348,-0.00046711,-0.00044467,-0.00010464,0.00001938,
 0.00002943,0.00003155,-0.00006293,0.00017387,0.00014215,-0.00001172,-0
 .00011720,-0.00002493,0.00005622,0.00004827,-0.00027915,0.00004289,-0.
 00035664,-0.00036723,-0.00036931,-0.00002936,-0.00090515,0.00054017,-0
 .00002059,-0.00013582,-0.00011573,0.00024886,-0.00000616,0.00016784,-0
 .00013135,-0.00019362,-0.00050915,0.00000357,0.00206036,0.00004898,0.0
 0018010,-0.00014713,0.05103380,-0.00019199,0.00097835,-0.00300122,-0.0
 0089424,-0.01238951,0.02688853,0.00131252,-0.00175585,-0.00543287,-0.0
 0094120,-0.00072456,0.00059538,0.00002829,0.00004933,0.00058339,-0.000
 36189,-0.00320717,0.00762257,0.00113026,0.00056356,-0.00001305,-0.0006
 2451,-0.00014759,-0.00067501,-0.00794464,-0.08663519,0.10009644,0.0004
 4879,0.00109262,0.00017295,-0.00001011,-0.00008301,-0.00011354,0.00018
 027,-0.00027885,-0.00029311,0.00003387,0.00009096,-0.00001894,-0.00012
 041,0.00007187,-0.00025829,-0.00029133,-0.00030993,-0.00038621,-0.0002
 7855,0.00031132,-0.00039779,0.00013901,-0.00020801,-0.00011964,-0.0000
 2607,0.00000245,-0.00022104,0.00004698,-0.00008210,-0.00010415,0.00001
 135,0.00030101,0.00027662,-0.00012153,0.00015647,0.00020095,0.00756233
 ,0.09158115,0.00035460,0.00002082,0.00109948,-0.00073409,0.00083356,-0
 .00047503,-0.00031694,0.00041693,-0.00097698,-0.00008392,-0.00011259,-
 0.00004875,-0.00016081,-0.00026538,-0.00018207,0.00096069,0.00090678,-
 0.00593958,-0.00155011,-0.00005053,0.00085334,0.00196854,0.00104071,0.
 00102662,0.01470659,0.09186808,-0.25670285,0.00006802,0.00011089,-0.00
 003595,-0.00001336,0.00005268,0.00005732,0.00000761,-0.00004776,0.0000
 2410,-0.00001413,0.00004031,0.00001553,0.00001667,0.00015534,0.0000988
 5,0.00000405,0.00014632,0.00028940,0.00049935,-0.00025796,0.00060535,-
 0.00018410,-0.00006884,0.00033300,0.00023639,-0.00009797,-0.00016832,-
 0.00019058,-0.00015716,0.00020184,0.00032276,0.00014139,-0.00049946,-0
 .00019476,0.00003799,0.00020226,-0.01647712,-0.10399645,0.28019735,-0.
 00019033,-0.00137227,-0.00227298,0.00838350,0.01149157,0.01643757,-0.0
 0155298,0.00205918,-0.00261817,0.00026291,0.00013351,0.00001902,-0.005
 41064,-0.00127952,0.00183113,-0.00565157,-0.01910476,-0.01937241,-0.00
 000067,-0.00125664,0.00031880,0.00181324,-0.00021886,-0.00169179,-0.07
 703338,-0.05783969,-0.05419992,0.00055118,0.00062731,0.00010793,-0.000
 05029,-0.00002815,0.00003870,-0.00001478,0.00016132,0.00012651,0.00006
 582,-0.00008845,-0.00006097,0.00016191,-0.00164552,-0.00061667,0.00004
 018,0.00010997,-0.00007054,0.00000023,-0.00003926,0.00010784,-0.000411
 57,0.00054820,0.00010114,-0.00016584,0.00062967,0.00000176,0.00008044,
 -0.00006487,0.00036011,0.00032358,0.00033960,-0.00021027,-0.00031268,0
 .00059808,0.00070182,0.00089538,0.00091279,0.00077463,0.07821636,-0.00
 061039,0.00326269,0.00264307,-0.00998379,-0.01875475,-0.01782798,0.000
 73875,-0.00269274,0.00186739,-0.00021880,-0.00054373,0.00020098,-0.000
 59771,-0.00108892,0.00065953,-0.00059324,-0.00536669,-0.00336959,-0.00
 011563,-0.00001347,0.00029394,0.00052314,0.00064153,-0.00076696,-0.058
 20837,-0.16865551,-0.12379594,-0.00040728,-0.00092932,0.00010271,-0.00
 000357,0.00003099,-0.00006261,0.00011665,-0.00017601,-0.00020358,0.000
 05533,-0.00004337,-0.00000189,-0.00001081,-0.00036628,-0.00030936,-0.0
 0004814,-0.00003279,-0.00023123,0.00001080,0.00007442,-0.00003690,-0.0
 0006742,-0.00004268,-0.00011890,-0.00005717,0.00011678,-0.00013905,-0.
 00002714,-0.00044174,0.00021968,0.00026863,0.00019291,0.00015479,-0.00
 035921,0.00027423,0.00047283,0.00426856,0.01062270,0.00928285,0.065326
 80,0.18393174,0.00132687,-0.00014238,0.00044140,-0.00075696,0.00403291
 ,0.00106844,0.00022698,0.00090509,-0.00037719,-0.00000950,0.00011518,-
 0.00004630,0.00113472,0.00134023,0.00003140,0.00205399,0.00543098,0.00
 426147,-0.00022015,-0.00013606,-0.00030374,0.00077696,0.00101011,0.000
 74498,-0.05554274,-0.12297917,-0.16023589,0.00001511,0.00015006,-0.000
 01878,0.00000567,0.00002417,0.00002754,-0.00001169,0.00000190,0.000028
 22,0.00000485,0.00000229,0.00000817,0.00007185,0.00041666,0.00036174,0
 .00014216,0.00021994,0.00015034,0.00010806,-0.00007591,0.00017001,-0.0
 0010240,0.00006934,0.00014123,-0.00024679,0.00005402,0.00008058,-0.000
 10219,0.00006513,0.00008258,-0.00011559,0.00007256,0.00004590,-0.00002
 510,-0.00013776,0.00037133,-0.00892086,-0.02140551,-0.01997544,0.06018
 674,0.13096624,0.17294201\\0.00001653,-0.00003496,-0.00001266,-0.00000
 735,-0.00000021,-0.00001308,0.00002357,-0.00001471,0.00005740,0.000022
 96,-0.00004906,-0.00004301,0.00000785,0.00001816,-0.00006785,0.0000514
 7,0.00007357,0.00000885,0.00002079,-0.00003565,-0.00000877,-0.00002557
 ,-0.00003416,0.00001962,0.00000002,-0.00000180,0.00005123,0.00001627,0
 .00001906,-0.00000353,-0.00000007,-0.00003490,0.00006832,0.00006181,0.
 00007979,-0.00001373,-0.00009647,0.00002753,-0.00002133,0.00001319,0.0
 0002290,0.00000976,-0.00002807,0.00002703,-0.00001392,-0.00001810,-0.0
 0005462,-0.00004389,-0.00005342,-0.00001948,0.00004886,0.00002900,0.00
 004085,-0.00001071,-0.00001863,-0.00000128,-0.00000190,-0.00001276,-0.
 00000019,0.00000808,0.00000294,-0.00001090,-0.00001833,0.00000205,-0.0
 0000651,0.00000850,-0.00000800,-0.00001046,-0.00000791\\\@


 ACHIEVEMENT--  THE MAN WHO ROWS THE BOAT GENERALLY 
                DOESN'T HAVE TIME TO ROCK IT.

                   -- FROM THE BACK OF A SUGAR PACKET
 Job cpu time:       0 days  0 hours  1 minutes 34.1 seconds.
 Elapsed time:       0 days  0 hours  1 minutes 34.4 seconds.
 File lengths (MBytes):  RWF=     78 Int=      0 D2E=      0 Chk=      5 Scr=      1
 Normal termination of Gaussian 16 at Wed Feb 21 18:44:47 2024.
