 Entering Gaussian System, Link 0=g16
 Input=/Volumes/SSD-PMU3/b3lyp_6-31gd_freq/OXTQEWUBDTVSFB-ZCFIWIBFSA-N_calculating/gaussianinput1.gjf
 Output=/Volumes/SSD-PMU3/b3lyp_6-31gd_freq/OXTQEWUBDTVSFB-ZCFIWIBFSA-N_calculating/gaussianinput1.log
 Initial command:
 /Applications/g16/l1.exe "/Users/macmini_m1_2022/PycharmProjects/sphere_model/sphere_model_lib/Gau-50455.inp" -scrdir="/Users/macmini_m1_2022/PycharmProjects/sphere_model/sphere_model_lib/"
 Entering Link 1 = /Applications/g16/l1.exe PID=     50456.
  
 Copyright (c) 1988,1990,1992,1993,1995,1998,2003,2009,2016,
            Gaussian, Inc.  All Rights Reserved.
  
 This is part of the Gaussian(R) 16 program.  It is based on
 the Gaussian(R) 09 system (copyright 2009, Gaussian, Inc.),
 the Gaussian(R) 03 system (copyright 2003, Gaussian, Inc.),
 the Gaussian(R) 98 system (copyright 1998, Gaussian, Inc.),
 the Gaussian(R) 94 system (copyright 1995, Gaussian, Inc.),
 the Gaussian 92(TM) system (copyright 1992, Gaussian, Inc.),
 the Gaussian 90(TM) system (copyright 1990, Gaussian, Inc.),
 the Gaussian 88(TM) system (copyright 1988, Gaussian, Inc.),
 the Gaussian 86(TM) system (copyright 1986, Carnegie Mellon
 University), and the Gaussian 82(TM) system (copyright 1983,
 Carnegie Mellon University). Gaussian is a federally registered
 trademark of Gaussian, Inc.
  
 This software contains proprietary and confidential information,
 including trade secrets, belonging to Gaussian, Inc.
  
 This software is provided under written license and may be
 used, copied, transmitted, or stored only in accord with that
 written license.
  
 The following legend is applicable only to US Government
 contracts under FAR:
  
                    RESTRICTED RIGHTS LEGEND
  
 Use, reproduction and disclosure by the US Government is
 subject to restrictions as set forth in subparagraphs (a)
 and (c) of the Commercial Computer Software - Restricted
 Rights clause in FAR 52.227-19.
  
 Gaussian, Inc.
 340 Quinnipiac St., Bldg. 40, Wallingford CT 06492
  
  
 ---------------------------------------------------------------
 Warning -- This program may not be used in any manner that
 competes with the business of Gaussian, Inc. or will provide
 assistance to any competitor of Gaussian, Inc.  The licensee
 of this program is prohibited from giving any competitor of
 Gaussian, Inc. access to this program.  By using this program,
 the user acknowledges that Gaussian, Inc. is engaged in the
 business of creating and licensing software in the field of
 computational chemistry and represents and warrants to the
 licensee that it is not a competitor of Gaussian, Inc. and that
 it will not use this program in any manner prohibited above.
 ---------------------------------------------------------------
  

 Cite this work as:
 Gaussian 16, Revision A.03,
 M. J. Frisch, G. W. Trucks, H. B. Schlegel, G. E. Scuseria, 
 M. A. Robb, J. R. Cheeseman, G. Scalmani, V. Barone, 
 G. A. Petersson, H. Nakatsuji, X. Li, M. Caricato, A. V. Marenich, 
 J. Bloino, B. G. Janesko, R. Gomperts, B. Mennucci, H. P. Hratchian, 
 J. V. Ortiz, A. F. Izmaylov, J. L. Sonnenberg, D. Williams-Young, 
 F. Ding, F. Lipparini, F. Egidi, J. Goings, B. Peng, A. Petrone, 
 T. Henderson, D. Ranasinghe, V. G. Zakrzewski, J. Gao, N. Rega, 
 G. Zheng, W. Liang, M. Hada, M. Ehara, K. Toyota, R. Fukuda, 
 J. Hasegawa, M. Ishida, T. Nakajima, Y. Honda, O. Kitao, H. Nakai, 
 T. Vreven, K. Throssell, J. A. Montgomery, Jr., J. E. Peralta, 
 F. Ogliaro, M. J. Bearpark, J. J. Heyd, E. N. Brothers, K. N. Kudin, 
 V. N. Staroverov, T. A. Keith, R. Kobayashi, J. Normand, 
 K. Raghavachari, A. P. Rendell, J. C. Burant, S. S. Iyengar, 
 J. Tomasi, M. Cossi, J. M. Millam, M. Klene, C. Adamo, R. Cammi, 
 J. W. Ochterski, R. L. Martin, K. Morokuma, O. Farkas, 
 J. B. Foresman, and D. J. Fox, Gaussian, Inc., Wallingford CT, 2016.
 
 ******************************************
 Gaussian 16:  EM64M-G16RevA.03 25-Dec-2016
                21-Feb-2024 
 ******************************************
 %nprocshared=8
 Will use up to    8 processors via shared memory.
 %mem=4GB
 %chk= 1.chk
 ---------------------
 # freq b3lyp/6-31g(d)
 ---------------------
 1/10=4,30=1,38=1/1,3;
 2/12=2,17=6,18=5,40=1/2;
 3/5=1,6=6,7=1,11=2,25=1,30=1,71=2,74=-5,140=1/1,2,3;
 4//1;
 5/5=2,38=5,98=1/2;
 8/6=4,10=90,11=11/1;
 11/6=1,8=1,9=11,15=111,16=1/1,2,10;
 10/6=1/2;
 6/7=2,8=2,9=2,10=2,28=1/1;
 7/8=1,10=1,25=1/1,2,3,16;
 1/10=4,30=1/3;
 99//99;
 ---------
 good luck
 ---------
 Symbolic Z-matrix:
 Charge =  0 Multiplicity = 1
 O                     1.21227   0.        0. 
 C                     0.        0.        0. 
 C                    -0.88236  -1.26273  -0.00937 
 C                    -0.37757  -2.30544  -1.01632 
 C                    -2.31998  -0.72968  -0.23153 
 C                    -2.20071   0.75531  -0.70582 
 C                    -2.01886   0.8224   -2.23506 
 C                    -3.4281    1.57957  -0.29833 
 C                    -0.90426   1.2288   -0.00937 
 H                    -0.79191  -1.70262   0.99421 
 H                    -0.93083  -3.24526  -0.91346 
 H                     0.68514  -2.50436  -0.84723 
 H                    -0.49583  -1.95779  -2.04879 
 H                    -2.88007  -1.33404  -0.95469 
 H                    -2.88251  -0.76257   0.70963 
 H                    -2.89336   0.40792  -2.75083 
 H                    -1.13776   0.26253  -2.57035 
 H                    -1.89244   1.86004  -2.56729 
 H                    -4.3398    1.17938  -0.75952 
 H                    -3.32876   2.62533  -0.61404 
 H                    -3.57091   1.56889   0.78912 
 H                    -1.10968   1.497     1.03896 
 H                    -0.41267   2.08699  -0.47761 
 

 GradGradGradGradGradGradGradGradGradGradGradGradGradGradGradGradGradGrad
 Berny optimization.
 Initialization pass.
 Trust Radius=3.00D-01 FncErr=1.00D-07 GrdErr=1.00D-07 EigMax=2.50D+02 EigMin=1.00D-04
 Number of steps in this run=      2 maximum allowed number of steps=      2.
 GradGradGradGradGradGradGradGradGradGradGradGradGradGradGradGradGradGrad

                          Input orientation:                          
 ---------------------------------------------------------------------
 Center     Atomic      Atomic             Coordinates (Angstroms)
 Number     Number       Type             X           Y           Z
 ---------------------------------------------------------------------
      1          8           0        1.212267    0.000000    0.000000
      2          6           0        0.000000    0.000000    0.000000
      3          6           0       -0.882360   -1.262727   -0.009367
      4          6           0       -0.377571   -2.305436   -1.016325
      5          6           0       -2.319978   -0.729679   -0.231528
      6          6           0       -2.200707    0.755314   -0.705821
      7          6           0       -2.018865    0.822403   -2.235061
      8          6           0       -3.428099    1.579570   -0.298325
      9          6           0       -0.904255    1.228804   -0.009367
     10          1           0       -0.791910   -1.702623    0.994211
     11          1           0       -0.930825   -3.245259   -0.913457
     12          1           0        0.685142   -2.504362   -0.847232
     13          1           0       -0.495825   -1.957790   -2.048791
     14          1           0       -2.880071   -1.334037   -0.954687
     15          1           0       -2.882505   -0.762569    0.709628
     16          1           0       -2.893363    0.407916   -2.750832
     17          1           0       -1.137756    0.262532   -2.570346
     18          1           0       -1.892435    1.860039   -2.567288
     19          1           0       -4.339798    1.179379   -0.759521
     20          1           0       -3.328763    2.625327   -0.614039
     21          1           0       -3.570907    1.568886    0.789118
     22          1           0       -1.109677    1.496996    1.038956
     23          1           0       -0.412666    2.086993   -0.477608
 ---------------------------------------------------------------------
                    Distance matrix (angstroms):
                    1          2          3          4          5
     1  O    0.000000
     2  C    1.212267   0.000000
     3  C    2.445819   1.540496   0.000000
     4  C    2.979184   2.547648   1.534933   0.000000
     5  C    3.614248   2.443018   1.549271   2.621424   0.000000
     6  C    3.566101   2.431418   2.509099   3.576091   1.563452
     7  C    4.013983   3.122124   3.254708   3.736648   2.552209
     8  C    4.910910   3.786278   3.826609   4.991444   2.562230
     9  C    2.447389   1.525688   2.491627   3.712440   2.426784
    10  H    2.811424   2.124736   1.099481   2.139466   2.187247
    11  H    3.994866   3.497506   2.179486   1.095417   2.953458
    12  H    2.695829   2.731126   2.168118   1.094314   3.543916
    13  H    3.308786   2.876861   2.189012   1.095823   2.852759
    14  H    4.408890   3.314497   2.211236   2.685130   1.096317
    15  H    4.225191   3.064950   2.183504   3.410872   1.096947
    16  H    4.958797   4.013106   3.788246   4.086564   2.823081
    17  H    3.492594   2.823135   2.991698   3.096340   2.802178
    18  H    4.437329   3.692157   4.161115   4.695900   3.513575
    19  H    5.726538   4.560883   4.298894   5.282909   2.828949
    20  H    5.281130   4.283696   4.633301   5.760537   3.524206
    21  H    5.095377   3.979383   3.985461   5.335484   2.808904
    22  H    2.951584   2.133497   2.960866   4.383908   2.834967
    23  H    2.687760   2.180354   3.414745   4.425481   3.410577
                    6          7          8          9         10
     6  C    0.000000
     7  C    1.541474   0.000000
     8  C    1.533604   2.512009   0.000000
     9  C    1.545972   2.522148   2.564434   0.000000
    10  H    3.303978   4.278945   4.403741   3.100493   0.000000
    11  H    4.202416   4.413201   5.467517   4.564573   2.457279
    12  H    4.355871   4.506117   5.822246   4.143034   2.493066
    13  H    3.474352   3.175503   4.916836   3.805318   3.068002
    14  H    2.211076   2.651654   3.036487   3.371295   2.880013
    15  H    2.184562   3.453868   2.607539   2.897584   2.309822
    16  H    2.186899   1.096616   2.770109   3.485117   4.784958
    17  H    2.202079   1.096460   3.484586   2.747147   4.085035
    18  H    2.186437   1.096835   2.754110   2.813879   5.156354
    19  H    2.181381   2.773334   1.097292   3.516835   4.895817
    20  H    2.185837   2.755736   1.096882   2.862541   5.268135
    21  H    2.184992   3.480191   1.096832   2.804330   4.297401
    22  H    2.187392   3.464229   2.677727   1.101411   3.215671
    23  H    2.241103   2.695868   3.063080   1.094257   4.083046
                   11         12         13         14         15
    11  H    0.000000
    12  H    1.778950   0.000000
    13  H    1.770815   1.771205   0.000000
    14  H    2.730207   3.753925   2.696435   0.000000
    15  H    3.550663   4.264477   3.838446   1.759695   0.000000
    16  H    4.535768   4.991067   3.440584   2.502142   3.653072
    17  H    3.884932   3.734673   2.369372   2.862699   3.853986
    18  H    5.451965   5.352615   4.098192   3.711877   4.312365
    19  H    5.587684   6.231185   5.126419   2.913100   2.837827
    20  H    6.348507   6.517632   5.575752   3.999241   3.664571
    21  H    5.748460   6.114159   5.472413   3.456164   2.432262
    22  H    5.131558   4.773882   4.674028   3.888914   2.890849
    23  H    5.375069   4.735224   4.340023   4.244896   3.953434
                   16         17         18         19         20
    16  H    0.000000
    17  H    1.770838   0.000000
    18  H    1.773191   1.766799   0.000000
    19  H    2.579273   3.791143   3.117837   0.000000
    20  H    3.110043   3.769675   2.542417   1.770345   0.000000
    21  H    3.786577   4.348883   3.763974   1.772341   1.773006
    22  H    4.327831   3.814676   3.708033   3.710671   2.988288
    23  H    3.760413   2.869489   2.570600   4.040495   2.968508
                   21         22         23
    21  H    0.000000
    22  H    2.474922   0.000000
    23  H    3.442022   1.770279   0.000000
 Stoichiometry    C8H14O
 Framework group  C1[X(C8H14O)]
 Deg. of freedom    63
 Full point group                 C1      NOp   1
 Largest Abelian subgroup         C1      NOp   1
 Largest concise Abelian subgroup C1      NOp   1
                         Standard orientation:                         
 ---------------------------------------------------------------------
 Center     Atomic      Atomic             Coordinates (Angstroms)
 Number     Number       Type             X           Y           Z
 ---------------------------------------------------------------------
      1          8           0       -1.966800    1.600319    0.198849
      2          6           0       -1.037651    0.903069   -0.147730
      3          6           0       -1.160226   -0.555216   -0.628881
      4          6           0       -2.100565   -1.375119    0.265289
      5          6           0        0.302916   -1.054285   -0.730808
      6          6           0        1.202574   -0.025446    0.028462
      7          6           0        1.268272   -0.368073    1.529938
      8          6           0        2.622109    0.019836   -0.550168
      9          6           0        0.434787    1.302206   -0.166145
     10          1           0       -1.614890   -0.506822   -1.628779
     11          1           0       -2.282776   -2.365242   -0.166445
     12          1           0       -3.059071   -0.858173    0.372789
     13          1           0       -1.679953   -1.518143    1.267017
     14          1           0        0.426259   -2.065324   -0.325222
     15          1           0        0.613178   -1.096290   -1.782124
     16          1           0        1.730816   -1.349960    1.686518
     17          1           0        0.273942   -0.390596    1.991485
     18          1           0        1.863967    0.375344    2.073562
     19          1           0        3.116420   -0.954960   -0.452811
     20          1           0        3.241959    0.759138   -0.028277
     21          1           0        2.609190    0.283502   -1.614759
     22          1           0        0.650668    1.726439   -1.159386
     23          1           0        0.651395    2.076710    0.575894
 ---------------------------------------------------------------------
 Rotational constants (GHZ):           2.4582605           1.2942052           1.1003921
 Standard basis: 6-31G(d) (6D, 7F)
 There are   163 symmetry adapted cartesian basis functions of A   symmetry.
 There are   163 symmetry adapted basis functions of A   symmetry.
   163 basis functions,   308 primitive gaussians,   163 cartesian basis functions
    35 alpha electrons       35 beta electrons
       nuclear repulsion energy       479.3394179086 Hartrees.
 NAtoms=   23 NActive=   23 NUniq=   23 SFac= 1.00D+00 NAtFMM=   60 NAOKFM=F Big=F
 Integral buffers will be    131072 words long.
 Raffenetti 2 integral format.
 Two-electron integral symmetry is turned on.
 One-electron integrals computed using PRISM.
 NBasis=   163 RedAO= T EigKep=  2.45D-03  NBF=   163
 NBsUse=   163 1.00D-06 EigRej= -1.00D+00 NBFU=   163
 ExpMin= 1.61D-01 ExpMax= 5.48D+03 ExpMxC= 8.25D+02 IAcc=3 IRadAn=         5 AccDes= 0.00D+00
 Harris functional with IExCor=  402 and IRadAn=       5 diagonalized for initial guess.
 HarFok:  IExCor=  402 AccDes= 0.00D+00 IRadAn=         5 IDoV= 1 UseB2=F ITyADJ=14
 ICtDFT=  3500011 ScaDFX=  1.000000  1.000000  1.000000  1.000000
 FoFCou: FMM=F IPFlag=           0 FMFlag=      100000 FMFlg1=           0
         NFxFlg=           0 DoJE=T BraDBF=F KetDBF=T FulRan=T
         wScrn=  0.000000 ICntrl=       500 IOpCl=  0 I1Cent=   200000004 NGrid=           0
         NMat0=    1 NMatS0=      1 NMatT0=    0 NMatD0=    1 NMtDS0=    0 NMtDT0=    0
 Petite list used in FoFCou.
 Requested convergence on RMS density matrix=1.00D-08 within 128 cycles.
 Requested convergence on MAX density matrix=1.00D-06.
 Requested convergence on             energy=1.00D-06.
 No special actions if energy rises.
 Integral accuracy reduced to 1.0D-05 until final iterations.
 Initial convergence to 1.0D-05 achieved.  Increase integral accuracy.
 SCF Done:  E(RB3LYP) =  -388.514895578     A.U. after   13 cycles
            NFock= 13  Conv=0.87D-08     -V/T= 2.0097
 DoSCS=F DFT=T ScalE2(SS,OS)=  1.000000  1.000000
 Range of M.O.s used for correlation:     1   163
 NBasis=   163 NAE=    35 NBE=    35 NFC=     0 NFV=     0
 NROrb=    163 NOA=    35 NOB=    35 NVA=   128 NVB=   128
 Symmetrizing basis deriv contribution to polar:
 IMax=3 JMax=2 DiffMx= 0.00D+00
 G2DrvN: will do    24 centers at a time, making    1 passes.
 Calling FoFCou, ICntrl=  3107 FMM=F I1Cent=   0 AccDes= 0.00D+00.
 End of G2Drv F.D. properties file   721 does not exist.
 End of G2Drv F.D. properties file   722 does not exist.
 End of G2Drv F.D. properties file   788 does not exist.
          IDoAtm=11111111111111111111111
          Differentiating once with respect to electric field.
                with respect to dipole field.
          Differentiating once with respect to nuclear coordinates.
 Keep R1 ints in memory in canonical form, NReq=97235276.
          There are    72 degrees of freedom in the 1st order CPHF.  IDoFFX=6 NUNeed=     3.
     69 vectors produced by pass  0 Test12= 6.22D-15 1.39D-09 XBig12= 5.76D+01 1.51D+00.
 AX will form    69 AO Fock derivatives at one time.
     69 vectors produced by pass  1 Test12= 6.22D-15 1.39D-09 XBig12= 8.57D+00 7.72D-01.
     69 vectors produced by pass  2 Test12= 6.22D-15 1.39D-09 XBig12= 7.67D-02 3.80D-02.
     69 vectors produced by pass  3 Test12= 6.22D-15 1.39D-09 XBig12= 1.69D-04 1.26D-03.
     69 vectors produced by pass  4 Test12= 6.22D-15 1.39D-09 XBig12= 1.51D-07 5.30D-05.
     31 vectors produced by pass  5 Test12= 6.22D-15 1.39D-09 XBig12= 1.19D-10 1.36D-06.
      3 vectors produced by pass  6 Test12= 6.22D-15 1.39D-09 XBig12= 1.00D-13 4.61D-08.
 InvSVY:  IOpt=1 It=  1 EMax= 6.22D-15
 Solved reduced A of dimension   379 with    72 vectors.
 Isotropic polarizability for W=    0.000000       82.06 Bohr**3.
 End of Minotr F.D. properties file   721 does not exist.
 End of Minotr F.D. properties file   722 does not exist.
 End of Minotr F.D. properties file   788 does not exist.

 **********************************************************************

            Population analysis using the SCF density.

 **********************************************************************

 Orbital symmetries:
       Occupied  (A) (A) (A) (A) (A) (A) (A) (A) (A) (A) (A) (A)
                 (A) (A) (A) (A) (A) (A) (A) (A) (A) (A) (A) (A)
                 (A) (A) (A) (A) (A) (A) (A) (A) (A) (A) (A)
       Virtual   (A) (A) (A) (A) (A) (A) (A) (A) (A) (A) (A) (A)
                 (A) (A) (A) (A) (A) (A) (A) (A) (A) (A) (A) (A)
                 (A) (A) (A) (A) (A) (A) (A) (A) (A) (A) (A) (A)
                 (A) (A) (A) (A) (A) (A) (A) (A) (A) (A) (A) (A)
                 (A) (A) (A) (A) (A) (A) (A) (A) (A) (A) (A) (A)
                 (A) (A) (A) (A) (A) (A) (A) (A) (A) (A) (A) (A)
                 (A) (A) (A) (A) (A) (A) (A) (A) (A) (A) (A) (A)
                 (A) (A) (A) (A) (A) (A) (A) (A) (A) (A) (A) (A)
                 (A) (A) (A) (A) (A) (A) (A) (A) (A) (A) (A) (A)
                 (A) (A) (A) (A) (A) (A) (A) (A) (A) (A) (A) (A)
                 (A) (A) (A) (A) (A) (A) (A) (A)
 The electronic state is 1-A.
 Alpha  occ. eigenvalues --  -19.13509 -10.26729 -10.20562 -10.19480 -10.18703
 Alpha  occ. eigenvalues --  -10.18592 -10.17988 -10.17965 -10.17930  -1.03403
 Alpha  occ. eigenvalues --   -0.85027  -0.77456  -0.71982  -0.69085  -0.68279
 Alpha  occ. eigenvalues --   -0.61955  -0.54569  -0.52339  -0.47514  -0.46410
 Alpha  occ. eigenvalues --   -0.44197  -0.44105  -0.42357  -0.41888  -0.40022
 Alpha  occ. eigenvalues --   -0.38821  -0.38068  -0.37148  -0.36709  -0.35509
 Alpha  occ. eigenvalues --   -0.33334  -0.32876  -0.32231  -0.31253  -0.23426
 Alpha virt. eigenvalues --   -0.01436   0.07336   0.10889   0.11411   0.12815
 Alpha virt. eigenvalues --    0.13179   0.14130   0.15269   0.15776   0.16624
 Alpha virt. eigenvalues --    0.17195   0.18221   0.19143   0.19635   0.20452
 Alpha virt. eigenvalues --    0.21238   0.23042   0.23524   0.25937   0.26259
 Alpha virt. eigenvalues --    0.27362   0.29989   0.34260   0.35864   0.48199
 Alpha virt. eigenvalues --    0.50633   0.51197   0.52839   0.54504   0.54910
 Alpha virt. eigenvalues --    0.59535   0.59727   0.61838   0.63363   0.64159
 Alpha virt. eigenvalues --    0.67514   0.69598   0.71113   0.72248   0.73799
 Alpha virt. eigenvalues --    0.74395   0.75745   0.78250   0.79341   0.84143
 Alpha virt. eigenvalues --    0.85008   0.85394   0.86418   0.88810   0.89550
 Alpha virt. eigenvalues --    0.89874   0.90713   0.91166   0.91485   0.93211
 Alpha virt. eigenvalues --    0.93586   0.94365   0.95546   0.97587   0.98500
 Alpha virt. eigenvalues --    1.00009   1.02513   1.03427   1.03600   1.12054
 Alpha virt. eigenvalues --    1.14352   1.18693   1.27431   1.32259   1.40720
 Alpha virt. eigenvalues --    1.45208   1.48359   1.52246   1.54590   1.61731
 Alpha virt. eigenvalues --    1.66206   1.67654   1.72714   1.74532   1.75885
 Alpha virt. eigenvalues --    1.79413   1.80998   1.82280   1.83508   1.86507
 Alpha virt. eigenvalues --    1.88358   1.91574   1.93197   1.97939   1.98212
 Alpha virt. eigenvalues --    2.00801   2.03761   2.06126   2.07122   2.07746
 Alpha virt. eigenvalues --    2.11252   2.17957   2.18929   2.21021   2.22704
 Alpha virt. eigenvalues --    2.25523   2.26956   2.27714   2.30893   2.33156
 Alpha virt. eigenvalues --    2.40027   2.44140   2.46140   2.54143   2.56703
 Alpha virt. eigenvalues --    2.59060   2.65032   2.69232   2.71206   2.72916
 Alpha virt. eigenvalues --    2.77305   2.81117   3.00361   3.06015   4.06258
 Alpha virt. eigenvalues --    4.12513   4.20470   4.29122   4.34257   4.36403
 Alpha virt. eigenvalues --    4.51239   4.71165   4.72539
          Condensed to atoms (all electrons):
               1          2          3          4          5          6
     1  O    8.018293   0.569563  -0.080692  -0.002600   0.004317   0.001933
     2  C    0.569563   4.520011   0.316649  -0.028080  -0.045709  -0.033446
     3  C   -0.080692   0.316649   5.240183   0.362748   0.304246  -0.031880
     4  C   -0.002600  -0.028080   0.362748   5.073389  -0.038102   0.000555
     5  C    0.004317  -0.045709   0.304246  -0.038102   5.185780   0.381258
     6  C    0.001933  -0.033446  -0.031880   0.000555   0.381258   4.767392
     7  C   -0.000072  -0.000449   0.000835  -0.001042  -0.055902   0.387570
     8  C   -0.000064   0.002303   0.004056  -0.000018  -0.049440   0.379863
     9  C   -0.067242   0.334036  -0.169222   0.004832  -0.067499   0.349707
    10  H   -0.000716  -0.031896   0.360044  -0.032899  -0.035919   0.002294
    11  H    0.000118   0.004090  -0.028747   0.370115  -0.002833  -0.000023
    12  H    0.009558  -0.004709  -0.034365   0.368368   0.004760  -0.000155
    13  H    0.000273  -0.004459  -0.039406   0.378874  -0.004002  -0.000080
    14  H   -0.000059   0.001757  -0.030581  -0.006921   0.362843  -0.029913
    15  H   -0.000059   0.000932  -0.024460   0.003878   0.356144  -0.035855
    16  H    0.000002  -0.000076   0.000002  -0.000038  -0.006337  -0.028513
    17  H   -0.000155   0.003304   0.001812  -0.000359  -0.004896  -0.029044
    18  H    0.000012  -0.000215  -0.000267   0.000039   0.005619  -0.028735
    19  H    0.000001  -0.000091   0.000127  -0.000008  -0.004764  -0.029331
    20  H    0.000000   0.000070  -0.000185   0.000002   0.005294  -0.028086
    21  H    0.000000   0.000105   0.000090  -0.000001  -0.005654  -0.027446
    22  H    0.000227  -0.024060   0.004238   0.000101  -0.001222  -0.032161
    23  H    0.001503  -0.020745   0.006851  -0.000256   0.004946  -0.027893
               7          8          9         10         11         12
     1  O   -0.000072  -0.000064  -0.067242  -0.000716   0.000118   0.009558
     2  C   -0.000449   0.002303   0.334036  -0.031896   0.004090  -0.004709
     3  C    0.000835   0.004056  -0.169222   0.360044  -0.028747  -0.034365
     4  C   -0.001042  -0.000018   0.004832  -0.032899   0.370115   0.368368
     5  C   -0.055902  -0.049440  -0.067499  -0.035919  -0.002833   0.004760
     6  C    0.387570   0.379863   0.349707   0.002294  -0.000023  -0.000155
     7  C    5.158486  -0.065059  -0.064130  -0.000018   0.000070  -0.000021
     8  C   -0.065059   5.148073  -0.043528  -0.000210   0.000001   0.000003
     9  C   -0.064130  -0.043528   5.380405   0.007069  -0.000184   0.000668
    10  H   -0.000018  -0.000210   0.007069   0.581029  -0.005362  -0.001459
    11  H    0.000070   0.000001  -0.000184  -0.005362   0.576527  -0.029117
    12  H   -0.000021   0.000003   0.000668  -0.001459  -0.029117   0.542765
    13  H    0.000185  -0.000022   0.000731   0.005186  -0.031912  -0.027275
    14  H   -0.008732   0.000387   0.005568   0.002968   0.001769   0.000109
    15  H    0.005815  -0.007752  -0.000728  -0.008635   0.000108  -0.000182
    16  H    0.368193  -0.004421   0.005508  -0.000002  -0.000008  -0.000001
    17  H    0.367169   0.005647  -0.004717   0.000016  -0.000017   0.000073
    18  H    0.365782  -0.005654  -0.004867   0.000005  -0.000001  -0.000001
    19  H   -0.003966   0.365622   0.005008  -0.000001   0.000000  -0.000000
    20  H   -0.004364   0.366571  -0.004655   0.000004   0.000000  -0.000000
    21  H    0.005687   0.363893  -0.005739  -0.000021   0.000000  -0.000000
    22  H    0.005968  -0.008574   0.344534  -0.000557   0.000004  -0.000015
    23  H   -0.006595   0.000989   0.347625  -0.000077   0.000003  -0.000010
              13         14         15         16         17         18
     1  O    0.000273  -0.000059  -0.000059   0.000002  -0.000155   0.000012
     2  C   -0.004459   0.001757   0.000932  -0.000076   0.003304  -0.000215
     3  C   -0.039406  -0.030581  -0.024460   0.000002   0.001812  -0.000267
     4  C    0.378874  -0.006921   0.003878  -0.000038  -0.000359   0.000039
     5  C   -0.004002   0.362843   0.356144  -0.006337  -0.004896   0.005619
     6  C   -0.000080  -0.029913  -0.035855  -0.028513  -0.029044  -0.028735
     7  C    0.000185  -0.008732   0.005815   0.368193   0.367169   0.365782
     8  C   -0.000022   0.000387  -0.007752  -0.004421   0.005647  -0.005654
     9  C    0.000731   0.005568  -0.000728   0.005508  -0.004717  -0.004867
    10  H    0.005186   0.002968  -0.008635  -0.000002   0.000016   0.000005
    11  H   -0.031912   0.001769   0.000108  -0.000008  -0.000017  -0.000001
    12  H   -0.027275   0.000109  -0.000182  -0.000001   0.000073  -0.000001
    13  H    0.566268   0.001997  -0.000028   0.000131   0.004369   0.000017
    14  H    0.001997   0.586229  -0.034782   0.004828   0.000059   0.000125
    15  H   -0.000028  -0.034782   0.602871   0.000002  -0.000037  -0.000190
    16  H    0.000131   0.004828   0.000002   0.573407  -0.030536  -0.029866
    17  H    0.004369   0.000059  -0.000037  -0.030536   0.566221  -0.029528
    18  H    0.000017   0.000125  -0.000190  -0.029866  -0.029528   0.574116
    19  H   -0.000000   0.001965   0.000284   0.004120  -0.000061  -0.000231
    20  H    0.000001  -0.000174   0.000107  -0.000217  -0.000037   0.004477
    21  H   -0.000001  -0.000163   0.005639  -0.000043  -0.000191  -0.000041
    22  H   -0.000009  -0.000129   0.001911  -0.000179  -0.000003  -0.000075
    23  H   -0.000008  -0.000123  -0.000146   0.000062   0.000324   0.003894
              19         20         21         22         23
     1  O    0.000001   0.000000   0.000000   0.000227   0.001503
     2  C   -0.000091   0.000070   0.000105  -0.024060  -0.020745
     3  C    0.000127  -0.000185   0.000090   0.004238   0.006851
     4  C   -0.000008   0.000002  -0.000001   0.000101  -0.000256
     5  C   -0.004764   0.005294  -0.005654  -0.001222   0.004946
     6  C   -0.029331  -0.028086  -0.027446  -0.032161  -0.027893
     7  C   -0.003966  -0.004364   0.005687   0.005968  -0.006595
     8  C    0.365622   0.366571   0.363893  -0.008574   0.000989
     9  C    0.005008  -0.004655  -0.005739   0.344534   0.347625
    10  H   -0.000001   0.000004  -0.000021  -0.000557  -0.000077
    11  H    0.000000   0.000000   0.000000   0.000004   0.000003
    12  H   -0.000000  -0.000000  -0.000000  -0.000015  -0.000010
    13  H   -0.000000   0.000001  -0.000001  -0.000009  -0.000008
    14  H    0.001965  -0.000174  -0.000163  -0.000129  -0.000123
    15  H    0.000284   0.000107   0.005639   0.001911  -0.000146
    16  H    0.004120  -0.000217  -0.000043  -0.000179   0.000062
    17  H   -0.000061  -0.000037  -0.000191  -0.000003   0.000324
    18  H   -0.000231   0.004477  -0.000041  -0.000075   0.003894
    19  H    0.579847  -0.031649  -0.029805   0.000084  -0.000119
    20  H   -0.031649   0.577887  -0.030163   0.000067   0.001347
    21  H   -0.029805  -0.030163   0.580086   0.005375  -0.000142
    22  H    0.000084   0.000067   0.005375   0.569702  -0.025293
    23  H   -0.000119   0.001347  -0.000142  -0.025293   0.550287
 Mulliken charges:
               1
     1  O   -0.454141
     2  C    0.441114
     3  C   -0.162076
     4  C   -0.452577
     5  C   -0.292926
     6  C    0.091990
     7  C   -0.455409
     8  C   -0.452666
     9  C   -0.353181
    10  H    0.159158
    11  H    0.145399
    12  H    0.171006
    13  H    0.149170
    14  H    0.140972
    15  H    0.135163
    16  H    0.143983
    17  H    0.150587
    18  H    0.145587
    19  H    0.142968
    20  H    0.143703
    21  H    0.138533
    22  H    0.160066
    23  H    0.163577
 Sum of Mulliken charges =  -0.00000
 Mulliken charges with hydrogens summed into heavy atoms:
               1
     1  O   -0.454141
     2  C    0.441114
     3  C   -0.002918
     4  C    0.012999
     5  C   -0.016792
     6  C    0.091990
     7  C   -0.015252
     8  C   -0.027462
     9  C   -0.029538
 APT charges:
               1
     1  O   -0.668200
     2  C    0.753866
     3  C   -0.048512
     4  C    0.087809
     5  C    0.058139
     6  C    0.132785
     7  C    0.053660
     8  C    0.079935
     9  C   -0.104404
    10  H   -0.038069
    11  H   -0.028441
    12  H    0.003028
    13  H   -0.018451
    14  H   -0.030618
    15  H   -0.049728
    16  H   -0.024187
    17  H   -0.019693
    18  H   -0.026931
    19  H   -0.029932
    20  H   -0.029929
    21  H   -0.030871
    22  H   -0.007605
    23  H   -0.013649
 Sum of APT charges =   0.00000
 APT charges with hydrogens summed into heavy atoms:
               1
     1  O   -0.668200
     2  C    0.753866
     3  C   -0.086581
     4  C    0.043945
     5  C   -0.022208
     6  C    0.132785
     7  C   -0.017151
     8  C   -0.010797
     9  C   -0.125659
 Electronic spatial extent (au):  <R**2>=           1256.8754
 Charge=             -0.0000 electrons
 Dipole moment (field-independent basis, Debye):
    X=              2.1193    Y=             -1.6617    Z=             -0.7821  Tot=              2.8044
 Quadrupole moment (field-independent basis, Debye-Ang):
   XX=            -60.9806   YY=            -58.9326   ZZ=            -54.9096
   XY=              5.4281   XZ=              1.5675   YZ=             -0.9418
 Traceless Quadrupole moment (field-independent basis, Debye-Ang):
   XX=             -2.7063   YY=             -0.6584   ZZ=              3.3647
   XY=              5.4281   XZ=              1.5675   YZ=             -0.9418
 Octapole moment (field-independent basis, Debye-Ang**2):
  XXX=              1.4411  YYY=             -0.7394  ZZZ=             -2.3518  XYY=              7.6298
  XXY=             -9.1800  XXZ=             -1.4127  XZZ=             -3.4974  YZZ=              3.6019
  YYZ=             -0.9840  XYZ=              1.5711
 Hexadecapole moment (field-independent basis, Debye-Ang**3):
 XXXX=           -981.3701 YYYY=           -441.8342 ZZZZ=           -274.4896 XXXY=             11.8503
 XXXZ=              8.1020 YYYX=              4.7819 YYYZ=             -0.4538 ZZZX=             -1.9054
 ZZZY=              1.1247 XXYY=           -246.9524 XXZZ=           -204.0190 YYZZ=           -117.3096
 XXYZ=             -0.4434 YYXZ=              5.7013 ZZXY=             -1.8036
 N-N= 4.793394179086D+02 E-N=-1.859958977546D+03  KE= 3.847734851887D+02
  Exact polarizability:  91.980   0.549  80.854  -0.971   1.486  73.352
 Approx polarizability: 120.987  -5.661 117.096  -3.507   4.150 107.984
 Calling FoFJK, ICntrl=    100127 FMM=F ISym2X=0 I1Cent= 0 IOpClX= 0 NMat=1 NMatS=1 NMatT=0.
 Full mass-weighted force constant matrix:
 Low frequencies ---   -8.1713   -0.0007    0.0004    0.0007    1.9600    6.5178
 Low frequencies ---   67.1892  105.9136  216.5607
 Diagonal vibrational polarizability:
        3.9064341       5.4194954      17.3586575
 Harmonic frequencies (cm**-1), IR intensities (KM/Mole), Raman scattering
 activities (A**4/AMU), depolarization ratios for plane and unpolarized
 incident light, reduced masses (AMU), force constants (mDyne/A),
 and normal coordinates:
                      1                      2                      3
                      A                      A                      A
 Frequencies --     67.1850               105.9125               216.5603
 Red. masses --      3.4807                 2.7265                 1.1134
 Frc consts  --      0.0093                 0.0180                 0.0308
 IR Inten    --      2.7604                 0.4194                 0.2995
  Atom  AN      X      Y      Z        X      Y      Z        X      Y      Z
     1   8     0.06  -0.08   0.25    -0.04   0.01  -0.09     0.00  -0.03   0.04
     2   6     0.03  -0.02   0.04    -0.01  -0.01   0.01    -0.00  -0.00  -0.02
     3   6     0.01   0.00  -0.03     0.01  -0.00  -0.00     0.00   0.00  -0.03
     4   6    -0.12  -0.01  -0.19    -0.14   0.04  -0.12    -0.00   0.06   0.02
     5   6     0.01  -0.05   0.08    -0.00  -0.06   0.14     0.00  -0.00  -0.01
     6   6     0.01   0.02  -0.02     0.03  -0.00   0.05    -0.00  -0.00  -0.00
     7   6    -0.03   0.18   0.02     0.21  -0.01   0.04    -0.01  -0.03  -0.01
     8   6     0.02  -0.04  -0.00    -0.04   0.05  -0.12     0.00   0.01   0.01
     9   6     0.01   0.01  -0.16    -0.01  -0.02   0.13    -0.00  -0.00  -0.01
    10   1     0.13   0.08  -0.09     0.12   0.02  -0.05     0.00  -0.05  -0.03
    11   1    -0.13   0.03  -0.27    -0.10   0.03  -0.12     0.42  -0.16   0.34
    12   1    -0.10   0.03  -0.25    -0.14   0.06  -0.26    -0.18  -0.19  -0.43
    13   1    -0.22  -0.09  -0.16    -0.27   0.06  -0.05    -0.24   0.56   0.19
    14   1    -0.04   0.00   0.24    -0.07  -0.01   0.30    -0.00  -0.00  -0.01
    15   1     0.05  -0.22   0.10     0.04  -0.24   0.16     0.01  -0.00  -0.01
    16   1    -0.00   0.21   0.14     0.32   0.03  -0.02    -0.01  -0.03  -0.03
    17   1    -0.05   0.20  -0.02     0.25  -0.12   0.13    -0.01  -0.04  -0.01
    18   1    -0.07   0.26  -0.04     0.19   0.03  -0.01    -0.00  -0.04   0.01
    19   1     0.01  -0.04   0.11     0.01   0.07  -0.19     0.02   0.02   0.02
    20   1     0.02   0.00  -0.07    -0.00   0.07  -0.19    -0.02   0.03   0.01
    21   1     0.04  -0.15  -0.03    -0.18   0.06  -0.11     0.01   0.01   0.01
    22   1    -0.06  -0.15  -0.24     0.02   0.09   0.18     0.01  -0.00  -0.01
    23   1     0.08   0.11  -0.29    -0.06  -0.07   0.20    -0.01  -0.00  -0.00
                      4                      5                      6
                      A                      A                      A
 Frequencies --    226.9553               243.0901               256.9173
 Red. masses --      1.8739                 1.0646                 1.9813
 Frc consts  --      0.0569                 0.0371                 0.0771
 IR Inten    --      0.4741                 0.0715                 3.3514
  Atom  AN      X      Y      Z        X      Y      Z        X      Y      Z
     1   8     0.03  -0.05   0.02    -0.00  -0.03   0.00     0.07   0.15  -0.03
     2   6     0.02  -0.03  -0.03     0.00  -0.01  -0.01     0.01   0.03   0.06
     3   6     0.00  -0.03  -0.01     0.01  -0.01   0.00    -0.03   0.00   0.09
     4   6    -0.08   0.13   0.06    -0.02   0.04   0.02    -0.01  -0.15  -0.03
     5   6     0.01  -0.06  -0.01     0.01  -0.01   0.00    -0.03  -0.01   0.02
     6   6     0.01  -0.03  -0.02     0.00   0.01  -0.00    -0.00  -0.02  -0.02
     7   6    -0.02  -0.09  -0.03    -0.01  -0.00  -0.01    -0.03  -0.04  -0.02
     8   6     0.03   0.16   0.05     0.01   0.00   0.01     0.01   0.06   0.01
     9   6     0.00  -0.04  -0.04    -0.00   0.00  -0.02     0.01  -0.03  -0.04
    10   1     0.00  -0.06  -0.01     0.01  -0.03   0.00    -0.03   0.06   0.09
    11   1    -0.35   0.18   0.06    -0.09   0.05   0.04     0.22  -0.17  -0.09
    12   1     0.06   0.36   0.15     0.02   0.11   0.03    -0.13  -0.33  -0.14
    13   1    -0.02   0.02   0.02    -0.01   0.03   0.02    -0.13  -0.12   0.02
    14   1     0.00  -0.05   0.01     0.03   0.00   0.01    -0.02  -0.01   0.02
    15   1     0.00  -0.08  -0.01     0.01  -0.01   0.00    -0.08  -0.02   0.00
    16   1     0.07  -0.05  -0.08     0.33   0.16   0.00     0.31   0.12  -0.02
    17   1    -0.03  -0.21  -0.07    -0.04  -0.38  -0.10    -0.07  -0.42  -0.13
    18   1    -0.10  -0.06   0.04    -0.32   0.19   0.07    -0.35   0.15   0.07
    19   1     0.28   0.31   0.29    -0.15  -0.12  -0.36     0.14   0.14   0.15
    20   1    -0.21   0.44  -0.07     0.14  -0.30   0.28    -0.11   0.22  -0.07
    21   1     0.03  -0.06  -0.01     0.05   0.40   0.11     0.00  -0.08  -0.03
    22   1     0.02  -0.07  -0.05    -0.01  -0.02  -0.03    -0.04  -0.11  -0.09
    23   1     0.01  -0.02  -0.06    -0.01   0.02  -0.04     0.09   0.03  -0.12
                      7                      8                      9
                      A                      A                      A
 Frequencies --    296.3477               332.3438               339.4884
 Red. masses --      1.3812                 2.2404                 2.8222
 Frc consts  --      0.0715                 0.1458                 0.1916
 IR Inten    --      0.5791                 0.1078                 0.7486
  Atom  AN      X      Y      Z        X      Y      Z        X      Y      Z
     1   8     0.05   0.04  -0.02    -0.06   0.01  -0.01    -0.07  -0.06  -0.07
     2   6     0.02  -0.01   0.02    -0.06  -0.00   0.01     0.02  -0.04   0.11
     3   6    -0.00  -0.03   0.06    -0.06   0.00   0.03     0.05  -0.04   0.16
     4   6    -0.06  -0.04  -0.00    -0.09  -0.02  -0.00    -0.15   0.00   0.02
     5   6     0.01  -0.03   0.03    -0.03   0.06  -0.06     0.07   0.05  -0.02
     6   6     0.01  -0.00  -0.01     0.01   0.01  -0.01     0.08   0.07  -0.09
     7   6    -0.04  -0.03  -0.02     0.20  -0.01  -0.02    -0.09   0.03  -0.10
     8   6     0.01   0.11  -0.00     0.09  -0.04   0.16     0.12  -0.07  -0.04
     9   6     0.01  -0.02  -0.04    -0.04  -0.01  -0.09     0.03   0.06   0.07
    10   1     0.02  -0.01   0.05    -0.08   0.02   0.04     0.06   0.04   0.16
    11   1    -0.03  -0.03  -0.03    -0.08  -0.01  -0.02    -0.17   0.02  -0.02
    12   1    -0.06  -0.04  -0.06    -0.09  -0.01  -0.04    -0.12   0.11  -0.20
    13   1    -0.13  -0.05   0.03    -0.13  -0.03   0.02    -0.39  -0.03   0.12
    14   1     0.02  -0.01   0.08     0.03   0.01  -0.21     0.23   0.04  -0.10
    15   1    -0.03  -0.08   0.03    -0.08   0.23  -0.08    -0.09   0.13  -0.08
    16   1    -0.40  -0.20  -0.04     0.21  -0.03  -0.15    -0.15   0.01  -0.05
    17   1    -0.03   0.34   0.02     0.30   0.00   0.19    -0.17   0.05  -0.27
    18   1     0.26  -0.26  -0.03     0.35  -0.05  -0.13    -0.17   0.01   0.02
    19   1    -0.02   0.06  -0.35     0.01  -0.07   0.25     0.04  -0.09   0.13
    20   1     0.04  -0.10   0.25     0.04  -0.09   0.29     0.16  -0.04  -0.13
    21   1     0.02   0.48   0.09     0.31  -0.03   0.16     0.19  -0.24  -0.09
    22   1    -0.02  -0.07  -0.07    -0.10  -0.16  -0.17    -0.07   0.26   0.13
    23   1     0.04   0.02  -0.09     0.00   0.11  -0.22     0.02  -0.04   0.19
                     10                     11                     12
                      A                      A                      A
 Frequencies --    375.1912               409.4868               470.8671
 Red. masses --      2.1919                 1.7957                 2.8443
 Frc consts  --      0.1818                 0.1774                 0.3716
 IR Inten    --      0.9475                 0.1010                 4.9464
  Atom  AN      X      Y      Z        X      Y      Z        X      Y      Z
     1   8     0.10   0.03  -0.00     0.00  -0.03  -0.02    -0.16  -0.04  -0.07
     2   6     0.03  -0.06   0.00     0.02  -0.02   0.01    -0.00   0.03   0.19
     3   6    -0.05  -0.06  -0.03     0.04  -0.02   0.05     0.04   0.14   0.03
     4   6    -0.07  -0.01   0.01    -0.04   0.01  -0.01     0.09   0.09  -0.04
     5   6    -0.03  -0.01  -0.14     0.07   0.10  -0.03    -0.04  -0.06  -0.04
     6   6    -0.01  -0.09  -0.00     0.01   0.01   0.12     0.03  -0.14  -0.02
     7   6     0.02   0.16   0.05    -0.01  -0.05   0.13    -0.02   0.03   0.02
     8   6    -0.01   0.04   0.00    -0.08  -0.00  -0.08     0.05   0.02  -0.02
     9   6     0.02  -0.10   0.09     0.01  -0.01  -0.07     0.05  -0.10   0.01
    10   1    -0.11  -0.04  -0.00     0.04  -0.02   0.04     0.00   0.33   0.05
    11   1    -0.09  -0.03   0.07    -0.08   0.03  -0.02     0.17   0.08  -0.06
    12   1    -0.06   0.02  -0.04    -0.01   0.08  -0.10     0.05   0.01  -0.03
    13   1    -0.10   0.04   0.03    -0.14  -0.01   0.03     0.11   0.10  -0.05
    14   1     0.04  -0.11  -0.41     0.18  -0.01  -0.33    -0.20  -0.08  -0.04
    15   1    -0.06   0.28  -0.16     0.05   0.44  -0.05    -0.05  -0.10  -0.04
    16   1     0.07   0.22   0.32    -0.01  -0.06   0.07    -0.03   0.06   0.24
    17   1     0.03   0.25   0.08    -0.02  -0.08   0.10    -0.04   0.14  -0.02
    18   1    -0.01   0.34  -0.16    -0.01  -0.09   0.18    -0.04   0.13  -0.09
    19   1     0.09   0.09  -0.08    -0.06  -0.00  -0.15     0.18   0.09  -0.11
    20   1    -0.09   0.06   0.07     0.04   0.03  -0.26    -0.06   0.06   0.05
    21   1    -0.03   0.14   0.03    -0.31  -0.06  -0.09     0.02   0.13   0.01
    22   1     0.06   0.07   0.17    -0.02  -0.31  -0.20    -0.20  -0.36  -0.16
    23   1    -0.03  -0.21   0.23     0.06   0.19  -0.30     0.40   0.04  -0.24
                     13                     14                     15
                      A                      A                      A
 Frequencies --    552.6474               564.3777               649.5137
 Red. masses --      3.8234                 3.4514                 3.6706
 Frc consts  --      0.6880                 0.6477                 0.9124
 IR Inten    --      3.3335                 0.3326                 1.2068
  Atom  AN      X      Y      Z        X      Y      Z        X      Y      Z
     1   8    -0.03   0.20   0.07    -0.07  -0.10   0.03    -0.16   0.10   0.11
     2   6    -0.19  -0.03   0.02    -0.01   0.07  -0.17    -0.11   0.22  -0.14
     3   6    -0.03  -0.07  -0.13    -0.16   0.08  -0.01     0.14  -0.04   0.11
     4   6     0.01   0.02  -0.00    -0.07  -0.07   0.04     0.01  -0.01   0.00
     5   6     0.11   0.00   0.01    -0.13   0.07   0.04     0.14  -0.12  -0.03
     6   6     0.13   0.01   0.02     0.13  -0.03   0.05    -0.02  -0.14  -0.03
     7   6    -0.02  -0.01   0.05    -0.01  -0.02   0.11     0.01  -0.02   0.01
     8   6     0.21  -0.02  -0.09     0.20   0.03  -0.08    -0.04  -0.02   0.00
     9   6    -0.17  -0.13   0.04     0.14   0.03  -0.04     0.04   0.02  -0.06
    10   1     0.05  -0.18  -0.17    -0.17  -0.04  -0.01     0.17  -0.27   0.08
    11   1    -0.14  -0.03   0.18     0.08  -0.05  -0.06    -0.04   0.05  -0.13
    12   1     0.07   0.13   0.06    -0.16  -0.26   0.18     0.05   0.09  -0.17
    13   1     0.12   0.15  -0.03     0.05  -0.13  -0.01    -0.23  -0.15   0.08
    14   1     0.08   0.01   0.04    -0.24   0.04  -0.01     0.20  -0.19  -0.21
    15   1     0.16  -0.03   0.03    -0.14   0.08   0.04     0.05   0.07  -0.07
    16   1    -0.13  -0.05   0.14    -0.06  -0.03   0.22     0.04   0.02   0.15
    17   1    -0.12   0.05  -0.16    -0.09  -0.00  -0.08     0.03   0.06   0.07
    18   1    -0.11  -0.05   0.19    -0.11  -0.02   0.22     0.03   0.08  -0.15
    19   1     0.15  -0.05  -0.09     0.32   0.08  -0.18     0.09   0.04  -0.07
    20   1     0.31  -0.04  -0.18     0.16   0.08  -0.10    -0.13   0.03   0.05
    21   1     0.15  -0.08  -0.10     0.08   0.09  -0.06    -0.07   0.06   0.02
    22   1    -0.34  -0.21  -0.03     0.39   0.10   0.06     0.38   0.22   0.11
    23   1    -0.21   0.01  -0.10     0.01  -0.04   0.07     0.08  -0.21   0.18
                     16                     17                     18
                      A                      A                      A
 Frequencies --    748.3268               771.9549               879.0967
 Red. masses --      3.0936                 3.0342                 2.0291
 Frc consts  --      1.0207                 1.0653                 0.9239
 IR Inten    --      5.0925                 0.0696                 3.0654
  Atom  AN      X      Y      Z        X      Y      Z        X      Y      Z
     1   8     0.07  -0.03   0.00     0.04  -0.00  -0.02    -0.01   0.03  -0.01
     2   6    -0.03  -0.09  -0.12     0.04  -0.02   0.03    -0.02  -0.04   0.10
     3   6     0.05   0.12   0.18     0.04   0.02   0.07    -0.01  -0.13  -0.02
     4   6     0.10   0.10  -0.05     0.03   0.03  -0.01     0.06   0.01  -0.09
     5   6    -0.04   0.09   0.12    -0.06  -0.17  -0.16    -0.10   0.01   0.13
     6   6     0.00  -0.05  -0.01    -0.02   0.02  -0.03    -0.03  -0.03  -0.02
     7   6    -0.00   0.00  -0.05     0.00  -0.05   0.21    -0.01   0.00   0.02
     8   6     0.02  -0.01  -0.01     0.09   0.01  -0.04     0.03  -0.03  -0.03
     9   6    -0.17  -0.15  -0.05    -0.14   0.17  -0.08     0.05   0.08  -0.09
    10   1     0.10   0.03   0.15    -0.12   0.21   0.14     0.19  -0.03  -0.10
    11   1     0.26   0.21  -0.35     0.07   0.06  -0.09    -0.13  -0.08   0.22
    12   1     0.04  -0.00  -0.12     0.03   0.03  -0.10     0.16   0.18  -0.02
    13   1    -0.05  -0.12  -0.03    -0.07  -0.03   0.02     0.21   0.25  -0.12
    14   1    -0.07  -0.01  -0.13    -0.15  -0.14  -0.05     0.07  -0.13  -0.26
    15   1    -0.21   0.31   0.07    -0.12  -0.29  -0.17    -0.19   0.42   0.09
    16   1    -0.02   0.00   0.01     0.04  -0.04   0.16     0.00  -0.01  -0.09
    17   1    -0.02   0.03  -0.08     0.05  -0.08   0.31     0.01  -0.08   0.06
    18   1    -0.02   0.02  -0.06     0.05  -0.06   0.19     0.01  -0.05   0.08
    19   1     0.07   0.01  -0.01     0.04  -0.02  -0.03     0.22   0.07  -0.05
    20   1    -0.04   0.00   0.05     0.14  -0.02  -0.07    -0.17   0.06   0.09
    21   1     0.07   0.02  -0.00     0.11  -0.02  -0.05     0.09   0.10   0.00
    22   1    -0.01   0.08   0.09    -0.18   0.36  -0.00     0.01   0.34   0.02
    23   1    -0.47  -0.24   0.14    -0.37   0.11   0.05     0.08  -0.12   0.12
                     19                     20                     21
                      A                      A                      A
 Frequencies --    901.6506               917.2157               930.0382
 Red. masses --      2.0581                 1.7502                 1.9937
 Frc consts  --      0.9858                 0.8675                 1.0160
 IR Inten    --      1.9022                 1.4728                 0.7530
  Atom  AN      X      Y      Z        X      Y      Z        X      Y      Z
     1   8     0.02  -0.01   0.01    -0.00   0.01   0.01    -0.03   0.02   0.01
     2   6     0.03   0.06  -0.06    -0.03  -0.02  -0.01    -0.04  -0.01   0.00
     3   6     0.03  -0.08   0.00     0.05  -0.07   0.01    -0.01  -0.04   0.04
     4   6     0.06   0.01  -0.01     0.08  -0.03  -0.00     0.06   0.03  -0.03
     5   6    -0.13  -0.08   0.03    -0.08   0.16  -0.04    -0.08  -0.10  -0.05
     6   6    -0.01  -0.01   0.06    -0.03   0.01  -0.07     0.03   0.14   0.03
     7   6     0.00   0.01  -0.09    -0.01  -0.04   0.08     0.02   0.08   0.01
     8   6     0.05   0.00  -0.01     0.00  -0.00  -0.03    -0.01   0.08   0.03
     9   6    -0.04   0.10   0.16     0.04  -0.04   0.01     0.09  -0.13  -0.02
    10   1    -0.03  -0.37   0.02    -0.11  -0.23   0.08    -0.11  -0.04   0.08
    11   1     0.01   0.07  -0.14    -0.19   0.03  -0.02     0.02   0.06  -0.08
    12   1     0.09   0.10  -0.18     0.21   0.30  -0.33     0.08   0.09  -0.13
    13   1    -0.14  -0.10   0.05    -0.28  -0.05   0.14    -0.05  -0.01   0.01
    14   1    -0.09  -0.17  -0.21    -0.16   0.32   0.35    -0.07  -0.12  -0.12
    15   1    -0.19   0.17  -0.00    -0.06  -0.29  -0.02    -0.14  -0.00  -0.07
    16   1    -0.02   0.02   0.01     0.04   0.00   0.16    -0.07  -0.02  -0.34
    17   1    -0.03   0.07  -0.16     0.03   0.01   0.16    -0.03  -0.11  -0.10
    18   1    -0.04   0.05  -0.08     0.01   0.05  -0.06     0.02  -0.18   0.36
    19   1     0.06   0.00  -0.01     0.02   0.02   0.06    -0.39  -0.10   0.11
    20   1     0.07  -0.00  -0.02    -0.10   0.00   0.09     0.33  -0.10  -0.13
    21   1     0.04  -0.00  -0.01     0.18   0.02  -0.03    -0.02  -0.14  -0.03
    22   1    -0.13  -0.41  -0.09     0.03  -0.07  -0.01     0.22  -0.02   0.06
    23   1     0.03   0.46  -0.25     0.12  -0.04  -0.01     0.14  -0.25   0.09
                     22                     23                     24
                      A                      A                      A
 Frequencies --    959.6678               974.6632              1019.2084
 Red. masses --      1.4141                 1.7349                 1.2383
 Frc consts  --      0.7673                 0.9710                 0.7579
 IR Inten    --      0.0777                 3.2944                 1.5334
  Atom  AN      X      Y      Z        X      Y      Z        X      Y      Z
     1   8     0.00  -0.01   0.00     0.01  -0.02  -0.00    -0.00  -0.00   0.00
     2   6     0.01   0.02  -0.01     0.04   0.05  -0.02     0.00   0.01  -0.01
     3   6    -0.01   0.00  -0.01    -0.01   0.01  -0.01     0.01  -0.02   0.06
     4   6    -0.01   0.01   0.00    -0.03   0.03   0.01    -0.01  -0.02  -0.06
     5   6     0.01  -0.01   0.02     0.03  -0.02   0.05    -0.02   0.00   0.00
     6   6     0.05   0.01  -0.08    -0.13   0.03  -0.07    -0.01   0.01   0.00
     7   6     0.09  -0.02   0.06    -0.09   0.00   0.07    -0.01  -0.08  -0.02
     8   6    -0.10   0.02  -0.05     0.07   0.04  -0.09     0.01   0.08  -0.00
     9   6    -0.01   0.01   0.02    -0.01  -0.05   0.05    -0.00  -0.00   0.00
    10   1     0.05  -0.07  -0.03     0.09  -0.16  -0.06     0.20   0.22  -0.02
    11   1     0.06   0.01  -0.03     0.15   0.05  -0.11    -0.10  -0.13   0.24
    12   1    -0.05  -0.07   0.06    -0.13  -0.17   0.12     0.04   0.04   0.12
    13   1     0.04  -0.02  -0.03     0.07  -0.07  -0.04     0.22   0.22  -0.11
    14   1     0.09  -0.04  -0.07     0.28  -0.03  -0.05     0.08   0.03   0.02
    15   1    -0.06   0.07  -0.00    -0.04   0.14   0.02    -0.18  -0.03  -0.04
    16   1    -0.15  -0.09   0.32     0.11   0.05  -0.21     0.06   0.01   0.35
    17   1    -0.13   0.09  -0.39     0.11  -0.14   0.48     0.01   0.15   0.05
    18   1    -0.14  -0.03   0.34     0.12  -0.03  -0.11    -0.05   0.17  -0.31
    19   1    -0.22  -0.01   0.27    -0.09  -0.03   0.11    -0.31  -0.08   0.11
    20   1    -0.26  -0.08   0.27     0.07  -0.06   0.05     0.27  -0.09  -0.08
    21   1     0.42  -0.01  -0.06     0.39  -0.04  -0.11     0.09  -0.13  -0.06
    22   1    -0.10  -0.02  -0.02    -0.15  -0.11  -0.01     0.28  -0.14   0.01
    23   1     0.06   0.03  -0.03     0.32  -0.09  -0.01    -0.13   0.07  -0.03
                     25                     26                     27
                      A                      A                      A
 Frequencies --   1038.7840              1079.2721              1094.3402
 Red. masses --      1.8959                 1.4505                 1.4769
 Frc consts  --      1.2054                 0.9955                 1.0421
 IR Inten    --      8.3547                 1.5061                 1.3669
  Atom  AN      X      Y      Z        X      Y      Z        X      Y      Z
     1   8     0.00   0.02   0.00     0.00  -0.01  -0.01    -0.00   0.01  -0.01
     2   6    -0.07  -0.10   0.02     0.04   0.03   0.05    -0.01  -0.04   0.05
     3   6    -0.13  -0.07   0.03     0.01   0.02  -0.09    -0.07   0.01  -0.04
     4   6     0.04   0.14  -0.03     0.01  -0.02   0.05     0.05   0.00   0.02
     5   6     0.05  -0.01  -0.01    -0.01   0.01   0.07     0.06  -0.04   0.03
     6   6     0.03   0.03  -0.03     0.02  -0.03  -0.02    -0.07  -0.01   0.08
     7   6    -0.00  -0.06   0.00     0.01  -0.06  -0.01    -0.01  -0.01  -0.04
     8   6    -0.02  -0.01   0.04     0.01   0.08   0.05     0.02   0.02  -0.08
     9   6     0.08   0.06  -0.00    -0.03   0.01  -0.07     0.02   0.03  -0.03
    10   1    -0.19  -0.31   0.05    -0.05  -0.24  -0.07    -0.39   0.21   0.11
    11   1     0.35   0.21  -0.35    -0.02   0.06  -0.11    -0.04   0.07  -0.10
    12   1    -0.13  -0.18   0.03     0.00   0.01  -0.11     0.08   0.10  -0.19
    13   1     0.10  -0.12  -0.10    -0.20  -0.16   0.12    -0.19  -0.08   0.11
    14   1     0.37   0.08   0.12    -0.20  -0.09  -0.12    -0.03  -0.08  -0.06
    15   1    -0.17  -0.10  -0.07     0.08   0.16   0.09     0.40   0.13   0.13
    16   1     0.06   0.01   0.26     0.02  -0.01   0.27     0.00   0.01   0.04
    17   1     0.02   0.10   0.05    -0.00   0.10  -0.03    -0.00   0.04  -0.02
    18   1    -0.03   0.11  -0.21    -0.04   0.10  -0.18    -0.02   0.05  -0.12
    19   1     0.01   0.00  -0.06    -0.30  -0.08   0.02    -0.06   0.00   0.14
    20   1     0.02   0.03  -0.06     0.34  -0.06  -0.16    -0.04  -0.07   0.12
    21   1    -0.19  -0.00   0.04    -0.14  -0.14  -0.00     0.37  -0.01  -0.09
    22   1     0.03   0.04  -0.02    -0.32   0.29  -0.01     0.41  -0.07   0.02
    23   1     0.08   0.09  -0.02     0.21  -0.20   0.09    -0.18   0.05   0.02
                     28                     29                     30
                      A                      A                      A
 Frequencies --   1138.4431              1185.5823              1208.1708
 Red. masses --      2.0883                 2.3588                 1.7507
 Frc consts  --      1.5946                 1.9534                 1.5057
 IR Inten    --     29.4853                26.0288                 7.6143
  Atom  AN      X      Y      Z        X      Y      Z        X      Y      Z
     1   8    -0.00   0.04   0.00    -0.04  -0.00  -0.01     0.04  -0.01  -0.00
     2   6    -0.11  -0.14   0.03     0.13   0.13   0.13    -0.04  -0.04  -0.04
     3   6     0.18   0.01  -0.05     0.05  -0.12  -0.06     0.01  -0.05   0.07
     4   6    -0.08   0.04   0.08    -0.03   0.06   0.03    -0.02   0.03  -0.04
     5   6    -0.05   0.01  -0.03    -0.09   0.05  -0.05     0.02   0.04  -0.03
     6   6     0.00   0.02   0.04    -0.09   0.00   0.06    -0.16  -0.05   0.02
     7   6    -0.02  -0.01  -0.01     0.05   0.01  -0.02     0.08   0.02  -0.01
     8   6    -0.01   0.01  -0.04     0.04  -0.01  -0.00     0.06   0.01   0.02
     9   6     0.06   0.04  -0.01    -0.07  -0.07  -0.07    -0.07   0.07   0.01
    10   1     0.44  -0.12  -0.17     0.12  -0.17  -0.09    -0.05   0.06   0.10
    11   1     0.22   0.07  -0.14     0.22   0.09  -0.14     0.08  -0.02   0.02
    12   1    -0.21  -0.25   0.17    -0.17  -0.21   0.08    -0.03  -0.03   0.09
    13   1     0.01  -0.19   0.01     0.03  -0.18  -0.03     0.15   0.08  -0.10
    14   1    -0.52  -0.08  -0.13     0.34   0.20   0.20    -0.20   0.06   0.07
    15   1     0.01  -0.01  -0.01     0.05  -0.06   0.00     0.29  -0.03   0.05
    16   1     0.04   0.02  -0.02    -0.09  -0.04   0.07    -0.14  -0.07   0.07
    17   1     0.02   0.01   0.07    -0.04   0.04  -0.22    -0.06   0.02  -0.28
    18   1     0.01   0.03  -0.09    -0.07   0.01   0.11    -0.10  -0.02   0.23
    19   1    -0.04   0.01   0.08     0.12   0.02  -0.06     0.05  -0.01  -0.10
    20   1    -0.05  -0.03   0.07     0.04   0.02  -0.04     0.19  -0.00  -0.12
    21   1     0.17   0.01  -0.04    -0.00   0.02   0.00    -0.04  -0.04  -0.00
    22   1     0.24  -0.04  -0.00     0.37  -0.05   0.04     0.11  -0.04   0.00
    23   1    -0.01   0.06  -0.01    -0.41  -0.12   0.08     0.66  -0.18   0.05
                     31                     32                     33
                      A                      A                      A
 Frequencies --   1222.7119              1254.8570              1291.9362
 Red. masses --      1.7553                 1.9070                 1.6458
 Frc consts  --      1.5461                 1.7693                 1.6185
 IR Inten    --      5.6128                 6.8731                 1.3095
  Atom  AN      X      Y      Z        X      Y      Z        X      Y      Z
     1   8     0.01   0.01   0.01    -0.01  -0.00   0.01    -0.01   0.02   0.02
     2   6    -0.05  -0.05  -0.03     0.01   0.06  -0.05    -0.03  -0.00  -0.07
     3   6     0.06   0.06  -0.09     0.05  -0.08   0.04     0.05  -0.11  -0.02
     4   6     0.02  -0.04   0.08    -0.03   0.02  -0.03    -0.01   0.03   0.03
     5   6    -0.05  -0.06   0.04    -0.05  -0.03  -0.03    -0.06   0.04   0.01
     6   6    -0.07   0.12  -0.05     0.03   0.17   0.11     0.01  -0.13  -0.02
     7   6     0.04  -0.04   0.01    -0.01  -0.08  -0.04    -0.00   0.03   0.01
     8   6     0.03  -0.05   0.03    -0.01  -0.06  -0.04     0.00   0.06   0.01
     9   6    -0.01  -0.01   0.01     0.02  -0.07  -0.02     0.08   0.01   0.03
    10   1     0.05   0.49  -0.07    -0.24   0.18   0.18    -0.07   0.67   0.06
    11   1    -0.07   0.04  -0.06     0.09  -0.03   0.04     0.13   0.06  -0.09
    12   1     0.03   0.04  -0.13    -0.05  -0.06   0.09    -0.06  -0.07  -0.03
    13   1    -0.21  -0.13   0.15     0.13   0.04  -0.09     0.00  -0.12   0.01
    14   1     0.47  -0.01  -0.01    -0.17  -0.03  -0.01     0.23   0.10   0.09
    15   1    -0.23   0.12  -0.02     0.34   0.07   0.08     0.20   0.06   0.09
    16   1    -0.03  -0.03   0.24     0.10   0.02   0.20    -0.02  -0.00  -0.11
    17   1    -0.01   0.10  -0.09     0.01   0.18   0.03    -0.01  -0.09  -0.01
    18   1    -0.09   0.05   0.03    -0.06   0.13  -0.25     0.05  -0.05   0.06
    19   1     0.21   0.03  -0.14     0.18   0.06   0.06    -0.17  -0.04   0.03
    20   1    -0.03   0.09  -0.09    -0.20   0.04   0.08     0.14  -0.05  -0.01
    21   1    -0.16   0.08   0.06     0.10   0.15   0.02    -0.01  -0.12  -0.03
    22   1     0.13  -0.10   0.01    -0.46   0.21  -0.01    -0.37   0.12  -0.03
    23   1     0.22  -0.07   0.00     0.15  -0.16   0.04    -0.19   0.16  -0.06
                     34                     35                     36
                      A                      A                      A
 Frequencies --   1300.6023              1323.8883              1348.2584
 Red. masses --      1.9021                 1.8178                 1.4640
 Frc consts  --      1.8957                 1.8772                 1.5680
 IR Inten    --     18.1792                 1.8910                 3.8407
  Atom  AN      X      Y      Z        X      Y      Z        X      Y      Z
     1   8    -0.00   0.00   0.00     0.02  -0.00  -0.00     0.00  -0.01  -0.00
     2   6    -0.03  -0.04  -0.00    -0.02  -0.02  -0.01     0.02   0.03  -0.01
     3   6    -0.02   0.12   0.05    -0.04   0.04  -0.01    -0.15  -0.06   0.05
     4   6     0.01  -0.03  -0.01     0.03  -0.02   0.02     0.06   0.02   0.04
     5   6    -0.03  -0.04  -0.05    -0.01   0.00  -0.06     0.00  -0.00  -0.03
     6   6    -0.16   0.01   0.02     0.03  -0.07   0.22     0.03   0.04  -0.03
     7   6     0.05  -0.01  -0.01    -0.01   0.02  -0.04    -0.01  -0.01   0.00
     8   6     0.04   0.01   0.00    -0.02   0.02  -0.06    -0.01  -0.02   0.01
     9   6     0.16  -0.03   0.00    -0.03   0.03  -0.04    -0.02  -0.01   0.01
    10   1     0.28  -0.39  -0.10     0.28   0.04  -0.15     0.72   0.25  -0.33
    11   1    -0.08  -0.04   0.05    -0.05   0.02  -0.03    -0.02   0.11  -0.14
    12   1     0.07   0.09   0.02     0.04   0.04  -0.06     0.03   0.00  -0.15
    13   1    -0.02   0.10   0.01    -0.10  -0.02   0.07    -0.12  -0.08   0.10
    14   1     0.19   0.04   0.09     0.40   0.14   0.16    -0.19  -0.04  -0.06
    15   1     0.33   0.07   0.05    -0.38  -0.20  -0.15     0.34  -0.01   0.06
    16   1    -0.10  -0.06   0.08     0.01   0.01  -0.12     0.03   0.01   0.04
    17   1    -0.03   0.05  -0.16    -0.03   0.01  -0.10     0.02   0.03   0.06
    18   1    -0.10   0.05   0.08     0.03   0.02  -0.09    -0.00  -0.00  -0.01
    19   1     0.04   0.00  -0.05     0.02   0.05   0.16     0.02  -0.00  -0.01
    20   1     0.10   0.01  -0.09     0.02  -0.13   0.12    -0.04   0.03  -0.02
    21   1     0.03  -0.01  -0.01     0.23  -0.01  -0.06    -0.03   0.04   0.02
    22   1    -0.42   0.14  -0.06    -0.22   0.21  -0.01     0.05  -0.02   0.02
    23   1    -0.42   0.14  -0.01     0.33  -0.17   0.06     0.06   0.01  -0.03
                     37                     38                     39
                      A                      A                      A
 Frequencies --   1363.6918              1429.5529              1432.5666
 Red. masses --      1.6428                 1.2416                 1.2234
 Frc consts  --      1.7999                 1.4949                 1.4793
 IR Inten    --      1.8164                 1.0184                 9.0811
  Atom  AN      X      Y      Z        X      Y      Z        X      Y      Z
     1   8     0.01   0.00  -0.00    -0.00   0.00   0.00    -0.01   0.00   0.00
     2   6    -0.02  -0.03   0.01     0.01   0.00   0.00     0.01   0.00   0.00
     3   6     0.03   0.07   0.02    -0.00  -0.00  -0.01    -0.00  -0.00  -0.01
     4   6    -0.02  -0.02  -0.01    -0.06  -0.05   0.05    -0.06  -0.05   0.06
     5   6    -0.15  -0.04  -0.04     0.01   0.00   0.00     0.01   0.00   0.01
     6   6     0.12  -0.02  -0.03    -0.02  -0.00   0.02     0.01   0.01  -0.01
     7   6    -0.04   0.01  -0.01     0.00   0.02  -0.07     0.00  -0.02   0.06
     8   6    -0.03   0.01   0.01     0.07   0.00  -0.03    -0.07  -0.00   0.03
     9   6    -0.07   0.03  -0.00     0.01   0.00  -0.01    -0.00  -0.00   0.00
    10   1     0.01  -0.24   0.02     0.01   0.01  -0.01     0.00   0.01  -0.01
    11   1     0.04  -0.03   0.00     0.25   0.05  -0.28     0.30   0.05  -0.29
    12   1     0.04   0.09   0.03     0.12   0.32  -0.22     0.14   0.37  -0.24
    13   1     0.07   0.09  -0.03     0.30   0.17  -0.08     0.34   0.17  -0.09
    14   1     0.46   0.11   0.14    -0.02  -0.01  -0.02    -0.02  -0.03  -0.05
    15   1     0.63   0.17   0.18    -0.08  -0.05  -0.03    -0.01  -0.03   0.00
    16   1     0.08   0.06   0.04    -0.05   0.04   0.28     0.04  -0.04  -0.25
    17   1     0.05  -0.04   0.16     0.14  -0.05   0.25    -0.11   0.08  -0.20
    18   1     0.07  -0.09   0.02    -0.08  -0.15   0.26     0.02   0.14  -0.19
    19   1    -0.04   0.00   0.03    -0.23  -0.12   0.15     0.23   0.12  -0.14
    20   1     0.00  -0.03   0.02    -0.22   0.07   0.19     0.21  -0.07  -0.18
    21   1    -0.01  -0.02   0.00    -0.29   0.03  -0.01     0.28  -0.03   0.01
    22   1     0.22  -0.04   0.03    -0.04  -0.01  -0.02     0.02  -0.00   0.01
    23   1     0.21  -0.03  -0.02    -0.02  -0.03   0.03    -0.01   0.01  -0.01
                     40                     41                     42
                      A                      A                      A
 Frequencies --   1450.2606              1482.2768              1513.4599
 Red. masses --      1.2198                 1.0932                 1.0503
 Frc consts  --      1.5116                 1.4152                 1.4174
 IR Inten    --      2.4039                 7.7965                 0.1026
  Atom  AN      X      Y      Z        X      Y      Z        X      Y      Z
     1   8    -0.00  -0.00   0.00     0.00  -0.00  -0.00    -0.00   0.00  -0.00
     2   6     0.00   0.01  -0.00     0.00  -0.00   0.01     0.00   0.00  -0.00
     3   6    -0.00  -0.01  -0.00     0.00   0.00  -0.01    -0.00   0.00   0.00
     4   6     0.01   0.00  -0.00    -0.00  -0.00   0.00     0.00   0.00   0.01
     5   6     0.02   0.00   0.00     0.01  -0.01  -0.00     0.01  -0.02  -0.01
     6   6     0.01  -0.00   0.00    -0.01  -0.00   0.00    -0.00  -0.00   0.01
     7   6    -0.01   0.02  -0.09     0.01   0.00  -0.02    -0.02  -0.03  -0.00
     8   6    -0.09  -0.00   0.03    -0.01   0.00  -0.00     0.01   0.03   0.02
     9   6     0.01   0.01  -0.00    -0.02  -0.08   0.01     0.00   0.00  -0.00
    10   1    -0.01   0.02   0.00    -0.02  -0.02   0.00     0.01  -0.00  -0.00
    11   1    -0.04   0.01   0.01    -0.01   0.01  -0.01    -0.06   0.02  -0.01
    12   1    -0.02  -0.04  -0.00    -0.01  -0.01  -0.00    -0.03  -0.04  -0.06
    13   1    -0.01  -0.01   0.00     0.01   0.01  -0.00     0.05   0.00  -0.01
    14   1    -0.06   0.01   0.03    -0.05   0.03   0.09    -0.06   0.06   0.18
    15   1    -0.07   0.03  -0.02    -0.06   0.09  -0.02    -0.05   0.19  -0.03
    16   1    -0.01   0.09   0.41    -0.06  -0.02   0.03     0.37   0.14  -0.14
    17   1     0.18  -0.09   0.33     0.06   0.01   0.10    -0.02   0.45  -0.01
    18   1    -0.03  -0.25   0.33    -0.10   0.02   0.08    -0.09  -0.10   0.20
    19   1     0.31   0.17  -0.15     0.07   0.04  -0.00    -0.02  -0.04  -0.40
    20   1     0.29  -0.12  -0.22     0.06  -0.06   0.01    -0.17   0.02   0.22
    21   1     0.38  -0.03   0.01     0.02  -0.03  -0.01     0.04  -0.45  -0.11
    22   1    -0.07  -0.09  -0.06     0.18   0.56   0.31    -0.01  -0.02  -0.01
    23   1    -0.06  -0.07   0.09     0.15   0.42  -0.52    -0.01  -0.02   0.02
                     43                     44                     45
                      A                      A                      A
 Frequencies --   1516.6156              1526.2381              1528.6523
 Red. masses --      1.0606                 1.0549                 1.0497
 Frc consts  --      1.4373                 1.4478                 1.4452
 IR Inten    --      2.0016                 4.0807                 4.7394
  Atom  AN      X      Y      Z        X      Y      Z        X      Y      Z
     1   8    -0.00   0.00  -0.00    -0.00   0.00   0.00    -0.00   0.00   0.00
     2   6     0.00  -0.00   0.00     0.00   0.00  -0.00     0.01   0.00  -0.00
     3   6    -0.01  -0.01  -0.01     0.02  -0.01  -0.00    -0.01  -0.02  -0.01
     4   6    -0.01  -0.01  -0.01     0.03  -0.03   0.02    -0.01  -0.03  -0.04
     5   6     0.02  -0.03  -0.02     0.01  -0.02  -0.02     0.01  -0.01  -0.00
     6   6    -0.01  -0.01   0.01     0.02  -0.01  -0.01     0.01   0.02  -0.01
     7   6    -0.03   0.02   0.01     0.02  -0.00   0.01     0.01   0.00   0.00
     8   6     0.01  -0.02   0.02    -0.00  -0.00  -0.01    -0.00   0.02  -0.01
     9   6    -0.00  -0.00  -0.00    -0.00   0.01  -0.00    -0.00   0.00   0.00
    10   1     0.02   0.02  -0.02    -0.02   0.01   0.02     0.02   0.05  -0.02
    11   1     0.13  -0.03  -0.01    -0.38   0.23  -0.40     0.34  -0.03  -0.14
    12   1     0.06   0.11   0.09    -0.13  -0.29   0.01     0.19   0.24   0.54
    13   1    -0.07  -0.01   0.03     0.07   0.49   0.06    -0.40   0.19   0.17
    14   1    -0.13   0.11   0.35    -0.09   0.09   0.27    -0.06   0.02   0.09
    15   1    -0.11   0.37  -0.06    -0.05   0.29  -0.03    -0.02   0.11  -0.02
    16   1     0.16   0.12   0.18    -0.15  -0.09  -0.10    -0.14  -0.06   0.02
    17   1    -0.12  -0.15  -0.22     0.04  -0.03   0.08     0.02  -0.11   0.04
    18   1     0.34  -0.22  -0.08    -0.13   0.14  -0.04    -0.02   0.07  -0.06
    19   1    -0.22  -0.14  -0.06    -0.01   0.01   0.09     0.13   0.08  -0.06
    20   1    -0.11   0.28  -0.26     0.03  -0.01  -0.04     0.02  -0.16   0.22
    21   1     0.17   0.21   0.06    -0.02   0.09   0.02    -0.11  -0.23  -0.06
    22   1     0.00   0.04   0.02    -0.01  -0.07  -0.04    -0.01  -0.04  -0.02
    23   1     0.01   0.02  -0.03    -0.02  -0.04   0.06    -0.01  -0.03   0.03
                     46                     47                     48
                      A                      A                      A
 Frequencies --   1531.7245              1535.8499              1538.4859
 Red. masses --      1.0649                 1.0569                 1.0539
 Frc consts  --      1.4720                 1.4688                 1.4697
 IR Inten    --      3.6813                 3.5028                 6.7661
  Atom  AN      X      Y      Z        X      Y      Z        X      Y      Z
     1   8    -0.00  -0.00  -0.00    -0.00   0.00   0.00     0.00  -0.00  -0.00
     2   6     0.00   0.00  -0.00     0.00  -0.00   0.00    -0.00   0.00   0.00
     3   6    -0.01   0.01   0.00     0.01  -0.01  -0.00     0.00   0.00   0.01
     4   6    -0.01   0.02   0.00     0.01  -0.02  -0.01     0.01   0.00   0.02
     5   6     0.02  -0.04  -0.02    -0.00   0.02   0.01     0.00  -0.00  -0.00
     6   6    -0.00  -0.00  -0.02    -0.03  -0.01  -0.02    -0.02   0.03  -0.00
     7   6     0.00  -0.01   0.01    -0.03  -0.02   0.00    -0.02   0.03   0.01
     8   6    -0.01   0.00  -0.03    -0.00  -0.01  -0.02     0.00   0.03  -0.01
     9   6     0.00   0.01   0.00     0.00  -0.01   0.00     0.00  -0.01   0.00
    10   1     0.03   0.00  -0.02    -0.02   0.00   0.01     0.00  -0.02   0.01
    11   1     0.10  -0.10   0.23    -0.04   0.07  -0.18    -0.18   0.06  -0.05
    12   1     0.01   0.08  -0.19     0.01  -0.04   0.18    -0.08  -0.12  -0.18
    13   1     0.10  -0.31  -0.09    -0.11   0.24   0.08     0.16   0.05  -0.05
    14   1    -0.14   0.10   0.35     0.03  -0.04  -0.15    -0.02  -0.02  -0.03
    15   1    -0.07   0.39  -0.05     0.02  -0.16   0.02     0.02  -0.01   0.00
    16   1     0.01  -0.02  -0.08     0.45   0.22   0.02    -0.02   0.06   0.28
    17   1     0.00   0.08   0.02    -0.11   0.30  -0.17    -0.12  -0.39  -0.25
    18   1    -0.07   0.04   0.02     0.17  -0.27   0.15     0.41  -0.16  -0.20
    19   1     0.20   0.15   0.37     0.12   0.09   0.35     0.18   0.10  -0.09
    20   1     0.21  -0.29   0.13     0.19  -0.16  -0.01     0.01  -0.21   0.31
    21   1    -0.26   0.11   0.01    -0.17   0.22   0.05    -0.16  -0.32  -0.09
    22   1    -0.00  -0.09  -0.04     0.02   0.04   0.02     0.00   0.02   0.01
    23   1    -0.03  -0.04   0.06    -0.02   0.04  -0.04     0.00   0.01  -0.02
                     49                     50                     51
                      A                      A                      A
 Frequencies --   1838.4386              3021.0652              3026.2928
 Red. masses --     12.3879                 1.0691                 1.0812
 Frc consts  --     24.6686                 5.7490                 5.8343
 IR Inten    --    191.8585                 8.7738                15.1377
  Atom  AN      X      Y      Z        X      Y      Z        X      Y      Z
     1   8    -0.40   0.30   0.15    -0.00   0.00   0.00    -0.00   0.00   0.00
     2   6     0.62  -0.46  -0.23     0.00  -0.00  -0.00    -0.00  -0.00  -0.00
     3   6    -0.03   0.02   0.02     0.01  -0.00   0.02    -0.03   0.00  -0.07
     4   6     0.01   0.00  -0.01    -0.00  -0.00  -0.00     0.00   0.00   0.01
     5   6    -0.01   0.02   0.00    -0.00   0.00  -0.00    -0.01   0.01   0.02
     6   6    -0.02   0.01   0.01     0.00  -0.00  -0.00     0.00  -0.00   0.00
     7   6     0.00  -0.00  -0.00    -0.00   0.00  -0.00     0.00  -0.00  -0.00
     8   6     0.00  -0.00  -0.00    -0.00  -0.00   0.00     0.00  -0.00  -0.00
     9   6    -0.04   0.02   0.01     0.02   0.04  -0.06     0.00   0.01  -0.01
    10   1     0.03  -0.02  -0.02    -0.09   0.01  -0.19     0.38  -0.03   0.84
    11   1    -0.09  -0.02   0.08     0.00   0.01   0.00    -0.00  -0.03  -0.01
    12   1    -0.01  -0.07  -0.01     0.00  -0.00  -0.00    -0.01   0.01   0.00
    13   1    -0.03  -0.03  -0.01     0.01  -0.00   0.01    -0.04   0.01  -0.08
    14   1    -0.01   0.02  -0.01     0.00  -0.00   0.00     0.01  -0.09   0.04
    15   1     0.01  -0.01   0.01    -0.00   0.00   0.01     0.08  -0.00  -0.28
    16   1    -0.01  -0.00   0.02     0.02  -0.03   0.00     0.00  -0.00   0.00
    17   1    -0.00  -0.02  -0.01    -0.03  -0.00   0.01    -0.00  -0.00   0.00
    18   1     0.01  -0.00  -0.00     0.02   0.03   0.02     0.00   0.00   0.00
    19   1    -0.00   0.00  -0.01     0.02  -0.05   0.01    -0.01   0.01  -0.00
    20   1    -0.00   0.00  -0.00     0.03   0.04   0.03    -0.00  -0.00  -0.00
    21   1    -0.00   0.00  -0.00    -0.01   0.02  -0.07     0.00  -0.00   0.01
    22   1    -0.04   0.01  -0.00    -0.19  -0.35   0.85    -0.04  -0.08   0.18
    23   1     0.19  -0.03  -0.03    -0.04  -0.15  -0.17    -0.01  -0.03  -0.04
                     52                     53                     54
                      A                      A                      A
 Frequencies --   3035.0678              3041.5771              3051.9758
 Red. masses --      1.0353                 1.0376                 1.0536
 Frc consts  --      5.6189                 5.6555                 5.7822
 IR Inten    --     28.0750                20.3571                30.4036
  Atom  AN      X      Y      Z        X      Y      Z        X      Y      Z
     1   8     0.00   0.00  -0.00     0.00   0.00  -0.00    -0.00   0.00   0.00
     2   6    -0.00  -0.00   0.00    -0.00  -0.00   0.00    -0.00  -0.00  -0.00
     3   6     0.00  -0.00   0.00     0.00  -0.00   0.01    -0.01   0.00  -0.02
     4   6    -0.00  -0.00   0.00     0.00   0.00  -0.00     0.01   0.02  -0.01
     5   6    -0.00   0.00   0.00    -0.01   0.01   0.01     0.02  -0.04  -0.03
     6   6    -0.00  -0.00   0.00    -0.00   0.00  -0.00     0.00   0.00  -0.00
     7   6    -0.00   0.00  -0.02     0.01  -0.01   0.04    -0.00  -0.00   0.01
     8   6     0.04  -0.00  -0.02     0.02  -0.00  -0.01     0.01   0.00  -0.00
     9   6     0.00   0.00  -0.00     0.00   0.00  -0.01     0.00   0.00  -0.01
    10   1    -0.03   0.00  -0.06    -0.04   0.00  -0.08     0.10  -0.01   0.21
    11   1     0.00   0.01   0.01    -0.00  -0.02  -0.01    -0.05  -0.31  -0.14
    12   1     0.01  -0.00  -0.00    -0.02   0.01   0.00    -0.23   0.13   0.02
    13   1    -0.01   0.00  -0.01     0.02  -0.01   0.05     0.13  -0.04   0.29
    14   1     0.00  -0.04   0.02     0.02  -0.14   0.06    -0.05   0.44  -0.19
    15   1     0.02  -0.00  -0.07     0.05  -0.00  -0.18    -0.17   0.01   0.58
    16   1     0.10  -0.21   0.03    -0.22   0.47  -0.06    -0.03   0.06  -0.01
    17   1    -0.19  -0.00   0.08     0.45   0.01  -0.20     0.09   0.00  -0.04
    18   1     0.13   0.16   0.11    -0.29  -0.37  -0.25    -0.05  -0.06  -0.04
    19   1    -0.23   0.49  -0.05    -0.09   0.18  -0.02    -0.04   0.08  -0.01
    20   1    -0.28  -0.35  -0.25    -0.10  -0.13  -0.09    -0.06  -0.07  -0.05
    21   1     0.02  -0.13   0.51     0.01  -0.05   0.20     0.00  -0.02   0.07
    22   1    -0.01  -0.02   0.05    -0.01  -0.03   0.07    -0.01  -0.03   0.07
    23   1    -0.00  -0.01  -0.01     0.00  -0.00  -0.00    -0.00  -0.00  -0.00
                     55                     56                     57
                      A                      A                      A
 Frequencies --   3055.1881              3089.9737              3100.7701
 Red. masses --      1.0427                 1.1043                 1.1023
 Frc consts  --      5.7346                 6.2121                 6.2443
 IR Inten    --     21.4962                17.1466                12.1254
  Atom  AN      X      Y      Z        X      Y      Z        X      Y      Z
     1   8    -0.00   0.00   0.00     0.00  -0.00  -0.00     0.00  -0.00   0.00
     2   6     0.00  -0.00  -0.00    -0.00   0.00   0.00    -0.00  -0.00  -0.00
     3   6     0.00  -0.00   0.01     0.00  -0.00   0.01     0.00  -0.00   0.00
     4   6     0.02   0.03  -0.03    -0.00  -0.00  -0.00     0.00   0.00   0.00
     5   6    -0.01   0.02   0.02    -0.01  -0.06   0.07     0.00   0.00  -0.00
     6   6    -0.00  -0.00   0.00     0.00  -0.00   0.00     0.00  -0.00   0.00
     7   6    -0.00   0.00  -0.01     0.00   0.01   0.00     0.00   0.03   0.01
     8   6    -0.01  -0.00   0.00    -0.01   0.00  -0.02     0.01  -0.09   0.01
     9   6    -0.00  -0.00   0.00    -0.00  -0.00  -0.00    -0.00  -0.00  -0.00
    10   1    -0.05   0.00  -0.10    -0.04   0.00  -0.08    -0.00   0.00  -0.00
    11   1    -0.08  -0.45  -0.21     0.01   0.03   0.01    -0.00  -0.00  -0.00
    12   1    -0.36   0.20   0.03     0.05  -0.03  -0.01    -0.00   0.00   0.00
    13   1     0.22  -0.06   0.49     0.00  -0.00   0.00    -0.00   0.00  -0.00
    14   1     0.03  -0.23   0.10    -0.09   0.73  -0.30     0.00  -0.02   0.01
    15   1     0.12  -0.01  -0.40     0.16  -0.03  -0.52    -0.00  -0.00   0.01
    16   1     0.04  -0.09   0.01     0.03  -0.07   0.01     0.11  -0.22   0.03
    17   1    -0.06  -0.00   0.03    -0.01   0.00   0.01    -0.02   0.01   0.01
    18   1     0.06   0.08   0.05    -0.06  -0.07  -0.05    -0.14  -0.17  -0.12
    19   1     0.03  -0.05   0.01     0.02  -0.04   0.00    -0.33   0.66  -0.07
    20   1     0.04   0.05   0.03     0.06   0.07   0.05     0.27   0.31   0.24
    21   1    -0.00   0.01  -0.05     0.00  -0.03   0.13    -0.01   0.06  -0.30
    22   1     0.01   0.02  -0.04     0.00   0.00  -0.00    -0.00  -0.00   0.00
    23   1    -0.00  -0.00  -0.00     0.00   0.01   0.01     0.01   0.04   0.04
                     58                     59                     60
                      A                      A                      A
 Frequencies --   3104.4314              3107.8031              3110.1308
 Red. masses --      1.1025                 1.1015                 1.1020
 Frc consts  --      6.2600                 6.2685                 6.2806
 IR Inten    --     26.0456                54.4965                41.8835
  Atom  AN      X      Y      Z        X      Y      Z        X      Y      Z
     1   8    -0.00   0.00   0.00     0.00  -0.00  -0.00     0.00  -0.00   0.00
     2   6     0.00  -0.00  -0.00    -0.00  -0.00   0.00    -0.00   0.00  -0.00
     3   6    -0.00   0.00  -0.00    -0.00  -0.00  -0.00     0.00  -0.00   0.00
     4   6     0.00   0.00   0.01    -0.01  -0.01  -0.01     0.01   0.01   0.01
     5   6     0.00   0.01  -0.01     0.00  -0.00   0.00    -0.00  -0.01   0.01
     6   6    -0.00   0.00  -0.00    -0.00  -0.00  -0.00     0.00  -0.00   0.00
     7   6     0.03   0.02   0.00    -0.06  -0.05  -0.01     0.06  -0.06  -0.02
     8   6    -0.03  -0.00  -0.08    -0.01  -0.03  -0.03     0.00  -0.02   0.01
     9   6     0.00   0.01   0.01     0.00   0.01   0.01     0.00   0.01   0.01
    10   1     0.00  -0.00   0.01     0.00  -0.00   0.01    -0.01   0.00  -0.02
    11   1    -0.01  -0.05  -0.02     0.02   0.10   0.04    -0.02  -0.12  -0.05
    12   1    -0.03   0.02   0.01     0.04  -0.02  -0.01    -0.02   0.02   0.01
    13   1    -0.02   0.01  -0.05     0.04  -0.01   0.10    -0.05   0.02  -0.11
    14   1     0.01  -0.13   0.05    -0.00   0.04  -0.01    -0.01   0.08  -0.03
    15   1    -0.03   0.01   0.13     0.00   0.00  -0.00     0.01  -0.00  -0.04
    16   1     0.02  -0.03   0.01    -0.10   0.17  -0.03    -0.30   0.65  -0.10
    17   1    -0.23  -0.00   0.11     0.46  -0.00  -0.21    -0.52  -0.02   0.23
[...]
 116347,-0.00006869,0.00012543,-0.00009875,-0.00483737,0.00284281,0.001
 14555,-0.00037596,0.00044091,-0.00017011,0.00000770,0.00025245,-0.0000
 6722,0.00001422,0.00015515,-0.00023495,0.00014722,0.00002825,0.0778048
 0,0.13724455,-0.00033420,-0.00020829,0.00008150,0.00121255,0.00142308,
 -0.00045193,-0.00122730,-0.00088201,-0.00208175,0.00120315,-0.00082687
 ,0.00088571,-0.08825993,-0.09788092,-0.16675135,0.00574131,0.00699226,
 0.00682212,0.00085091,0.00116178,0.00080109,0.00010257,-0.00031858,-0.
 00031340,0.00076212,0.00194082,-0.00039285,-0.00089726,-0.00003594,0.0
 0014786,-0.00018329,0.00051822,0.00014340,0.00012482,0.00000797,0.0000
 1103,-0.00018189,0.00034465,0.00035554,0.09517385,0.10410095,0.1785435
 1,-0.00088979,-0.00120991,-0.00025109,-0.00151858,0.00246266,0.0002257
 8,-0.01556483,0.00128434,0.02401555,-0.00398847,-0.00075066,-0.0017061
 0,-0.11428810,-0.00622312,0.11222294,-0.00126077,0.00039052,0.00211179
 ,0.00009768,0.00010273,-0.00084020,0.00055735,0.00150392,-0.00070318,0
 .00010647,-0.00000664,0.00055212,0.00144816,0.00045950,0.00023386,0.00
 018733,0.00011979,-0.00004117,-0.00042892,0.00103006,0.00078799,0.0000
 1462,-0.00018197,0.00005047,0.00969176,0.00095925,-0.01471051,0.125173
 07,0.00037006,0.00055744,0.00013066,-0.00000048,-0.00162426,-0.0003403
 4,0.00718981,-0.00023441,-0.01006776,0.00262563,0.00006431,0.00055375,
 -0.00617355,-0.04807104,0.00300835,-0.01391752,-0.00211519,0.02846285,
 -0.00088401,-0.00599459,0.00031654,-0.00086328,0.00132875,0.00177621,0
 .00074693,0.00064703,0.00021576,0.00000119,0.00060824,-0.00033574,-0.0
 0012261,0.00005566,0.00000455,0.00047539,-0.00067006,-0.00025244,-0.00
 019923,0.00012627,0.00020991,0.01005228,0.00110877,-0.01633486,0.00064
 343,0.05456721,-0.00012427,-0.00011366,-0.00011109,-0.00013528,-0.0000
 1493,-0.00002463,-0.00577295,0.00077014,0.00528420,-0.00012875,-0.0000
 7784,0.00045905,0.11247117,0.00289070,-0.24189086,0.00358264,0.0006392
 5,-0.01013351,0.00028896,0.00321787,0.00059462,0.00059142,-0.00145687,
 0.00057880,-0.00025893,-0.00007683,-0.00003833,-0.00026081,0.00002929,
 0.00211179,0.00002592,0.00005764,-0.00006157,-0.00004128,0.00002023,0.
 00010846,-0.00025517,0.00010941,0.00032187,0.01130471,0.00070250,-0.01
 936740,-0.12102951,-0.00754642,0.26102721,0.00014811,0.00021849,-0.000
 21727,0.00009916,-0.00053969,0.00060818,-0.00010704,0.00008754,0.00016
 289,0.00017003,0.00007768,-0.00014212,0.00017615,-0.00015199,0.0000499
 8,0.00242782,0.00177347,0.00201710,-0.21831525,-0.07980998,-0.09630902
 ,0.00066618,0.00027168,0.00049399,0.00116329,-0.00004021,0.00040743,0.
 00007440,0.00005097,0.00002018,-0.00001514,0.00009847,-0.00006300,0.00
 000854,-0.00003706,0.00006200,-0.00014367,-0.00015301,-0.00001403,0.00
 024619,0.00063964,-0.00015848,0.00015219,0.00028112,0.00009934,0.23507
 901,-0.00038503,0.00010450,0.00010816,0.00024965,-0.00022514,-0.000516
 65,0.00001933,-0.00007361,0.00016609,-0.00007814,-0.00001824,0.0000895
 4,0.00117603,0.00090147,0.00052666,0.00140566,-0.00090466,0.00134256,-
 0.07981713,-0.08771519,-0.04576028,-0.00052742,-0.00014094,-0.00016000
 ,-0.00018428,0.00056115,0.00041022,0.00001697,-0.00001513,0.00000310,0
 .00001342,-0.00003160,0.00003267,-0.00001572,0.00001456,-0.00003711,0.
 00007727,0.00009703,-0.00003705,-0.00012533,-0.00002329,0.00000603,0.0
 0002532,0.00005351,-0.00012394,0.08853401,0.09023462,-0.00053350,0.000
 51135,0.00023394,0.00096902,-0.00155320,-0.00030456,-0.00007948,0.0002
 3036,0.00014341,0.00008942,0.00003935,-0.00009248,-0.00082531,-0.00190
 227,0.00107597,-0.02730088,-0.01210889,-0.01557349,-0.09550348,-0.0450
 4319,-0.10296110,-0.00161418,0.00015635,0.00127902,0.00225905,0.000744
 98,-0.00640718,0.00011164,0.00000466,0.00002692,-0.00001707,0.00005347
 ,0.00004441,0.00001048,-0.00003288,0.00000335,-0.00003277,0.00003620,0
 .00004929,0.00044391,0.00108938,0.00034540,0.00022900,-0.00001749,0.00
 033763,0.10538621,0.05001644,0.11333551,0.00008534,-0.00028239,-0.0002
 5056,0.00027307,0.00062420,0.00050707,0.00005961,-0.00013923,0.0005344
 0,-0.00022226,0.00049946,0.00048850,0.00016991,0.00043649,0.00007562,-
 0.00275479,0.00049833,0.00003435,-0.21918993,0.10813926,0.06109890,0.0
 0086176,-0.00059096,0.00126448,0.00055733,-0.00067646,-0.00045833,0.00
 006114,-0.00007490,-0.00006649,-0.00004441,0.00012886,-0.00018562,-0.0
 0004334,0.00016130,-0.00027112,0.00021860,0.00017356,-0.00078322,-0.00
 026399,-0.00018392,0.00001077,-0.00002280,-0.00016022,-0.00009632,-0.0
 2045162,0.01436936,0.00788602,0.23606469,-0.00045162,-0.00023709,0.000
 35358,0.00065384,0.00067589,-0.00055768,0.00004256,0.00006754,-0.00007
 630,0.00018452,-0.00071044,0.00062272,-0.00039143,0.00035107,-0.000205
 34,-0.00285289,0.00025888,0.00084871,0.10823399,-0.11844625,-0.0392910
 6,-0.00026373,0.00042228,-0.00001005,0.00021423,0.00027834,-0.00003808
 ,-0.00002582,-0.00003035,-0.00008319,-0.00001688,-0.00005804,-0.000060
 66,0.00001600,0.00002559,-0.00003874,0.00033840,-0.00078894,0.00025227
 ,-0.00014379,0.00003615,-0.00008049,0.00001300,0.00004261,-0.00020391,
 -0.01102332,0.00712210,0.00494984,-0.12083338,0.12586211,-0.00051796,0
 .00023041,0.00025643,-0.00020032,-0.00035933,-0.00129955,0.00007307,0.
 00059005,-0.00043239,-0.00024895,0.00007347,-0.00042305,-0.00012955,-0
 .00066055,0.00126019,0.02747911,-0.01827276,-0.00802609,0.06075576,-0.
 03886330,-0.07197797,-0.00070012,0.00137000,-0.00708016,0.00053670,0.0
 0022927,0.00165741,-0.00010268,-0.00004408,0.00005449,0.00004870,-0.00
 013833,0.00016429,-0.00000578,-0.00001409,0.00011202,-0.00004152,0.000
 36158,0.00049429,0.00001134,0.00033361,0.00004220,-0.00006548,-0.00022
 236,0.00024711,-0.01201777,0.00920676,0.00463391,-0.06785128,0.0428205
 2,0.07799652,0.00001410,-0.00012573,-0.00009700,0.00002153,0.00027578,
 0.00038653,-0.00007775,-0.00020572,0.00061311,-0.00001852,0.00014484,0
 .00028540,0.00022925,-0.00029281,0.00075984,-0.00173460,-0.00380480,0.
 00042953,-0.05321791,-0.02801891,0.00800969,0.00008734,-0.00101748,0.0
 0014083,0.00041099,0.00109715,-0.00041697,0.00016999,-0.00007246,-0.00
 003217,-0.00003168,0.00009587,-0.00013594,-0.00000373,0.00006611,-0.00
 009624,0.00003612,-0.00011972,-0.00034009,0.00013694,0.00038442,0.0001
 2367,0.00024288,-0.00013982,0.00025261,-0.00221360,-0.02573195,0.00879
 571,0.00388328,0.02626167,-0.00867441,0.05215410,0.00012140,0.00022925
 ,-0.00001054,-0.00002032,-0.00053234,-0.00021889,-0.00030301,0.0002334
 6,0.00002611,0.00014594,0.00003670,-0.00037571,-0.00035554,0.00127892,
 0.00040394,-0.00012467,-0.00187610,-0.00007996,-0.02837989,-0.28499609
 ,0.07173340,0.00026566,0.00040490,-0.00069166,-0.00029261,0.00060544,-
 0.00036141,0.00010766,0.00001067,0.00005045,-0.00000750,-0.00001013,0.
 00008905,0.00003729,-0.00009340,0.00009421,-0.00007217,0.00000009,0.00
 027954,0.00024558,0.00047007,-0.00006593,0.00014237,-0.00010225,0.0003
 5586,-0.00052700,-0.01068915,0.00289901,-0.00245986,-0.01541309,0.0043
 7730,0.03109536,0.30904803,-0.00015204,-0.00023533,0.00001364,0.000042
 58,0.00060518,0.00025298,0.00034874,-0.00032212,0.00013982,-0.00010554
 ,-0.00005904,-0.00030228,0.00155625,-0.00156386,-0.00646092,0.00321164
 ,0.03220399,-0.01040838,0.00780994,0.07085660,-0.07016688,-0.00085957,
 0.00134046,0.00135640,0.00145782,0.00088579,0.00108872,-0.00013851,0.0
 0003227,0.00001495,0.00000972,-0.00002381,0.00003064,-0.00003104,0.000
 04350,0.00012294,-0.00005660,0.00004901,0.00015495,0.00012265,-0.00020
 457,0.00020555,-0.00004131,0.00209803,-0.00081982,-0.00038731,-0.01508
 103,0.00458825,-0.00212288,-0.00942133,0.00259339,-0.01015993,-0.07899
 973,0.07704577,-0.00119401,0.00122447,0.00019261,-0.00022461,-0.002785
 32,-0.00070201,-0.00019777,0.00023427,0.00017982,0.00020116,0.00002316
 ,-0.00010188,0.00118490,-0.00110482,0.00023839,-0.02262319,-0.01060187
 ,-0.01202897,0.00065682,-0.00089050,-0.00142007,-0.22448022,-0.0801832
 5,-0.09062469,-0.00300155,0.00499780,0.00213245,0.00009057,0.00002732,
 0.00003386,-0.00000731,0.00007237,0.00004891,0.00000064,-0.00007895,-0
 .00001569,-0.00003061,0.00000042,0.00004177,0.00005947,0.00077625,0.00
 008048,0.00008972,0.00026563,-0.00022830,0.00035457,0.00038830,0.00110
 129,0.00050024,0.00026906,0.00006115,-0.00003700,0.00005647,0.00009649
 ,0.24605983,0.00002078,-0.00053923,-0.00013683,0.00120294,0.00105242,0
 .00040135,-0.00020187,0.00003587,-0.00005414,-0.00008540,-0.00003020,-
 0.00003671,-0.00006619,0.00130281,0.00043101,0.01562233,0.00693881,0.0
 0864344,-0.00031644,0.00036594,0.00064023,-0.08068078,-0.08620453,-0.0
 4151860,0.00266174,-0.00133550,-0.00098757,-0.00004451,0.00002199,-0.0
 0002491,0.00001263,-0.00001481,-0.00000463,-0.00002525,0.00003228,0.00
 001831,0.00001258,0.00000082,0.00000249,-0.00007424,0.00001612,-0.0002
 7897,-0.00014493,0.00001074,0.00016704,-0.00016312,0.00017759,-0.00008
 427,-0.00004832,-0.00007016,0.00026526,-0.00010147,-0.00004932,-0.0001
 4635,0.08644770,0.08980703,0.00004001,-0.00003287,-0.00019506,0.000425
 31,0.00003495,0.00071180,0.00000935,0.00021109,-0.00027942,0.00002650,
 -0.00002219,0.00002641,-0.00020675,0.00009243,0.00033678,0.00758529,0.
 00413580,0.00266509,0.00073271,0.00052544,0.00083546,-0.09093864,-0.04
 137193,-0.09714760,0.00108849,-0.00101081,0.00004797,-0.00001655,0.000
 01306,-0.00000098,-0.00000155,0.00001246,-0.00000318,0.00000078,-0.000
 00722,-0.00001121,-0.00000095,-0.00000445,-0.00000681,-0.00017538,0.00
 008443,0.00008890,-0.00014478,-0.00002793,-0.00028341,0.00001467,-0.00
 026708,-0.00000790,-0.00018981,0.00007770,0.00011915,0.00006410,0.0000
 3655,-0.00004697,0.09986126,0.04676377,0.10101917,0.00004885,-0.000326
 36,-0.00000505,0.00025241,0.00079604,0.00012588,0.00029148,0.00114243,
 -0.00031126,-0.00028507,-0.00002220,-0.00017943,-0.00397151,0.00177436
 ,0.00193043,0.00312600,0.02673641,-0.00849566,0.00091323,0.00011629,-0
 .00112853,-0.05211060,-0.02646948,0.00805700,0.00181417,-0.00028346,-0
 .00012825,-0.00028424,0.00017174,-0.00007369,0.00001895,-0.00002462,-0
 .00001848,-0.00005324,0.00008315,0.00010000,0.00002297,-0.00000894,0.0
 0002858,-0.00008574,0.00058144,0.00002251,-0.00018385,-0.00018781,-0.0
 0014845,-0.00004179,-0.00013511,0.00014794,-0.00000726,-0.00023821,-0.
 00029271,0.00005720,-0.00037094,0.00044209,-0.00214592,-0.02620558,0.0
 0950560,0.05431128,0.00018982,0.00028496,-0.00003799,0.00002256,-0.000
 79882,-0.00004577,-0.00082286,-0.00060089,0.00006084,0.00038547,0.0000
 6931,0.00020990,0.00407937,-0.00004106,-0.00103842,-0.00261845,-0.0170
 7600,0.00534037,-0.00094492,0.00019520,0.00096920,-0.02584775,-0.28439
 011,0.07208883,-0.00083315,0.00101006,-0.00019057,0.00030731,-0.000093
 22,0.00006253,-0.00003256,0.00002442,-0.00000275,0.00007359,-0.0001104
 9,-0.00011471,-0.00002933,-0.00001687,-0.00004334,-0.00009547,-0.00011
 971,-0.00008404,0.00001501,0.00042344,-0.00022567,0.00006224,-0.000040
 63,-0.00004016,0.00005509,0.00053661,-0.00007132,0.00037412,0.00058825
 ,-0.00091540,-0.00124674,-0.01096575,0.00354063,0.02628058,0.30988168,
 0.00004118,-0.00000444,0.00000210,-0.00022704,-0.00006663,-0.00013909,
 -0.00007037,-0.00038496,0.00060360,-0.00008176,0.00001454,0.00003558,0
 .00178857,-0.00036586,-0.00028474,-0.00148808,-0.00880923,0.00119427,-
 0.00027635,-0.00107272,0.00070932,0.00788616,0.07253861,-0.07246474,-0
 .00012151,0.00019380,0.00003992,0.00015698,-0.00009890,0.00003617,0.00
 000474,-0.00000149,-0.00000957,-0.00000290,0.00002821,-0.00001145,-0.0
 0000239,0.00000104,-0.00003362,-0.00019097,0.00029760,0.00013033,-0.00
 020138,-0.00024312,0.00047737,-0.00000922,-0.00007933,-0.00005495,-0.0
 0016037,0.00015691,0.00008583,0.00031793,0.00012310,-0.00004557,-0.000
 81309,-0.01478084,0.00430923,-0.01006159,-0.07970667,0.07365481,0.0002
 6975,-0.00019159,0.00002950,0.00005507,0.00036265,-0.00010332,0.000035
 57,-0.00023289,-0.00002704,0.00004906,-0.00000386,0.00011081,0.0003107
 5,-0.00131004,0.00022543,-0.00422333,-0.00094391,0.02682631,-0.0046595
 5,0.00328565,0.00056740,-0.05248120,-0.00086812,0.02933188,0.00150037,
 -0.00032252,0.00157272,-0.00002893,0.00001208,-0.00003050,-0.00000291,
 -0.00000101,-0.00003502,0.00001409,0.00000074,-0.00002402,0.00001008,-
 0.00003688,-0.00006153,0.00010979,-0.00006523,-0.00009582,0.00042821,0
 .00023575,-0.00046147,0.00022737,0.00024182,0.00013574,0.00006966,0.00
 017153,0.00197266,-0.00003658,-0.00002008,-0.00037629,0.00447990,0.001
 77361,-0.02759696,-0.00131807,-0.00019170,0.00351745,0.05551533,-0.000
 09537,-0.00006836,-0.00000789,-0.00020170,0.00021982,-0.00009192,-0.00
 001796,0.00004400,0.00021799,-0.00012259,0.00000026,-0.00007985,0.0001
 5492,0.00105829,-0.00183626,0.00147554,-0.00124608,-0.01782833,0.00292
 409,-0.00205546,-0.00038873,-0.00096241,-0.04954017,0.00553265,-0.0007
 5845,0.00005931,0.00014540,0.00000764,-0.00002490,0.00002402,0.0000054
 6,-0.00001223,0.00000826,-0.00002434,0.00003240,0.00003372,-0.00000185
 ,0.00001948,0.00003424,0.00002156,0.00001909,0.00013563,-0.00013688,-0
 .00050625,0.00058162,0.00002243,-0.00003310,0.00036211,0.00038053,0.00
 054492,-0.00118792,0.00017710,0.00033845,-0.00021712,0.00214934,-0.000
 31058,-0.01288345,-0.00319893,0.00111720,0.03197007,-0.00168557,0.0499
 9802,-0.00006938,-0.00001951,-0.00004566,0.00009759,-0.00001962,0.0003
 0123,-0.00005800,-0.00002152,0.00030848,-0.00011726,-0.00003025,-0.000
 10675,-0.00011170,0.00089677,0.00005208,0.00018823,0.00061215,-0.00973
 707,0.00258131,-0.00187528,0.00090125,0.03052072,0.00453443,-0.3055644
 2,-0.00086810,0.00019844,0.00062075,0.00011130,-0.00004236,0.00002695,
 0.00000287,-0.00001707,0.00001762,-0.00000897,0.00002078,0.00003799,-0
 .00001304,0.00003354,0.00007569,-0.00011072,0.00015367,0.00016530,-0.0
 0030275,-0.00072072,0.00078077,-0.00013030,0.00014849,0.00036068,0.000
 24449,0.00000662,-0.00074300,-0.00020760,0.00003391,0.00029556,0.00169
 456,0.00074220,-0.01270041,0.00051800,0.00001561,-0.00825123,-0.034466
 85,-0.00487398,0.33239692,-0.00116566,0.00174610,-0.00412220,-0.006218
 91,0.00347901,0.02261394,0.00005686,0.00034514,-0.00266510,-0.00038563
 ,-0.00022841,-0.00001602,0.00042243,0.00041642,0.00046438,0.00486925,-
 0.00680889,-0.02789169,-0.00496954,-0.00244249,-0.00180512,0.00180400,
 0.00023889,-0.00150732,-0.05199912,0.01167306,0.05399106,0.00052845,0.
 00058267,0.00006390,0.00008524,-0.00002844,-0.00003218,0.00000860,-0.0
 0003034,-0.00000306,-0.00003780,-0.00002635,0.00002433,-0.00008243,0.0
 0022900,0.00014696,-0.00011583,-0.00030121,0.00022192,0.00013718,0.000
 14689,-0.00191626,0.00005760,-0.00015335,0.00018746,-0.00004708,0.0001
 4630,0.00010546,0.00051231,-0.00012557,0.00012676,-0.00010492,0.000172
 19,0.00007615,-0.00034881,-0.00007013,0.00062094,0.05957811,0.00077602
 ,-0.00074034,0.00295452,0.00520087,-0.00477925,-0.02734405,-0.00040983
 ,-0.00097121,0.00531148,0.00048220,0.00065768,-0.00022109,0.00033961,0
 .00027957,-0.00034126,0.00143825,-0.00205378,-0.00762398,-0.00071135,0
 .00002321,0.00024892,0.00075304,0.00035492,0.00043306,0.01197889,-0.06
 304195,-0.06379252,-0.00056561,-0.00131639,-0.00026610,-0.00013892,0.0
 0010061,0.00010376,-0.00003001,0.00004767,0.00003148,0.00004886,0.0000
 0393,-0.00001772,-0.00012834,0.00007660,0.00017733,-0.00032614,-0.0001
 8765,0.00018004,0.00005520,0.00041072,-0.00024092,-0.00002798,-0.00010
 324,0.00017779,-0.00010974,0.00020365,-0.00033552,0.00006318,-0.000219
 92,0.00006141,-0.00004562,-0.00004366,0.00019360,-0.00022709,0.0002826
 3,0.00022371,-0.01299949,0.06312125,-0.00097031,-0.00043471,-0.0000993
 1,0.00149394,-0.00086889,0.00117365,0.00031700,-0.00016909,-0.00098462
 ,-0.00008880,-0.00035449,-0.00001852,0.00012894,0.00035628,0.00002527,
 0.00237006,-0.00261681,-0.01597100,-0.00396097,-0.00191430,-0.00002351
 ,0.00195344,0.00013611,0.00081936,0.04812600,-0.05555939,-0.27035204,0
 .00025056,0.00005633,0.00026392,0.00003975,-0.00004964,-0.00002281,0.0
 0001317,0.00001106,0.00002454,-0.00005202,0.00007277,0.00009830,-0.000
 11828,-0.00004398,0.00013550,-0.00020403,-0.00040068,0.00029239,-0.000
 07282,-0.00004232,-0.00121499,0.00017455,0.00006894,0.00033627,0.00012
 714,0.00001396,0.00030173,0.00019627,-0.00007366,0.00045173,-0.0001675
 2,0.00009639,-0.00014696,-0.00089735,0.00026631,0.00072031,-0.05167194
 ,0.06520830,0.29749623,0.00079808,-0.00222958,0.00134148,0.01159117,0.
 01599256,-0.01165573,-0.00238503,0.00297954,0.00212545,0.00098239,0.00
 070059,-0.00024285,-0.00399926,-0.00064157,-0.00327909,-0.00824160,-0.
 01940052,0.01311031,0.00135476,0.00001297,0.00185738,0.00031584,-0.001
 06044,-0.00010797,-0.10392252,-0.09512642,0.05072292,-0.00003700,-0.00
 023791,-0.00010469,-0.00012780,0.00032072,0.00030149,0.00002826,-0.000
 10677,-0.00005912,-0.00002601,0.00000064,0.00004682,-0.00001679,-0.001
 50823,0.00049301,0.00007249,0.00006252,0.00010280,0.00015792,0.0003361
 2,0.00025751,0.00013815,-0.00000440,-0.00027743,-0.00002527,0.00056957
 ,-0.00077235,-0.00024791,0.00052938,-0.00020947,-0.00026434,0.00064558
 ,-0.00008213,0.00002436,-0.00004243,-0.00011536,-0.00258432,-0.0054160
 0,0.00301321,0.10641443,-0.00016427,0.00418051,-0.00213551,-0.01456399
 ,-0.02060932,0.01183377,0.00132257,-0.00307125,-0.00219916,-0.00084471
 ,-0.00087878,0.00064482,0.00005591,-0.00110249,-0.00053484,-0.00041292
 ,-0.00472047,0.00197552,0.00040636,0.00049194,0.00078932,-0.00005854,0
 .00008001,-0.00023100,-0.09326386,-0.20924357,0.09423477,0.00010073,-0
 .00008223,0.00031599,0.00024445,-0.00027850,-0.00040449,0.00008186,-0.
 00002807,-0.00003313,-0.00002867,-0.00001948,-0.00011133,-0.00016535,-
 0.00028087,0.00018816,-0.00017166,-0.00008829,0.00011850,0.00027246,0.
 00023345,-0.00007024,0.00001121,-0.00036650,-0.00020196,-0.00023182,0.
 00031399,-0.00058964,-0.00010429,-0.00002242,0.00003822,-0.00016518,0.
 00016606,0.00009674,0.00001666,0.00006326,0.,0.00403899,0.00789494,-0.
 00375848,0.10362408,0.22736810,-0.00140902,-0.00011784,-0.00009104,0.0
 0204800,-0.00329962,-0.00077098,-0.00084535,-0.00052360,0.00056660,0.0
 0030089,-0.00012633,0.00000795,-0.00225967,-0.00180254,-0.00119650,-0.
 00500324,-0.01207259,0.00676892,-0.00035262,-0.00110546,0.00109878,0.0
 0038325,-0.00015043,-0.00028337,0.05094084,0.09517218,-0.09960001,-0.0
 0005922,-0.00030606,0.00006696,-0.00000649,0.00005358,0.00003354,0.000
 01036,-0.00004440,-0.00003069,-0.00003020,0.00003988,0.00003323,-0.000
 21570,-0.00087459,0.00045373,-0.00018799,-0.00026674,0.00010935,0.0001
 9938,0.00004806,0.00015897,0.00011682,-0.00009097,-0.00007130,-0.00014
 575,0.00028745,0.00004554,-0.00002462,0.00005238,0.00007125,0.00013260
 ,0.00013249,0.00016340,-0.00011372,0.00008343,0.00008695,0.01298761,0.
 02487776,-0.01330544,-0.05646617,-0.09996605,0.10568417\\0.00002596,-0
 .00003503,0.00001912,-0.00004278,0.00003879,-0.00001823,-0.00001617,-0
 .00005553,0.00002875,-0.00000607,0.00004679,-0.00001630,-0.00001592,0.
 00000607,-0.00001530,0.00000500,-0.00001340,0.00002120,-0.00000250,-0.
 00002965,0.00001286,-0.00001405,0.00001974,0.00000241,0.00007054,0.000
 01648,-0.00002246,0.00000947,-0.00000048,-0.00001132,-0.00000041,0.000
 00149,0.00000816,0.00001086,0.00000346,0.00000447,0.00000183,0.0000109
 2,-0.00000563,-0.00000053,-0.00000396,-0.00000323,-0.00000091,0.000007
 42,0.00000502,-0.00001275,0.00000016,0.00000145,-0.00000755,0.00000444
 ,0.00000209,0.00000287,0.00001085,-0.00000087,0.00001838,0.00000045,0.
 00000328,-0.00000271,-0.00002018,0.00000266,-0.00000280,0.00000160,-0.
 00001524,-0.00001686,-0.00000414,-0.00000178,-0.00000289,-0.00000629,-
 0.00000112\\\@


 "WOULD YOU TELL ME PLEASE, WHICH WAY I OUGHT TO WALK FROM HERE?"
 "THAT DEPENDS A GREAT DEAL ON WHERE YOU WANT TO GO," SAID THE CAT.
 "I DON'T MUCH CARE WHERE -- ", SAID ALICE.
 "THEN IT DOESN'T MATTER WHICH WAY YOU WALK," SAID THE CAT.

                                      -- LEWIS CARROLL
 Job cpu time:       0 days  0 hours  1 minutes 33.8 seconds.
 Elapsed time:       0 days  0 hours  1 minutes 36.8 seconds.
 File lengths (MBytes):  RWF=     78 Int=      0 D2E=      0 Chk=      4 Scr=      1
 Normal termination of Gaussian 16 at Wed Feb 21 18:46:28 2024.
