 Entering Gaussian System, Link 0=g16
 Input=/Volumes/SSD-PMU3/b3lyp_6-31gd_freq/AGCCOKROZDYAMR-XAMCCFCMSA-N_calculating/gaussianinput0.gjf
 Output=/Volumes/SSD-PMU3/b3lyp_6-31gd_freq/AGCCOKROZDYAMR-XAMCCFCMSA-N_calculating/gaussianinput0.log
 Initial command:
 /Applications/g16/l1.exe "/Users/macmini_m1_2022/PycharmProjects/sphere_model/sphere_model_lib/Gau-52755.inp" -scrdir="/Users/macmini_m1_2022/PycharmProjects/sphere_model/sphere_model_lib/"
 Entering Link 1 = /Applications/g16/l1.exe PID=     52756.
  
 Copyright (c) 1988,1990,1992,1993,1995,1998,2003,2009,2016,
            Gaussian, Inc.  All Rights Reserved.
  
 This is part of the Gaussian(R) 16 program.  It is based on
 the Gaussian(R) 09 system (copyright 2009, Gaussian, Inc.),
 the Gaussian(R) 03 system (copyright 2003, Gaussian, Inc.),
 the Gaussian(R) 98 system (copyright 1998, Gaussian, Inc.),
 the Gaussian(R) 94 system (copyright 1995, Gaussian, Inc.),
 the Gaussian 92(TM) system (copyright 1992, Gaussian, Inc.),
 the Gaussian 90(TM) system (copyright 1990, Gaussian, Inc.),
 the Gaussian 88(TM) system (copyright 1988, Gaussian, Inc.),
 the Gaussian 86(TM) system (copyright 1986, Carnegie Mellon
 University), and the Gaussian 82(TM) system (copyright 1983,
 Carnegie Mellon University). Gaussian is a federally registered
 trademark of Gaussian, Inc.
  
 This software contains proprietary and confidential information,
 including trade secrets, belonging to Gaussian, Inc.
  
 This software is provided under written license and may be
 used, copied, transmitted, or stored only in accord with that
 written license.
  
 The following legend is applicable only to US Government
 contracts under FAR:
  
                    RESTRICTED RIGHTS LEGEND
  
 Use, reproduction and disclosure by the US Government is
 subject to restrictions as set forth in subparagraphs (a)
 and (c) of the Commercial Computer Software - Restricted
 Rights clause in FAR 52.227-19.
  
 Gaussian, Inc.
 340 Quinnipiac St., Bldg. 40, Wallingford CT 06492
  
  
 ---------------------------------------------------------------
 Warning -- This program may not be used in any manner that
 competes with the business of Gaussian, Inc. or will provide
 assistance to any competitor of Gaussian, Inc.  The licensee
 of this program is prohibited from giving any competitor of
 Gaussian, Inc. access to this program.  By using this program,
 the user acknowledges that Gaussian, Inc. is engaged in the
 business of creating and licensing software in the field of
 computational chemistry and represents and warrants to the
 licensee that it is not a competitor of Gaussian, Inc. and that
 it will not use this program in any manner prohibited above.
 ---------------------------------------------------------------
  

 Cite this work as:
 Gaussian 16, Revision A.03,
 M. J. Frisch, G. W. Trucks, H. B. Schlegel, G. E. Scuseria, 
 M. A. Robb, J. R. Cheeseman, G. Scalmani, V. Barone, 
 G. A. Petersson, H. Nakatsuji, X. Li, M. Caricato, A. V. Marenich, 
 J. Bloino, B. G. Janesko, R. Gomperts, B. Mennucci, H. P. Hratchian, 
 J. V. Ortiz, A. F. Izmaylov, J. L. Sonnenberg, D. Williams-Young, 
 F. Ding, F. Lipparini, F. Egidi, J. Goings, B. Peng, A. Petrone, 
 T. Henderson, D. Ranasinghe, V. G. Zakrzewski, J. Gao, N. Rega, 
 G. Zheng, W. Liang, M. Hada, M. Ehara, K. Toyota, R. Fukuda, 
 J. Hasegawa, M. Ishida, T. Nakajima, Y. Honda, O. Kitao, H. Nakai, 
 T. Vreven, K. Throssell, J. A. Montgomery, Jr., J. E. Peralta, 
 F. Ogliaro, M. J. Bearpark, J. J. Heyd, E. N. Brothers, K. N. Kudin, 
 V. N. Staroverov, T. A. Keith, R. Kobayashi, J. Normand, 
 K. Raghavachari, A. P. Rendell, J. C. Burant, S. S. Iyengar, 
 J. Tomasi, M. Cossi, J. M. Millam, M. Klene, C. Adamo, R. Cammi, 
 J. W. Ochterski, R. L. Martin, K. Morokuma, O. Farkas, 
 J. B. Foresman, and D. J. Fox, Gaussian, Inc., Wallingford CT, 2016.
 
 ******************************************
 Gaussian 16:  EM64M-G16RevA.03 25-Dec-2016
                21-Feb-2024 
 ******************************************
 %nprocshared=8
 Will use up to    8 processors via shared memory.
 %mem=4GB
 %chk= 0.chk
 ---------------------
 # freq b3lyp/6-31g(d)
 ---------------------
 1/10=4,30=1,38=1/1,3;
 2/12=2,17=6,18=5,40=1/2;
 3/5=1,6=6,7=1,11=2,25=1,30=1,71=2,74=-5,140=1/1,2,3;
 4//1;
 5/5=2,38=5,98=1/2;
 8/6=4,10=90,11=11/1;
 11/6=1,8=1,9=11,15=111,16=1/1,2,10;
 10/6=1/2;
 6/7=2,8=2,9=2,10=2,28=1/1;
 7/8=1,10=1,25=1/1,2,3,16;
 1/10=4,30=1/3;
 99//99;
 ---------
 good luck
 ---------
 Symbolic Z-matrix:
 Charge =  0 Multiplicity = 1
 O                     1.21131   0.        0. 
 C                     0.        0.        0. 
 C                    -0.93363  -1.20889  -0.0137 
 C                    -2.13643  -0.6575    0.78618 
 C                    -1.50335  -1.26497  -1.47385 
 C                    -2.12553  -2.62213  -1.81779 
 C                    -2.53083  -0.07626  -1.49724 
 C                    -2.41667   0.83715  -2.71952 
 C                    -2.32395   0.59128  -0.10866 
 C                    -0.92277   1.23378  -0.0137 
 H                    -0.45524  -2.13044   0.32376 
 H                    -3.00385  -1.32597   0.77968 
 H                    -1.89014  -0.4175    1.82728 
 H                    -0.69447  -1.07404  -2.19143 
 H                    -2.59284  -2.59367  -2.80987 
 H                    -1.36913  -3.41529  -1.82719 
 H                    -2.90074  -2.90443  -1.09529 
 H                    -3.54426  -0.50244  -1.49603 
 H                    -2.62131   0.27858  -3.64078 
 H                    -1.4151    1.2706   -2.81956 
 H                    -3.13653   1.66312  -2.66795 
 H                    -3.13894   1.26357   0.17605 
 H                    -0.8002    1.77996   0.93112 
 H                    -0.65558   1.92378  -0.81969 
 

 GradGradGradGradGradGradGradGradGradGradGradGradGradGradGradGradGradGrad
 Berny optimization.
 Initialization pass.
 Trust Radius=3.00D-01 FncErr=1.00D-07 GrdErr=1.00D-07 EigMax=2.50D+02 EigMin=1.00D-04
 Number of steps in this run=      2 maximum allowed number of steps=      2.
 GradGradGradGradGradGradGradGradGradGradGradGradGradGradGradGradGradGrad

                          Input orientation:                          
 ---------------------------------------------------------------------
 Center     Atomic      Atomic             Coordinates (Angstroms)
 Number     Number       Type             X           Y           Z
 ---------------------------------------------------------------------
      1          8           0        1.211314    0.000000    0.000000
      2          6           0        0.000000    0.000000    0.000000
      3          6           0       -0.933633   -1.208890   -0.013702
      4          6           0       -2.136434   -0.657504    0.786177
      5          6           0       -1.503352   -1.264969   -1.473852
      6          6           0       -2.125531   -2.622125   -1.817787
      7          6           0       -2.530830   -0.076255   -1.497240
      8          6           0       -2.416672    0.837154   -2.719518
      9          6           0       -2.323951    0.591278   -0.108659
     10          6           0       -0.922770    1.233777   -0.013702
     11          1           0       -0.455243   -2.130436    0.323759
     12          1           0       -3.003851   -1.325973    0.779675
     13          1           0       -1.890144   -0.417501    1.827281
     14          1           0       -0.694467   -1.074035   -2.191425
     15          1           0       -2.592840   -2.593674   -2.809870
     16          1           0       -1.369125   -3.415285   -1.827189
     17          1           0       -2.900741   -2.904426   -1.095289
     18          1           0       -3.544257   -0.502438   -1.496029
     19          1           0       -2.621313    0.278584   -3.640778
     20          1           0       -1.415099    1.270603   -2.819558
     21          1           0       -3.136534    1.663123   -2.667950
     22          1           0       -3.138935    1.263573    0.176054
     23          1           0       -0.800202    1.779961    0.931116
     24          1           0       -0.655577    1.923778   -0.819686
 ---------------------------------------------------------------------
                    Distance matrix (angstroms):
                    1          2          3          4          5
     1  O    0.000000
     2  C    1.211314   0.000000
     3  C    2.462194   1.527506   0.000000
     4  C    3.501114   2.369543   1.546145   0.000000
     5  C    3.337933   2.456105   1.568363   2.424363   0.000000
     6  C    4.616755   3.833767   2.583133   3.261975   1.532080
     7  C    4.031276   2.941538   2.456580   2.389015   1.571400
     8  C    4.610736   3.733217   3.702316   3.821313   2.608593
     9  C    3.586017   2.400451   2.276534   1.547692   2.445974
    10  C    2.465098   1.540746   2.442691   2.385316   2.951753
    11  H    2.724149   2.202459   1.091780   2.282490   2.253657
    12  H    4.487061   3.374792   2.220126   1.095128   2.708063
    13  H    3.623852   2.661937   2.220457   1.096430   3.430057
    14  H    3.096433   2.537357   2.194963   3.334499   1.098026
    15  H    5.393895   4.620101   3.533999   4.109576   2.176554
    16  H    4.654187   4.108198   2.889043   3.876055   2.183283
    17  H    5.152120   4.248488   2.813216   3.028653   2.187196
    18  H    5.010589   3.879730   3.084109   2.685978   2.178816
    19  H    5.293572   4.494903   4.268082   4.550747   2.885821
    20  H    4.057386   3.401006   3.775251   4.152017   2.871905
    21  H    5.365419   4.440921   4.488459   4.279778   3.559056
    22  H    4.533462   3.388292   3.318499   2.251176   3.433780
    23  H    2.842786   2.162305   3.137470   2.783480   3.943335
    24  H    2.803228   2.191481   3.246619   3.381531   3.363742
                    6          7          8          9         10
     6  C    0.000000
     7  C    2.597782   0.000000
     8  C    3.586711   1.530134   0.000000
     9  C    3.645058   1.554528   2.624050   0.000000
    10  C    4.423724   2.550083   3.116166   1.544387   0.000000
    11  H    2.760043   3.441476   4.681381   3.329682   3.413267
    12  H    3.032864   2.640054   4.155508   2.219742   3.393032
    13  H    4.266415   3.402847   4.746027   2.225688   2.655513
    14  H    2.141059   2.202200   2.626312   3.125124   3.181288
    15  H    1.097003   2.839761   3.436536   4.184825   5.025641
    16  H    1.096057   3.550711   4.469546   4.462912   5.010164
    17  H    1.096653   2.880443   4.107537   3.677781   4.712422
    18  H    2.570872   1.099394   2.136090   2.147128   3.476195
    19  H    3.461677   2.174593   1.096630   3.558380   4.117417
    20  H    4.081861   2.192580   1.095917   2.938787   2.848960
    21  H    4.484223   2.182401   1.096852   2.891213   3.482832
    22  H    4.483418   2.228193   3.014603   1.094185   2.224474
    23  H    5.356428   3.512481   4.102315   2.194518   1.098190
    24  H    4.880800   2.824143   2.809194   2.250464   1.094122
                   11         12         13         14         15
    11  H    0.000000
    12  H    2.711166   0.000000
    13  H    2.693263   1.778523   0.000000
    14  H    2.738496   3.771493   4.243899   0.000000
    15  H    3.821458   3.828946   5.170366   2.509103   0.000000
    16  H    2.666945   3.719314   4.755347   2.463591   1.771492
    17  H    2.931419   2.453087   3.968314   3.069119   1.769508
    18  H    3.937514   2.479733   3.713178   2.988579   2.646628
    19  H    5.119843   4.718193   5.560469   2.764586   2.990165
    20  H    4.729570   4.713896   4.966737   2.532033   4.039778
    21  H    5.525462   4.564912   5.107797   3.699027   4.293724
    22  H    4.329355   2.662396   2.666841   4.128534   4.908392
    23  H    3.972290   3.811277   2.611499   4.231635   6.028035
    24  H    4.217138   4.316622   3.743284   3.296978   5.302942
                   16         17         18         19         20
    16  H    0.000000
    17  H    1.772710   0.000000
    18  H    3.650417   2.518780   0.000000
    19  H    4.301366   4.085235   2.462066   0.000000
    20  H    4.790037   4.755113   3.070622   1.764499   0.000000
    21  H    5.442503   4.836462   2.495855   1.768840   1.772116
    22  H    5.388592   4.364088   2.465551   3.975719   3.456205
    23  H    5.909526   5.519245   4.316273   5.145172   3.834723
    24  H    5.479946   5.331817   3.832550   3.811737   2.236739
                   21         22         23         24
    21  H    0.000000
    22  H    2.871934   0.000000
    23  H    4.292479   2.511264   0.000000
    24  H    3.104701   2.755800   1.762642   0.000000
 Stoichiometry    C9H14O
 Framework group  C1[X(C9H14O)]
 Deg. of freedom    66
 Full point group                 C1      NOp   1
 Largest Abelian subgroup         C1      NOp   1
 Largest concise Abelian subgroup C1      NOp   1
                         Standard orientation:                         
 ---------------------------------------------------------------------
 Center     Atomic      Atomic             Coordinates (Angstroms)
 Number     Number       Type             X           Y           Z
 ---------------------------------------------------------------------
      1          8           0        2.398443   -0.621322   -1.202113
      2          6           0        1.564480   -0.266026   -0.398651
      3          6           0        0.477012   -1.115838    0.255953
      4          6           0        0.351080   -0.419814    1.630819
      5          6           0       -0.854173   -0.689531   -0.455363
      6          6           0       -1.988473   -1.698428   -0.248575
      7          6           0       -1.147502    0.724613    0.163872
      8          6           0       -1.508480    1.803069   -0.859816
      9          6           0        0.109403    0.989822    1.039321
     10          6           0        1.365589    1.157335    0.156673
     11          1           0        0.686290   -2.186943    0.225596
     12          1           0       -0.491333   -0.786957    2.226512
     13          1           0        1.262273   -0.490467    2.236535
     14          1           0       -0.679894   -0.595792   -1.535410
     15          1           0       -2.924155   -1.323227   -0.681171
     16          1           0       -1.759721   -2.657446   -0.727427
     17          1           0       -2.169426   -1.888242    0.816260
     18          1           0       -1.998192    0.624441    0.853046
     19          1           0       -2.430504    1.539065   -1.391578
     20          1           0       -0.725513    1.934570   -1.615267
     21          1           0       -1.673707    2.772949   -0.374926
     22          1           0       -0.030052    1.794660    1.767352
     23          1           0        2.241463    1.428845    0.760948
     24          1           0        1.291316    1.893908   -0.648962
 ---------------------------------------------------------------------
 Rotational constants (GHZ):           1.7691803           1.2845945           1.0845628
 Standard basis: 6-31G(d) (6D, 7F)
 There are   178 symmetry adapted cartesian basis functions of A   symmetry.
 There are   178 symmetry adapted basis functions of A   symmetry.
   178 basis functions,   336 primitive gaussians,   178 cartesian basis functions
    38 alpha electrons       38 beta electrons
       nuclear repulsion energy       566.1327071507 Hartrees.
 NAtoms=   24 NActive=   24 NUniq=   24 SFac= 1.00D+00 NAtFMM=   60 NAOKFM=F Big=F
 Integral buffers will be    131072 words long.
 Raffenetti 2 integral format.
 Two-electron integral symmetry is turned on.
 One-electron integrals computed using PRISM.
 NBasis=   178 RedAO= T EigKep=  1.44D-03  NBF=   178
 NBsUse=   178 1.00D-06 EigRej= -1.00D+00 NBFU=   178
 ExpMin= 1.61D-01 ExpMax= 5.48D+03 ExpMxC= 8.25D+02 IAcc=3 IRadAn=         5 AccDes= 0.00D+00
 Harris functional with IExCor=  402 and IRadAn=       5 diagonalized for initial guess.
 HarFok:  IExCor=  402 AccDes= 0.00D+00 IRadAn=         5 IDoV= 1 UseB2=F ITyADJ=14
 ICtDFT=  3500011 ScaDFX=  1.000000  1.000000  1.000000  1.000000
 FoFCou: FMM=F IPFlag=           0 FMFlag=      100000 FMFlg1=           0
         NFxFlg=           0 DoJE=T BraDBF=F KetDBF=T FulRan=T
         wScrn=  0.000000 ICntrl=       500 IOpCl=  0 I1Cent=   200000004 NGrid=           0
         NMat0=    1 NMatS0=      1 NMatT0=    0 NMatD0=    1 NMtDS0=    0 NMtDT0=    0
 Petite list used in FoFCou.
 Requested convergence on RMS density matrix=1.00D-08 within 128 cycles.
 Requested convergence on MAX density matrix=1.00D-06.
 Requested convergence on             energy=1.00D-06.
 No special actions if energy rises.
 Integral accuracy reduced to 1.0D-05 until final iterations.
 Initial convergence to 1.0D-05 achieved.  Increase integral accuracy.
 SCF Done:  E(RB3LYP) =  -426.609641486     A.U. after   13 cycles
            NFock= 13  Conv=0.83D-08     -V/T= 2.0096
 DoSCS=F DFT=T ScalE2(SS,OS)=  1.000000  1.000000
 Range of M.O.s used for correlation:     1   178
 NBasis=   178 NAE=    38 NBE=    38 NFC=     0 NFV=     0
 NROrb=    178 NOA=    38 NOB=    38 NVA=   140 NVB=   140
 Symmetrizing basis deriv contribution to polar:
 IMax=3 JMax=2 DiffMx= 0.00D+00
 G2DrvN: will do    25 centers at a time, making    1 passes.
 Calling FoFCou, ICntrl=  3107 FMM=F I1Cent=   0 AccDes= 0.00D+00.
 End of G2Drv F.D. properties file   721 does not exist.
 End of G2Drv F.D. properties file   722 does not exist.
 End of G2Drv F.D. properties file   788 does not exist.
          IDoAtm=111111111111111111111111
          Differentiating once with respect to electric field.
                with respect to dipole field.
          Differentiating once with respect to nuclear coordinates.
 Keep R1 ints in memory in canonical form, NReq=134943922.
          There are    75 degrees of freedom in the 1st order CPHF.  IDoFFX=6 NUNeed=     3.
     72 vectors produced by pass  0 Test12= 7.09D-15 1.33D-09 XBig12= 6.41D+01 2.49D+00.
 AX will form    72 AO Fock derivatives at one time.
     72 vectors produced by pass  1 Test12= 7.09D-15 1.33D-09 XBig12= 6.30D+00 5.16D-01.
     72 vectors produced by pass  2 Test12= 7.09D-15 1.33D-09 XBig12= 7.23D-02 4.13D-02.
     72 vectors produced by pass  3 Test12= 7.09D-15 1.33D-09 XBig12= 2.47D-04 2.07D-03.
     72 vectors produced by pass  4 Test12= 7.09D-15 1.33D-09 XBig12= 3.08D-07 8.01D-05.
     36 vectors produced by pass  5 Test12= 7.09D-15 1.33D-09 XBig12= 1.58D-10 1.08D-06.
      3 vectors produced by pass  6 Test12= 7.09D-15 1.33D-09 XBig12= 9.69D-14 3.47D-08.
      1 vectors produced by pass  7 Test12= 7.09D-15 1.33D-09 XBig12= 6.62D-17 1.37D-09.
 InvSVY:  IOpt=1 It=  1 EMax= 7.11D-15
 Solved reduced A of dimension   400 with    75 vectors.
 Isotropic polarizability for W=    0.000000       88.99 Bohr**3.
 End of Minotr F.D. properties file   721 does not exist.
 End of Minotr F.D. properties file   722 does not exist.
 End of Minotr F.D. properties file   788 does not exist.

 **********************************************************************

            Population analysis using the SCF density.

 **********************************************************************

 Orbital symmetries:
       Occupied  (A) (A) (A) (A) (A) (A) (A) (A) (A) (A) (A) (A)
                 (A) (A) (A) (A) (A) (A) (A) (A) (A) (A) (A) (A)
                 (A) (A) (A) (A) (A) (A) (A) (A) (A) (A) (A) (A)
                 (A) (A)
       Virtual   (A) (A) (A) (A) (A) (A) (A) (A) (A) (A) (A) (A)
                 (A) (A) (A) (A) (A) (A) (A) (A) (A) (A) (A) (A)
                 (A) (A) (A) (A) (A) (A) (A) (A) (A) (A) (A) (A)
                 (A) (A) (A) (A) (A) (A) (A) (A) (A) (A) (A) (A)
                 (A) (A) (A) (A) (A) (A) (A) (A) (A) (A) (A) (A)
                 (A) (A) (A) (A) (A) (A) (A) (A) (A) (A) (A) (A)
                 (A) (A) (A) (A) (A) (A) (A) (A) (A) (A) (A) (A)
                 (A) (A) (A) (A) (A) (A) (A) (A) (A) (A) (A) (A)
                 (A) (A) (A) (A) (A) (A) (A) (A) (A) (A) (A) (A)
                 (A) (A) (A) (A) (A) (A) (A) (A) (A) (A) (A) (A)
                 (A) (A) (A) (A) (A) (A) (A) (A) (A) (A) (A) (A)
                 (A) (A) (A) (A) (A) (A) (A) (A)
 The electronic state is 1-A.
 Alpha  occ. eigenvalues --  -19.13181 -10.26575 -10.19814 -10.19613 -10.19359
 Alpha  occ. eigenvalues --  -10.19137 -10.19065 -10.18824 -10.18159 -10.18020
 Alpha  occ. eigenvalues --   -1.03101  -0.87958  -0.77343  -0.75277  -0.70455
 Alpha  occ. eigenvalues --   -0.68355  -0.64322  -0.56974  -0.55384  -0.52551
 Alpha  occ. eigenvalues --   -0.49411  -0.46844  -0.46045  -0.42649  -0.41598
 Alpha  occ. eigenvalues --   -0.40499  -0.40236  -0.39941  -0.38868  -0.37507
 Alpha  occ. eigenvalues --   -0.36556  -0.35628  -0.34728  -0.33274  -0.31643
 Alpha  occ. eigenvalues --   -0.30853  -0.30706  -0.22970
 Alpha virt. eigenvalues --   -0.00799   0.07533   0.10411   0.11365   0.11814
 Alpha virt. eigenvalues --    0.13265   0.14437   0.15031   0.15574   0.16178
 Alpha virt. eigenvalues --    0.16270   0.17300   0.18333   0.19128   0.20047
 Alpha virt. eigenvalues --    0.20882   0.21696   0.22216   0.23515   0.24066
 Alpha virt. eigenvalues --    0.26509   0.27619   0.27902   0.31143   0.32839
 Alpha virt. eigenvalues --    0.35225   0.48485   0.52015   0.52749   0.53165
 Alpha virt. eigenvalues --    0.54833   0.57199   0.57884   0.60151   0.61023
 Alpha virt. eigenvalues --    0.62803   0.63582   0.65184   0.65798   0.67838
 Alpha virt. eigenvalues --    0.69130   0.70097   0.71858   0.74641   0.75750
 Alpha virt. eigenvalues --    0.76766   0.79657   0.81183   0.83237   0.83982
 Alpha virt. eigenvalues --    0.84635   0.87109   0.87904   0.88485   0.88722
 Alpha virt. eigenvalues --    0.89593   0.90988   0.91673   0.92991   0.95329
 Alpha virt. eigenvalues --    0.95817   0.96977   0.97556   0.98160   0.99926
 Alpha virt. eigenvalues --    1.00753   1.02494   1.07003   1.10232   1.14819
 Alpha virt. eigenvalues --    1.24289   1.25765   1.28822   1.33710   1.34365
 Alpha virt. eigenvalues --    1.42798   1.50694   1.52005   1.57270   1.58933
 Alpha virt. eigenvalues --    1.62295   1.65486   1.67840   1.71043   1.72127
 Alpha virt. eigenvalues --    1.73522   1.77537   1.78680   1.82118   1.83830
 Alpha virt. eigenvalues --    1.84923   1.87673   1.90097   1.91765   1.93066
 Alpha virt. eigenvalues --    1.95745   1.98360   1.99616   2.04076   2.04638
 Alpha virt. eigenvalues --    2.08164   2.10214   2.11306   2.14669   2.16240
 Alpha virt. eigenvalues --    2.19763   2.21991   2.25293   2.27391   2.30120
 Alpha virt. eigenvalues --    2.32209   2.34943   2.36176   2.37981   2.41844
 Alpha virt. eigenvalues --    2.45819   2.48321   2.51039   2.54688   2.59328
 Alpha virt. eigenvalues --    2.61796   2.66532   2.66943   2.73051   2.74251
 Alpha virt. eigenvalues --    2.76872   2.82117   2.84327   3.02702   3.06040
 Alpha virt. eigenvalues --    4.08693   4.17354   4.22254   4.31406   4.36453
 Alpha virt. eigenvalues --    4.47087   4.52771   4.65431   4.68225   4.85214
          Condensed to atoms (all electrons):
               1          2          3          4          5          6
     1  O    8.006811   0.581275  -0.062311   0.002205  -0.002823  -0.000030
     2  C    0.581275   4.514361   0.356476  -0.051412  -0.026248   0.002516
     3  C   -0.062311   0.356476   5.228102   0.314851   0.365459  -0.035950
     4  C    0.002205  -0.051412   0.314851   5.194166  -0.060591  -0.005188
     5  C   -0.002823  -0.026248   0.365459  -0.060591   5.004736   0.364068
     6  C   -0.000030   0.002516  -0.035950  -0.005188   0.364068   5.097880
     7  C    0.000042  -0.014698  -0.063840  -0.069825   0.361001  -0.030073
     8  C    0.000002   0.000018   0.003031   0.005377  -0.034310   0.001325
     9  C    0.003288  -0.049488  -0.001019   0.336163  -0.067292   0.002347
    10  C   -0.074218   0.304387  -0.178051  -0.054599  -0.010628  -0.000088
    11  H    0.001574  -0.030023   0.352224  -0.032386  -0.033083  -0.003994
    12  H   -0.000060   0.004004  -0.027148   0.366804  -0.007803   0.002161
    13  H    0.000092  -0.003934  -0.033264   0.366231   0.005591   0.000012
    14  H    0.002139  -0.001104  -0.054050   0.007299   0.375263  -0.043647
    15  H    0.000000  -0.000106   0.004516  -0.000106  -0.030301   0.369992
    16  H    0.000000  -0.000005  -0.003592  -0.000078  -0.028533   0.370101
    17  H   -0.000000   0.000133  -0.005904   0.002395  -0.033748   0.372685
    18  H    0.000000   0.000292   0.000289  -0.000940  -0.047065  -0.008810
    19  H   -0.000000  -0.000030   0.000113  -0.000202  -0.003552   0.000642
    20  H   -0.000023   0.000228  -0.000083   0.000201  -0.006075  -0.000024
    21  H   -0.000000   0.000030  -0.000176   0.000004   0.004484  -0.000151
    22  H   -0.000059   0.004011   0.004098  -0.032732   0.007098  -0.000214
    23  H   -0.000455  -0.019489   0.003160  -0.001347   0.000310   0.000002
    24  H    0.000585  -0.021461   0.004877   0.005462  -0.000155   0.000015
               7          8          9         10         11         12
     1  O    0.000042   0.000002   0.003288  -0.074218   0.001574  -0.000060
     2  C   -0.014698   0.000018  -0.049488   0.304387  -0.030023   0.004004
     3  C   -0.063840   0.003031  -0.001019  -0.178051   0.352224  -0.027148
     4  C   -0.069825   0.005377   0.336163  -0.054599  -0.032386   0.366804
     5  C    0.361001  -0.034310  -0.067292  -0.010628  -0.033083  -0.007803
     6  C   -0.030073   0.001325   0.002347  -0.000088  -0.003994   0.002161
     7  C    4.963056   0.367610   0.391031  -0.032195   0.005774  -0.001589
     8  C    0.367610   5.102652  -0.040461  -0.007617  -0.000113   0.000090
     9  C    0.391031  -0.040461   5.032551   0.318772   0.003677  -0.030816
    10  C   -0.032195  -0.007617   0.318772   5.397808   0.009056   0.004206
    11  H    0.005774  -0.000113   0.003677   0.009056   0.589743  -0.000875
    12  H   -0.001589   0.000090  -0.030816   0.004206  -0.000875   0.577474
    13  H    0.005083  -0.000165  -0.033167  -0.000089  -0.000638  -0.033789
    14  H   -0.045870  -0.005362   0.000879   0.002471   0.001049  -0.000004
    15  H   -0.004590   0.000525   0.000162   0.000018   0.000080  -0.000202
    16  H    0.004391  -0.000152  -0.000164  -0.000003   0.002757   0.000060
    17  H   -0.006221   0.000063   0.000097   0.000003   0.000021   0.003513
    18  H    0.371529  -0.045245  -0.043456   0.005150  -0.000180   0.002852
    19  H   -0.028196   0.369953   0.004481   0.000114  -0.000001  -0.000004
    20  H   -0.032142   0.373192  -0.007142   0.002875  -0.000010  -0.000000
    21  H   -0.029741   0.369262  -0.003307  -0.000170   0.000003  -0.000002
    22  H   -0.035799  -0.000658   0.363137  -0.032812  -0.000140  -0.001773
    23  H    0.004241   0.000169  -0.030951   0.350736  -0.000248   0.000067
    24  H   -0.007514   0.002893  -0.027925   0.352508  -0.000097  -0.000154
              13         14         15         16         17         18
     1  O    0.000092   0.002139   0.000000   0.000000  -0.000000   0.000000
     2  C   -0.003934  -0.001104  -0.000106  -0.000005   0.000133   0.000292
     3  C   -0.033264  -0.054050   0.004516  -0.003592  -0.005904   0.000289
     4  C    0.366231   0.007299  -0.000106  -0.000078   0.002395  -0.000940
     5  C    0.005591   0.375263  -0.030301  -0.028533  -0.033748  -0.047065
     6  C    0.000012  -0.043647   0.369992   0.370101   0.372685  -0.008810
     7  C    0.005083  -0.045870  -0.004590   0.004391  -0.006221   0.371529
     8  C   -0.000165  -0.005362   0.000525  -0.000152   0.000063  -0.045245
     9  C   -0.033167   0.000879   0.000162  -0.000164   0.000097  -0.043456
    10  C   -0.000089   0.002471   0.000018  -0.000003   0.000003   0.005150
    11  H   -0.000638   0.001049   0.000080   0.002757   0.000021  -0.000180
    12  H   -0.033789  -0.000004  -0.000202   0.000060   0.003513   0.002852
    13  H    0.582787  -0.000167   0.000004  -0.000005  -0.000125  -0.000060
    14  H   -0.000167   0.610069  -0.002619  -0.003458   0.005346   0.004913
    15  H    0.000004  -0.002619   0.574155  -0.030195  -0.031370   0.001599
    16  H   -0.000005  -0.003458  -0.030195   0.568755  -0.030575   0.000281
    17  H   -0.000125   0.005346  -0.031370  -0.030575   0.575719   0.003730
    18  H   -0.000060   0.004913   0.001599   0.000281   0.003730   0.633504
    19  H    0.000003   0.000613   0.001056  -0.000060   0.000003  -0.003742
    20  H    0.000001   0.004007   0.000023   0.000007   0.000000   0.005540
    21  H   -0.000002   0.000172  -0.000057   0.000003   0.000006  -0.002782
    22  H   -0.000761  -0.000132   0.000004   0.000004  -0.000034  -0.004292
    23  H    0.002792  -0.000023  -0.000000  -0.000000   0.000000  -0.000160
    24  H   -0.000061  -0.000210  -0.000003   0.000000  -0.000000   0.000066
              19         20         21         22         23         24
     1  O   -0.000000  -0.000023  -0.000000  -0.000059  -0.000455   0.000585
     2  C   -0.000030   0.000228   0.000030   0.004011  -0.019489  -0.021461
     3  C    0.000113  -0.000083  -0.000176   0.004098   0.003160   0.004877
     4  C   -0.000202   0.000201   0.000004  -0.032732  -0.001347   0.005462
     5  C   -0.003552  -0.006075   0.004484   0.007098   0.000310  -0.000155
     6  C    0.000642  -0.000024  -0.000151  -0.000214   0.000002   0.000015
     7  C   -0.028196  -0.032142  -0.029741  -0.035799   0.004241  -0.007514
     8  C    0.369953   0.373192   0.369262  -0.000658   0.000169   0.002893
     9  C    0.004481  -0.007142  -0.003307   0.363137  -0.030951  -0.027925
    10  C    0.000114   0.002875  -0.000170  -0.032812   0.350736   0.352508
    11  H   -0.000001  -0.000010   0.000003  -0.000140  -0.000248  -0.000097
    12  H   -0.000004  -0.000000  -0.000002  -0.001773   0.000067  -0.000154
    13  H    0.000003   0.000001  -0.000002  -0.000761   0.002792  -0.000061
    14  H    0.000613   0.004007   0.000172  -0.000132  -0.000023  -0.000210
    15  H    0.001056   0.000023  -0.000057   0.000004  -0.000000  -0.000003
    16  H   -0.000060   0.000007   0.000003   0.000004  -0.000000   0.000000
    17  H    0.000003   0.000000   0.000006  -0.000034   0.000000  -0.000000
    18  H   -0.003742   0.005540  -0.002782  -0.004292  -0.000160   0.000066
    19  H    0.574234  -0.031081  -0.031276  -0.000107   0.000001  -0.000141
    20  H   -0.031081   0.569575  -0.031327  -0.000161  -0.000111   0.004119
    21  H   -0.031276  -0.031327   0.578008   0.002346  -0.000048   0.000324
    22  H   -0.000107  -0.000161   0.002346   0.608940  -0.003755   0.000551
    23  H    0.000001  -0.000111  -0.000048  -0.003755   0.550271  -0.024399
    24  H   -0.000141   0.004119   0.000324   0.000551  -0.024399   0.541891
 Mulliken charges:
               1
     1  O   -0.458036
     2  C    0.450265
     3  C   -0.171807
     4  C   -0.291752
     5  C   -0.095805
     6  C   -0.455577
     7  C   -0.071467
     8  C   -0.462080
     9  C   -0.121399
    10  C   -0.357634
    11  H    0.135831
    12  H    0.142987
    13  H    0.143629
    14  H    0.142427
    15  H    0.147417
    16  H    0.150459
    17  H    0.144263
    18  H    0.126988
    19  H    0.147178
    20  H    0.148411
    21  H    0.144396
    22  H    0.123239
    23  H    0.169239
    24  H    0.168829
 Sum of Mulliken charges =  -0.00000
 Mulliken charges with hydrogens summed into heavy atoms:
               1
     1  O   -0.458036
     2  C    0.450265
     3  C   -0.035976
     4  C   -0.005136
     5  C    0.046622
     6  C   -0.013438
     7  C    0.055521
     8  C   -0.022095
     9  C    0.001840
    10  C   -0.019566
 APT charges:
               1
     1  O   -0.666580
     2  C    0.769565
     3  C   -0.112988
     4  C    0.064345
     5  C    0.101074
     6  C    0.083982
     7  C    0.093461
     8  C    0.070571
     9  C    0.096743
    10  C   -0.075510
    11  H   -0.029611
    12  H   -0.024686
    13  H   -0.035376
    14  H   -0.052620
    15  H   -0.033014
    16  H   -0.025933
    17  H   -0.020198
    18  H   -0.068374
    19  H   -0.026216
    20  H   -0.017473
    21  H   -0.029561
    22  H   -0.053625
    23  H   -0.006491
    24  H   -0.001484
 Sum of APT charges =   0.00000
 APT charges with hydrogens summed into heavy atoms:
               1
     1  O   -0.666580
     2  C    0.769565
     3  C   -0.142599
     4  C    0.004283
     5  C    0.048454
     6  C    0.004836
     7  C    0.025087
     8  C   -0.002678
     9  C    0.043118
    10  C   -0.083485
 Electronic spatial extent (au):  <R**2>=           1349.5076
 Charge=             -0.0000 electrons
 Dipole moment (field-independent basis, Debye):
    X=             -2.3655    Y=              0.9066    Z=              1.8398  Tot=              3.1308
 Quadrupole moment (field-independent basis, Debye-Ang):
   XX=            -67.4049   YY=            -60.4412   ZZ=            -62.7118
   XY=              2.8803   XZ=              5.3900   YZ=             -1.2193
 Traceless Quadrupole moment (field-independent basis, Debye-Ang):
   XX=             -3.8856   YY=              3.0781   ZZ=              0.8075
   XY=              2.8803   XZ=              5.3900   YZ=             -1.2193
 Octapole moment (field-independent basis, Debye-Ang**2):
  XXX=            -10.7139  YYY=             -2.6066  ZZZ=             -0.9171  XYY=              2.9587
  XXY=              6.8275  XXZ=             12.9135  XZZ=             -3.3799  YZZ=              1.3176
  YYZ=             -0.3774  XYZ=             -3.7908
 Hexadecapole moment (field-independent basis, Debye-Ang**3):
 XXXX=           -863.8150 YYYY=           -588.1519 ZZZZ=           -370.1007 XXXY=             10.1872
 XXXZ=             30.5500 YYYX=             -4.8834 YYYZ=              7.1258 ZZZX=             -3.4085
 ZZZY=              0.8010 XXYY=           -241.2327 XXZZ=           -209.9533 YYZZ=           -160.7972
 XXYZ=             -6.4820 YYXZ=             -2.6743 ZZXY=              5.0977
 N-N= 5.661327071507D+02 E-N=-2.121900219018D+03  KE= 4.225472195406D+02
  Exact polarizability:  94.698   0.999  89.679  -0.833   1.236  82.590
 Approx polarizability: 133.338  -1.443 123.972  -8.642   4.208 126.820
 Calling FoFJK, ICntrl=    100127 FMM=F ISym2X=0 I1Cent= 0 IOpClX= 0 NMat=1 NMatS=1 NMatT=0.
 Full mass-weighted force constant matrix:
 Low frequencies ---   -5.6039   -0.0008   -0.0005   -0.0004    6.5855    9.5843
 Low frequencies ---   82.8627  137.9690  217.2496
 Diagonal vibrational polarizability:
        7.0170980       5.2294151       7.1426075
 Harmonic frequencies (cm**-1), IR intensities (KM/Mole), Raman scattering
 activities (A**4/AMU), depolarization ratios for plane and unpolarized
 incident light, reduced masses (AMU), force constants (mDyne/A),
 and normal coordinates:
                      1                      2                      3
                      A                      A                      A
 Frequencies --     82.8613               137.9690               217.2494
 Red. masses --      3.7167                 4.0541                 1.3363
 Frc consts  --      0.0150                 0.0455                 0.0372
 IR Inten    --      2.0134                 2.4639                 0.1820
  Atom  AN      X      Y      Z        X      Y      Z        X      Y      Z
     1   8    -0.15   0.15  -0.16     0.24   0.06   0.17    -0.02  -0.02   0.01
     2   6    -0.04   0.06  -0.00     0.03   0.04  -0.05    -0.02  -0.00  -0.00
     3   6     0.01  -0.01   0.00    -0.03  -0.01  -0.19    -0.01   0.01   0.02
     4   6    -0.05  -0.06   0.02     0.01  -0.11  -0.13    -0.00   0.02   0.01
     5   6    -0.01  -0.05   0.02    -0.11  -0.01  -0.03    -0.01  -0.00   0.00
     6   6    -0.00  -0.03   0.14    -0.09   0.01   0.24     0.05  -0.09  -0.03
     7   6     0.03  -0.01  -0.06    -0.04   0.01  -0.02    -0.02   0.00   0.01
     8   6     0.23  -0.03  -0.16     0.04   0.04  -0.02     0.07   0.07   0.04
     9   6    -0.04  -0.04   0.06    -0.03  -0.06  -0.02    -0.02   0.00  -0.00
    10   6     0.02   0.00   0.16    -0.05   0.02  -0.03    -0.05   0.01  -0.04
    11   1     0.06   0.00  -0.03    -0.01  -0.00  -0.26    -0.01   0.01   0.02
    12   1    -0.07  -0.09  -0.03     0.03  -0.16  -0.12     0.01   0.02   0.02
    13   1    -0.08  -0.06   0.06     0.03  -0.14  -0.16     0.01   0.03  -0.00
    14   1    -0.05  -0.13   0.01    -0.28  -0.06  -0.06     0.00   0.01   0.01
    15   1    -0.01  -0.07   0.14    -0.17   0.01   0.40     0.05  -0.19  -0.12
    16   1    -0.02  -0.08   0.22    -0.20  -0.02   0.25     0.18  -0.08   0.02
    17   1     0.03   0.06   0.16     0.11   0.07   0.28    -0.00  -0.07  -0.04
    18   1    -0.06   0.09  -0.15    -0.05   0.06  -0.03    -0.03   0.02  -0.00
    19   1     0.24   0.04  -0.21    -0.03   0.15   0.04    -0.19   0.41   0.33
    20   1     0.30  -0.18  -0.11     0.01  -0.07  -0.07    -0.10  -0.28  -0.20
    21   1     0.31   0.02  -0.24     0.20   0.07  -0.02     0.61   0.16   0.04
    22   1    -0.10  -0.07   0.08    -0.02  -0.12   0.05    -0.02   0.02  -0.02
    23   1    -0.01  -0.13   0.26    -0.05   0.06  -0.05    -0.03   0.06  -0.08
    24   1     0.12   0.11   0.25    -0.11   0.03  -0.01    -0.10  -0.02  -0.06
                      4                      5                      6
                      A                      A                      A
 Frequencies --    240.0981               242.3532               283.6370
 Red. masses --      1.3501                 1.4203                 1.9118
 Frc consts  --      0.0459                 0.0492                 0.0906
 IR Inten    --      0.0720                 0.1563                 0.4153
  Atom  AN      X      Y      Z        X      Y      Z        X      Y      Z
     1   8    -0.01  -0.03  -0.01    -0.02  -0.05  -0.00    -0.00   0.00   0.04
     2   6     0.00  -0.01  -0.00    -0.00  -0.02   0.01    -0.06   0.01  -0.03
     3   6    -0.01   0.01  -0.02    -0.02   0.02  -0.01    -0.01  -0.01   0.02
     4   6    -0.04   0.00  -0.02    -0.06   0.02  -0.01     0.08   0.01   0.02
     5   6     0.00   0.00  -0.03    -0.00   0.02  -0.02    -0.03  -0.02   0.05
     6   6     0.07  -0.05   0.06     0.10  -0.08   0.04    -0.03  -0.04  -0.05
     7   6    -0.01   0.01  -0.04    -0.02   0.03  -0.02    -0.03  -0.01   0.05
     8   6    -0.01   0.10   0.05     0.00   0.08   0.02     0.17   0.01   0.02
     9   6    -0.02  -0.00  -0.02    -0.02   0.02  -0.02    -0.02  -0.01   0.03
    10   6     0.01  -0.02   0.01     0.02  -0.01   0.01    -0.12   0.04  -0.10
    11   1    -0.02   0.00  -0.02    -0.04   0.01  -0.00     0.01  -0.00   0.02
    12   1    -0.05   0.00  -0.04    -0.09   0.03  -0.05     0.15  -0.02   0.11
    13   1    -0.05  -0.01   0.00    -0.08  -0.00   0.03     0.15   0.05  -0.07
    14   1    -0.01  -0.04  -0.04    -0.03   0.02  -0.03    -0.02   0.02   0.05
    15   1     0.11  -0.34  -0.29    -0.08  -0.01   0.50    -0.02  -0.02  -0.06
    16   1     0.31  -0.20   0.46    -0.00   0.09  -0.35     0.00   0.00  -0.12
    17   1    -0.15   0.30   0.08     0.50  -0.45   0.04    -0.07  -0.13  -0.08
    18   1    -0.01  -0.01  -0.04    -0.02   0.02  -0.03    -0.07   0.03   0.00
    19   1     0.11   0.06  -0.13     0.07   0.06  -0.10     0.41  -0.07  -0.35
    20   1     0.08   0.34   0.19     0.07   0.19   0.10     0.42   0.19   0.31
    21   1    -0.22  -0.00   0.18    -0.10   0.02   0.08    -0.14  -0.05   0.04
    22   1    -0.02   0.00  -0.03    -0.01   0.02  -0.02     0.01  -0.01   0.03
    23   1    -0.00  -0.04   0.04     0.00  -0.05   0.05    -0.07   0.15  -0.23
    24   1     0.06  -0.00   0.01     0.07  -0.00   0.02    -0.26  -0.03  -0.14
                      7                      8                      9
                      A                      A                      A
 Frequencies --    324.3556               373.7595               429.7080
 Red. masses --      2.3373                 2.6279                 2.8872
 Frc consts  --      0.1449                 0.2163                 0.3141
 IR Inten    --      0.1307                 0.2151                 3.1479
  Atom  AN      X      Y      Z        X      Y      Z        X      Y      Z
     1   8     0.00  -0.05   0.03    -0.04  -0.04  -0.01     0.12   0.17  -0.08
     2   6    -0.03   0.02  -0.04    -0.01  -0.03   0.02     0.06  -0.07  -0.01
     3   6    -0.08   0.06  -0.08     0.03  -0.02  -0.00    -0.01  -0.05   0.06
     4   6     0.03  -0.02  -0.04    -0.07  -0.12   0.02    -0.18   0.01   0.03
     5   6    -0.11   0.11   0.06     0.11   0.12  -0.03    -0.05   0.01   0.09
     6   6     0.05  -0.09  -0.04     0.17   0.14   0.05    -0.03  -0.05  -0.01
     7   6    -0.03   0.10   0.12     0.02   0.05   0.03     0.01   0.05   0.08
     8   6    -0.02  -0.09  -0.08    -0.01  -0.03  -0.06     0.02  -0.01   0.02
     9   6     0.06   0.03   0.06    -0.02  -0.05   0.09     0.07   0.02  -0.03
    10   6     0.07   0.01   0.05    -0.14  -0.00  -0.07     0.02  -0.11  -0.10
    11   1    -0.12   0.06  -0.16    -0.04  -0.03  -0.09    -0.13  -0.08   0.14
    12   1     0.06  -0.03  -0.01    -0.13  -0.15  -0.09    -0.42   0.14  -0.23
    13   1     0.07  -0.10  -0.10    -0.13  -0.17   0.11    -0.38  -0.13   0.31
    14   1    -0.17   0.22   0.06     0.11   0.15  -0.02    -0.06   0.05   0.09
    15   1     0.02  -0.34  -0.18     0.13   0.07   0.07    -0.02  -0.09  -0.07
    16   1     0.37  -0.04   0.00     0.17   0.10   0.14     0.07  -0.01  -0.05
    17   1    -0.03  -0.13  -0.06     0.23   0.24   0.08    -0.12  -0.13  -0.04
    18   1    -0.01   0.19   0.15    -0.04   0.00  -0.04     0.04   0.13   0.13
    19   1     0.03  -0.27  -0.08    -0.01  -0.15   0.00     0.05  -0.06  -0.01
    20   1     0.02  -0.25  -0.07    -0.05  -0.10  -0.11     0.05  -0.03   0.05
    21   1    -0.09   0.03  -0.34    -0.05   0.03  -0.19    -0.03   0.02  -0.05
    22   1     0.14  -0.01   0.11     0.05  -0.09   0.15     0.18   0.07  -0.06
    23   1     0.09  -0.12   0.08    -0.07   0.25  -0.29     0.07  -0.01  -0.21
    24   1     0.13   0.09   0.11    -0.43  -0.13  -0.15    -0.04  -0.21  -0.19
                     10                     11                     12
                      A                      A                      A
 Frequencies --    470.3211               498.0632               542.5030
 Red. masses --      2.9038                 2.9776                 3.6382
 Frc consts  --      0.3785                 0.4352                 0.6309
 IR Inten    --      3.9779                 0.9789                 1.7708
  Atom  AN      X      Y      Z        X      Y      Z        X      Y      Z
     1   8    -0.07  -0.11   0.04    -0.09   0.09   0.08     0.05  -0.14  -0.11
     2   6    -0.01   0.14  -0.01    -0.07   0.02   0.10     0.19   0.04  -0.01
     3   6     0.01   0.08  -0.06    -0.07  -0.06   0.02     0.17   0.04   0.03
     4   6    -0.15  -0.01  -0.05     0.06  -0.09   0.03     0.01  -0.09   0.03
     5   6     0.01  -0.07  -0.03    -0.02  -0.06  -0.02    -0.02  -0.04   0.14
     6   6    -0.05  -0.03  -0.00    -0.05  -0.09  -0.01    -0.10  -0.07  -0.01
     7   6     0.09  -0.07   0.03     0.16   0.08  -0.11    -0.08   0.09  -0.01
     8   6     0.07  -0.10   0.10    -0.07   0.11  -0.09    -0.07   0.14  -0.11
     9   6     0.09   0.04   0.00     0.16  -0.02   0.04    -0.06  -0.05   0.07
    10   6     0.06   0.18  -0.03     0.04   0.03  -0.01    -0.01   0.09   0.05
    11   1     0.21   0.12  -0.11    -0.00  -0.04  -0.03     0.22   0.04  -0.03
    12   1    -0.40   0.11  -0.32     0.08   0.02   0.12    -0.05  -0.23  -0.14
    13   1    -0.34  -0.25   0.21     0.11  -0.19  -0.07    -0.09   0.00   0.18
    14   1    -0.04  -0.06  -0.04     0.02  -0.17  -0.03    -0.06  -0.08   0.14
    15   1    -0.02   0.02  -0.02    -0.07  -0.14   0.01    -0.00   0.06  -0.11
    16   1    -0.11  -0.06   0.02     0.01  -0.06  -0.05    -0.10  -0.01  -0.14
    17   1    -0.08   0.01  -0.00    -0.02  -0.15  -0.02    -0.30  -0.23  -0.07
    18   1     0.14  -0.08   0.09     0.17   0.13  -0.09    -0.14   0.19  -0.06
    19   1     0.08  -0.10   0.09    -0.12  -0.06   0.08    -0.07   0.13  -0.10
    20   1     0.06  -0.06   0.10    -0.24   0.30  -0.24    -0.08   0.16  -0.11
    21   1     0.05  -0.12   0.13    -0.19   0.05  -0.02    -0.10   0.14  -0.11
    22   1    -0.01   0.01   0.01     0.11  -0.07   0.09    -0.02  -0.10   0.14
    23   1     0.10   0.26  -0.13     0.17   0.26  -0.31    -0.08   0.35   0.03
    24   1    -0.10   0.17  -0.03    -0.27  -0.16  -0.16    -0.21   0.06   0.03
                     13                     14                     15
                      A                      A                      A
 Frequencies --    593.4088               685.9281               755.7982
 Red. masses --      2.4911                 3.8120                 3.9627
 Frc consts  --      0.5168                 1.0567                 1.3337
 IR Inten    --      1.3399                 0.6567                 5.0233
  Atom  AN      X      Y      Z        X      Y      Z        X      Y      Z
     1   8    -0.05   0.02  -0.06     0.15  -0.06  -0.12    -0.00   0.02   0.03
     2   6     0.19  -0.05   0.21     0.06  -0.03  -0.16    -0.00   0.13  -0.03
     3   6    -0.06   0.02  -0.04    -0.12   0.08   0.02    -0.03   0.11   0.10
     4   6     0.01   0.02  -0.04    -0.04   0.11   0.19     0.02  -0.15   0.26
     5   6    -0.07   0.05  -0.09    -0.05   0.01  -0.17    -0.06   0.06  -0.05
     6   6    -0.03  -0.01   0.00    -0.06  -0.04  -0.02     0.01   0.04  -0.02
     7   6    -0.06  -0.04   0.02     0.10  -0.03  -0.05    -0.18  -0.11  -0.05
     8   6     0.02  -0.05   0.04     0.03  -0.03   0.01    -0.06   0.02  -0.05
     9   6    -0.02  -0.00  -0.04     0.00   0.00   0.20     0.07  -0.13  -0.05
    10   6     0.08   0.03   0.04    -0.05   0.01   0.08     0.16  -0.00  -0.14
    11   1    -0.15   0.00  -0.03    -0.24   0.05   0.18     0.05   0.14  -0.19
    12   1     0.11   0.03   0.11     0.05   0.09   0.30    -0.04  -0.05   0.23
    13   1     0.11   0.04  -0.18     0.06   0.04   0.04     0.01  -0.24   0.26
    14   1    -0.09   0.11  -0.08     0.00  -0.03  -0.17     0.07   0.07  -0.03
    15   1    -0.09  -0.11   0.06    -0.19  -0.21   0.12    -0.07  -0.05   0.09
    16   1     0.00  -0.03   0.07    -0.03  -0.10   0.10     0.00  -0.01   0.07
    17   1     0.08   0.07   0.03     0.18   0.09   0.05     0.17   0.14   0.03
    18   1    -0.03  -0.05   0.06     0.03  -0.09  -0.15    -0.14  -0.12   0.01
    19   1     0.06   0.01  -0.06    -0.01  -0.16   0.14    -0.01   0.28  -0.27
    20   1     0.11  -0.13   0.11    -0.10   0.06  -0.10     0.13  -0.09   0.12
    21   1     0.07  -0.03  -0.00    -0.06  -0.06   0.03     0.10   0.02  -0.00
    22   1    -0.05  -0.00  -0.04    -0.11   0.09   0.09     0.10   0.01  -0.20
    23   1    -0.06   0.62  -0.05     0.07   0.11  -0.13     0.19  -0.13  -0.12
    24   1    -0.14  -0.37  -0.31    -0.39   0.10   0.19     0.19   0.09  -0.06
                     16                     17                     18
                      A                      A                      A
 Frequencies --    783.2446               816.5700               829.1822
 Red. masses --      2.4727                 2.9074                 2.2971
 Frc consts  --      0.8938                 1.1422                 0.9305
 IR Inten    --      0.9500                 6.2230                 0.5378
  Atom  AN      X      Y      Z        X      Y      Z        X      Y      Z
     1   8     0.03  -0.01  -0.03     0.05  -0.00  -0.04     0.00   0.01   0.00
     2   6     0.03   0.02  -0.03     0.00  -0.05  -0.06    -0.04  -0.01  -0.03
     3   6    -0.11   0.00   0.02    -0.17  -0.15   0.09    -0.06   0.13  -0.11
     4   6    -0.02  -0.06   0.03    -0.02  -0.04  -0.09    -0.02   0.05  -0.01
     5   6    -0.06   0.09   0.18     0.06  -0.08   0.03     0.06  -0.06   0.11
     6   6     0.05   0.08   0.03     0.07   0.03  -0.01     0.07   0.02   0.03
     7   6     0.10  -0.06  -0.11    -0.10  -0.02   0.03    -0.06  -0.08  -0.05
     8   6     0.04  -0.06   0.02    -0.05   0.03  -0.03    -0.02  -0.02  -0.03
     9   6    -0.04  -0.08  -0.12     0.05   0.05   0.03    -0.01   0.06   0.13
    10   6    -0.01   0.07   0.01     0.06   0.21   0.02     0.09  -0.11   0.04
    11   1    -0.25  -0.02  -0.10    -0.32  -0.19   0.29    -0.08   0.13  -0.12
    12   1     0.03  -0.00   0.12    -0.01   0.20   0.08     0.03  -0.12  -0.04
    13   1     0.04   0.02  -0.05     0.05  -0.24  -0.21     0.03  -0.05  -0.10
    14   1    -0.08  -0.03   0.16     0.17  -0.09   0.05    -0.05  -0.16   0.08
    15   1     0.08  -0.02  -0.12     0.11   0.14   0.01     0.26   0.30  -0.14
    16   1     0.36   0.25  -0.17    -0.05  -0.02   0.03    -0.04   0.07  -0.12
    17   1    -0.13  -0.23  -0.05     0.07   0.10   0.01    -0.23  -0.11  -0.04
    18   1     0.10   0.12  -0.08    -0.07  -0.11   0.06    -0.11  -0.10  -0.12
    19   1    -0.05  -0.05   0.17     0.00   0.23  -0.23    -0.05   0.23  -0.11
    20   1    -0.11   0.22  -0.09     0.12  -0.10   0.12     0.02   0.09   0.03
    21   1    -0.01  -0.21   0.30     0.09   0.07  -0.06     0.09  -0.10   0.19
    22   1    -0.21  -0.04  -0.21     0.01  -0.14   0.24    -0.02   0.10   0.09
    23   1    -0.12   0.15   0.14     0.09   0.15   0.01     0.25   0.10  -0.30
    24   1    -0.04   0.11   0.05     0.04   0.26   0.06    -0.15  -0.34  -0.16
                     19                     20                     21
                      A                      A                      A
 Frequencies --    902.6718               919.6678               928.8707
 Red. masses --      2.1766                 2.3627                 2.3989
 Frc consts  --      1.0450                 1.1774                 1.2195
 IR Inten    --      6.0285                 4.3401                 0.5874
  Atom  AN      X      Y      Z        X      Y      Z        X      Y      Z
     1   8    -0.01   0.01   0.02     0.01   0.01  -0.01     0.00  -0.01  -0.00
     2   6    -0.06  -0.06  -0.01     0.02  -0.06   0.04    -0.03  -0.05  -0.01
     3   6     0.12  -0.07   0.04     0.01  -0.01   0.02     0.02  -0.17  -0.17
     4   6     0.08   0.06  -0.07     0.02  -0.14   0.03     0.03   0.01   0.18
     5   6    -0.10   0.10  -0.00     0.01   0.04  -0.01     0.00  -0.02   0.01
     6   6    -0.04   0.06  -0.01    -0.05  -0.02   0.00     0.02   0.01   0.00
     7   6    -0.04  -0.09  -0.08     0.02   0.02  -0.03     0.00  -0.02   0.02
     8   6    -0.02  -0.05  -0.04     0.03  -0.05   0.02    -0.03   0.02  -0.02
     9   6     0.06   0.02   0.07    -0.11   0.22   0.09     0.02   0.13  -0.05
    10   6     0.01   0.03   0.06     0.02   0.07  -0.11    -0.03   0.05   0.07
    11   1     0.08  -0.09   0.15    -0.09  -0.03   0.03     0.04  -0.16  -0.61
    12   1    -0.13   0.07  -0.36     0.08  -0.43  -0.07    -0.08   0.17   0.13
    13   1    -0.14   0.03   0.26     0.04  -0.32  -0.02    -0.05   0.00   0.31
    14   1    -0.09   0.15   0.01     0.04   0.01  -0.01    -0.14   0.05  -0.01
    15   1    -0.19  -0.27   0.04    -0.10  -0.12   0.02     0.06   0.06  -0.04
    16   1     0.27   0.13   0.00     0.03  -0.01   0.01     0.00   0.01  -0.02
    17   1     0.12  -0.03   0.00    -0.01  -0.05   0.01    -0.02  -0.00  -0.01
    18   1    -0.04  -0.04  -0.07    -0.11  -0.02  -0.20     0.08  -0.03   0.12
    19   1    -0.06   0.27  -0.14    -0.03  -0.05   0.13     0.01   0.13  -0.14
    20   1     0.04   0.11   0.05    -0.06   0.09  -0.05     0.07  -0.04   0.07
    21   1     0.13  -0.18   0.28     0.00  -0.12   0.15     0.05   0.05  -0.04
    22   1    -0.06  -0.11   0.19    -0.22   0.28   0.01    -0.09   0.31  -0.26
    23   1     0.16   0.01  -0.16     0.05  -0.21  -0.01    -0.07   0.17   0.06
    24   1    -0.14  -0.01   0.03     0.45   0.00  -0.21    -0.07  -0.03   0.01
                     22                     23                     24
                      A                      A                      A
 Frequencies --    952.1807               991.0221              1014.6212
 Red. masses --      1.9766                 1.6254                 1.3140
 Frc consts  --      1.0559                 0.9406                 0.7970
 IR Inten    --      0.1564                 1.3679                 1.5835
  Atom  AN      X      Y      Z        X      Y      Z        X      Y      Z
     1   8     0.01   0.00   0.02    -0.02   0.01  -0.00    -0.00  -0.00  -0.01
     2   6    -0.06   0.02  -0.06     0.06  -0.01   0.08     0.04   0.02   0.03
     3   6     0.05  -0.11   0.00    -0.01  -0.04  -0.07     0.02  -0.01  -0.00
     4   6    -0.10   0.02   0.02    -0.00   0.08   0.03    -0.05  -0.00  -0.00
     5   6    -0.02  -0.01   0.00     0.00   0.00  -0.00    -0.01   0.00  -0.05
     6   6     0.00   0.03  -0.01     0.01  -0.01   0.02    -0.02   0.06   0.07
     7   6     0.01   0.05   0.02    -0.03  -0.02   0.00     0.04  -0.02  -0.02
     8   6     0.02   0.00   0.04     0.03  -0.01  -0.03    -0.05   0.03   0.03
     9   6    -0.12  -0.04   0.01     0.00  -0.06   0.09     0.02   0.01   0.04
    10   6     0.17   0.04  -0.02    -0.01   0.04  -0.12    -0.03  -0.01  -0.04
    11   1     0.22  -0.08  -0.08    -0.07  -0.05  -0.26     0.11   0.00   0.05
    12   1     0.14  -0.16   0.25    -0.08   0.40   0.11     0.06   0.02   0.16
    13   1     0.02   0.53  -0.09    -0.04   0.12   0.09     0.06   0.00  -0.15
    14   1    -0.03   0.03   0.00    -0.11   0.03  -0.02    -0.16  -0.28  -0.10
    15   1    -0.05  -0.08   0.01     0.08   0.09  -0.05     0.01  -0.12  -0.16
    16   1     0.10   0.04   0.01    -0.05  -0.00  -0.03     0.35   0.26  -0.18
    17   1     0.07   0.01  -0.00    -0.09  -0.03  -0.01    -0.20  -0.33  -0.04
    18   1    -0.02   0.06  -0.00    -0.21   0.03  -0.21     0.12  -0.32   0.02
    19   1     0.03  -0.15   0.09    -0.06  -0.06   0.15     0.06   0.05  -0.18
    20   1    -0.02  -0.05  -0.01    -0.12   0.19  -0.15     0.13  -0.25   0.16
    21   1    -0.06   0.05  -0.09    -0.06  -0.10   0.13     0.05   0.16  -0.21
    22   1    -0.28  -0.18   0.14     0.12  -0.27   0.35     0.05   0.01   0.05
    23   1     0.33   0.12  -0.28    -0.05  -0.24   0.08     0.00  -0.15  -0.02
    24   1     0.00  -0.13  -0.16     0.31   0.15  -0.05     0.05   0.09   0.05
                     25                     26                     27
                      A                      A                      A
 Frequencies --   1019.6290              1046.2309              1068.9332
 Red. masses --      1.4804                 1.8313                 1.5006
 Frc consts  --      0.9068                 1.1811                 1.0102
 IR Inten    --     15.0014                 0.3512                13.6429
  Atom  AN      X      Y      Z        X      Y      Z        X      Y      Z
     1   8     0.00   0.02   0.01    -0.00   0.00   0.00    -0.01   0.02   0.01
     2   6    -0.04  -0.07  -0.01    -0.01  -0.02   0.00    -0.02  -0.09   0.03
     3   6    -0.03   0.05  -0.00    -0.01   0.03  -0.01     0.06   0.02   0.01
     4   6     0.12   0.03   0.02    -0.02  -0.00  -0.01    -0.03  -0.01   0.02
     5   6    -0.00   0.00  -0.02     0.15   0.13   0.06    -0.06   0.05  -0.07
     6   6     0.01  -0.00   0.03    -0.11  -0.10   0.01     0.07  -0.07   0.04
     7   6     0.01  -0.02  -0.01     0.06   0.00  -0.03     0.01   0.02  -0.02
     8   6     0.01   0.07   0.05    -0.06  -0.02  -0.00    -0.01  -0.03   0.00
     9   6    -0.05  -0.06  -0.01    -0.01  -0.02  -0.01     0.04  -0.02  -0.02
    10   6     0.04   0.04   0.00    -0.01   0.01  -0.01     0.00   0.06  -0.01
    11   1    -0.27   0.00   0.02    -0.35  -0.02  -0.35    -0.17  -0.03   0.16
    12   1    -0.15   0.01  -0.38     0.02  -0.03   0.02     0.09  -0.26   0.04
    13   1    -0.13  -0.08   0.37    -0.03   0.30   0.03     0.03   0.15  -0.04
    14   1     0.02  -0.19  -0.04     0.36   0.13   0.09    -0.33   0.12  -0.10
    15   1     0.08   0.07  -0.06    -0.14  -0.12   0.07     0.30   0.38  -0.10
    16   1     0.01   0.04  -0.06    -0.15  -0.14   0.08    -0.31  -0.10  -0.08
    17   1    -0.12  -0.08  -0.01    -0.06  -0.05   0.03    -0.28   0.00  -0.01
    18   1    -0.01  -0.17  -0.05     0.16  -0.22   0.06     0.10   0.14   0.12
    19   1     0.08  -0.26   0.08     0.01   0.20  -0.22    -0.01   0.07  -0.06
    20   1    -0.02  -0.19  -0.02     0.14  -0.13   0.18     0.04  -0.01   0.06
    21   1    -0.12   0.23  -0.33     0.14   0.01   0.01     0.05  -0.05   0.07
    22   1    -0.33  -0.13   0.01    -0.04  -0.18   0.15    -0.09  -0.00  -0.06
    23   1     0.02   0.08   0.01     0.05  -0.07  -0.06     0.14  -0.13  -0.12
    24   1     0.10  -0.08  -0.12    -0.02   0.05   0.03    -0.13   0.24   0.17
                     28                     29                     30
                      A                      A                      A
 Frequencies --   1078.1452              1124.7406              1139.5862
 Red. masses --      2.1939                 1.6712                 1.2608
 Frc consts  --      1.5025                 1.2456                 0.9647
 IR Inten    --      0.9535                 1.2692                 1.5065
  Atom  AN      X      Y      Z        X      Y      Z        X      Y      Z
     1   8     0.01  -0.00   0.00    -0.01  -0.00   0.01     0.02  -0.01  -0.01
     2   6    -0.03   0.00  -0.04    -0.01   0.02  -0.02    -0.04   0.01  -0.05
     3   6     0.01  -0.02   0.04     0.05  -0.06   0.01     0.02   0.02   0.06
     4   6     0.03  -0.04   0.01    -0.03   0.02  -0.03     0.01  -0.04   0.00
     5   6     0.03   0.01  -0.06     0.09   0.11   0.00    -0.00   0.06  -0.03
     6   6    -0.01  -0.01   0.04    -0.05  -0.05   0.05     0.01  -0.04   0.02
     7   6    -0.13   0.17  -0.12    -0.08  -0.09   0.00     0.03   0.02  -0.01
     8   6     0.03  -0.11   0.11     0.06   0.06   0.01    -0.02  -0.02  -0.00
     9   6     0.04   0.03  -0.04     0.02  -0.00  -0.01    -0.02   0.02  -0.02
    10   6     0.01  -0.01   0.05     0.04  -0.01   0.03    -0.02  -0.02   0.04
    11   1    -0.07  -0.03  -0.22    -0.04  -0.08   0.06     0.29   0.07  -0.00
    12   1    -0.02   0.07   0.01     0.00   0.19   0.12    -0.08   0.48   0.19
    13   1    -0.02   0.09   0.10     0.08  -0.30  -0.23     0.06  -0.30  -0.11
    14   1     0.15  -0.39  -0.08    -0.04   0.28  -0.00    -0.13   0.15  -0.04
    15   1     0.05   0.02  -0.08     0.01  -0.01  -0.05     0.10   0.12  -0.04
    16   1     0.02   0.06  -0.09    -0.05  -0.01  -0.04    -0.12  -0.04  -0.04
    17   1    -0.15  -0.16  -0.01    -0.19  -0.14   0.01    -0.13  -0.02   0.00
    18   1    -0.27   0.15  -0.30    -0.23  -0.21  -0.21     0.08   0.03   0.04
    19   1     0.03  -0.15   0.14     0.03  -0.25   0.20    -0.01   0.06  -0.06
    20   1     0.04  -0.16   0.12    -0.14   0.05  -0.20     0.05  -0.02   0.07
    21   1     0.03  -0.11   0.12    -0.18   0.09  -0.14     0.06  -0.02   0.04
    22   1     0.45  -0.04   0.12     0.01   0.24  -0.28    -0.26  -0.23   0.20
    23   1    -0.03   0.16   0.02     0.12   0.02  -0.10    -0.07   0.09   0.06
    24   1    -0.13  -0.02   0.05    -0.21   0.08   0.13     0.20  -0.31  -0.25
                     31                     32                     33
                      A                      A                      A
 Frequencies --   1149.4404              1184.8237              1191.4248
 Red. masses --      1.4828                 2.2372                 1.9460
 Frc consts  --      1.1542                 1.8504                 1.6276
 IR Inten    --      3.1850                23.9460                12.0848
  Atom  AN      X      Y      Z        X      Y      Z        X      Y      Z
     1   8     0.00   0.01   0.02    -0.03  -0.03   0.02    -0.00  -0.03   0.01
     2   6    -0.07  -0.04  -0.06     0.07   0.20  -0.01     0.02   0.15  -0.04
     3   6    -0.00   0.01  -0.01    -0.05  -0.11  -0.05     0.01  -0.08   0.06
     4   6    -0.02   0.01   0.04     0.08   0.02   0.01     0.00  -0.04  -0.05
     5   6     0.06   0.02  -0.07     0.07   0.00  -0.06    -0.11   0.05   0.02
     6   6    -0.03  -0.00   0.05    -0.01  -0.01   0.04     0.06  -0.04  -0.02
     7   6     0.02  -0.02   0.10     0.02   0.10   0.04     0.05  -0.08  -0.06
     8   6     0.01  -0.01  -0.07    -0.03  -0.06  -0.02    -0.01   0.04   0.02
     9   6    -0.00  -0.03  -0.01    -0.08  -0.06   0.03     0.00   0.07   0.05
    10   6     0.04   0.03  -0.01     0.02  -0.06  -0.01    -0.02  -0.05   0.01
    11   1    -0.02   0.01   0.22    -0.33  -0.18   0.48    -0.32  -0.14  -0.03
    12   1     0.04  -0.26  -0.04    -0.07   0.10  -0.15     0.03  -0.07  -0.03
    13   1    -0.02   0.14   0.04    -0.05  -0.09   0.19    -0.08   0.37   0.13
    14   1    -0.09   0.07  -0.09    -0.09   0.07  -0.09    -0.15   0.05   0.02
    15   1     0.01  -0.05  -0.08     0.03  -0.02  -0.07     0.13   0.21   0.04
    16   1     0.08   0.08  -0.07     0.02   0.04  -0.06    -0.21  -0.12   0.01
    17   1    -0.14  -0.17  -0.00    -0.13  -0.14  -0.00    -0.01   0.18   0.00
    18   1    -0.05  -0.16  -0.02     0.03   0.21   0.07     0.03  -0.29  -0.13
    19   1    -0.07   0.13  -0.01    -0.06   0.20  -0.10     0.05  -0.09  -0.02
    20   1    -0.04   0.20  -0.08     0.08   0.06   0.11    -0.01  -0.10  -0.01
    21   1     0.03  -0.10   0.13     0.12  -0.12   0.17    -0.03   0.11  -0.15
    22   1     0.37  -0.01   0.04    -0.21   0.16  -0.23     0.37   0.11   0.08
    23   1    -0.33   0.39   0.36     0.13  -0.10  -0.15    -0.14   0.11   0.11
    24   1     0.16  -0.11  -0.15    -0.02  -0.07  -0.01     0.16  -0.20  -0.15
                     34                     35                     36
                      A                      A                      A
 Frequencies --   1205.6034              1251.6652              1270.9839
 Red. masses --      1.9474                 1.6527                 1.4572
 Frc consts  --      1.6677                 1.5255                 1.3869
 IR Inten    --      1.2375                 2.1371                 1.2740
  Atom  AN      X      Y      Z        X      Y      Z        X      Y      Z
     1   8     0.01  -0.01  -0.01     0.01   0.01  -0.01     0.00  -0.00  -0.02
     2   6     0.03   0.04   0.00     0.01  -0.02   0.02     0.03  -0.00   0.02
     3   6    -0.01   0.04   0.10    -0.12  -0.04   0.08    -0.11   0.01  -0.06
     4   6     0.02  -0.08  -0.04     0.05  -0.00  -0.06     0.04  -0.05   0.04
     5   6     0.00  -0.02  -0.10    -0.04   0.05  -0.03     0.04  -0.01   0.02
     6   6    -0.00   0.02   0.05     0.03  -0.03   0.03    -0.01  -0.01   0.01
     7   6    -0.04  -0.07   0.13     0.05   0.02   0.04    -0.01  -0.01  -0.04
     8   6     0.06   0.02  -0.07    -0.01  -0.01  -0.02     0.01   0.01   0.02
     9   6    -0.01   0.09  -0.07    -0.06   0.00   0.04    -0.01   0.04  -0.08
    10   6    -0.03  -0.02   0.06     0.07  -0.06  -0.06    -0.04   0.02   0.05
    11   1    -0.24   0.01  -0.37     0.60   0.11  -0.28     0.41   0.09   0.37
    12   1    -0.02   0.11   0.01    -0.04   0.04  -0.17    -0.02  -0.08  -0.05
    13   1    -0.05   0.29   0.11    -0.07   0.09   0.12    -0.06   0.23   0.22
    14   1     0.07  -0.18  -0.10     0.15  -0.01   0.00    -0.16   0.43   0.03
    15   1     0.04  -0.03  -0.10     0.10   0.12  -0.03     0.01   0.01  -0.02
    16   1     0.09   0.11  -0.09    -0.09  -0.02  -0.04     0.03   0.01   0.01
    17   1    -0.11  -0.15  -0.01    -0.11  -0.01   0.00    -0.02  -0.04   0.01
    18   1     0.09   0.02   0.29    -0.06  -0.20  -0.12    -0.04  -0.18  -0.11
    19   1    -0.05   0.02   0.11    -0.02   0.08  -0.04     0.02  -0.07   0.03
    20   1    -0.13   0.28  -0.21     0.02   0.04   0.03    -0.01  -0.04  -0.02
    21   1    -0.09  -0.08   0.08     0.05  -0.03   0.04    -0.02   0.03  -0.04
    22   1    -0.07  -0.13   0.15    -0.07   0.17  -0.14     0.23  -0.18   0.21
    23   1     0.24  -0.21  -0.25    -0.09   0.13   0.08     0.21  -0.19  -0.22
    24   1    -0.10  -0.06   0.03    -0.24   0.27   0.27    -0.01  -0.03  -0.01
                     37                     38                     39
                      A                      A                      A
 Frequencies --   1293.7364              1307.0515              1327.7927
 Red. masses --      1.5259                 1.4984                 1.4715
 Frc consts  --      1.5047                 1.5082                 1.5285
 IR Inten    --      0.4058                 2.2406                 0.9314
  Atom  AN      X      Y      Z        X      Y      Z        X      Y      Z
     1   8     0.02  -0.01  -0.02    -0.01   0.01   0.01     0.00   0.01   0.00
     2   6    -0.00  -0.00  -0.00    -0.02  -0.05   0.00    -0.02  -0.04  -0.01
     3   6    -0.05  -0.02  -0.02     0.06   0.06  -0.06    -0.00   0.05   0.03
     4   6    -0.02  -0.00  -0.03     0.01  -0.11  -0.02     0.01  -0.09  -0.05
     5   6    -0.01   0.07  -0.01    -0.04   0.01   0.04     0.05  -0.08  -0.03
     6   6     0.01  -0.02   0.03     0.00  -0.00  -0.04    -0.03   0.02   0.03
     7   6    -0.05  -0.01  -0.00     0.04   0.05   0.07     0.01  -0.05  -0.04
     8   6     0.01   0.00  -0.01    -0.00  -0.02  -0.03    -0.03   0.01   0.04
     9   6     0.10  -0.07   0.06    -0.03  -0.02  -0.01     0.03   0.01   0.07
    10   6    -0.08   0.07   0.05     0.01   0.03   0.02     0.01  -0.01  -0.03
    11   1     0.31   0.04   0.08    -0.11   0.03   0.30    -0.09   0.04  -0.04
    12   1     0.03  -0.10  -0.02    -0.09   0.49   0.21    -0.05   0.29   0.08
    13   1    -0.03   0.29   0.02    -0.03   0.25   0.07    -0.05   0.40   0.10
    14   1     0.43  -0.19   0.04    -0.03  -0.31   0.01    -0.11   0.45  -0.01
    15   1     0.04   0.04  -0.01    -0.03   0.00   0.05    -0.00  -0.05  -0.07
    16   1    -0.04   0.00  -0.04    -0.02  -0.05   0.04     0.11   0.08  -0.02
    17   1    -0.11  -0.04   0.00     0.09   0.10  -0.00     0.02  -0.10   0.01
    18   1     0.01   0.11   0.10    -0.16  -0.41  -0.25    -0.10   0.50  -0.08
    19   1    -0.01  -0.02   0.04    -0.04   0.07  -0.00     0.04   0.00  -0.08
    20   1    -0.02   0.02  -0.03     0.02   0.07   0.02     0.01  -0.10   0.05
    21   1    -0.04  -0.01   0.01     0.04  -0.04   0.05     0.00   0.09  -0.11
    22   1    -0.14   0.25  -0.34     0.03   0.18  -0.21    -0.12   0.20  -0.16
    23   1     0.06  -0.14  -0.05     0.10  -0.04  -0.08    -0.12   0.12   0.12
    24   1     0.34  -0.25  -0.29    -0.05   0.03   0.02     0.01   0.06   0.04
                     40                     41                     42
                      A                      A                      A
 Frequencies --   1336.4981              1369.8199              1386.8253
 Red. masses --      1.5517                 1.4374                 1.4014
 Frc consts  --      1.6330                 1.5891                 1.5880
 IR Inten    --      2.9387                 6.3269                 1.2052
  Atom  AN      X      Y      Z        X      Y      Z        X      Y      Z
     1   8    -0.01   0.00   0.01    -0.00   0.01   0.00    -0.00  -0.01   0.00
     2   6     0.01   0.03  -0.00    -0.01  -0.03   0.01     0.01   0.02   0.00
     3   6     0.00  -0.01  -0.10     0.03   0.01  -0.05     0.03  -0.00  -0.03
     4   6    -0.01  -0.05   0.03     0.02  -0.01   0.00    -0.02   0.02   0.03
     5   6    -0.00   0.06   0.01    -0.05   0.02  -0.02    -0.08  -0.02  -0.03
     6   6    -0.00  -0.02   0.00     0.00  -0.02   0.03     0.01  -0.00   0.04
     7   6    -0.06  -0.03  -0.03     0.02  -0.06  -0.03     0.08  -0.03   0.08
     8   6     0.03   0.01   0.00    -0.00   0.02   0.00    -0.04  -0.01   0.02
     9   6     0.06   0.09  -0.00    -0.15  -0.01   0.02     0.04   0.03  -0.07
    10   6     0.03  -0.09  -0.06     0.03   0.03   0.00    -0.01  -0.01   0.01
    11   1     0.04  -0.02   0.41     0.01  -0.00   0.13    -0.09  -0.03   0.05
    12   1     0.02   0.06   0.14    -0.04   0.21   0.08     0.03  -0.12   0.01
    13   1    -0.04   0.17   0.11    -0.00  -0.15   0.01     0.03  -0.07  -0.06
    14   1     0.26  -0.23   0.03     0.49   0.03   0.07     0.52   0.15   0.09
    15   1     0.01   0.03   0.01     0.07   0.07  -0.05     0.07   0.04  -0.06
    16   1    -0.02  -0.01  -0.02     0.03   0.06  -0.09     0.01   0.07  -0.10
    17   1    -0.03   0.02   0.00    -0.06   0.02   0.02    -0.07  -0.01   0.02
    18   1     0.14   0.06   0.23     0.24   0.28   0.29    -0.42   0.17  -0.51
    19   1     0.02  -0.06   0.06     0.03  -0.07  -0.01     0.02   0.09  -0.14
    20   1    -0.06   0.00  -0.09     0.00  -0.06  -0.01     0.00   0.02   0.06
    21   1    -0.08  -0.01  -0.00     0.01   0.01   0.01     0.09   0.08  -0.11
    22   1    -0.39  -0.22   0.26     0.57   0.09   0.04    -0.13  -0.16   0.10
    23   1    -0.25   0.20   0.20     0.10   0.01  -0.09     0.02  -0.07  -0.00
    24   1    -0.13   0.16   0.18    -0.02   0.06   0.03    -0.07  -0.04  -0.00
                     43                     44                     45
                      A                      A                      A
 Frequencies --   1408.8340              1436.5735              1442.1765
 Red. masses --      1.4426                 1.2363                 1.2379
 Frc consts  --      1.6870                 1.5033                 1.5169
 IR Inten    --      2.7894                 2.4215                 1.9509
  Atom  AN      X      Y      Z        X      Y      Z        X      Y      Z
     1   8     0.00   0.00  -0.00     0.00  -0.00  -0.00    -0.00  -0.00   0.00
     2   6     0.00  -0.00   0.00    -0.00   0.00  -0.00     0.00   0.00  -0.00
     3   6    -0.03  -0.01  -0.00    -0.00  -0.00   0.01     0.00   0.00   0.00
     4   6     0.00  -0.00   0.01     0.00   0.01  -0.01    -0.00   0.00  -0.00
     5   6     0.07   0.10   0.01     0.01   0.01   0.00     0.00  -0.00  -0.01
     6   6    -0.01  -0.02  -0.04    -0.10  -0.08   0.01    -0.04  -0.03   0.01
     7   6     0.04  -0.11   0.05    -0.01   0.02  -0.01     0.01  -0.01   0.02
     8   6    -0.04   0.02   0.01     0.02  -0.04   0.03    -0.04   0.09  -0.09
     9   6    -0.03   0.01  -0.03     0.00  -0.01   0.00     0.02   0.00  -0.01
    10   6     0.00   0.01   0.01     0.00   0.01  -0.00    -0.01  -0.01   0.00
    11   1     0.15   0.02   0.06    -0.00  -0.01  -0.02    -0.03  -0.00  -0.02
    12   1    -0.02  -0.02  -0.04     0.03  -0.03   0.02     0.01  -0.03  -0.00
    13   1     0.01   0.03   0.00    -0.02  -0.03   0.03    -0.00   0.02  -0.00
    14   1    -0.36  -0.56  -0.12    -0.04  -0.02  -0.01     0.00   0.02  -0.01
    15   1    -0.06   0.01   0.09     0.21   0.46  -0.15     0.09   0.18  -0.08
    16   1    -0.02  -0.07   0.05     0.48   0.14  -0.14     0.20   0.08  -0.08
    17   1     0.04   0.10  -0.01     0.39   0.31   0.15     0.17   0.14   0.07
    18   1    -0.21   0.56  -0.16     0.02  -0.05   0.03    -0.06   0.01  -0.06
    19   1     0.04   0.02  -0.12     0.01   0.21  -0.09    -0.05  -0.45   0.24
    20   1    -0.01  -0.07   0.03    -0.13   0.15  -0.09     0.30  -0.35   0.21
    21   1     0.03   0.07  -0.06    -0.08   0.06  -0.19     0.13  -0.18   0.47
    22   1     0.14  -0.03   0.05    -0.01   0.00  -0.01    -0.06  -0.01  -0.01
    23   1     0.04  -0.05  -0.03    -0.01  -0.04   0.03     0.01   0.08  -0.06
    24   1    -0.04  -0.02  -0.01    -0.03  -0.03  -0.03     0.07   0.04   0.04
                     46                     47                     48
                      A                      A                      A
 Frequencies --   1485.3054              1524.8446              1526.1806
 Red. masses --      1.0884                 1.0495                 1.0523
 Frc consts  --      1.4147                 1.4377                 1.4441
 IR Inten    --     10.0439                 1.7897                 2.2892
  Atom  AN      X      Y      Z        X      Y      Z        X      Y      Z
     1   8    -0.00   0.00   0.00     0.00  -0.00  -0.00    -0.00   0.00   0.00
     2   6    -0.00  -0.01  -0.00    -0.00   0.00   0.00     0.00  -0.00  -0.00
     3   6     0.00  -0.00  -0.00     0.00  -0.00   0.00    -0.00   0.00  -0.00
     4   6    -0.00   0.00   0.02     0.00  -0.01   0.02    -0.00   0.01  -0.02
     5   6    -0.00   0.00   0.00     0.00  -0.02  -0.02     0.02  -0.01   0.01
     6   6    -0.00  -0.00  -0.00     0.01  -0.02  -0.04     0.02  -0.02   0.02
     7   6     0.01  -0.00   0.00    -0.01   0.01   0.00    -0.02  -0.00  -0.01
     8   6     0.01  -0.02   0.00    -0.00  -0.00   0.00    -0.03  -0.02  -0.00
     9   6     0.00  -0.01  -0.01     0.00   0.00   0.00     0.01  -0.00   0.00
    10   6    -0.05  -0.06   0.02     0.00   0.00  -0.00    -0.00  -0.00   0.00
    11   1    -0.01  -0.00   0.00    -0.02  -0.01  -0.01     0.00   0.01  -0.01
    12   1    -0.07   0.00  -0.08    -0.13   0.05  -0.14     0.10  -0.02   0.12
    13   1     0.06   0.02  -0.09     0.12   0.08  -0.15    -0.09  -0.05   0.12
    14   1     0.00  -0.02   0.00     0.04   0.06  -0.01    -0.06  -0.01  -0.00
    15   1    -0.00   0.02   0.01    -0.16   0.27   0.59    -0.09  -0.23   0.05
    16   1     0.01  -0.00   0.01     0.43   0.01   0.13    -0.07   0.17  -0.40
    17   1    -0.00   0.01  -0.00    -0.48   0.09  -0.08    -0.14   0.39   0.06
    18   1    -0.02   0.02  -0.03     0.01  -0.02   0.02     0.02  -0.01   0.04
    19   1    -0.08   0.12   0.08     0.03  -0.07  -0.03     0.02  -0.27   0.06
    20   1     0.03   0.09   0.05    -0.02   0.04  -0.01     0.04   0.41   0.13
    21   1    -0.07   0.05  -0.14     0.09   0.01   0.01     0.44   0.14  -0.15
    22   1     0.00  -0.02  -0.00    -0.01   0.00   0.00    -0.01   0.00  -0.01
    23   1     0.11   0.50  -0.43    -0.01  -0.02   0.02     0.00   0.02  -0.01
    24   1     0.56   0.29   0.25    -0.03  -0.01  -0.01     0.02   0.01   0.01
                     49                     50                     51
                      A                      A                      A
 Frequencies --   1528.4858              1534.3349              1539.0984
 Red. masses --      1.0459                 1.0500                 1.0913
 Frc consts  --      1.4396                 1.4564                 1.5231
 IR Inten    --      5.4572                 7.4055                 4.4824
  Atom  AN      X      Y      Z        X      Y      Z        X      Y      Z
     1   8    -0.00  -0.00   0.00    -0.00   0.00   0.00    -0.00   0.00   0.00
     2   6     0.00   0.00   0.00     0.00   0.00  -0.00    -0.00  -0.01  -0.00
     3   6     0.00  -0.00  -0.00    -0.00   0.00  -0.00     0.00   0.01   0.00
     4   6    -0.00  -0.00   0.00    -0.00   0.01  -0.02    -0.00   0.03  -0.07
     5   6    -0.01   0.01  -0.00    -0.00   0.01  -0.00     0.00  -0.01  -0.01
     6   6    -0.02   0.03  -0.02    -0.00   0.01  -0.01     0.00   0.00  -0.02
     7   6    -0.01  -0.00  -0.00     0.01  -0.02  -0.01     0.01   0.01   0.01
     8   6    -0.03  -0.01   0.01     0.01  -0.03  -0.04    -0.00   0.01   0.01
     9   6     0.00   0.00   0.00    -0.00   0.01  -0.00     0.00  -0.01  -0.01
    10   6    -0.00  -0.00  -0.00     0.01   0.01  -0.00    -0.01  -0.01   0.01
    11   1     0.01  -0.01   0.01     0.00   0.00   0.01    -0.01   0.01  -0.02
    12   1    -0.02   0.00  -0.02     0.12  -0.03   0.13     0.40  -0.10   0.45
    13   1     0.02   0.01  -0.03    -0.10  -0.06   0.13    -0.35  -0.23   0.45
    14   1     0.03  -0.02  -0.00     0.02   0.00   0.00    -0.00   0.01  -0.01
    15   1     0.12   0.22  -0.12     0.00   0.11   0.07    -0.04   0.11   0.17
    16   1     0.04  -0.18   0.40     0.08  -0.07   0.17     0.13  -0.04   0.13
    17   1     0.21  -0.41  -0.05    -0.03  -0.14  -0.04    -0.13  -0.08  -0.05
    18   1     0.02  -0.01   0.04    -0.00   0.06  -0.01    -0.03   0.01  -0.04
    19   1     0.12  -0.33  -0.08    -0.34   0.15   0.49     0.10   0.00  -0.17
    20   1    -0.06   0.34   0.02     0.37   0.17   0.40    -0.12  -0.12  -0.14
    21   1     0.49   0.11  -0.06    -0.16   0.09  -0.29    -0.02  -0.05   0.11
    22   1     0.00   0.00   0.00     0.02  -0.01   0.01    -0.01  -0.00  -0.02
    23   1     0.00   0.02  -0.01    -0.02  -0.08   0.06     0.03   0.09  -0.09
    24   1     0.02   0.02   0.01    -0.10  -0.04  -0.04     0.12   0.05   0.04
                     52                     53                     54
                      A                      A                      A
 Frequencies --   1849.0441              3020.0611              3039.7326
 Red. masses --     12.3139                 1.0837                 1.0668
 Frc consts  --     24.8050                 5.8235                 5.8076
 IR Inten    --    243.7764                14.6955                11.0388
  Atom  AN      X      Y      Z        X      Y      Z        X      Y      Z
     1   8    -0.36   0.15   0.35    -0.00   0.00   0.00    -0.00   0.00   0.00
     2   6     0.56  -0.23  -0.54     0.00  -0.00  -0.00     0.00   0.00  -0.00
     3   6    -0.03   0.01   0.03    -0.00   0.00   0.00    -0.00   0.00  -0.00
     4   6    -0.01   0.00   0.02     0.00   0.00  -0.00     0.00   0.00  -0.00
     5   6    -0.02   0.01  -0.00     0.00   0.00  -0.01     0.01   0.01  -0.06
     6   6     0.00  -0.00   0.00     0.01   0.00  -0.00    -0.02  -0.01   0.01
     7   6     0.00  -0.00  -0.00    -0.06  -0.01   0.05     0.01   0.00  -0.01
     8   6     0.00   0.00  -0.00     0.01  -0.00  -0.00     0.00  -0.01   0.01
     9   6    -0.01   0.01   0.02     0.00  -0.00  -0.00     0.00   0.00   0.00
    10   6    -0.03   0.01   0.03    -0.00  -0.00  -0.00     0.00   0.00   0.00
    11   1     0.16   0.02  -0.12     0.00  -0.01  -0.00     0.00  -0.02  -0.00
    12   1    -0.02  -0.01   0.00    -0.04  -0.01   0.02    -0.02  -0.01   0.01
    13   1     0.02  -0.01  -0.03     0.02  -0.00   0.01     0.02  -0.00   0.01
    14   1     0.05  -0.02  -0.01    -0.03  -0.02   0.17    -0.12  -0.07   0.76
    15   1     0.01   0.02  -0.01    -0.06   0.03  -0.03     0.20  -0.08   0.10
    16   1    -0.00  -0.00  -0.00     0.01  -0.03  -0.02    -0.04   0.17   0.09
    17   1    -0.01  -0.00   0.00    -0.01  -0.01   0.06     0.05   0.06  -0.36
    18   1     0.01  -0.00   0.02     0.75   0.09  -0.60    -0.09  -0.01   0.07
    19   1     0.00   0.00  -0.00    -0.06  -0.02  -0.04    -0.19  -0.06  -0.11
    20   1    -0.01  -0.01  -0.01    -0.04  -0.01   0.04     0.17   0.02  -0.15
    21   1    -0.01  -0.00   0.01    -0.01   0.06   0.03    -0.03   0.18   0.10
    22   1    -0.02   0.02   0.03    -0.01   0.05   0.04     0.00  -0.00  -0.00
    23   1     0.03  -0.07  -0.02     0.01   0.00   0.01    -0.02  -0.00  -0.01
    24   1     0.04  -0.09  -0.08    -0.00   0.01  -0.01     0.00  -0.01   0.01
                     55                     56                     57
                      A                      A                      A
 Frequencies --   3041.2501              3043.9308              3056.7361
 Red. masses --      1.0472                 1.0417                 1.0674
 Frc consts  --      5.7067                 5.6868                 5.8761
 IR Inten    --     32.3984                31.6381                11.6399
  Atom  AN      X      Y      Z        X      Y      Z        X      Y      Z
     1   8     0.00  -0.00  -0.00     0.00   0.00  -0.00    -0.00  -0.00   0.00
     2   6    -0.00  -0.00   0.00    -0.00  -0.00   0.00    -0.00   0.00  -0.00
     3   6     0.00   0.00   0.00     0.00  -0.00  -0.00     0.00   0.00  -0.00
     4   6     0.00   0.00  -0.00     0.00  -0.00   0.00     0.01  -0.00   0.01
     5   6    -0.01  -0.00   0.04    -0.00  -0.00   0.03    -0.00   0.00   0.00
     6   6    -0.04  -0.03   0.00     0.01   0.00  -0.01    -0.00  -0.00  -0.00
     7   6    -0.01  -0.00   0.01    -0.00   0.00  -0.00     0.00   0.00   0.00
     8   6     0.00  -0.00  -0.00     0.02  -0.04   0.03     0.00  -0.00   0.00
[...]
 ,0.00018855,0.01071589,-0.01174952,-0.00024770,-0.17908070,0.13210004,
 0.00164481,-0.00152418,-0.00225080,-0.00100356,0.00034062,-0.00010240,
 -0.00005745,0.00078696,-0.00043307,-0.00010278,-0.00000357,0.00007794,
 0.00003061,0.00009597,0.00011152,0.00018397,0.00013314,0.00011912,-0.0
 0008844,0.00009172,0.00009935,-0.00000141,0.00095111,0.00070717,0.0001
 3603,-0.00961907,0.00869507,0.00088734,0.19167594,-0.00027398,0.000181
 47,0.00006037,0.00018823,-0.00023640,0.00018002,0.00088541,0.00069341,
 0.00113345,-0.00006369,0.00005745,0.00008272,0.02098620,-0.02146022,-0
 .00004630,0.13114691,-0.18249985,-0.00101386,-0.00404159,-0.00341411,-
 0.00176587,0.00051759,-0.00044371,-0.00063985,0.00097514,-0.00099318,0
 .00076712,0.00013740,0.00033319,-0.00011221,-0.00045109,0.00038098,-0.
 00079701,0.00003247,0.00004673,0.00002438,-0.00003217,0.00006228,-0.00
 006265,-0.00006159,0.00108525,0.00055558,0.00010422,-0.00043698,0.0006
 1244,-0.14319046,0.19976893,0.00008694,0.00008550,-0.00004233,-0.00020
 752,-0.00013402,0.00010077,0.00113193,-0.00037377,0.00084306,0.0003173
 6,0.00009025,-0.00032094,0.00525108,-0.00516039,-0.00135065,0.00160798
 ,-0.00056241,-0.05026791,-0.00057672,-0.00103768,0.00092609,0.00008353
 ,-0.00048306,-0.00025831,0.00010792,-0.00002446,-0.00001475,0.00005958
 ,0.00014238,0.00003555,-0.00031112,0.00011280,-0.00028819,-0.00022558,
 -0.00008156,0.00007722,-0.00008519,-0.00011849,-0.00000844,-0.00024586
 ,0.00051028,0.00019935,-0.02147259,0.02247528,0.00144256,-0.00081818,0
 .00193797,0.04846288,0.00023284,-0.00000552,-0.00010321,-0.00038137,0.
 00016191,0.00019282,0.00045172,0.00039515,0.00087108,-0.00037131,-0.00
 018757,-0.00012099,-0.01122375,-0.00415126,0.00883856,-0.17822254,-0.0
 4377143,0.12195481,0.00008550,0.00088580,-0.00073084,0.00020907,0.0001
 2403,-0.00015434,0.00040411,-0.00011324,0.00021436,0.00003968,0.000195
 02,-0.00007518,-0.00027254,0.00006442,-0.00019600,0.00074781,0.0000686
 1,-0.00012686,0.00019033,0.00010539,-0.00008380,-0.00002991,-0.0029851
 5,-0.00109203,0.01130749,0.00409670,-0.00956299,-0.01565470,-0.0062741
 5,0.01550645,0.19182882,0.00027373,0.00001367,-0.00012556,-0.00014580,
 0.00015085,0.00050020,0.00070341,0.00135487,0.00055587,-0.00055955,-0.
 00039741,-0.00020358,-0.02177093,-0.00884165,0.02087673,-0.04328845,-0
 .06467666,0.04232175,-0.00191768,0.00171203,0.00055375,0.00017403,-0.0
 0004218,0.00014966,0.00009521,0.00004441,0.00006538,-0.00002902,0.0000
 8877,-0.00007537,-0.00000122,0.00006869,-0.00033263,0.00055998,-0.0001
 6856,-0.00070148,0.00031779,0.00025330,-0.00003842,-0.00252726,-0.0053
 7129,-0.00175909,-0.00056022,-0.00114265,0.00103132,0.01605038,0.00695
 297,-0.01716795,0.05125197,0.06981449,0.00015335,0.00012556,-0.0000921
 6,-0.00013767,-0.00036720,0.00031623,-0.00012038,0.00057814,0.00064898
 ,0.00024300,-0.00034927,0.00004872,-0.00607844,-0.00210459,0.00567556,
 0.12224203,0.04305978,-0.16545941,0.00031408,0.00039613,0.00017319,-0.
 00026654,-0.00006884,-0.00013640,-0.00032461,-0.00007465,0.00002499,-0
 .00002337,0.00000836,-0.00016464,0.00001223,0.00013895,0.00005374,-0.0
 0012823,-0.00057293,-0.00041763,-0.00009571,0.00012451,0.00006192,-0.0
 0113433,-0.00180744,0.00072603,0.02220457,0.00678956,-0.01928823,-0.00
 137035,-0.00082741,0.00028437,-0.13514796,-0.04545945,0.17728731,-0.00
 017851,-0.00001081,-0.00004897,0.00091287,0.00014037,0.00039290,-0.000
 84518,0.00141207,0.00057786,-0.00015643,-0.00042514,0.00051338,-0.0204
 1967,-0.00503565,0.00116393,0.00106699,-0.00252199,-0.00021999,-0.2606
 8711,-0.08975009,-0.00028669,-0.00243818,-0.00148740,0.00040489,-0.003
 90309,-0.00185624,-0.00017671,0.00140921,-0.00038365,-0.00087537,-0.00
 022667,-0.00008280,-0.00058541,0.00038722,0.00066755,-0.00045057,0.000
 42323,0.00024782,-0.00012718,-0.00194433,0.00215582,-0.00103725,0.0001
 5497,0.00060960,0.00060019,0.00057368,-0.00035851,-0.00018817,0.000622
 65,0.00106035,-0.00040479,0.28231946,-0.00027318,0.00051736,0.00009394
 ,0.00027532,-0.00152242,-0.00021567,0.00105071,-0.00114902,-0.00071043
 ,0.00041356,0.00041080,0.00132654,0.02414852,0.00554016,-0.00045726,0.
 00165551,0.00097681,-0.00036006,-0.09028441,-0.08424844,0.00080008,-0.
 01975986,-0.00918308,0.00204087,-0.01687630,-0.00774527,-0.00187062,0.
 00055527,-0.00040593,-0.00352738,0.00013728,0.00016115,0.00049831,0.00
 005466,0.00068580,0.00030988,0.00027352,-0.00007443,-0.00006184,0.0028
 3284,-0.00240447,0.00044535,-0.00010517,0.00022211,-0.00023271,0.00000
 427,0.00022192,-0.00001868,-0.00010781,-0.00003913,0.00037729,0.096076
 86,0.09876610,-0.00042186,0.00042462,0.00015264,0.00089417,-0.00107386
 ,-0.00010103,-0.00001038,0.00049408,-0.00017453,-0.00086551,-0.0011903
 5,0.00115035,0.00213511,0.00062617,-0.00046864,-0.00003619,0.00000165,
 0.00129864,-0.00023622,0.00095009,-0.04799140,0.02663687,0.01327020,-0
 .00261984,-0.02863636,-0.01246908,-0.00306624,0.00041054,-0.00144408,-
 0.00583459,-0.00006936,0.00008234,-0.00006713,0.00017160,0.00049647,-0
 .00055731,0.00037483,-0.00005064,0.00023719,0.00061114,-0.00051937,0.0
 0006442,0.00017144,0.00011190,-0.00019066,-0.00005085,0.00004679,-0.00
 006093,-0.00007409,0.00002306,-0.00002511,0.00005603,-0.00171417,0.059
 27941,-0.00006334,0.00016706,-0.00001077,0.00020450,-0.00054571,0.0000
 3487,-0.00010182,0.00004823,0.00020524,0.00026668,0.00016734,0.0001682
 2,0.00032432,-0.00035595,-0.00040794,0.00003363,0.00007283,0.00001828,
 -0.00049407,0.00188574,0.00332985,-0.05881388,-0.02546786,-0.04159000,
 0.00020862,-0.00099862,0.00041707,-0.00012127,-0.00018760,-0.00010957,
 0.00003417,0.00002861,-0.00000258,-0.00000161,0.00003711,-0.00000458,0
 .00004283,-0.00002576,0.00008878,-0.00036057,-0.00006235,-0.00004247,0
 .00011946,0.00006265,-0.00001736,-0.00003501,-0.00000884,-0.00002474,-
 0.00002620,-0.00004315,0.00007707,0.00031202,0.00054536,0.00017295,0.0
 5855803,-0.00006727,0.00003505,0.00000761,0.00014435,-0.00010719,-0.00
 011451,-0.00023769,0.00031245,-0.00009811,0.00013637,0.00055245,0.0012
 4694,0.00016387,0.00094078,-0.00027734,-0.00016326,0.00014522,0.000187
 23,0.00444175,0.01195859,0.01935634,-0.02553798,-0.11987326,-0.1142172
 8,-0.00032445,-0.00290009,0.00233404,-0.00049861,-0.00028113,0.0000384
 0,0.00001277,0.00000922,-0.00005688,-0.00002250,0.00003352,-0.00003269
 ,0.00008842,-0.00039117,0.00029896,0.00005744,0.00003760,-0.00020230,-
 0.00006799,-0.00016646,-0.00010925,-0.00002598,0.00008829,-0.00009755,
 0.00001424,0.00002392,-0.00003442,0.00016878,0.00099326,-0.00090826,0.
 02903947,0.12822381,-0.00029452,0.00015249,-0.00000419,0.00027276,-0.0
 0042273,0.00006161,0.00019120,-0.00009499,0.00003092,-0.00026614,-0.00
 113983,-0.00150251,0.00059025,-0.00071537,0.00053740,-0.00036757,0.000
 10080,-0.00033867,-0.00531807,-0.01441076,-0.02315840,-0.04158341,-0.1
 1397930,-0.22938728,0.00078368,0.00522785,-0.00144767,0.00062720,0.000
 51805,0.00027490,-0.00007628,0.00007556,0.00009432,0.00005330,0.000029
 91,-0.00000491,-0.00024744,0.00062164,-0.00032254,-0.00050963,0.000205
 67,0.00023077,0.00019873,0.00039954,0.00027672,0.00007944,0.00008216,0
 .00011068,0.00003935,-0.00007422,0.00012151,0.00047546,-0.00019797,0.0
 0108234,0.04503885,0.12282269,0.25106370,-0.00000019,0.00020554,-0.000
 02448,0.00013688,-0.00071524,-0.00010061,0.00030049,0.00005802,0.00015
 853,0.00008161,0.00005393,0.00017807,0.00072044,0.00064374,-0.00002594
 ,0.00020726,0.00012275,-0.00017412,-0.00188782,-0.00061588,0.00136066,
 -0.27006490,-0.09273707,0.01899812,-0.00042477,-0.00069561,-0.00047673
 ,-0.00060839,-0.00041456,-0.00056820,0.00006536,0.00003039,0.00005708,
 0.00004859,0.00010683,-0.00001341,0.00003818,-0.00009365,0.00008474,0.
 00049290,-0.00045454,0.00003317,-0.00003564,0.00004801,0.00004815,0.00
 001899,-0.00006457,0.00000958,-0.00003838,0.00016723,0.00002642,0.0014
 6107,-0.00008335,0.00042942,-0.00525634,-0.00148671,0.00004901,0.29313
 668,0.00025271,-0.00000391,-0.00013968,-0.00019868,-0.00015466,0.00036
 455,0.00013854,0.00007307,0.00001992,-0.00018133,0.00010265,-0.0001118
 4,-0.00192095,0.00124455,0.00002621,0.00008958,-0.00019423,-0.00028615
 ,-0.01879071,-0.00925959,0.00130146,-0.09231948,-0.08915683,0.00790375
 ,0.00028036,0.00014219,-0.00084723,-0.00004446,0.00006847,-0.00037375,
 0.00000460,-0.00002381,-0.00003748,0.00008187,0.00009207,-0.00005434,0
 .00013787,-0.00001453,0.00004579,0.00086013,-0.00039411,-0.00045436,0.
 00000067,0.00009299,0.00011080,0.00006549,-0.00005770,0.00000076,0.000
 18595,0.00014949,-0.00003754,-0.00005137,-0.00191944,0.00387715,-0.016
 27024,-0.00710666,0.00179129,0.10404322,0.09416027,0.00015357,-0.00025
 974,0.00002905,-0.00039183,0.00094504,-0.00013866,0.00005988,-0.000165
 30,-0.00005923,-0.00014062,-0.00005678,0.00008515,0.00061429,-0.001384
 48,0.00066143,-0.00010719,-0.00001897,-0.00003087,0.02621007,0.0108792
 0,-0.00146792,0.01830235,0.00805924,-0.05046721,0.00081632,-0.00018897
 ,0.00123178,0.00001009,0.00006469,-0.00093036,-0.00005729,-0.00005783,
 0.00000123,-0.00007909,-0.00025143,0.00011309,-0.00012093,-0.00007754,
 -0.00008387,-0.00049316,0.00001477,0.00036857,0.00002552,0.00000787,0.
 00002970,-0.00005025,0.00001906,0.00008166,-0.00005622,-0.00012232,0.0
 0009554,0.00037327,0.00359912,-0.00437909,-0.02660931,-0.00987740,0.00
 307447,-0.01953165,-0.01065440,0.05418299,0.00012211,-0.00004451,-0.00
 010630,-0.00014012,0.00003025,0.00029446,0.00035355,-0.00021683,0.0001
 0068,0.00001068,-0.00006033,-0.00028521,0.00057803,0.00003097,0.001116
 50,-0.00005164,0.00011613,-0.00034644,0.00209024,-0.00344923,-0.000726
 40,-0.16433263,0.12821131,0.01033576,0.00013889,0.00033897,0.00015302,
 -0.00000087,-0.00029658,-0.00022523,0.00005243,-0.00001827,0.00001343,
 -0.00001054,-0.00003618,0.00002415,-0.00000558,-0.00000208,-0.00004924
 ,0.00051994,-0.00018855,-0.00026393,-0.00000722,0.00002922,0.00000063,
 0.00001418,0.00004574,0.00000081,0.00006661,0.00009727,0.00002723,0.00
 061007,0.00011022,-0.00055740,0.00479756,-0.00610659,0.00030037,-0.018
 92636,0.02356412,0.00228592,0.17422911,0.00018809,0.00021693,-0.000049
 74,-0.00034735,-0.00067394,0.00004332,0.00051124,-0.00074371,-0.000052
 52,-0.00007417,-0.00012451,-0.00008881,-0.00158520,-0.00015001,0.00342
 173,0.00051027,0.00001656,0.00015320,0.01316877,-0.01494900,-0.0017282
 3,0.12827127,-0.19518012,-0.01182463,-0.00007207,0.00083799,-0.0008248
 0,-0.00001327,0.00021960,0.00016515,0.00007235,0.00010579,0.00039117,0
 .00000211,-0.00002283,-0.00003982,-0.00006010,0.00007138,0.00004657,-0
 .00024954,0.00021348,-0.00004545,-0.00000356,0.00011964,-0.00006212,-0
 .00005909,-0.00021581,-0.00009042,-0.00002227,-0.00002469,0.00007604,-
 0.00042677,0.00021896,-0.00046492,0.01134187,-0.01290017,-0.00079381,-
 0.00883020,0.01161526,0.00067829,-0.14236400,0.21102482,-0.00000067,-0
 .00020330,0.00003137,0.00016355,0.00056336,0.00005902,-0.00080065,0.00
 079759,-0.00012138,0.00014906,0.00020445,0.00046025,0.00208229,0.00211
 671,-0.00373314,-0.00080636,0.00032403,-0.00040125,-0.01990347,0.02125
 063,0.00179877,0.01033744,-0.01191239,-0.04986069,-0.00071787,-0.00011
 581,0.00150723,0.00000502,-0.00030581,-0.00013574,-0.00018751,-0.00005
 165,-0.00042129,-0.00000869,-0.00001502,0.00003759,0.00006703,-0.00012
 335,0.00001493,-0.00003914,-0.00016726,-0.00000428,0.00011851,0.000091
 58,0.00007525,0.00010518,0.00032252,0.00011196,0.00003888,0.00000836,0
 .00002670,0.00029930,-0.00076950,0.00095438,0.01977761,-0.02032792,-0.
 00090490,0.00083574,-0.00170003,-0.00118878,-0.01172355,0.01035774,0.0
 5195729,-0.00199047,0.00242057,0.00003978,-0.00351299,-0.00547131,-0.0
 0019927,0.00093110,0.00014847,-0.00032318,-0.00028375,-0.00049672,-0.0
 0031713,0.00103178,-0.00051561,-0.00165835,0.00011213,-0.00017434,0.00
 014520,0.00441275,-0.00417370,-0.00189363,-0.00007203,0.00001307,0.000
 36135,-0.19770497,0.12157562,0.05243388,-0.01765651,0.01787695,0.00571
 020,0.00013343,-0.00006667,0.00014299,0.00037909,0.00034906,-0.0003643
 8,-0.00008422,0.00025631,-0.00023366,0.00018413,-0.00024277,0.00002315
 ,0.00004363,0.00008092,0.00004640,-0.00002065,-0.00008096,0.00000376,-
 0.00001627,0.00000233,-0.00000999,0.00080071,0.00020706,0.00053949,0.0
 0003818,-0.00011848,0.00010088,0.00004095,0.00002352,-0.00006539,0.000
 07963,-0.00008363,0.00034043,0.21205541,-0.00115466,0.00200516,0.00004
 205,-0.00300555,-0.00406439,-0.00016194,0.00090816,-0.00431435,0.00218
 626,0.01599069,-0.01083358,-0.00913314,0.00025713,-0.00089778,-0.00102
 142,0.00050729,-0.00022233,-0.00010298,0.00761425,-0.00658711,-0.00093
 299,-0.00026399,0.00006594,0.00013381,0.12114108,-0.14832948,-0.042243
 45,-0.01260299,0.01214503,0.00385716,0.00126222,0.00005603,-0.00086727
 ,-0.00048611,0.00045618,-0.00048456,-0.00014400,0.00069821,0.00035383,
 0.00018881,-0.00033885,-0.00018099,-0.00002699,-0.00002446,-0.00006636
 ,-0.00014935,-0.00018072,-0.00005488,-0.00001604,0.00001108,0.00004040
 ,-0.00017894,0.00007389,0.00020259,-0.00006131,0.00007390,-0.00010380,
 -0.00001159,0.00002768,0.00002093,-0.00003273,0.00029778,-0.00028790,-
 0.13127491,0.15927363,-0.00014967,-0.00006395,0.00005080,-0.00129828,0
 .00097243,0.00031230,-0.00097576,0.00370491,-0.00293120,-0.01611355,0.
 01028527,0.00711462,-0.00159560,-0.00195095,-0.00470173,0.00137764,-0.
 00061000,0.00009021,0.02223133,-0.01694033,-0.00515845,0.00046082,-0.0
 0071823,0.00118633,0.05329798,-0.04359650,-0.06808924,-0.00109782,0.00
 097011,-0.00011044,-0.00094001,0.00026168,0.00112976,0.00058125,-0.000
 77115,0.00042636,0.00009442,-0.00090535,0.00032744,0.00043344,-0.00055
 320,0.00003124,0.00000880,0.00009104,0.00001681,-0.00023497,-0.0005412
 7,-0.00006411,-0.00012308,-0.00002651,0.00004140,-0.00049765,0.0006085
 7,0.00132043,-0.00038002,0.00025978,0.00001131,-0.00001843,0.00003232,
 -0.00004901,-0.00035820,0.00068652,-0.00030192,-0.05477903,0.04838551,
 0.06891994,-0.00090201,-0.00048749,-0.00365074,0.00291055,0.00849626,0
 .02189443,-0.00091541,0.00170578,-0.00188549,0.00116544,0.00174701,-0.
 00082517,-0.00108431,0.00026704,-0.00029008,0.00003637,-0.00008833,-0.
 00006476,-0.00606080,-0.00275329,0.00156264,-0.00007241,-0.00026623,0.
 00068410,-0.00303151,-0.01696918,-0.02844451,-0.04625661,-0.01237895,-
 0.01840018,0.00050895,0.00037416,-0.00015661,0.00012978,0.00028936,0.0
 0007302,0.00032833,-0.00022998,0.00049358,0.00011648,-0.00016998,-0.00
 001725,0.00001380,0.00002129,0.00008849,0.00004693,-0.00008732,0.00001
 583,-0.00001399,0.00002367,-0.00004456,-0.00031777,-0.00112340,-0.0018
 4935,0.00009207,0.00007596,-0.00008148,0.00023121,0.00020997,-0.000086
 28,0.00002049,0.00007115,-0.00002994,0.00136607,0.00118389,-0.00005902
 ,0.05064803,0.00023982,0.00182946,0.00266202,-0.00401688,-0.01464846,-
 0.02335355,0.00279683,-0.00244007,0.00386499,-0.00053868,0.00022823,-0
 .00138853,0.00047428,0.00148918,0.00049591,0.00013333,-0.00008663,0.00
 031249,-0.00181896,-0.00015627,0.00108201,-0.00013592,0.00009781,0.000
 37009,-0.00082930,-0.00553302,-0.00824394,-0.01359236,-0.10884461,-0.1
 1695963,-0.00076636,-0.00079257,0.00012091,0.00000079,0.00024509,0.000
 33854,-0.00019159,-0.00038694,0.00073319,0.00001048,0.00004453,-0.0000
 2810,-0.00000178,0.00010793,0.00001148,-0.00000722,0.00000780,0.000022
 34,0.00000586,-0.00001382,-0.00002541,-0.00008297,-0.00021491,-0.00063
 872,0.00015555,0.00008671,-0.00005015,0.00026050,0.00007480,-0.0001943
 8,0.00004130,0.00001385,-0.00003785,-0.00002269,0.00059195,0.00047877,
 0.01620262,0.11669457,0.00007810,-0.00018460,0.00100384,0.00043266,0.0
 0079263,0.00056663,-0.00008880,-0.00014101,-0.00103058,0.00075008,0.00
 049231,0.00036224,-0.00002092,0.00017916,0.00000135,0.00003736,-0.0000
 4478,0.00000223,-0.00072832,0.00057929,0.00068272,0.00022602,-0.000187
 13,-0.00001487,-0.00030140,0.00003869,-0.00170613,-0.02275919,-0.11069
 796,-0.23932941,0.00002401,0.00003014,-0.00003152,0.00000246,-0.000095
 62,0.00027749,0.00019305,-0.00001684,0.00039244,-0.00002169,0.00005373
 ,0.00001622,-0.00001036,0.00001363,0.00000281,0.00001317,-0.00004569,-
 0.00000301,-0.00000926,-0.00000764,-0.00001428,-0.00001361,-0.00020247
 ,-0.00015107,-0.00014734,-0.00006909,-0.00002828,-0.00022654,-0.000120
 08,0.00032078,-0.00010934,-0.00000215,0.00001280,-0.00037653,0.0001414
 0,0.00048303,0.02489121,0.12211806,0.25952996,-0.00051500,-0.00109851,
 0.00284200,0.00680372,0.00972472,-0.01897434,-0.00097298,0.00210374,0.
 00213982,-0.00689522,-0.00254887,-0.00080337,0.00053950,0.00065731,-0.
 00020048,0.00008105,-0.00017648,0.00033272,0.00163427,0.00091638,0.001
 08710,-0.00014280,-0.00012407,-0.00020454,-0.00126130,-0.01686239,0.02
 241562,-0.06480506,-0.03922395,0.04460344,0.00036884,0.00031315,0.0000
 4016,0.00051737,-0.00188396,0.00094951,-0.00008860,0.00023113,-0.00003
 517,0.00002926,-0.00003461,-0.00009007,0.00005429,0.00011108,-0.000006
 40,-0.00000463,-0.00003038,-0.00002710,0.00006430,0.00006592,-0.000013
 04,0.00006282,0.00027252,0.00020397,0.00024204,0.00031411,-0.00005592,
 0.00026219,-0.00016136,-0.00106206,-0.00020854,0.00005411,-0.00010218,
 -0.00026715,0.00035564,0.00013544,0.00104032,0.00168335,-0.00183481,0.
 06346132,-0.00038566,0.00251757,-0.00248482,-0.00760171,-0.01605014,0.
 01887489,0.00088047,-0.00281273,-0.00120976,-0.00148873,-0.00117012,-0
 .00062238,-0.00028610,-0.00074318,0.00051260,-0.00011771,0.00011211,-0
 .00041434,-0.00004831,-0.00002951,0.00118299,-0.00081791,-0.00002401,0
 .00041389,-0.00022827,-0.00584173,0.00507473,-0.04042793,-0.14969278,0
 .12899451,-0.00039277,-0.00065534,-0.00028141,0.00034023,-0.00039745,0
 .00048095,0.00016080,0.00010087,0.00019462,0.00015474,-0.00014620,-0.0
 0023425,-0.00006754,-0.00011897,-0.00009432,-0.00000023,0.00005802,0.0
 0002777,0.00007940,0.00007950,0.00001441,0.00011310,0.00011823,-0.0001
 3369,0.00047559,0.00021136,-0.00004471,0.00046281,0.00044199,-0.000978
 68,0.00020038,0.00001274,-0.00001918,-0.00023209,0.00001661,-0.0000594
 6,0.00388599,0.01160538,-0.01262397,0.04534145,0.16240777,-0.00103215,
 0.00011626,0.00070670,0.00036587,-0.00284034,0.00081109,0.00007633,-0.
 00074568,-0.00075965,-0.00025825,-0.00061072,0.00025547,0.00005063,-0.
 00032568,0.00001126,-0.00003587,-0.00000310,-0.00007574,0.00032280,-0.
 00007550,-0.00008401,-0.00075539,-0.00055298,-0.00086499,0.00031663,-0
 .00302782,0.00387549,0.04696546,0.12708324,-0.19429766,-0.00002182,-0.
 00006761,-0.00004544,-0.00016987,-0.00018532,0.00039587,-0.00003731,-0
 .00024760,0.00036135,-0.00000685,-0.00004515,0.00003213,-0.00000937,-0
 .00002485,0.00000161,-0.00000900,0.00002753,0.00000340,0.00000055,0.00
 000811,0.00001167,0.00005517,0.00023881,0.00014777,0.00001790,-0.00012
 900,0.00012871,-0.00110858,-0.00065712,-0.00148046,0.00009828,0.000047
 69,0.00002585,0.00033305,0.00027776,-0.00005585,0.00618210,0.01830948,
 -0.02134537,-0.05134029,-0.13657039,0.21224081\\0.00007719,-0.00004537
 ,0.00001283,-0.00004905,0.00007411,-0.00001988,-0.00000530,-0.00003135
 ,-0.00002178,-0.00002879,0.00001408,0.00002168,0.00004703,0.00003894,0
 .00005375,-0.00000786,-0.00001209,-0.00000630,-0.00002119,0.00000860,-
 0.00001562,-0.00000088,0.00002106,-0.00001681,0.00005508,-0.00007014,0
 .00000189,-0.00000034,-0.00003821,-0.00007249,-0.00001051,0.00001721,0
 .00002018,-0.00000641,0.00000156,-0.00000159,0.00000111,-0.00000023,-0
 .00000867,-0.00001805,-0.00000444,-0.00000817,0.00000262,-0.00000091,0
 .00000330,-0.00000210,0.00000426,0.00000246,0.00000509,0.00001195,-0.0
 0000135,0.00001361,0.00000962,0.00000876,-0.00000274,0.00000644,-0.000
 00324,-0.00000780,-0.00001637,0.00001181,-0.00000148,0.00000158,-0.000
 00465,-0.00000938,0.00000180,0.00001027,-0.00001913,-0.00000156,0.0000
 1949,-0.00001070,0.00000947,0.00001413\\\@


 IT TAKES GREATER CHARACTER TO CARRY OFF GOOD FORTUNE THAN BAD.
                     FRENCH PROVERB.
 Job cpu time:       0 days  0 hours  1 minutes 58.0 seconds.
 Elapsed time:       0 days  0 hours  2 minutes  2.0 seconds.
 File lengths (MBytes):  RWF=     95 Int=      0 D2E=      0 Chk=      5 Scr=      1
 Normal termination of Gaussian 16 at Wed Feb 21 19:13:42 2024.
