 Entering Gaussian System, Link 0=g16
 Input=/Volumes/SSD-PMU3/b3lyp_6-31gd_freq/JCIMXPHFZLCWHT-AEJSXWLSSA-N_calculating/gaussianinput1.gjf
 Output=/Volumes/SSD-PMU3/b3lyp_6-31gd_freq/JCIMXPHFZLCWHT-AEJSXWLSSA-N_calculating/gaussianinput1.log
 Initial command:
 /Applications/g16/l1.exe "/Users/macmini_m1_2022/PycharmProjects/sphere_model/sphere_model_lib/Gau-94229.inp" -scrdir="/Users/macmini_m1_2022/PycharmProjects/sphere_model/sphere_model_lib/"
 Entering Link 1 = /Applications/g16/l1.exe PID=     94230.
  
 Copyright (c) 1988,1990,1992,1993,1995,1998,2003,2009,2016,
            Gaussian, Inc.  All Rights Reserved.
  
 This is part of the Gaussian(R) 16 program.  It is based on
 the Gaussian(R) 09 system (copyright 2009, Gaussian, Inc.),
 the Gaussian(R) 03 system (copyright 2003, Gaussian, Inc.),
 the Gaussian(R) 98 system (copyright 1998, Gaussian, Inc.),
 the Gaussian(R) 94 system (copyright 1995, Gaussian, Inc.),
 the Gaussian 92(TM) system (copyright 1992, Gaussian, Inc.),
 the Gaussian 90(TM) system (copyright 1990, Gaussian, Inc.),
 the Gaussian 88(TM) system (copyright 1988, Gaussian, Inc.),
 the Gaussian 86(TM) system (copyright 1986, Carnegie Mellon
 University), and the Gaussian 82(TM) system (copyright 1983,
 Carnegie Mellon University). Gaussian is a federally registered
 trademark of Gaussian, Inc.
  
 This software contains proprietary and confidential information,
 including trade secrets, belonging to Gaussian, Inc.
  
 This software is provided under written license and may be
 used, copied, transmitted, or stored only in accord with that
 written license.
  
 The following legend is applicable only to US Government
 contracts under FAR:
  
                    RESTRICTED RIGHTS LEGEND
  
 Use, reproduction and disclosure by the US Government is
 subject to restrictions as set forth in subparagraphs (a)
 and (c) of the Commercial Computer Software - Restricted
 Rights clause in FAR 52.227-19.
  
 Gaussian, Inc.
 340 Quinnipiac St., Bldg. 40, Wallingford CT 06492
  
  
 ---------------------------------------------------------------
 Warning -- This program may not be used in any manner that
 competes with the business of Gaussian, Inc. or will provide
 assistance to any competitor of Gaussian, Inc.  The licensee
 of this program is prohibited from giving any competitor of
 Gaussian, Inc. access to this program.  By using this program,
 the user acknowledges that Gaussian, Inc. is engaged in the
 business of creating and licensing software in the field of
 computational chemistry and represents and warrants to the
 licensee that it is not a competitor of Gaussian, Inc. and that
 it will not use this program in any manner prohibited above.
 ---------------------------------------------------------------
  

 Cite this work as:
 Gaussian 16, Revision A.03,
 M. J. Frisch, G. W. Trucks, H. B. Schlegel, G. E. Scuseria, 
 M. A. Robb, J. R. Cheeseman, G. Scalmani, V. Barone, 
 G. A. Petersson, H. Nakatsuji, X. Li, M. Caricato, A. V. Marenich, 
 J. Bloino, B. G. Janesko, R. Gomperts, B. Mennucci, H. P. Hratchian, 
 J. V. Ortiz, A. F. Izmaylov, J. L. Sonnenberg, D. Williams-Young, 
 F. Ding, F. Lipparini, F. Egidi, J. Goings, B. Peng, A. Petrone, 
 T. Henderson, D. Ranasinghe, V. G. Zakrzewski, J. Gao, N. Rega, 
 G. Zheng, W. Liang, M. Hada, M. Ehara, K. Toyota, R. Fukuda, 
 J. Hasegawa, M. Ishida, T. Nakajima, Y. Honda, O. Kitao, H. Nakai, 
 T. Vreven, K. Throssell, J. A. Montgomery, Jr., J. E. Peralta, 
 F. Ogliaro, M. J. Bearpark, J. J. Heyd, E. N. Brothers, K. N. Kudin, 
 V. N. Staroverov, T. A. Keith, R. Kobayashi, J. Normand, 
 K. Raghavachari, A. P. Rendell, J. C. Burant, S. S. Iyengar, 
 J. Tomasi, M. Cossi, J. M. Millam, M. Klene, C. Adamo, R. Cammi, 
 J. W. Ochterski, R. L. Martin, K. Morokuma, O. Farkas, 
 J. B. Foresman, and D. J. Fox, Gaussian, Inc., Wallingford CT, 2016.
 
 ******************************************
 Gaussian 16:  EM64M-G16RevA.03 25-Dec-2016
                24-Feb-2024 
 ******************************************
 %nprocshared=10
 Will use up to   10 processors via shared memory.
 %mem=12GB
 %chk= 1.chk
 ---------------------
 # freq b3lyp/6-31g(d)
 ---------------------
 1/10=4,30=1,38=1/1,3;
 2/12=2,17=6,18=5,40=1/2;
 3/5=1,6=6,7=1,11=2,25=1,30=1,71=2,74=-5,140=1/1,2,3;
 4//1;
 5/5=2,38=5,98=1/2;
 8/6=4,10=90,11=11/1;
 11/6=1,8=1,9=11,15=111,16=1/1,2,10;
 10/6=1/2;
 6/7=2,8=2,9=2,10=2,28=1/1;
 7/8=1,10=1,25=1/1,2,3,16;
 1/10=4,30=1/3;
 99//99;
 ---------
 good luck
 ---------
 Symbolic Z-matrix:
 Charge =  0 Multiplicity = 1
 O                     1.21786   0.        0. 
 C                     0.        0.        0. 
 C                    -0.82322  -1.28153   0.01407 
 C                    -1.8086   -1.24908  -1.17793 
 C                    -2.77459  -0.03743  -1.03426 
 C                    -2.34247   0.82979   0.16756 
 C                    -2.4763   -0.00948   1.45649 
 C                    -1.6278   -1.30908   1.33589 
 C                    -0.86402   1.27736   0.01407 
 C                    -0.55958   2.21258  -1.19938 
 C                    -1.59585   3.34151  -1.33204 
 C                     0.85077   2.81853  -1.1045 
 H                    -0.14092  -2.13377  -0.05446 
 H                    -1.24802  -1.19516  -2.11854 
 H                    -2.36403  -2.1944   -1.20139 
 H                    -3.80425  -0.37981  -0.87479 
 H                    -2.78707   0.55673  -1.95441 
 H                    -2.99071   1.70847   0.24649 
 H                    -2.14835   0.58654   2.31715 
 H                    -3.53197  -0.25093   1.6286 
 H                    -2.26865  -2.19932   1.33426 
 H                    -0.94628  -1.4156    2.18697 
 H                    -0.57861   1.83418   0.92098 
 H                    -0.60395   1.60757  -2.1173 
 H                    -1.30886   4.01966  -2.14407 
 H                    -1.64914   3.9359   -0.4105 
 H                    -2.60242   2.97262  -1.55308 
 H                     1.6156    2.04729  -1.00214 
 H                     1.06716   3.41854  -1.99666 
 H                     0.92432   3.48206  -0.23224 
 

 GradGradGradGradGradGradGradGradGradGradGradGradGradGradGradGradGradGrad
 Berny optimization.
 Initialization pass.
 Trust Radius=3.00D-01 FncErr=1.00D-07 GrdErr=1.00D-07 EigMax=2.50D+02 EigMin=1.00D-04
 Number of steps in this run=      2 maximum allowed number of steps=      2.
 GradGradGradGradGradGradGradGradGradGradGradGradGradGradGradGradGradGrad

                          Input orientation:                          
 ---------------------------------------------------------------------
 Center     Atomic      Atomic             Coordinates (Angstroms)
 Number     Number       Type             X           Y           Z
 ---------------------------------------------------------------------
      1          8           0        1.217864    0.000000    0.000000
      2          6           0        0.000000    0.000000    0.000000
      3          6           0       -0.823216   -1.281526    0.014074
      4          6           0       -1.808603   -1.249078   -1.177929
      5          6           0       -2.774589   -0.037426   -1.034260
      6          6           0       -2.342473    0.829787    0.167564
      7          6           0       -2.476305   -0.009479    1.456490
      8          6           0       -1.627802   -1.309078    1.335888
      9          6           0       -0.864020    1.277359    0.014074
     10          6           0       -0.559576    2.212578   -1.199378
     11          6           0       -1.595850    3.341512   -1.332039
     12          6           0        0.850768    2.818526   -1.104497
     13          1           0       -0.140921   -2.133767   -0.054460
     14          1           0       -1.248016   -1.195159   -2.118541
     15          1           0       -2.364026   -2.194403   -1.201389
     16          1           0       -3.804254   -0.379814   -0.874787
     17          1           0       -2.787067    0.556727   -1.954411
     18          1           0       -2.990714    1.708469    0.246493
     19          1           0       -2.148354    0.586540    2.317146
     20          1           0       -3.531967   -0.250927    1.628599
     21          1           0       -2.268651   -2.199322    1.334264
     22          1           0       -0.946284   -1.415599    2.186965
     23          1           0       -0.578613    1.834178    0.920977
     24          1           0       -0.603947    1.607569   -2.117298
     25          1           0       -1.308858    4.019665   -2.144072
     26          1           0       -1.649137    3.935895   -0.410502
     27          1           0       -2.602416    2.972622   -1.553077
     28          1           0        1.615602    2.047286   -1.002137
     29          1           0        1.067162    3.418541   -1.996664
     30          1           0        0.924322    3.482057   -0.232244
 ---------------------------------------------------------------------
                    Distance matrix (angstroms):
                    1          2          3          4          5
     1  O    0.000000
     2  C    1.217864   0.000000
     3  C    2.410086   1.523217   0.000000
     4  C    3.479542   2.493744   1.546904   0.000000
     5  C    4.124412   2.961324   2.540599   1.556236   0.000000
     6  C    3.659593   2.490744   2.605637   2.533189   1.543750
     7  C    3.970937   2.872897   2.536015   2.987071   2.508703
     8  C    3.405304   2.479520   1.547679   2.521025   2.924008
     9  C    2.442557   1.542198   2.559210   2.948897   2.545179
    10  C    3.081120   2.578204   3.708198   3.680162   3.161655
    11  C    4.566948   3.935323   4.876624   4.598101   3.591005
    12  C    3.049387   3.144489   4.567696   4.860355   4.615692
    13  H    2.530262   2.139109   1.093864   2.196821   3.505832
    14  H    3.463695   2.733892   2.176226   1.096319   2.201462
    15  H    4.369059   3.441999   2.164438   1.096670   2.202054
    16  H    5.111867   3.921971   3.238788   2.197757   1.096755
    17  H    4.491007   3.449262   3.333289   2.195734   1.095377
    18  H    4.548819   3.453114   3.700289   3.489047   2.176049
    19  H    4.128513   3.213817   3.248046   3.962382   3.466039
    20  H    5.027543   3.897447   3.317553   3.441350   2.776693
    21  H    4.332789   3.429877   2.162067   2.725018   3.246486
    22  H    3.386779   2.771676   2.180499   3.477619   3.952006
    23  H    2.727588   2.132417   3.254215   3.927435   3.485422
    24  H    3.222767   2.726166   3.596901   3.239451   2.930984
    25  H    5.209518   4.740028   5.744220   5.379854   4.454216
    26  H    4.886663   4.287124   5.299424   5.243884   4.176481
    27  H    5.083608   4.245126   4.870245   4.312033   3.059282
    28  H    2.313840   2.793891   4.249883   4.756269   4.860127
    29  H    3.961793   4.100235   5.450434   5.543196   5.256328
    30  H    3.502117   3.610129   5.079989   5.544983   5.168359
                    6          7          8          9         10
     6  C    0.000000
     7  C    1.543894   0.000000
     8  C    2.539779   1.556747   0.000000
     9  C    1.552322   2.517137   3.003367   0.000000
    10  C    2.638060   3.957906   4.468864   1.561982   0.000000
    11  C    3.019109   4.447498   5.361608   2.570666   1.538166
    12  C    3.971147   5.062181   5.397768   2.562595   1.537935
    13  H    3.698483   3.499941   2.196359   3.487599   4.514070
    14  H    3.244151   3.961739   3.477110   3.287681   3.596037
    15  H    3.319672   3.442502   2.786324   3.972468   4.762093
    16  H    2.164817   2.708403   3.238450   3.490168   4.165788
    17  H    2.185178   3.471514   3.956159   2.844706   2.876392
    18  H    1.094773   2.163343   3.485671   2.182362   2.873169
    19  H    2.171993   1.097050   2.197091   2.725965   4.187381
    20  H    2.171972   1.096513   2.198001   3.472793   4.785543
    21  H    3.246866   2.203060   1.096916   3.975324   5.367042
    22  H    3.327023   2.202665   1.095512   3.461249   4.978005
    23  H    2.165095   2.699459   3.339612   1.101807   2.153939
    24  H    2.974561   4.346554   4.634609   2.172423   1.100264
    25  H    4.072756   5.528199   6.372390   3.517914   2.172426
    26  H    3.234622   4.442504   5.528117   2.804369   2.186159
    27  H    2.760420   4.238670   5.256324   2.889965   2.208159
    28  H    4.303122   5.197964   5.220269   2.788189   2.190348
    29  H    4.796993   6.019282   6.381153   3.515280   2.176302
    30  H    4.226858   5.158189   5.650429   2.849479   2.179192
                   11         12         13         14         15
    11  C    0.000000
    12  C    2.512216   0.000000
    13  H    5.807556   5.158607   0.000000
    14  H    4.617462   4.641427   2.523306   0.000000
    15  H    5.590485   5.955984   2.502263   1.756455   0.000000
    16  H    4.351367   5.652555   4.143585   2.957375   2.339585
    17  H    3.092147   4.367142   4.225004   2.337674   2.883526
    18  H    2.665378   4.220709   4.793190   4.130549   4.209692
    19  H    4.605614   5.067952   4.129694   4.864194   4.490016
    20  H    5.041780   6.008304   4.228116   4.488771   3.626295
    21  H    6.185683   6.391958   2.541670   3.737901   2.537451
    22  H    5.952767   5.656053   2.487642   4.321692   3.754660
    23  H    2.895325   2.667324   4.109457   4.343231   4.890971
    24  H    2.146407   2.146713   4.297358   2.875780   4.288561
    25  H    1.096200   2.680939   6.602672   5.215241   6.373121
    26  H    1.097889   2.824831   6.264366   5.422731   6.222308
    27  H    1.094583   3.485606   5.863448   4.418659   5.184463
    28  H    3.478114   1.090990   4.632998   4.467675   5.819714
    29  H    2.745777   1.096725   6.004977   5.163442   6.626511
    30  H    2.753283   1.098412   5.718726   5.491222   6.631340
                   16         17         18         19         20
    16  H    0.000000
    17  H    1.754242   0.000000
    18  H    2.506001   2.492380   0.000000
    19  H    3.723477   4.319148   2.501180   0.000000
    20  H    2.521447   3.747685   2.458130   1.757792   0.000000
    21  H    3.247860   4.322030   4.120128   2.956612   2.340693
    22  H    4.314530   4.942626   4.207722   2.338906   2.890327
    23  H    4.304798   3.844087   2.507780   2.443353   3.683842
    24  H    3.966798   2.428336   3.360706   4.805412   5.104807
    25  H    5.214739   3.770015   3.726267   5.691535   6.116634
    26  H    4.846177   3.885526   2.681958   4.348271   5.023192
    27  H    3.625372   2.455955   2.233229   4.569265   4.623678
    28  H    5.939855   4.744690   4.784561   5.226737   6.220934
    29  H    6.278280   4.800713   4.941908   6.080192   6.910826
    30  H    6.138920   5.029694   4.324617   4.932012   6.103804
                   21         22         23         24         25
    21  H    0.000000
    22  H    1.757833   0.000000
    23  H    4.392739   3.506987   0.000000
    24  H    5.401568   5.270998   3.046819   0.000000
    25  H    7.189981   6.959270   3.834597   2.513130   0.000000
    26  H    6.408502   5.989935   2.708518   3.070289   1.768636
    27  H    5.932718   5.998931   3.393048   2.485074   1.766031
    28  H    6.211270   5.359590   2.925468   2.522565   3.707662
    29  H    7.333697   6.702658   3.705592   2.467140   2.455311
    30  H    6.702767   5.773974   2.510824   3.066389   2.988512
                   26         27         28         29         30
    26  H    0.000000
    27  H    1.772601   0.000000
    28  H    3.817774   4.353327   0.000000
    29  H    3.187765   3.723092   1.780509   0.000000
    30  H    2.619243   3.800264   1.768946   1.771332   0.000000
 Stoichiometry    C11H18O
 Framework group  C1[X(C11H18O)]
 Deg. of freedom    84
 Full point group                 C1      NOp   1
 Largest Abelian subgroup         C1      NOp   1
 Largest concise Abelian subgroup C1      NOp   1
                         Standard orientation:                         
 ---------------------------------------------------------------------
 Center     Atomic      Atomic             Coordinates (Angstroms)
 Number     Number       Type             X           Y           Z
 ---------------------------------------------------------------------
      1          8           0        0.193520    2.387545   -0.033188
      2          6           0       -0.236753    1.248275   -0.022143
      3          6           0       -1.640214    0.902982    0.458755
      4          6           0       -1.533470   -0.180039    1.558110
      5          6           0       -0.879013   -1.465500    0.974033
      6          6           0       -0.407199   -1.195774   -0.470890
      7          6           0       -1.641375   -0.881182   -1.343501
      8          6           0       -2.421609    0.326321   -0.746314
      9          6           0        0.556923    0.020147   -0.512197
     10          6           0        1.907280   -0.156987    0.252623
     11          6           0        2.564364   -1.515787   -0.043782
     12          6           0        2.895280    0.974304   -0.077954
     13          1           0       -2.111178    1.813909    0.839469
     14          1           0       -0.951995    0.207801    2.402730
     15          1           0       -2.538312   -0.390537    1.943685
     16          1           0       -1.595814   -2.295560    0.965808
     17          1           0       -0.040424   -1.789485    1.599855
     18          1           0        0.094926   -2.082260   -0.871566
     19          1           0       -1.318580   -0.662460   -2.368920
     20          1           0       -2.284647   -1.767285   -1.401496
     21          1           0       -3.416847    0.020485   -0.401074
     22          1           0       -2.577648    1.106485   -1.499402
     23          1           0        0.814249    0.217850   -1.565133
     24          1           0        1.697409   -0.114693    1.331857
     25          1           0        3.542639   -1.573704    0.447417
     26          1           0        2.729253   -1.645473   -1.121444
     27          1           0        1.969074   -2.363538    0.309857
     28          1           0        2.462288    1.957285    0.113168
     29          1           0        3.809776    0.866020    0.517678
     30          1           0        3.182392    0.934226   -1.137421
 ---------------------------------------------------------------------
 Rotational constants (GHZ):           1.4025612           0.8267901           0.6727337
 Standard basis: 6-31G(d) (6D, 7F)
 There are   216 symmetry adapted cartesian basis functions of A   symmetry.
 There are   216 symmetry adapted basis functions of A   symmetry.
   216 basis functions,   408 primitive gaussians,   216 cartesian basis functions
    46 alpha electrons       46 beta electrons
       nuclear repulsion energy       774.3738494075 Hartrees.
 NAtoms=   30 NActive=   30 NUniq=   30 SFac= 1.00D+00 NAtFMM=   60 NAOKFM=F Big=F
 Integral buffers will be    131072 words long.
 Raffenetti 2 integral format.
 Two-electron integral symmetry is turned on.
 One-electron integrals computed using PRISM.
 NBasis=   216 RedAO= T EigKep=  1.31D-03  NBF=   216
 NBsUse=   216 1.00D-06 EigRej= -1.00D+00 NBFU=   216
 ExpMin= 1.61D-01 ExpMax= 5.48D+03 ExpMxC= 8.25D+02 IAcc=3 IRadAn=         5 AccDes= 0.00D+00
 Harris functional with IExCor=  402 and IRadAn=       5 diagonalized for initial guess.
 HarFok:  IExCor=  402 AccDes= 0.00D+00 IRadAn=         5 IDoV= 1 UseB2=F ITyADJ=14
 ICtDFT=  3500011 ScaDFX=  1.000000  1.000000  1.000000  1.000000
 FoFCou: FMM=F IPFlag=           0 FMFlag=      100000 FMFlg1=           0
         NFxFlg=           0 DoJE=T BraDBF=F KetDBF=T FulRan=T
         wScrn=  0.000000 ICntrl=       500 IOpCl=  0 I1Cent=   200000004 NGrid=           0
         NMat0=    1 NMatS0=      1 NMatT0=    0 NMatD0=    1 NMtDS0=    0 NMtDT0=    0
 Petite list used in FoFCou.
 Requested convergence on RMS density matrix=1.00D-08 within 128 cycles.
 Requested convergence on MAX density matrix=1.00D-06.
 Requested convergence on             energy=1.00D-06.
 No special actions if energy rises.
 Integral accuracy reduced to 1.0D-05 until final iterations.
 Initial convergence to 1.0D-05 achieved.  Increase integral accuracy.
 SCF Done:  E(RB3LYP) =  -505.242432322     A.U. after   14 cycles
            NFock= 14  Conv=0.27D-08     -V/T= 2.0098
 DoSCS=F DFT=T ScalE2(SS,OS)=  1.000000  1.000000
 Range of M.O.s used for correlation:     1   216
 NBasis=   216 NAE=    46 NBE=    46 NFC=     0 NFV=     0
 NROrb=    216 NOA=    46 NOB=    46 NVA=   170 NVB=   170
 Symmetrizing basis deriv contribution to polar:
 IMax=3 JMax=2 DiffMx= 0.00D+00
 G2DrvN: will do    31 centers at a time, making    1 passes.
 Calling FoFCou, ICntrl=  3107 FMM=F I1Cent=   0 AccDes= 0.00D+00.
 End of G2Drv F.D. properties file   721 does not exist.
 End of G2Drv F.D. properties file   722 does not exist.
 End of G2Drv F.D. properties file   788 does not exist.
          IDoAtm=111111111111111111111111111111
          Differentiating once with respect to electric field.
                with respect to dipole field.
          Differentiating once with respect to nuclear coordinates.
 Keep R1 ints in memory in canonical form, NReq=285099474.
          There are    93 degrees of freedom in the 1st order CPHF.  IDoFFX=6 NUNeed=     3.
     90 vectors produced by pass  0 Test12= 8.41D-15 1.08D-09 XBig12= 7.76D+01 2.30D+00.
 AX will form    90 AO Fock derivatives at one time.
     90 vectors produced by pass  1 Test12= 8.41D-15 1.08D-09 XBig12= 9.19D+00 4.43D-01.
     90 vectors produced by pass  2 Test12= 8.41D-15 1.08D-09 XBig12= 5.54D-02 2.57D-02.
     90 vectors produced by pass  3 Test12= 8.41D-15 1.08D-09 XBig12= 1.46D-04 1.18D-03.
     90 vectors produced by pass  4 Test12= 8.41D-15 1.08D-09 XBig12= 1.50D-07 3.79D-05.
     42 vectors produced by pass  5 Test12= 8.41D-15 1.08D-09 XBig12= 8.90D-11 1.04D-06.
      3 vectors produced by pass  6 Test12= 8.41D-15 1.08D-09 XBig12= 5.66D-14 3.23D-08.
 InvSVY:  IOpt=1 It=  1 EMax= 1.07D-14
 Solved reduced A of dimension   495 with    93 vectors.
 Isotropic polarizability for W=    0.000000      109.45 Bohr**3.
 End of Minotr F.D. properties file   721 does not exist.
 End of Minotr F.D. properties file   722 does not exist.
 End of Minotr F.D. properties file   788 does not exist.

 **********************************************************************

            Population analysis using the SCF density.

 **********************************************************************

 Orbital symmetries:
       Occupied  (A) (A) (A) (A) (A) (A) (A) (A) (A) (A) (A) (A)
                 (A) (A) (A) (A) (A) (A) (A) (A) (A) (A) (A) (A)
                 (A) (A) (A) (A) (A) (A) (A) (A) (A) (A) (A) (A)
                 (A) (A) (A) (A) (A) (A) (A) (A) (A) (A)
       Virtual   (A) (A) (A) (A) (A) (A) (A) (A) (A) (A) (A) (A)
                 (A) (A) (A) (A) (A) (A) (A) (A) (A) (A) (A) (A)
                 (A) (A) (A) (A) (A) (A) (A) (A) (A) (A) (A) (A)
                 (A) (A) (A) (A) (A) (A) (A) (A) (A) (A) (A) (A)
                 (A) (A) (A) (A) (A) (A) (A) (A) (A) (A) (A) (A)
                 (A) (A) (A) (A) (A) (A) (A) (A) (A) (A) (A) (A)
                 (A) (A) (A) (A) (A) (A) (A) (A) (A) (A) (A) (A)
                 (A) (A) (A) (A) (A) (A) (A) (A) (A) (A) (A) (A)
                 (A) (A) (A) (A) (A) (A) (A) (A) (A) (A) (A) (A)
                 (A) (A) (A) (A) (A) (A) (A) (A) (A) (A) (A) (A)
                 (A) (A) (A) (A) (A) (A) (A) (A) (A) (A) (A) (A)
                 (A) (A) (A) (A) (A) (A) (A) (A) (A) (A) (A) (A)
                 (A) (A) (A) (A) (A) (A) (A) (A) (A) (A) (A) (A)
                 (A) (A) (A) (A) (A) (A) (A) (A) (A) (A) (A) (A)
                 (A) (A)
 The electronic state is 1-A.
 Alpha  occ. eigenvalues --  -19.13130 -10.26345 -10.19460 -10.19139 -10.19112
 Alpha  occ. eigenvalues --  -10.19062 -10.19045 -10.19030 -10.18613 -10.18606
 Alpha  occ. eigenvalues --  -10.17496 -10.16163  -1.02984  -0.85999  -0.80002
 Alpha  occ. eigenvalues --   -0.75027  -0.74359  -0.71040  -0.67668  -0.61606
 Alpha  occ. eigenvalues --   -0.61371  -0.56895  -0.56380  -0.50751  -0.48977
 Alpha  occ. eigenvalues --   -0.47094  -0.46046  -0.44756  -0.42293  -0.41405
 Alpha  occ. eigenvalues --   -0.40247  -0.39903  -0.38906  -0.38373  -0.38024
 Alpha  occ. eigenvalues --   -0.37611  -0.36985  -0.36206  -0.34823  -0.33691
 Alpha  occ. eigenvalues --   -0.33347  -0.32047  -0.31026  -0.30021  -0.29326
 Alpha  occ. eigenvalues --   -0.22657
 Alpha virt. eigenvalues --   -0.01133   0.06551   0.09400   0.10550   0.11100
 Alpha virt. eigenvalues --    0.12676   0.14468   0.14569   0.15259   0.15648
 Alpha virt. eigenvalues --    0.15676   0.16634   0.17804   0.18013   0.18486
 Alpha virt. eigenvalues --    0.19291   0.19525   0.20208   0.20548   0.22039
 Alpha virt. eigenvalues --    0.22476   0.22881   0.23788   0.24490   0.25780
 Alpha virt. eigenvalues --    0.26637   0.27394   0.28957   0.30456   0.35190
 Alpha virt. eigenvalues --    0.35779   0.38550   0.49418   0.50181   0.51685
 Alpha virt. eigenvalues --    0.52552   0.53171   0.54377   0.55121   0.58596
 Alpha virt. eigenvalues --    0.59793   0.61712   0.62276   0.63630   0.63876
 Alpha virt. eigenvalues --    0.65753   0.66933   0.68149   0.68904   0.69595
 Alpha virt. eigenvalues --    0.70627   0.71011   0.73336   0.75704   0.76876
 Alpha virt. eigenvalues --    0.78816   0.79459   0.82653   0.83800   0.84369
 Alpha virt. eigenvalues --    0.84831   0.85593   0.86615   0.87183   0.87786
 Alpha virt. eigenvalues --    0.88375   0.89472   0.90238   0.90674   0.91559
 Alpha virt. eigenvalues --    0.92684   0.93236   0.94279   0.95749   0.96326
 Alpha virt. eigenvalues --    0.97018   0.97516   0.98407   0.98952   1.00320
 Alpha virt. eigenvalues --    1.02341   1.05941   1.06464   1.10346   1.18519
 Alpha virt. eigenvalues --    1.23333   1.24226   1.26512   1.29826   1.31849
 Alpha virt. eigenvalues --    1.38606   1.43579   1.44487   1.47281   1.49345
 Alpha virt. eigenvalues --    1.53071   1.56934   1.62369   1.64173   1.65711
 Alpha virt. eigenvalues --    1.67910   1.70287   1.72915   1.73517   1.75491
 Alpha virt. eigenvalues --    1.76461   1.80463   1.81403   1.83871   1.86318
 Alpha virt. eigenvalues --    1.86796   1.89254   1.90601   1.92260   1.94162
 Alpha virt. eigenvalues --    1.95517   1.97653   1.99554   2.01042   2.01794
 Alpha virt. eigenvalues --    2.03878   2.04825   2.05637   2.08375   2.10570
 Alpha virt. eigenvalues --    2.11229   2.12867   2.14210   2.18129   2.22589
 Alpha virt. eigenvalues --    2.25455   2.25903   2.26276   2.28268   2.30730
 Alpha virt. eigenvalues --    2.33868   2.39133   2.40993   2.43924   2.44517
 Alpha virt. eigenvalues --    2.46103   2.48463   2.49184   2.51720   2.54508
 Alpha virt. eigenvalues --    2.60117   2.61313   2.64545   2.66966   2.70717
 Alpha virt. eigenvalues --    2.71965   2.73731   2.77003   2.79431   2.83181
 Alpha virt. eigenvalues --    2.88497   3.03137   3.05521   4.11912   4.15192
 Alpha virt. eigenvalues --    4.20270   4.25879   4.30185   4.34917   4.43382
 Alpha virt. eigenvalues --    4.53923   4.57754   4.62268   4.73723   4.93465
          Condensed to atoms (all electrons):
               1          2          3          4          5          6
     1  O    8.046338   0.542233  -0.064512   0.000616   0.000027   0.003619
     2  C    0.542233   4.563173   0.364357  -0.035596  -0.020831  -0.025759
     3  C   -0.064512   0.364357   5.125874   0.350845  -0.042010   0.022287
     4  C    0.000616  -0.035596   0.350845   5.097007   0.341704  -0.050252
     5  C    0.000027  -0.020831  -0.042010   0.341704   5.080899   0.375845
     6  C    0.003619  -0.025759   0.022287  -0.050252   0.375845   4.978669
     7  C   -0.000073  -0.017117  -0.043787  -0.019823  -0.042777   0.378017
     8  C    0.000378  -0.032661   0.354067  -0.035940  -0.018886  -0.049148
     9  C   -0.080088   0.294619  -0.133639  -0.002331  -0.040200   0.324011
    10  C   -0.002063  -0.020567   0.000996  -0.001291  -0.002441  -0.038010
    11  C    0.000016   0.003291  -0.000154   0.000117  -0.003324  -0.004176
    12  C   -0.008918  -0.003259   0.000051  -0.000012   0.000021   0.004486
    13  H    0.004361  -0.032545   0.348859  -0.033974   0.005054  -0.000595
    14  H    0.000672  -0.003477  -0.037209   0.371355  -0.032845   0.000914
    15  H   -0.000078   0.004105  -0.028200   0.364979  -0.029171   0.002520
    16  H    0.000003   0.000320   0.000688  -0.031031   0.367497  -0.033683
    17  H   -0.000001   0.000758   0.002411  -0.032538   0.370007  -0.031815
    18  H   -0.000068   0.003648  -0.000650   0.006010  -0.041420   0.368399
    19  H   -0.000035   0.000577   0.001320   0.000003   0.005643  -0.036274
    20  H    0.000002   0.000361   0.002167   0.000678  -0.005673  -0.030352
    21  H   -0.000076   0.004180  -0.031469  -0.008816   0.001435   0.001188
    22  H    0.000901  -0.003228  -0.034150   0.005332  -0.000069   0.002267
    23  H   -0.001641  -0.030895   0.004701   0.000070   0.005679  -0.043592
    24  H    0.000167  -0.004866   0.000447   0.000034   0.003075  -0.005663
    25  H    0.000001  -0.000059   0.000003   0.000001   0.000005   0.000273
    26  H   -0.000002   0.000054  -0.000003  -0.000004   0.000242  -0.001608
    27  H    0.000001  -0.000059   0.000006  -0.000036   0.000213   0.001821
    28  H    0.018909   0.001573   0.000435  -0.000041  -0.000000   0.000088
    29  H    0.000307   0.000126   0.000012  -0.000000   0.000004  -0.000100
    30  H    0.000248  -0.000402  -0.000007  -0.000001   0.000005   0.000004
               7          8          9         10         11         12
     1  O   -0.000073   0.000378  -0.080088  -0.002063   0.000016  -0.008918
     2  C   -0.017117  -0.032661   0.294619  -0.020567   0.003291  -0.003259
     3  C   -0.043787   0.354067  -0.133639   0.000996  -0.000154   0.000051
     4  C   -0.019823  -0.035940  -0.002331  -0.001291   0.000117  -0.000012
     5  C   -0.042777  -0.018886  -0.040200  -0.002441  -0.003324   0.000021
     6  C    0.378017  -0.049148   0.324011  -0.038010  -0.004176   0.004486
     7  C    5.080744   0.342983  -0.036896   0.004199   0.000173  -0.000116
     8  C    0.342983   5.087894  -0.008729   0.000282  -0.000003  -0.000016
     9  C   -0.036896  -0.008729   5.305610   0.368884  -0.046635  -0.039054
    10  C    0.004199   0.000282   0.368884   4.851208   0.375921   0.379185
    11  C    0.000173  -0.000003  -0.046635   0.375921   5.131433  -0.056202
    12  C   -0.000116  -0.000016  -0.039054   0.379185  -0.056202   5.141118
    13  H    0.005327  -0.033274   0.008191  -0.000111   0.000004  -0.000002
    14  H   -0.000007   0.005405   0.001471   0.000090   0.000004  -0.000013
    15  H    0.000658  -0.007987  -0.000459   0.000049  -0.000003  -0.000000
    16  H   -0.006849   0.001197   0.004892   0.000023   0.000022  -0.000000
    17  H    0.005317  -0.000066  -0.007221   0.003748   0.000026  -0.000026
    18  H   -0.040192   0.005793  -0.032989  -0.007395   0.005081  -0.000001
    19  H    0.368807  -0.032964  -0.005459   0.000088  -0.000004  -0.000007
    20  H    0.364839  -0.031170   0.004509  -0.000134   0.000001   0.000002
    21  H   -0.029252   0.365518  -0.000399   0.000001  -0.000000   0.000000
    22  H   -0.031356   0.371526   0.001282  -0.000007  -0.000000   0.000000
    23  H   -0.004763  -0.000454   0.347107  -0.030683  -0.005817  -0.007497
    24  H   -0.000043   0.000011  -0.049053   0.378184  -0.048418  -0.045268
    25  H   -0.000003   0.000000   0.004847  -0.030217   0.369146  -0.004597
    26  H   -0.000069   0.000001  -0.005470  -0.033729   0.370419  -0.004547
    27  H    0.000054  -0.000003  -0.005196  -0.027291   0.367096   0.005153
    28  H   -0.000001  -0.000004  -0.007052  -0.025931   0.004518   0.364310
    29  H    0.000002  -0.000000   0.004511  -0.031388  -0.005257   0.359877
    30  H   -0.000008   0.000001  -0.006810  -0.036581  -0.005712   0.371090
              13         14         15         16         17         18
     1  O    0.004361   0.000672  -0.000078   0.000003  -0.000001  -0.000068
     2  C   -0.032545  -0.003477   0.004105   0.000320   0.000758   0.003648
     3  C    0.348859  -0.037209  -0.028200   0.000688   0.002411  -0.000650
     4  C   -0.033974   0.371355   0.364979  -0.031031  -0.032538   0.006010
     5  C    0.005054  -0.032845  -0.029171   0.367497   0.370007  -0.041420
     6  C   -0.000595   0.000914   0.002520  -0.033683  -0.031815   0.368399
     7  C    0.005327  -0.000007   0.000658  -0.006849   0.005317  -0.040192
     8  C   -0.033274   0.005405  -0.007987   0.001197  -0.000066   0.005793
     9  C    0.008191   0.001471  -0.000459   0.004892  -0.007221  -0.032989
    10  C   -0.000111   0.000090   0.000049   0.000023   0.003748  -0.007395
    11  C    0.000004   0.000004  -0.000003   0.000022   0.000026   0.005081
    12  C   -0.000002  -0.000013  -0.000000  -0.000000  -0.000026  -0.000001
    13  H    0.600548  -0.001684  -0.003456  -0.000156  -0.000115   0.000009
    14  H   -0.001684   0.588003  -0.035588   0.004220  -0.010688  -0.000106
    15  H   -0.003456  -0.035588   0.589873  -0.010366   0.003524  -0.000184
    16  H   -0.000156   0.004220  -0.010366   0.600481  -0.036138  -0.002030
    17  H   -0.000115  -0.010688   0.003524  -0.036138   0.588568  -0.003669
    18  H    0.000009  -0.000106  -0.000184  -0.002030  -0.003669   0.619475
    19  H   -0.000137   0.000014   0.000012   0.000027  -0.000196  -0.002334
    20  H   -0.000142   0.000012  -0.000161   0.005276  -0.000024  -0.002873
    21  H   -0.002631   0.000018   0.006393  -0.000346   0.000002  -0.000198
    22  H   -0.002446  -0.000189  -0.000029   0.000002   0.000010  -0.000111
    23  H   -0.000182   0.000003   0.000009  -0.000164  -0.000013  -0.003274
    24  H   -0.000039   0.001305   0.000017  -0.000026   0.001078  -0.000084
    25  H   -0.000000  -0.000001   0.000000   0.000001  -0.000063  -0.000063
    26  H   -0.000000   0.000001   0.000000  -0.000002  -0.000020   0.000921
    27  H   -0.000000  -0.000010   0.000001  -0.000055   0.002963   0.001135
    28  H   -0.000004  -0.000007   0.000001  -0.000000   0.000000  -0.000006
    29  H   -0.000000  -0.000001   0.000000  -0.000000   0.000004  -0.000006
    30  H   -0.000000   0.000001   0.000000   0.000000   0.000001  -0.000005
              19         20         21         22         23         24
     1  O   -0.000035   0.000002  -0.000076   0.000901  -0.001641   0.000167
     2  C    0.000577   0.000361   0.004180  -0.003228  -0.030895  -0.004866
     3  C    0.001320   0.002167  -0.031469  -0.034150   0.004701   0.000447
     4  C    0.000003   0.000678  -0.008816   0.005332   0.000070   0.000034
     5  C    0.005643  -0.005673   0.001435  -0.000069   0.005679   0.003075
     6  C   -0.036274  -0.030352   0.001188   0.002267  -0.043592  -0.005663
     7  C    0.368807   0.364839  -0.029252  -0.031356  -0.004763  -0.000043
     8  C   -0.032964  -0.031170   0.365518   0.371526  -0.000454   0.000011
     9  C   -0.005459   0.004509  -0.000399   0.001282   0.347107  -0.049053
    10  C    0.000088  -0.000134   0.000001  -0.000007  -0.030683   0.378184
    11  C   -0.000004   0.000001  -0.000000  -0.000000  -0.005817  -0.048418
    12  C   -0.000007   0.000002   0.000000   0.000000  -0.007497  -0.045268
    13  H   -0.000137  -0.000142  -0.002631  -0.002446  -0.000182  -0.000039
    14  H    0.000014   0.000012   0.000018  -0.000189   0.000003   0.001305
    15  H    0.000012  -0.000161   0.006393  -0.000029   0.000009   0.000017
    16  H    0.000027   0.005276  -0.000346   0.000002  -0.000164  -0.000026
    17  H   -0.000196  -0.000024   0.000002   0.000010  -0.000013   0.001078
    18  H   -0.002334  -0.002873  -0.000198  -0.000111  -0.003274  -0.000084
    19  H    0.598505  -0.035498   0.004233  -0.010535   0.006094   0.000004
    20  H   -0.035498   0.598336  -0.010537   0.003557  -0.000018   0.000003
    21  H    0.004233  -0.010537   0.594345  -0.035943   0.000064   0.000001
    22  H   -0.010535   0.003557  -0.035943   0.581435  -0.000089  -0.000000
    23  H    0.006094  -0.000018   0.000064  -0.000089   0.602000   0.006501
    24  H    0.000004   0.000003   0.000001  -0.000000   0.006501   0.638327
    25  H   -0.000000  -0.000000  -0.000000  -0.000000  -0.000045  -0.002530
    26  H    0.000008   0.000001   0.000000   0.000000   0.004429   0.005883
    27  H    0.000001   0.000005   0.000000  -0.000000  -0.000151  -0.004241
    28  H    0.000000   0.000000   0.000000  -0.000002   0.000439  -0.001940
    29  H    0.000000  -0.000000   0.000000  -0.000000   0.000167  -0.003524
    30  H    0.000000   0.000000  -0.000000  -0.000000   0.006393   0.005814
              25         26         27         28         29         30
     1  O    0.000001  -0.000002   0.000001   0.018909   0.000307   0.000248
     2  C   -0.000059   0.000054  -0.000059   0.001573   0.000126  -0.000402
     3  C    0.000003  -0.000003   0.000006   0.000435   0.000012  -0.000007
     4  C    0.000001  -0.000004  -0.000036  -0.000041  -0.000000  -0.000001
     5  C    0.000005   0.000242   0.000213  -0.000000   0.000004   0.000005
     6  C    0.000273  -0.001608   0.001821   0.000088  -0.000100   0.000004
     7  C   -0.000003  -0.000069   0.000054  -0.000001   0.000002  -0.000008
     8  C    0.000000   0.000001  -0.000003  -0.000004  -0.000000   0.000001
     9  C    0.004847  -0.005470  -0.005196  -0.007052   0.004511  -0.006810
    10  C   -0.030217  -0.033729  -0.027291  -0.025931  -0.031388  -0.036581
    11  C    0.369146   0.370419   0.367096   0.004518  -0.005257  -0.005712
    12  C   -0.004597  -0.004547   0.005153   0.364310   0.359877   0.371090
    13  H   -0.000000  -0.000000  -0.000000  -0.000004  -0.000000  -0.000000
    14  H   -0.000001   0.000001  -0.000010  -0.000007  -0.000001   0.000001
    15  H    0.000000   0.000000   0.000001   0.000001   0.000000   0.000000
    16  H    0.000001  -0.000002  -0.000055  -0.000000  -0.000000   0.000000
    17  H   -0.000063  -0.000020   0.002963   0.000000   0.000004   0.000001
    18  H   -0.000063   0.000921   0.001135  -0.000006  -0.000006  -0.000005
    19  H   -0.000000   0.000008   0.000001   0.000000   0.000000   0.000000
    20  H   -0.000000   0.000001   0.000005   0.000000  -0.000000   0.000000
    21  H   -0.000000   0.000000   0.000000   0.000000   0.000000  -0.000000
    22  H   -0.000000   0.000000  -0.000000  -0.000002  -0.000000  -0.000000
    23  H   -0.000045   0.004429  -0.000151   0.000439   0.000167   0.006393
    24  H   -0.002530   0.005883  -0.004241  -0.001940  -0.003524   0.005814
    25  H    0.574596  -0.030818  -0.030071   0.000056   0.005004  -0.000260
    26  H   -0.030818   0.581141  -0.032186  -0.000039  -0.000175   0.004877
    27  H   -0.030071  -0.032186   0.575195  -0.000172  -0.000017  -0.000014
    28  H    0.000056  -0.000039  -0.000172   0.509118  -0.024321  -0.027236
    29  H    0.005004  -0.000175  -0.000017  -0.024321   0.595013  -0.032574
    30  H   -0.000260   0.004877  -0.000014  -0.027236  -0.032574   0.588762
 Mulliken charges:
               1
     1  O   -0.461244
     2  C    0.447949
     3  C   -0.163736
     4  C   -0.287063
     5  C   -0.277708
     6  C   -0.113383
     7  C   -0.277989
     8  C   -0.283754
     9  C   -0.162254
    10  C   -0.075019
    11  C   -0.451562
    12  C   -0.455760
    13  H    0.139143
    14  H    0.148337
    15  H    0.143542
    16  H    0.136196
    17  H    0.144173
    18  H    0.127184
    19  H    0.138104
    20  H    0.136833
    21  H    0.142291
    22  H    0.151843
    23  H    0.145625
    24  H    0.124846
    25  H    0.144796
    26  H    0.140692
    27  H    0.145858
    28  H    0.187306
    29  H    0.132338
    30  H    0.132417
 Sum of Mulliken charges =  -0.00000
 Mulliken charges with hydrogens summed into heavy atoms:
               1
     1  O   -0.461244
     2  C    0.447949
     3  C   -0.024592
     4  C    0.004816
     5  C    0.002661
     6  C    0.013800
     7  C   -0.003052
     8  C    0.010380
     9  C   -0.016629
    10  C    0.049827
    11  C   -0.020216
    12  C   -0.003700
 APT charges:
               1
     1  O   -0.657386
     2  C    0.710385
     3  C   -0.053695
     4  C    0.102531
     5  C    0.081814
     6  C    0.088752
     7  C    0.097118
     8  C    0.114431
     9  C   -0.086201
    10  C    0.164450
    11  C    0.054625
    12  C    0.036762
    13  H   -0.045594
    14  H   -0.035338
    15  H   -0.043859
    16  H   -0.049598
    17  H   -0.037526
    18  H   -0.052258
    19  H   -0.044429
    20  H   -0.055584
    21  H   -0.046090
    22  H   -0.037152
    23  H   -0.033431
    24  H   -0.068955
    25  H   -0.033510
    26  H   -0.021862
    27  H   -0.021870
    28  H    0.044730
    29  H   -0.043495
    30  H   -0.027768
 Sum of APT charges =   0.00000
 APT charges with hydrogens summed into heavy atoms:
               1
     1  O   -0.657386
     2  C    0.710385
     3  C   -0.099288
     4  C    0.023335
     5  C   -0.005309
     6  C    0.036494
     7  C   -0.002894
     8  C    0.031188
     9  C   -0.119632
    10  C    0.095495
    11  C   -0.022617
    12  C    0.010229
 Electronic spatial extent (au):  <R**2>=           2004.1021
 Charge=             -0.0000 electrons
 Dipole moment (field-independent basis, Debye):
    X=             -1.0573    Y=             -2.6954    Z=              0.0574  Tot=              2.8959
 Quadrupole moment (field-independent basis, Debye-Ang):
   XX=            -72.3053   YY=            -82.7283   ZZ=            -72.8727
   XY=             -1.3684   XZ=              0.0299   YZ=              0.0624
 Traceless Quadrupole moment (field-independent basis, Debye-Ang):
   XX=              3.6635   YY=             -6.7595   ZZ=              3.0960
   XY=             -1.3684   XZ=              0.0299   YZ=              0.0624
 Octapole moment (field-independent basis, Debye-Ang**2):
  XXX=             -5.9076  YYY=            -14.2975  ZZZ=             -1.3636  XYY=             -5.5216
  XXY=              2.6901  XXZ=              2.6198  XZZ=              0.8600  YZZ=              4.6630
  YYZ=              0.3481  XYZ=              0.4022
 Hexadecapole moment (field-independent basis, Debye-Ang**3):
 XXXX=          -1535.4603 YYYY=           -798.0277 ZZZZ=           -412.9913 XXXY=              1.1591
 XXXZ=              2.0814 YYYX=             -0.8014 YYYZ=              1.2525 ZZZX=             -1.4048
 ZZZY=             -0.6704 XXYY=           -380.6752 XXZZ=           -324.8386 YYZZ=           -192.1049
 XXYZ=             -1.1535 YYXZ=              1.7619 ZZXY=             -2.4800
 N-N= 7.743738494075D+02 E-N=-2.720064528330D+03  KE= 5.003523495015D+02
  Exact polarizability: 123.117   1.521 108.130  -0.538   0.199  97.102
 Approx polarizability: 158.087   5.948 163.142  -1.335  -0.400 146.648
 Calling FoFJK, ICntrl=    100127 FMM=F ISym2X=0 I1Cent= 0 IOpClX= 0 NMat=1 NMatS=1 NMatT=0.
 Full mass-weighted force constant matrix:
 Low frequencies ---   -9.5069    0.0006    0.0007    0.0008    5.4512    6.6912
 Low frequencies ---   37.3257   77.6049  147.9445
 Diagonal vibrational polarizability:
       11.1453352       4.1448800      30.7364952
 Harmonic frequencies (cm**-1), IR intensities (KM/Mole), Raman scattering
 activities (A**4/AMU), depolarization ratios for plane and unpolarized
 incident light, reduced masses (AMU), force constants (mDyne/A),
 and normal coordinates:
                      1                      2                      3
                      A                      A                      A
 Frequencies --     37.2280                77.5988               147.9432
 Red. masses --      3.6169                 2.5664                 2.4649
 Frc consts  --      0.0030                 0.0091                 0.0318
 IR Inten    --      1.6926                 0.0333                 1.0607
  Atom  AN      X      Y      Z        X      Y      Z        X      Y      Z
     1   8     0.05  -0.02   0.27    -0.03   0.02   0.01     0.05  -0.01   0.15
     2   6    -0.00  -0.00   0.09    -0.01   0.01   0.00    -0.02   0.01  -0.04
     3   6    -0.06   0.00  -0.06     0.01  -0.03   0.05    -0.04   0.02  -0.10
     4   6    -0.16   0.01  -0.04     0.07  -0.07   0.00     0.12   0.13   0.00
     5   6    -0.00   0.04   0.06     0.02  -0.05  -0.09    -0.05   0.05  -0.01
     6   6     0.02  -0.00   0.06     0.01   0.02  -0.07     0.00   0.00  -0.00
     7   6     0.03  -0.08   0.01     0.00   0.07  -0.05     0.04  -0.02  -0.06
     8   6     0.05   0.01  -0.12    -0.02  -0.00   0.06    -0.10  -0.16   0.03
     9   6    -0.01   0.01   0.03     0.00   0.03  -0.02    -0.00   0.01  -0.02
    10   6     0.04   0.04  -0.06    -0.02   0.06   0.02    -0.01  -0.00  -0.01
    11   6     0.00   0.00   0.01    -0.07  -0.02   0.25    -0.02  -0.01  -0.02
    12   6     0.04  -0.01  -0.23     0.03  -0.03  -0.16     0.01  -0.01   0.02
    13   1    -0.08   0.01  -0.10     0.01  -0.05   0.10    -0.06   0.03  -0.15
    14   1    -0.30   0.05   0.04     0.14  -0.10  -0.02     0.32   0.20  -0.16
    15   1    -0.20  -0.04  -0.19     0.10  -0.07   0.06     0.19   0.21   0.24
    16   1     0.09  -0.03   0.10    -0.01  -0.03  -0.13    -0.17   0.16  -0.03
    17   1     0.02   0.18   0.10     0.01  -0.12  -0.11    -0.11  -0.08   0.00
    18   1     0.04  -0.01   0.10     0.01   0.05  -0.12     0.02  -0.01   0.04
    19   1     0.04  -0.20  -0.01     0.00   0.17  -0.03     0.10   0.13  -0.01
    20   1     0.01  -0.07   0.11     0.02   0.06  -0.13     0.12  -0.07  -0.21
    21   1    -0.02   0.09  -0.23     0.01  -0.07   0.10     0.02  -0.36   0.20
    22   1     0.19  -0.01  -0.18    -0.11   0.03   0.11    -0.38  -0.22   0.03
    23   1    -0.08   0.03   0.01     0.02   0.05  -0.01     0.00  -0.01  -0.02
    24   1     0.12   0.13  -0.05    -0.02   0.24   0.01    -0.02  -0.02  -0.01
    25   1     0.04   0.03  -0.06    -0.10   0.01   0.30    -0.02  -0.02  -0.03
    26   1    -0.09  -0.10   0.01    -0.02  -0.19   0.28    -0.03   0.00  -0.03
    27   1     0.02   0.04   0.13    -0.13   0.06   0.35    -0.02  -0.01  -0.02
    28   1     0.06   0.01  -0.27     0.04   0.01  -0.36     0.03  -0.01   0.06
    29   1     0.08   0.03  -0.30     0.01   0.06  -0.11     0.01  -0.05   0.02
    30   1    -0.05  -0.10  -0.25     0.06  -0.24  -0.15     0.01   0.02   0.02
                      4                      5                      6
                      A                      A                      A
 Frequencies --    176.9487               191.0955               240.0251
 Red. masses --      2.5242                 2.7751                 1.0756
 Frc consts  --      0.0466                 0.0597                 0.0365
 IR Inten    --      0.4913                 2.3250                 0.5163
  Atom  AN      X      Y      Z        X      Y      Z        X      Y      Z
     1   8     0.02   0.02   0.08     0.14  -0.10   0.06    -0.01   0.01  -0.01
     2   6    -0.01   0.03  -0.04     0.05  -0.06  -0.03    -0.01   0.01   0.00
     3   6     0.01  -0.00  -0.04     0.05   0.01  -0.01    -0.01  -0.00  -0.00
     4   6     0.06  -0.00  -0.04     0.03   0.01  -0.01    -0.01  -0.01  -0.01
     5   6     0.20   0.05  -0.01    -0.06  -0.03  -0.02     0.04   0.01   0.00
     6   6     0.01   0.02  -0.07    -0.07  -0.06  -0.03     0.01   0.01  -0.00
     7   6    -0.11  -0.10   0.06    -0.10  -0.01   0.02     0.01   0.00  -0.00
     8   6    -0.02  -0.00  -0.02    -0.01   0.06   0.00    -0.01  -0.01   0.00
     9   6    -0.02   0.05  -0.12    -0.03  -0.08  -0.07     0.00   0.02   0.01
    10   6    -0.07   0.01  -0.03    -0.03   0.02  -0.02    -0.00   0.00   0.01
    11   6    -0.10  -0.02   0.04     0.14   0.09   0.09    -0.03  -0.02   0.02
    12   6     0.01  -0.03   0.10    -0.12   0.11  -0.02     0.01  -0.01  -0.01
    13   1    -0.00  -0.01  -0.01     0.11   0.04   0.01    -0.02  -0.01  -0.00
    14   1    -0.01   0.05  -0.01     0.10  -0.01  -0.04    -0.04  -0.00   0.01
    15   1     0.06  -0.09  -0.08     0.04   0.07   0.04    -0.01  -0.03  -0.04
    16   1     0.32  -0.06   0.13    -0.12   0.02  -0.02     0.07  -0.02   0.03
    17   1     0.31   0.22  -0.07    -0.08  -0.09  -0.04     0.06   0.05  -0.00
    18   1     0.02   0.04  -0.10    -0.12  -0.08  -0.04     0.02   0.02  -0.01
    19   1    -0.27  -0.27  -0.02    -0.15  -0.08  -0.01     0.02   0.02   0.00
    20   1    -0.11  -0.11   0.32    -0.16   0.03   0.10     0.03  -0.01  -0.02
    21   1    -0.06   0.11  -0.03    -0.03   0.16   0.00     0.01  -0.04   0.01
    22   1     0.07  -0.02  -0.06     0.06   0.07  -0.01    -0.03  -0.02   0.00
    23   1    -0.00   0.07  -0.11    -0.03  -0.12  -0.07     0.01   0.02   0.01
    24   1    -0.17   0.01  -0.05    -0.09   0.05  -0.03     0.01   0.01   0.01
    25   1    -0.15  -0.06   0.14    -0.02   0.12   0.40    -0.12  -0.11   0.18
    26   1     0.00  -0.03   0.06     0.49   0.17   0.13     0.14   0.04   0.04
    27   1    -0.16   0.00  -0.02     0.07   0.03  -0.16    -0.14  -0.00  -0.13
    28   1     0.01  -0.02   0.02    -0.14   0.07   0.09     0.20  -0.02   0.46
    29   1    -0.09  -0.05   0.26    -0.06   0.10  -0.10     0.23  -0.31  -0.41
    30   1     0.19  -0.06   0.15    -0.21   0.20  -0.04    -0.42   0.30  -0.14
                      7                      8                      9
                      A                      A                      A
 Frequencies --    250.4448               273.9914               314.4743
 Red. masses --      1.5307                 1.6124                 2.2798
 Frc consts  --      0.0566                 0.0713                 0.1328
 IR Inten    --      0.1395                 0.6847                 0.7351
  Atom  AN      X      Y      Z        X      Y      Z        X      Y      Z
     1   8    -0.02  -0.00  -0.01     0.10  -0.06  -0.02    -0.01   0.01  -0.01
     2   6    -0.01  -0.01  -0.00     0.03  -0.04  -0.03    -0.01   0.01  -0.02
     3   6    -0.03   0.01  -0.00     0.01   0.02  -0.01    -0.03  -0.00  -0.02
     4   6    -0.10   0.00  -0.01    -0.09  -0.02  -0.03    -0.04  -0.02  -0.03
     5   6     0.02   0.05   0.02     0.06   0.03   0.01    -0.10  -0.04  -0.06
     6   6    -0.01   0.02  -0.00    -0.01  -0.00  -0.02    -0.02   0.01  -0.02
     7   6    -0.01   0.05  -0.01    -0.01   0.06  -0.02    -0.12  -0.06   0.07
     8   6    -0.08  -0.03   0.05    -0.06  -0.02   0.07    -0.08  -0.00   0.03
     9   6     0.02  -0.00  -0.01     0.01  -0.03  -0.03     0.02   0.03  -0.01
    10   6     0.04  -0.02  -0.03    -0.01   0.01   0.00     0.08   0.06  -0.02
    11   6     0.09  -0.01  -0.00    -0.01   0.01   0.02     0.08   0.04   0.03
    12   6     0.07  -0.05  -0.01    -0.03   0.04   0.03     0.21  -0.01   0.04
    13   1    -0.01   0.03  -0.01     0.05   0.04   0.00    -0.01   0.00   0.01
    14   1    -0.22  -0.00   0.07    -0.26  -0.04   0.10     0.01  -0.06  -0.04
    15   1    -0.14  -0.05  -0.14    -0.15  -0.08  -0.23    -0.03   0.02  -0.00
    16   1     0.11  -0.03   0.07     0.18  -0.07   0.11    -0.18   0.03  -0.19
    17   1     0.07   0.16   0.01     0.14   0.19  -0.01    -0.18  -0.16  -0.01
    18   1    -0.04   0.01  -0.00    -0.04  -0.02  -0.02    -0.02   0.02  -0.04
    19   1     0.02   0.14   0.02     0.04   0.18   0.02    -0.28  -0.18  -0.01
    20   1     0.03   0.03  -0.10     0.02   0.05  -0.15    -0.10  -0.09   0.28
    21   1    -0.02  -0.13   0.15     0.02  -0.14   0.20    -0.09   0.05   0.06
    22   1    -0.23  -0.05   0.07    -0.25  -0.05   0.08    -0.06  -0.03  -0.01
    23   1    -0.00   0.01  -0.02     0.03  -0.04  -0.02     0.00   0.03  -0.02
    24   1     0.03  -0.03  -0.03    -0.02   0.02   0.00     0.07   0.07  -0.02
    25   1    -0.09  -0.10   0.35     0.16   0.15  -0.29     0.17   0.14  -0.14
    26   1     0.49   0.17   0.04    -0.35  -0.17  -0.01    -0.11  -0.09   0.02
    27   1    -0.05  -0.05  -0.36     0.15   0.04   0.36     0.17   0.07   0.25
    28   1     0.04  -0.03  -0.17    -0.03   0.03   0.12     0.37   0.03   0.21
    29   1    -0.01   0.02   0.13    -0.00   0.00  -0.03     0.22  -0.24  -0.02
    30   1     0.23  -0.17   0.04    -0.08   0.13   0.01     0.15   0.09   0.02
                     10                     11                     12
                      A                      A                      A
 Frequencies --    327.5586               379.2674               401.2956
 Red. masses --      2.8137                 2.8251                 2.7936
 Frc consts  --      0.1779                 0.2394                 0.2651
 IR Inten    --      1.0861                 0.5053                 0.3434
  Atom  AN      X      Y      Z        X      Y      Z        X      Y      Z
     1   8    -0.14   0.05   0.04     0.06   0.15  -0.01     0.09  -0.04  -0.04
     2   6    -0.04   0.01   0.01     0.08   0.13   0.02    -0.03   0.00   0.01
     3   6    -0.05   0.01  -0.03     0.08   0.06  -0.02    -0.06   0.01  -0.06
     4   6     0.06   0.05  -0.01    -0.05  -0.03  -0.09     0.06  -0.02  -0.07
     5   6     0.08   0.06  -0.01    -0.05  -0.04  -0.09     0.08  -0.04  -0.02
     6   6    -0.02   0.03  -0.04     0.05   0.04  -0.02    -0.02  -0.00  -0.01
     7   6    -0.06   0.04  -0.02    -0.02  -0.10   0.07    -0.06   0.02   0.01
     8   6    -0.05   0.06  -0.04     0.01  -0.09   0.08    -0.08   0.03  -0.04
     9   6     0.03  -0.03   0.02     0.03   0.06   0.05    -0.02  -0.01   0.17
    10   6     0.04  -0.14   0.02    -0.00  -0.08   0.06    -0.03   0.03   0.22
    11   6     0.21  -0.10   0.06     0.02  -0.06  -0.01    -0.00   0.13  -0.04
    12   6    -0.09  -0.06  -0.01    -0.14  -0.01  -0.03     0.01  -0.09  -0.05
    13   1    -0.02   0.02  -0.02     0.01   0.02  -0.02    -0.08  -0.02   0.01
    14   1     0.12   0.12  -0.09    -0.17  -0.15   0.05     0.10   0.03  -0.12
    15   1     0.11   0.02   0.10    -0.13  -0.00  -0.28     0.10  -0.05   0.02
    16   1     0.12   0.02   0.09    -0.10   0.00  -0.22     0.13  -0.09   0.09
    17   1     0.15   0.13  -0.07    -0.14  -0.12  -0.01     0.15   0.06  -0.07
    18   1    -0.04   0.02  -0.05     0.13   0.09  -0.03    -0.02   0.04  -0.10
    19   1    -0.08   0.02  -0.03    -0.19  -0.18   0.00    -0.07  -0.01  -0.00
    20   1    -0.06   0.04   0.01     0.02  -0.14   0.26    -0.04   0.00   0.04
    21   1    -0.08   0.09  -0.08     0.09  -0.13   0.28    -0.09   0.04  -0.04
    22   1     0.01   0.08  -0.03    -0.19  -0.18   0.02    -0.07   0.01  -0.06
    23   1     0.06   0.02   0.04     0.09   0.06   0.06     0.12   0.01   0.20
    24   1     0.06  -0.16   0.03     0.02  -0.11   0.06     0.07   0.04   0.24
    25   1     0.32   0.17  -0.12     0.01  -0.07   0.02     0.05   0.07  -0.16
    26   1     0.04  -0.24   0.05     0.06   0.01  -0.01    -0.09   0.44  -0.10
    27   1     0.44  -0.16   0.31     0.03  -0.10  -0.07     0.09  -0.01  -0.23
    28   1    -0.16  -0.11   0.08    -0.27  -0.05  -0.12     0.14   0.00  -0.22
    29   1     0.00   0.01  -0.13    -0.09   0.19  -0.08     0.07  -0.07  -0.14
    30   1    -0.21   0.03  -0.05    -0.20  -0.07  -0.05    -0.13  -0.38  -0.07
                     13                     14                     15
                      A                      A                      A
 Frequencies --    431.1935               492.2107               504.8122
 Red. masses --      2.5294                 4.1966                 3.5166
 Frc consts  --      0.2771                 0.5990                 0.5280
 IR Inten    --      0.5557                 2.3942                 9.5072
  Atom  AN      X      Y      Z        X      Y      Z        X      Y      Z
     1   8    -0.04  -0.05   0.01     0.09  -0.17  -0.09     0.20   0.05  -0.09
     2   6     0.01  -0.07  -0.01    -0.04  -0.10   0.15    -0.06   0.14   0.10
     3   6    -0.02  -0.01  -0.06    -0.11  -0.01   0.13    -0.14   0.02   0.01
     4   6     0.02   0.01  -0.05    -0.07   0.08   0.14     0.04  -0.07  -0.00
     5   6     0.02  -0.01  -0.02    -0.01   0.21  -0.14     0.04  -0.10   0.03
     6   6     0.02   0.01   0.00     0.09   0.14  -0.14    -0.05  -0.00   0.05
     7   6    -0.05   0.04   0.05     0.02  -0.07  -0.05    -0.01  -0.01  -0.03
     8   6    -0.09   0.04  -0.01     0.03  -0.07   0.01    -0.07  -0.02  -0.09
     9   6     0.10  -0.04   0.08     0.02   0.07   0.01    -0.13   0.06   0.11
    10   6     0.17   0.01   0.04     0.01  -0.02   0.03     0.03  -0.02  -0.13
    11   6    -0.08  -0.12  -0.01     0.01  -0.02   0.00     0.05  -0.10   0.02
    12   6     0.02   0.17  -0.01    -0.04   0.00  -0.01     0.02   0.06   0.01
    13   1     0.07   0.02  -0.03    -0.15   0.04  -0.03    -0.33  -0.11   0.09
    14   1     0.07   0.06  -0.11     0.02   0.05   0.10     0.13  -0.02  -0.09
    15   1     0.05   0.01   0.02     0.00  -0.06   0.25     0.10  -0.10   0.15
    16   1     0.01  -0.00  -0.02    -0.03   0.23  -0.26     0.09  -0.14   0.11
    17   1     0.01  -0.00   0.00    -0.06   0.09  -0.14     0.11  -0.01  -0.02
    18   1    -0.07  -0.00  -0.07     0.12   0.10  -0.00     0.04   0.08  -0.02
    19   1    -0.11  -0.02   0.02    -0.26  -0.21  -0.17     0.12   0.03   0.02
    20   1    -0.02   0.01   0.13     0.09  -0.15   0.27     0.00  -0.01  -0.14
    21   1    -0.09   0.06  -0.01    -0.03  -0.05  -0.14    -0.08  -0.04  -0.14
    22   1    -0.07   0.03  -0.03     0.15  -0.02   0.04    -0.05  -0.03  -0.10
    23   1     0.13  -0.03   0.09     0.04   0.35   0.07    -0.31   0.15   0.08
    24   1     0.24   0.01   0.06     0.02  -0.04   0.03     0.12  -0.05  -0.11
    25   1    -0.13  -0.46   0.04     0.01  -0.02   0.01    -0.01  -0.01   0.14
    26   1    -0.09  -0.11  -0.01     0.02  -0.00   0.00     0.16  -0.32   0.06
    27   1    -0.37   0.05  -0.09     0.01  -0.03  -0.01     0.01  -0.02   0.14
    28   1    -0.24   0.07  -0.04    -0.09  -0.02  -0.05    -0.08   0.01   0.08
    29   1     0.03   0.42   0.01    -0.01   0.08  -0.03    -0.06   0.07   0.14
    30   1     0.03   0.22  -0.00    -0.07  -0.03  -0.02     0.18   0.22   0.05
                     16                     17                     18
                      A                      A                      A
 Frequencies --    541.1720               615.2554               692.0660
 Red. masses --      3.8466                 4.8800                 4.1306
 Frc consts  --      0.6637                 1.0884                 1.1656
 IR Inten    --      1.1806                 1.8620                 1.9958
  Atom  AN      X      Y      Z        X      Y      Z        X      Y      Z
     1   8     0.03  -0.10   0.01     0.10   0.08   0.01    -0.07  -0.07  -0.05
     2   6    -0.08  -0.04  -0.10     0.10   0.06  -0.18     0.16  -0.14   0.20
     3   6    -0.13   0.04  -0.04    -0.00  -0.23  -0.02     0.17  -0.12  -0.14
     4   6    -0.01  -0.04  -0.09    -0.05  -0.13   0.23     0.03  -0.01  -0.07
     5   6     0.03  -0.05  -0.01    -0.03  -0.01   0.13     0.00  -0.02   0.06
     6   6     0.20   0.08   0.11    -0.05   0.21   0.07    -0.04   0.18   0.08
     7   6     0.15   0.11   0.24    -0.07   0.03  -0.06    -0.06   0.04  -0.01
     8   6    -0.10   0.09   0.01    -0.13  -0.04  -0.12    -0.04  -0.00  -0.08
     9   6     0.03   0.04  -0.07     0.13   0.09  -0.13    -0.00   0.10   0.12
    10   6    -0.07  -0.02  -0.06     0.02  -0.01   0.08    -0.07   0.00  -0.13
    11   6     0.01  -0.01  -0.00     0.01  -0.01  -0.00    -0.03   0.07  -0.00
    12   6    -0.07  -0.07   0.00    -0.03  -0.02  -0.00    -0.05  -0.05  -0.00
    13   1    -0.01   0.04   0.10     0.02  -0.22  -0.01     0.28  -0.06  -0.16
    14   1     0.05   0.02  -0.15    -0.02  -0.02   0.16     0.05   0.09  -0.12
    15   1     0.05  -0.08   0.02    -0.04  -0.09   0.27     0.02   0.12  -0.04
    16   1    -0.10   0.07  -0.37    -0.02  -0.02  -0.09     0.00  -0.02  -0.02
    17   1    -0.22  -0.27   0.21    -0.03  -0.16   0.06    -0.00  -0.05   0.05
    18   1     0.14   0.10  -0.01    -0.08   0.18   0.12     0.03   0.25   0.01
    19   1     0.13   0.08   0.23    -0.01  -0.01  -0.05    -0.03  -0.07  -0.03
    20   1     0.23   0.06   0.27     0.08  -0.08  -0.05     0.03  -0.03   0.09
    21   1    -0.13   0.05  -0.12    -0.23   0.06  -0.29     0.08  -0.05   0.22
    22   1    -0.01   0.02  -0.08     0.09   0.10  -0.02    -0.27  -0.01  -0.04
    23   1    -0.03  -0.02  -0.09     0.28  -0.15  -0.13    -0.21   0.29   0.10
    24   1    -0.15  -0.05  -0.08    -0.08  -0.01   0.06    -0.01  -0.02  -0.11
    25   1    -0.00   0.14   0.04     0.05  -0.06  -0.07    -0.08   0.25   0.11
    26   1     0.08  -0.05   0.01    -0.06   0.09  -0.02     0.09  -0.10   0.04
    27   1     0.10  -0.05   0.03     0.03  -0.05  -0.05     0.02   0.07   0.11
    28   1    -0.06  -0.06   0.01    -0.08  -0.03  -0.06     0.01  -0.04   0.07
    29   1    -0.08  -0.09   0.01     0.04   0.11  -0.10    -0.13  -0.19   0.10
    30   1    -0.06  -0.05   0.00    -0.16  -0.10  -0.03     0.08   0.04   0.03
                     19                     20                     21
                      A                      A                      A
 Frequencies --    783.2913               812.1661               818.3336
 Red. masses --      4.7352                 1.4002                 1.9336
 Frc consts  --      1.7117                 0.5442                 0.7629
 IR Inten    --      0.4828                 1.9788                 2.8848
  Atom  AN      X      Y      Z        X      Y      Z        X      Y      Z
     1   8    -0.00   0.13  -0.04     0.00   0.01   0.01     0.01   0.03  -0.01
     2   6     0.20   0.03   0.24     0.01   0.01  -0.03     0.05   0.01   0.02
     3   6    -0.12   0.03   0.03    -0.02  -0.01   0.00    -0.01  -0.10   0.00
     4   6    -0.10   0.02   0.03    -0.06  -0.05  -0.02     0.01  -0.01  -0.09
     5   6     0.02  -0.02   0.02    -0.07   0.00  -0.05    -0.02   0.12  -0.11
     6   6     0.11  -0.18  -0.07    -0.05   0.05   0.02    -0.07   0.02   0.04
     7   6    -0.00  -0.00   0.01     0.07   0.05   0.03    -0.02  -0.02   0.11
     8   6    -0.15   0.04  -0.07     0.07   0.00   0.00    -0.01  -0.09   0.07
     9   6     0.21  -0.14  -0.10     0.01  -0.03  -0.00     0.01  -0.04   0.03
    10   6     0.01  -0.01  -0.07    -0.00  -0.00  -0.01     0.00  -0.01  -0.02
    11   6    -0.06   0.13   0.01    -0.00   0.01   0.00    -0.01   0.03   0.00
    12   6    -0.06  -0.06   0.01    -0.00  -0.00  -0.00    -0.01  -0.01  -0.01
    13   1    -0.06   0.07   0.04    -0.03  -0.02   0.01    -0.06  -0.13   0.00
    14   1     0.18   0.11  -0.19     0.30  -0.08  -0.25     0.07  -0.04  -0.12
    15   1     0.07  -0.04   0.43     0.05   0.11   0.36     0.04  -0.03  -0.02
    16   1     0.04  -0.05   0.02     0.25  -0.27   0.14     0.04   0.06  -0.05
    17   1    -0.06   0.05   0.16     0.14   0.39  -0.14     0.02   0.19  -0.14
    18   1    -0.08  -0.30  -0.08    -0.09   0.02   0.05    -0.11  -0.02   0.08
    19   1    -0.03   0.02   0.00    -0.05  -0.21  -0.06     0.16   0.36   0.25
    20   1    -0.01  -0.00  -0.03     0.03   0.06   0.33     0.12  -0.09  -0.31
    21   1    -0.14  -0.02  -0.07     0.17  -0.22   0.08    -0.22   0.29  -0.21
    22   1    -0.19  -0.02  -0.12    -0.16  -0.01   0.04     0.49  -0.07  -0.02
    23   1     0.14   0.04  -0.09     0.01  -0.15  -0.02    -0.00  -0.10   0.01
    24   1    -0.12   0.01  -0.09     0.01   0.02  -0.00     0.04   0.01  -0.01
    25   1    -0.06   0.05   0.00     0.00   0.00  -0.00    -0.02   0.03   0.02
    26   1    -0.10   0.10   0.01    -0.01   0.01   0.00    -0.01  -0.00   0.01
    27   1    -0.14   0.20   0.04    -0.01   0.01  -0.00    -0.03   0.05   0.02
    28   1    -0.04  -0.06   0.04     0.00  -0.00   0.01     0.01  -0.01   0.03
    29   1    -0.08  -0.11   0.03    -0.02  -0.02   0.02    -0.04  -0.05   0.04
    30   1    -0.03  -0.03   0.01     0.02   0.02   0.00     0.04   0.03   0.01
                     22                     23                     24
                      A                      A                      A
 Frequencies --    839.2972               864.4616               874.4503
 Red. masses --      2.0298                 2.1908                 2.0844
 Frc consts  --      0.8425                 0.9646                 0.9391
 IR Inten    --      0.6401                 1.1992                 7.1581
  Atom  AN      X      Y      Z        X      Y      Z        X      Y      Z
     1   8     0.01  -0.03  -0.02     0.01  -0.01   0.02    -0.04  -0.02   0.01
     2   6    -0.01  -0.02   0.05    -0.03   0.00  -0.13     0.05  -0.05  -0.00
     3   6    -0.00  -0.04  -0.03     0.01   0.01  -0.03     0.07   0.17   0.04
     4   6    -0.07   0.03  -0.08    -0.06   0.06   0.08    -0.03  -0.02   0.07
     5   6    -0.04  -0.08   0.09    -0.02  -0.10   0.01    -0.01  -0.05  -0.08
     6   6     0.03  -0.03  -0.04     0.07  -0.02  -0.08    -0.02   0.04   0.03
     7   6    -0.05  -0.01   0.02    -0.02  -0.01  -0.04     0.03  -0.12   0.01
     8   6     0.05  -0.01   0.07    -0.00  -0.02   0.08    -0.11   0.03  -0.06
     9   6    -0.00   0.14  -0.11     0.04   0.03   0.14    -0.04   0.03  -0.01
    10   6    -0.00   0.01   0.06     0.04  -0.00  -0.07    -0.03   0.00   0.02
    11   6     0.03  -0.06   0.00    -0.03   0.07  -0.02     0.01  -0.04   0.00
    12   6     0.02   0.02   0.02    -0.05  -0.07  -0.01     0.02   0.03  -0.00
    13   1    -0.03  -0.05  -0.04     0.08   0.11  -0.17     0.36   0.34   0.01
    14   1     0.19   0.12  -0.29     0.04  -0.00   0.04     0.16  -0.24   0.05
    15   1     0.00   0.25   0.23    -0.08   0.20   0.12     0.00   0.05   0.19
    16   1     0.09  -0.19   0.16     0.12  -0.23   0.14     0.19  -0.21  -0.05
    17   1    -0.04   0.17   0.21     0.07   0.13   0.00     0.12   0.13  -0.15
    18   1     0.11   0.05  -0.10     0.20   0.09  -0.17     0.11   0.10   0.06
    19   1     0.00   0.24   0.09    -0.18   0.14  -0.06     0.24   0.08   0.12
    20   1    -0.07   0.02  -0.24     0.05  -0.05  -0.05     0.16  -0.20  -0.26
    21   1    -0.00   0.16   0.07    -0.14   0.20  -0.10    -0.14   0.14  -0.04
    22   1     0.18  -0.01   0.04     0.29   0.03   0.06    -0.02  -0.13  -0.24
    23   1    -0.02   0.33  -0.08     0.13   0.01   0.15    -0.05  -0.02  -0.03
    24   1    -0.16  -0.01   0.03     0.26  -0.07  -0.02    -0.07   0.03   0.01
    25   1     0.06  -0.09  -0.07    -0.11   0.19   0.14     0.02  -0.01  -0.03
    26   1    -0.02   0.06  -0.02     0.11  -0.18   0.03     0.00   0.04  -0.01
    27   1     0.07  -0.12  -0.07    -0.07   0.17   0.14     0.07  -0.11  -0.05
    28   1    -0.00   0.04  -0.09    -0.12  -0.13   0.10     0.05   0.05  -0.03
    29   1     0.13   0.15  -0.12    -0.14  -0.12   0.11     0.04   0.03  -0.03
    30   1    -0.15  -0.11  -0.02     0.08   0.09   0.02    -0.01  -0.01  -0.01
                     25                     26                     27
                      A                      A                      A
 Frequencies --    883.0507               920.2544               945.9303
 Red. masses --      2.6250                 2.6247                 1.1639
 Frc consts  --      1.2060                 1.3096                 0.6136
 IR Inten    --      0.7336                 4.8856                 0.9786
  Atom  AN      X      Y      Z        X      Y      Z        X      Y      Z
     1   8    -0.01   0.01  -0.01    -0.01  -0.05  -0.00     0.00   0.00  -0.00
     2   6     0.03  -0.01   0.05    -0.06  -0.01   0.01    -0.00   0.00   0.00
     3   6    -0.03   0.05  -0.10    -0.01   0.09   0.03    -0.00  -0.00  -0.00
     4   6    -0.04   0.06   0.15     0.04  -0.04  -0.03    -0.01   0.01  -0.00
     5   6     0.07  -0.11  -0.03    -0.01  -0.01   0.01     0.01  -0.01   0.01
     6   6    -0.09   0.03  -0.08    -0.09   0.04   0.04     0.01   0.01   0.00
     7   6    -0.01   0.12   0.16    -0.02  -0.04   0.02    -0.01  -0.00  -0.01
     8   6     0.11  -0.11  -0.05     0.06  -0.01  -0.03     0.00   0.00   0.01
     9   6    -0.01  -0.03  -0.03     0.02   0.08  -0.10    -0.01  -0.01  -0.00
    10   6    -0.01  -0.01   0.01     0.20  -0.02  -0.01     0.01  -0.03  -0.01
    11   6     0.01  -0.01   0.01     0.02   0.14   0.02    -0.04  -0.01   0.07
    12   6     0.02   0.03  -0.00    -0.05  -0.16   0.04     0.03  -0.04  -0.06
    13   1    -0.14   0.13  -0.44    -0.04   0.06   0.06    -0.02  -0.01  -0.01
    14   1    -0.13   0.09   0.20     0.01  -0.10   0.02     0.00   0.02  -0.02
    15   1    -0.06  -0.05   0.03     0.03  -0.05  -0.08    -0.00   0.02   0.01
    16   1    -0.03  -0.03  -0.08    -0.01  -0.01   0.00    -0.00   0.00  -0.03
    17   1     0.10  -0.28  -0.17     0.02  -0.03  -0.03    -0.01  -0.02   0.02
    18   1    -0.26   0.06  -0.37    -0.14   0.00   0.07     0.05   0.03   0.00
    19   1     0.04   0.16   0.18     0.18   0.00   0.09    -0.02   0.01  -0.01
    20   1     0.02   0.11   0.06    -0.07   0.00  -0.15    -0.00  -0.01  -0.01
    21   1     0.10  -0.09  -0.05     0.11  -0.06   0.07    -0.00   0.02   0.01
    22   1     0.10  -0.24  -0.17    -0.08  -0.10  -0.10     0.01   0.01   0.02
    23   1    -0.02   0.05  -0.02    -0.06   0.14  -0.10    -0.03  -0.02  -0.01
    24   1    -0.06   0.02   0.00     0.15  -0.02  -0.02     0.07   0.38  -0.01
    25   1     0.04  -0.04  -0.05     0.01  -0.19  -0.01     0.07   0.07  -0.15
    26   1    -0.05   0.05  -0.00    -0.14   0.03   0.02    -0.12   0.44  -0.00
    27   1     0.01  -0.02  -0.03    -0.29   0.39   0.09     0.19  -0.28  -0.21
    28   1     0.05   0.04  -0.02    -0.40  -0.32   0.08    -0.27  -0.22   0.22
    29   1     0.02   0.01  -0.02     0.03   0.16  -0.02    -0.09   0.08   0.15
    30   1     0.01  -0.00  -0.00    -0.17  -0.02   0.01     0.22   0.41  -0.02
                     28                     29                     30
                      A                      A                      A
 Frequencies --    963.3523               974.9312              1000.4843
 Red. masses --      1.7979                 1.4878                 3.4973
 Frc consts  --      0.9831                 0.8332                 2.0625
 IR Inten    --      0.7718                 0.1673                 1.9856
  Atom  AN      X      Y      Z        X      Y      Z        X      Y      Z
     1   8    -0.00  -0.00  -0.01     0.00  -0.00   0.00    -0.02  -0.02  -0.00
     2   6     0.00  -0.00   0.03    -0.00  -0.00  -0.01     0.04  -0.02   0.04
     3   6     0.03  -0.01   0.07    -0.00   0.00   0.01    -0.11   0.14   0.08
     4   6     0.09   0.07  -0.04     0.01  -0.01   0.00     0.00   0.06  -0.13
     5   6    -0.09  -0.06   0.04    -0.01   0.02  -0.00     0.06  -0.13   0.07
     6   6    -0.04   0.01  -0.07    -0.02  -0.03  -0.01    -0.04   0.21   0.09
     7   6     0.11   0.05   0.02     0.01   0.00   0.02    -0.06  -0.03  -0.15
     8   6    -0.10  -0.06  -0.02     0.00   0.00  -0.02     0.07  -0.08   0.09
     9   6     0.01   0.01  -0.03     0.03   0.03  -0.00     0.08  -0.13  -0.04
    10   6     0.00   0.00  -0.00    -0.02  -0.10   0.00    -0.03  -0.06  -0.01
    11   6     0.01  -0.00   0.01    -0.11   0.05  -0.02    -0.03   0.03  -0.00
    12   6    -0.00  -0.01   0.00     0.11   0.02   0.02     0.03   0.05  -0.00
    13   1     0.07  -0.05   0.23     0.01  -0.00   0.03    -0.23   0.11   0.04
    14   1    -0.14  -0.05   0.16    -0.01  -0.03   0.03     0.00   0.07  -0.14
    15   1    -0.06   0.19  -0.36     0.01  -0.04  -0.03     0.04   0.02  -0.06
    16   1    -0.05  -0.10   0.40    -0.02   0.02   0.06     0.03  -0.11  -0.13
    17   1     0.08   0.15  -0.08     0.01   0.02  -0.03     0.01  -0.20   0.12
    18   1    -0.11   0.02  -0.20    -0.06  -0.06   0.01     0.03   0.28   0.02
    19   1    -0.08  -0.12  -0.08     0.04  -0.02   0.03    -0.17  -0.01  -0.18
    20   1     0.26  -0.08   0.29    -0.03   0.03   0.01     0.10  -0.15  -0.01
    21   1    -0.20  -0.07  -0.32     0.02  -0.05  -0.02    -0.05   0.06  -0.11
    22   1     0.15  -0.00  -0.01    -0.04  -0.02  -0.03     0.27  -0.01   0.12
    23   1    -0.05   0.09  -0.03     0.08   0.06   0.02     0.10  -0.47  -0.09
    24   1    -0.07   0.05  -0.02    -0.02  -0.29   0.01    -0.13  -0.14  -0.03
    25   1     0.04  -0.06  -0.05    -0.17   0.56   0.16    -0.04   0.10   0.03
    26   1    -0.05   0.06  -0.00     0.19  -0.05   0.04     0.00  -0.00   0.01
    27   1    -0.01  -0.01  -0.04     0.22  -0.14   0.10     0.00   0.01   0.02
    28   1    -0.02  -0.01  -0.00    -0.21  -0.10  -0.06     0.11   0.10  -0.06
    29   1     0.01   0.02  -0.01     0.26   0.42  -0.15     0.05   0.01  -0.05
    30   1    -0.02  -0.01  -0.00    -0.13   0.06  -0.05     0.00  -0.04  -0.01
                     31                     32                     33
                      A                      A                      A
 Frequencies --   1014.9564              1046.7300              1054.5343
 Red. masses --      2.1719                 1.7490                 2.4395
 Frc consts  --      1.3182                 1.1290                 1.5984
 IR Inten    --      0.8898                 2.3626                 6.9269
  Atom  AN      X      Y      Z        X      Y      Z        X      Y      Z
     1   8    -0.01  -0.04   0.00     0.00   0.01   0.01    -0.00   0.01   0.00
     2   6    -0.04  -0.01  -0.01     0.01   0.00  -0.04    -0.04   0.02   0.01
     3   6    -0.03   0.09   0.03     0.04  -0.04   0.13     0.09   0.07   0.01
     4   6     0.06  -0.08  -0.03    -0.08   0.05  -0.05     0.02  -0.11  -0.00
     5   6    -0.05   0.03   0.05     0.06  -0.00   0.04    -0.04   0.09   0.09
     6   6    -0.04  -0.01  -0.01    -0.04   0.03  -0.09     0.14   0.02  -0.04
     7   6    -0.06   0.00   0.03     0.00  -0.03   0.05    -0.09   0.12   0.00
     8   6     0.06  -0.04  -0.04     0.01   0.00  -0.07     0.01  -0.12  -0.09
     9   6     0.19   0.08   0.02    -0.07  -0.02   0.00    -0.09  -0.09   0.01
    10   6    -0.06   0.06  -0.00     0.01  -0.03   0.04     0.01  -0.04  -0.00
    11   6    -0.01  -0.07  -0.03    -0.00   0.02  -0.02     0.01   0.03   0.01
    12   6    -0.06   0.02  -0.05    -0.00   0.01  -0.04     0.03   0.01   0.01
    13   1    -0.06   0.06   0.08     0.17  -0.08   0.38     0.05   0.05   0.02
    14   1     0.03  -0.19   0.04     0.03   0.24  -0.21     0.17  -0.35   0.00
    15   1     0.06  -0.12  -0.07    -0.02   0.12   0.14     0.02   0.04   0.07
    16   1    -0.06   0.03   0.16    -0.08   0.12  -0.09     0.04   0.02  -0.03
    17   1    -0.03   0.07   0.05    -0.10  -0.11   0.20    -0.21   0.22   0.38
    18   1    -0.20  -0.13   0.05    -0.05   0.15  -0.37     0.10   0.02  -0.08
    19   1     0.02   0.08   0.07     0.22  -0.03   0.12    -0.37   0.28  -0.05
    20   1    -0.13   0.06  -0.12     0.04  -0.06  -0.10     0.01   0.04   0.03
    21   1     0.09  -0.08  -0.00     0.08  -0.16  -0.01    -0.03   0.03  -0.07
    22   1    -0.04  -0.17  -0.16    -0.14  -0.09  -0.13     0.09  -0.27  -0.26
    23   1     0.46   0.20   0.11     0.23  -0.07   0.07    -0.16  -0.08  -0.01
    24   1     0.10   0.14   0.02     0.24  -0.06   0.08    -0.03  -0.08  -0.01
    25   1    -0.03   0.15   0.04    -0.03   0.05   0.06     0.02  -0.07  -0.02
    26   1     0.12  -0.08  -0.01     0.05  -0.09   0.01    -0.06   0.05   0.00
    27   1     0.14  -0.16  -0.01    -0.03   0.07   0.06    -0.06   0.07  -0.00
    28   1     0.15   0.09   0.07     0.05   0.01   0.06    -0.02  -0.01  -0.02
    29   1    -0.21  -0.29   0.14    -0.09  -0.09   0.08     0.06   0.08  -0.04
    30   1     0.19   0.08   0.02     0.14   0.11   0.00    -0.02  -0.00  -0.01
                     34                     35                     36
                      A                      A                      A
 Frequencies --   1083.1895              1089.4695              1137.2480
 Red. masses --      2.8013                 1.9120                 1.3904
 Frc consts  --      1.9365                 1.3371                 1.0595
 IR Inten    --      1.7596                27.0731                 9.4519
  Atom  AN      X      Y      Z        X      Y      Z        X      Y      Z
     1   8     0.01  -0.01   0.00    -0.01   0.02   0.01    -0.01  -0.00   0.00
     2   6    -0.04   0.01   0.01     0.14  -0.06  -0.07     0.07  -0.03  -0.00
     3   6     0.06  -0.05   0.13    -0.05   0.04   0.04    -0.06  -0.02   0.02
     4   6    -0.01   0.16   0.00    -0.04  -0.02  -0.06     0.04   0.01   0.01
     5   6     0.04  -0.07  -0.14     0.05   0.02   0.01    -0.07  -0.00  -0.02
     6   6     0.08  -0.05   0.15    -0.05  -0.07   0.03     0.04   0.02  -0.02
     7   6    -0.13   0.08   0.01     0.01   0.06  -0.03    -0.03  -0.03   0.04
     8   6    -0.00  -0.09  -0.12    -0.00  -0.08   0.04     0.04   0.04  -0.04
     9   6     0.05   0.03   0.00    -0.06   0.08   0.03    -0.01   0.00   0.00
    10   6     0.01   0.07  -0.01     0.02   0.06   0.00     0.02   0.05  -0.00
    11   6    -0.01  -0.04  -0.02     0.01  -0.03  -0.01    -0.01  -0.02  -0.02
    12   6    -0.01  -0.03   0.03    -0.01  -0.03   0.02    -0.00  -0.02   0.02
    13   1    -0.05  -0.10   0.10     0.33   0.27  -0.05    -0.12  -0.06   0.04
    14   1     0.00  -0.06   0.09     0.05   0.00  -0.13    -0.12   0.10   0.08
    15   1    -0.12   0.42  -0.14     0.12  -0.35   0.16     0.08  -0.29  -0.06
    16   1     0.22  -0.22  -0.26    -0.12   0.17   0.02    -0.13   0.04   0.37
    17   1     0.03   0.11  -0.04    -0.05  -0.12   0.08     0.03   0.14  -0.08
    18   1     0.06  -0.05   0.13     0.07   0.01   0.01     0.42   0.31  -0.19
    19   1     0.02  -0.01   0.04    -0.08  -0.12  -0.10    -0.05   0.17   0.08
    20   1    -0.34   0.23  -0.08    -0.19   0.20   0.14    -0.04  -0.01  -0.13
    21   1     0.03  -0.26  -0.19    -0.10  -0.27  -0.41     0.11  -0.04   0.11
    22   1    -0.07   0.05   0.04     0.17  -0.04   0.05    -0.15  -0.06  -0.11
    23   1    -0.05  -0.20  -0.06    -0.15   0.09   0.01    -0.05  -0.41  -0.08
    24   1    -0.04   0.11  -0.02     0.03   0.11   0.00    -0.00   0.10  -0.01
    25   1    -0.02   0.07   0.01     0.00   0.02   0.00    -0.01   0.04   0.01
    26   1     0.07  -0.03  -0.01     0.05  -0.03  -0.00     0.06  -0.04  -0.00
    27   1     0.08  -0.10  -0.01     0.05  -0.05  -0.00     0.04  -0.05   0.01
    28   1    -0.07  -0.05  -0.02    -0.08  -0.06  -0.00    -0.05  -0.04  -0.01
    29   1     0.03   0.05  -0.02     0.02   0.06  -0.01     0.03   0.04  -0.02
    30   1    -0.10  -0.06   0.00    -0.08  -0.03   0.00    -0.08  -0.05   0.00
                     37                     38                     39
                      A                      A                      A
 Frequencies --   1142.2872              1148.1037              1174.5811
 Red. masses --      1.7675                 1.9065                 1.0801
 Frc consts  --      1.3588                 1.4806                 0.8779
 IR Inten    --      3.6159                 5.5863                 0.4274
  Atom  AN      X      Y      Z        X      Y      Z        X      Y      Z
     1   8     0.00   0.00  -0.01    -0.01   0.00  -0.01     0.00  -0.00  -0.00
     2   6    -0.04   0.01   0.06     0.04  -0.02   0.07    -0.01   0.00  -0.00
     3   6     0.05   0.01  -0.02    -0.02   0.00  -0.04     0.00  -0.00  -0.00
     4   6    -0.03  -0.02  -0.00     0.05   0.01   0.01    -0.02   0.00   0.01
     5   6     0.03   0.00   0.02    -0.03  -0.02  -0.01    -0.01  -0.02  -0.01
     6   6    -0.01   0.01  -0.01     0.03  -0.01   0.03     0.01  -0.01   0.01
     7   6     0.03   0.02  -0.03     0.02   0.03   0.01     0.01   0.03  -0.00
     8   6    -0.02  -0.01   0.01    -0.03  -0.01   0.01     0.01  -0.01  -0.00
     9   6    -0.03  -0.04  -0.04    -0.11   0.02  -0.14    -0.00   0.03  -0.01
    10   6     0.03   0.17   0.04     0.02  -0.04   0.14    -0.01  -0.04   0.01
[...]
 0.00001459,-0.00007690,-0.00010066,-0.00000060,0.00000156,0.00000370,0
 .00002233,-0.00009903,0.00015646,-0.00029777,-0.00039028,0.00030323,-0
 .00011059,-0.00000781,0.00009926,0.00000645,-0.00002638,-0.00011212,-0
 .00007773,-0.00007490,-0.00009492,0.00000180,-0.00001224,-0.00001869,0
 .00000106,0.00001179,-0.00001462,-0.00083950,-0.00174238,0.00390907,0.
 00617267,0.13970207,-0.00146580,0.00071148,0.00060596,0.00234026,-0.00
 236783,-0.00056192,-0.00025218,0.00042577,-0.00054295,-0.00013969,0.00
 005244,-0.00046700,-0.00007830,0.00008473,-0.00051502,-0.00095721,-0.0
 0040731,-0.00022306,0.00032036,0.00017149,0.00000263,0.00012656,-0.000
 05328,0.00001369,-0.00213605,-0.00999573,-0.02352861,-0.00776684,-0.11
 323144,-0.22037585,-0.00000764,0.00137451,0.00231882,-0.00053318,-0.00
 146942,-0.00201456,0.00006352,0.00014502,0.00003910,-0.00010408,0.0003
 6109,0.00038034,-0.00010398,-0.00007296,0.00024910,-0.00002911,-0.0001
 2676,0.00048968,0.00050365,-0.00024133,0.00060740,0.00002137,0.0000477
 0,0.00003120,0.00000906,0.00002262,0.00031234,0.00014365,0.00020364,-0
 .00005402,0.00003216,0.00005400,-0.00002338,-0.00002823,-0.00000091,0.
 00008735,0.00115929,0.00330270,-0.00343803,0.00939880,0.12091454,0.242
 00164,-0.00042303,-0.00000888,0.00023742,0.00107706,-0.00000984,-0.001
 27600,-0.00021120,0.00022505,0.00020845,-0.00007945,0.00005744,-0.0000
 4892,0.00017634,0.00005463,-0.00001972,-0.00091439,0.00014446,0.000615
 92,0.00027490,-0.00017754,-0.00017596,-0.00008161,-0.00005985,0.000185
 45,-0.00358181,0.00367099,-0.00008176,0.00463462,0.01371044,-0.0178940
 0,-0.06776518,-0.04508883,0.05360166,0.00097184,0.00092652,-0.00123782
 ,0.00008216,0.00010864,0.00003115,0.00003199,-0.00002733,-0.00001557,0
 .00006167,-0.00004773,0.00002308,0.00001799,-0.00000088,0.00005578,-0.
 00001839,0.00004263,0.00019161,0.00054260,-0.00054453,-0.00026237,0.00
 000221,-0.00000547,0.00004953,0.00001355,0.00002046,-0.00003028,0.0000
 3064,-0.00003105,-0.00001370,0.00002672,-0.00004888,0.00000615,-0.0000
 3066,-0.00016594,0.00015863,0.00066416,-0.00075877,0.00034049,0.073392
 26,0.00092110,-0.00011789,-0.00023021,-0.00159512,0.00066857,0.0014048
 8,0.00024078,-0.00023852,-0.00024233,-0.00006012,-0.00005482,0.0001091
 8,0.00000971,0.00003943,0.00007964,0.00062727,0.00033796,-0.00020433,-
 0.00002130,-0.00001935,-0.00010040,0.00004409,0.00005544,-0.00007302,0
 .00380928,-0.00370089,-0.00067745,-0.00628621,-0.01578770,0.01922672,-
 0.04446245,-0.14635311,0.11883559,-0.00177700,0.00085673,0.00016734,-0
 .00004491,-0.00014168,-0.00001946,0.00003013,-0.00001095,-0.00001064,-
 0.00004085,-0.00002728,-0.00003954,-0.00004503,-0.00005382,-0.00002514
 ,0.00000755,0.00005238,0.00010438,-0.00007055,0.00000091,-0.00012378,0
 .00002167,0.00000298,0.00001395,-0.00004551,-0.00004196,0.00004261,-0.
 00001871,-0.00002176,0.00001429,0.00001565,-0.00000678,0.00000844,0.00
 010969,0.00010392,0.00016857,-0.00066434,0.00040473,-0.00046622,0.0461
 5241,0.15832533,-0.00048217,-0.00004028,0.00005015,0.00093635,-0.00010
 737,-0.00010295,-0.00017104,0.00014236,0.00002002,-0.00000270,0.000009
 27,0.00001121,-0.00004548,0.00005811,-0.00008597,-0.00004903,-0.000318
 92,0.00010049,0.00001202,0.00000953,0.00004321,0.00000035,-0.00002937,
 0.00001927,-0.00068918,0.00082529,0.00123561,0.00044655,0.00085039,-0.
 00231858,0.05269441,0.11875991,-0.19463321,0.00078839,-0.00032868,0.00
 006397,0.00002166,0.00007061,0.00000243,-0.00001039,0.00000217,0.00000
 957,0.00000986,0.00001747,0.00000431,0.00002748,0.00002412,0.00002009,
 -0.00000816,0.00001866,0.00006255,-0.00022669,-0.00001670,-0.00004412,
 0.00000433,-0.00001107,0.00002781,0.00002000,0.00002301,-0.00002172,0.
 00000733,0.00001663,-0.00000209,-0.00001366,0.00001281,-0.00000511,0.0
 0011285,-0.00026576,0.00035006,-0.00041337,0.00018748,0.00055628,-0.05
 866929,-0.13184366,0.20804180,0.00004196,0.00003617,-0.00008257,-0.000
 31086,-0.00031548,0.00012811,0.00006859,-0.00011659,0.00002132,-0.0000
 3846,-0.00003073,0.00018113,-0.00005096,0.00000073,-0.00029298,0.00028
 312,-0.00019473,-0.00042091,0.00000624,0.00009065,0.00007845,-0.000000
 11,0.00000158,-0.00003167,0.00081765,-0.00095999,0.00044012,-0.0014223
 8,0.01196274,0.01998789,-0.05038008,0.00469817,0.00842984,0.00163812,0
 .00049461,0.00137051,-0.00000062,-0.00001427,0.00001725,0.00000042,-0.
 00003318,-0.00003509,0.00003898,-0.00001397,-0.00001264,0.00000293,-0.
 00004014,0.00001317,-0.00002416,0.00009012,0.00025873,-0.00018551,0.00
 010352,-0.00004526,0.00001664,-0.00001387,0.00002698,0.00000798,0.0000
 0935,-0.00001936,-0.00000595,0.00001150,-0.00000070,-0.00000737,0.0000
 1278,-0.00000087,0.00002785,-0.00004179,-0.00051131,-0.00286319,0.0035
 3377,-0.00041562,-0.00106303,0.00556065,0.00798403,0.05092736,-0.00028
 724,0.00000683,0.00012232,0.00051481,0.00024663,-0.00000244,-0.0001000
 5,0.00012066,-0.00013284,-0.00003072,-0.00004655,0.00000610,0.00000615
 ,0.00015275,-0.00033730,0.00019339,-0.00037402,-0.00007032,-0.00015660
 ,0.00006881,0.00009993,0.00004950,0.00002167,-0.00005326,-0.00064117,0
 .00116425,-0.00124581,0.00108414,-0.01551772,-0.02229582,0.00466227,-0
 .12150977,-0.11586326,-0.00154565,0.00044360,0.00017076,0.00001438,0.0
 0004168,0.00001288,-0.00003757,0.00008662,0.00008039,-0.00001633,-0.00
 002499,0.00004611,-0.00000734,-0.00003460,0.00009999,0.00014710,0.0000
 5709,0.00023809,-0.00050533,-0.00015994,-0.00002388,0.00001787,-0.0000
 1430,0.00007366,0.00000473,-0.00000593,0.00001696,-0.00000977,0.000032
 90,-0.00000006,-0.00001736,0.00002093,0.00001363,0.00021526,-0.0000525
 4,0.00084859,0.00414317,-0.00339154,0.00080286,-0.00030367,0.01244809,
 0.01759657,-0.00855261,0.13203152,0.00012606,-0.00002701,-0.00007384,-
 0.00025376,0.00022384,0.00024584,0.00001828,-0.00003761,-0.00005077,0.
 00003855,0.00004541,0.00002471,-0.00013548,0.00020635,-0.00011189,0.00
 026536,-0.00023021,0.00019118,-0.00006500,-0.00000596,0.00001397,0.000
 01130,0.00002228,-0.00002529,0.00046021,0.00031312,0.00112073,0.000016
 31,0.00151502,0.00238448,0.00840700,-0.11593382,-0.23361218,-0.0000386
 1,0.00023759,0.00016856,-0.00000024,-0.00002427,0.00000610,-0.00001071
 ,0.00000724,0.00001697,-0.00001732,0.00000316,0.00000082,-0.00001021,-
 0.00004123,0.00002758,0.00003117,0.00002333,0.00007800,-0.00018608,0.0
 0010257,-0.00002414,0.00001638,-0.00000129,0.00001620,-0.00001930,-0.0
 0002864,0.00001618,-0.00000681,-0.00000089,0.00000105,-0.00000053,0.00
 000518,0.00000756,-0.00001748,-0.00055940,0.00035352,-0.00036336,0.000
 88272,0.00139371,0.00003377,-0.01356663,-0.02015333,-0.00927384,0.1285
 9100,0.25248039,0.00046369,0.00028208,-0.00014328,-0.00033619,-0.00037
 531,-0.00007302,0.00002623,0.00003365,0.00006895,-0.00014004,0.0000460
 0,0.00008656,0.00022251,0.00007281,-0.00031169,-0.00063795,-0.00019684
 ,0.00051062,0.00049404,-0.00019488,-0.00019592,-0.00006141,-0.00003444
 ,0.00021495,-0.00042115,-0.00038909,0.00048449,-0.01833029,-0.00937382
 ,-0.00358821,-0.27014849,-0.08417391,-0.04960476,-0.00248405,0.0056272
 5,-0.00036014,0.00006946,0.00002711,0.00003547,0.00001331,-0.00004413,
 -0.00003110,0.00010097,-0.00007404,0.00003229,-0.00000416,-0.00012571,
 0.00016682,0.00012027,0.00011564,0.00058058,0.00077881,-0.00101033,0.0
 0013873,0.00000870,-0.00001186,0.00010249,0.00002105,0.00004500,-0.000
 06423,0.00004814,-0.00003873,-0.00002780,0.00003163,-0.00006502,0.0000
 2585,0.00005802,-0.00004373,0.00010800,0.00080807,-0.00006236,0.000518
 96,-0.00754244,-0.00311514,-0.00155396,0.00271403,0.00065718,0.0002843
 5,0.29473623,-0.00031969,0.00001700,0.00008770,0.00033054,-0.00005595,
 -0.00022374,-0.00006427,0.00003980,0.00002972,0.00017874,0.00001812,-0
 .00014288,-0.00005892,-0.00054250,0.00059108,-0.00046308,-0.00067130,0
 .00138776,0.00001674,-0.00014856,-0.00007935,0.00000961,-0.00001615,0.
 00004326,-0.00022069,0.00110933,-0.00034841,0.02304250,0.01126338,0.00
 525271,-0.08533741,-0.08224277,-0.01962986,0.00264329,-0.00408292,0.00
 060541,-0.00003124,0.00001308,-0.00003334,-0.00001459,-0.00001588,0.00
 001057,-0.00006027,0.00007998,-0.00000599,-0.00000131,0.00008036,-0.00
 006578,-0.00010147,-0.00052406,-0.00053932,-0.00009716,-0.00100298,0.0
 0100875,-0.00001505,0.00002432,-0.00006901,0.00000151,0.00000663,-0.00
 000097,-0.00000393,-0.00000117,0.00001083,-0.00000295,-0.00000412,-0.0
 0001525,0.00001454,-0.00005171,0.00000009,-0.00089062,0.00122182,-0.00
 022117,-0.01776378,-0.00736771,-0.00537254,-0.01585158,-0.00655666,-0.
 00190448,0.09340322,0.08859334,0.00024193,-0.00006175,-0.00003996,-0.0
 0003333,0.00014675,0.00009518,-0.00001354,0.00005089,0.00000794,-0.000
 10044,-0.00002421,-0.00006566,0.00023539,-0.00008186,0.00039569,-0.000
 61943,0.00114092,-0.00023218,0.00020620,-0.00020967,-0.00023534,-0.000
 04489,0.00000259,0.00013348,-0.00061633,-0.00059128,-0.00005888,-0.000
 99377,-0.00130128,-0.00207742,-0.04886577,-0.01877806,-0.06020106,-0.0
 0003849,0.00051672,0.00016323,0.00002169,-0.00000146,-0.00000835,0.000
 04601,-0.00005826,-0.00003467,0.00003107,-0.00004485,-0.00001393,-0.00
 000358,0.00002154,-0.00003175,-0.00002724,-0.00007196,0.00003869,0.000
 61968,0.00073704,-0.00136479,0.00000288,0.00000938,0.00003205,-0.00001
 110,0.00000277,0.00000608,0.00002040,-0.00004477,-0.00000932,0.0000354
 1,-0.00005154,0.00000128,0.00000761,0.00003833,0.00009191,0.00034520,0
 .00035446,0.00034701,0.02361944,0.00840307,0.00622030,-0.02672858,-0.0
 0956289,-0.00500827,0.05269096,0.01960006,0.06067814,0.00202107,0.0023
 8915,-0.00186978,-0.00346243,-0.00090341,0.00085157,0.00042920,-0.0000
 4885,0.00036647,-0.00002017,0.00022664,-0.00011002,0.00000795,0.000073
 13,-0.00010773,-0.00010064,0.00002428,-0.00006672,0.00002318,0.0000017
 5,-0.00000040,-0.00006088,0.00007597,0.00014406,0.00082814,0.00034375,
 -0.00059062,-0.01995735,0.02249860,-0.00191981,-0.00527614,-0.00431791
 ,-0.00070985,-0.18318525,0.13566566,-0.01664611,0.00001798,-0.00004845
 ,0.00000372,-0.00001963,-0.00001756,-0.00002972,0.00011566,-0.00000979
 ,0.00006308,0.00002600,-0.00002042,0.00003520,0.00003566,0.00001997,0.
 00010916,0.00021009,-0.00001246,-0.00011271,-0.00000540,-0.00002098,0.
 00000781,0.00002342,-0.00000299,-0.00001369,0.00005505,0.00000015,-0.0
 0004374,-0.00000586,-0.00002968,0.00000615,0.00010213,-0.00019178,0.00
 019441,0.00124027,-0.00002164,-0.00022770,0.00028695,-0.00020357,-0.00
 011111,0.00015864,-0.00008254,0.00018982,-0.00143274,0.00156524,-0.000
 09590,0.19926668,0.00164914,-0.00435098,0.00082411,-0.00336462,0.00009
 900,0.00065422,0.00035243,-0.00012434,-0.00000414,-0.00002477,0.000142
 35,-0.00010766,-0.00004373,0.00003399,-0.00007006,0.00007086,-0.000069
 72,-0.00010492,0.00000536,0.00001401,0.00002343,-0.00000167,0.00011690
 ,0.00014190,0.00070516,0.00024462,0.00042949,-0.00997280,0.01264024,-0
 .00162422,-0.00300339,-0.00116438,0.00011073,0.13952558,-0.19034123,0.
 01654685,0.00000015,-0.00001032,0.00000734,-0.00001718,-0.00001892,-0.
 00000735,0.00006936,-0.00000173,0.00005050,0.00002508,-0.00000966,0.00
 000812,0.00001353,-0.00001048,0.00004666,0.00014485,-0.00001201,-0.000
 04655,-0.00000151,-0.00002022,-0.00000572,0.00002101,-0.00000114,-0.00
 001656,0.00006525,0.00000984,-0.00006493,-0.00001228,-0.00001420,-0.00
 000178,0.00007088,0.00000253,-0.00012308,0.00069542,0.00058062,-0.0000
 4316,0.00000372,-0.00007363,-0.00021933,-0.00014107,0.00002899,0.00016
 502,-0.00096852,0.00083259,-0.00013280,-0.14818438,0.20571278,-0.00135
 799,0.00089426,-0.00098381,0.00214162,-0.00004566,0.00027444,-0.000440
 55,0.00004647,0.00012673,-0.00001396,-0.00009932,0.00016285,-0.0000047
 4,-0.00001948,0.00005380,-0.00008736,0.00009901,-0.00007975,0.00004991
 ,-0.00001408,-0.00001719,-0.00003465,-0.00014008,-0.00009966,0.0000495
 6,-0.00016649,0.00017107,-0.00113858,0.00123297,-0.00144187,-0.0001212
 5,0.00013018,0.00022209,-0.01862972,0.01785816,-0.05338216,0.00000995,
 0.00001587,0.00000352,0.00001454,-0.00000514,-0.00005066,-0.00004233,-
 0.00000278,-0.00006583,-0.00001438,-0.00000327,-0.00002336,-0.00002463
 ,0.00002774,-0.00003955,-0.00009427,0.00000216,0.00000485,0.00000646,0
 .00000666,-0.00000492,-0.00002322,-0.00000094,0.00000002,-0.00006465,-
 0.00001225,0.00006181,0.00001403,0.00001959,-0.00001955,0.00002308,-0.
 00024046,-0.00007898,0.00001377,0.00049512,0.00001420,0.00003171,-0.00
 043871,0.00023701,-0.00039964,0.00033366,0.00025168,-0.00005826,0.0000
 1399,0.00064390,0.02007500,-0.01924658,0.05258297,0.00132554,0.0011303
 5,-0.00037456,-0.00184737,0.00061999,-0.00011906,0.00028195,-0.0000078
 6,0.00001991,-0.00000927,0.00009867,-0.00001608,0.00000274,0.00006583,
 0.00017700,0.00063120,-0.00130042,0.00144699,-0.00070120,-0.00011394,-
 0.00011260,-0.00005343,0.00014333,0.00002198,-0.00591013,-0.00203326,-
 0.00152111,-0.00681563,-0.01623782,0.02600490,0.00115560,-0.00116593,0
 .00142807,-0.05769401,-0.02472304,0.03871585,-0.00000862,-0.00007226,-
 0.00001337,0.00000820,-0.00001649,-0.00000945,0.00001810,-0.00001495,0
 .00002261,-0.00003670,-0.00004561,-0.00005797,0.00002045,-0.00000158,-
 0.00006314,0.00000150,0.00008181,0.00000814,0.00002779,0.00002680,-0.0
 0001134,-0.00005073,-0.00017116,0.00022473,0.00001733,-0.00001694,-0.0
 0002223,0.00001587,-0.00002602,0.00000785,0.00000734,0.00029656,-0.000
 20550,0.00136526,0.00039556,-0.00031778,-0.00049638,0.00074944,-0.0005
 7656,-0.00008874,0.00006495,-0.00007667,0.00045882,0.00004018,-0.00031
 612,0.00631949,0.00999477,-0.02009423,0.06262648,-0.00039891,-0.001371
 10,0.00070561,0.00068309,0.00081850,-0.00015585,-0.00017860,0.00000299
 ,-0.00028923,-0.00004264,-0.00009895,0.00012984,0.00002609,0.00002889,
 0.00011250,0.00060840,-0.00035545,0.00082258,-0.00039151,-0.00005392,-
 0.00008906,0.00000188,0.00004542,-0.00007835,-0.00277314,-0.00035316,-
 0.00102284,-0.00212169,-0.00860331,0.01118785,0.00115264,0.00023213,-0
 .00034442,-0.02558982,-0.12627099,0.11553274,0.00000608,-0.00002757,-0
 .00000796,0.00003042,-0.00000858,-0.00001739,-0.00005657,-0.00002283,-
 0.00005083,-0.00003453,-0.00002739,-0.00003272,0.00000563,0.00001511,-
 0.00003650,-0.00010941,0.00005428,-0.00000992,0.00001807,0.00002230,-0
 .00000567,-0.00004687,-0.00010183,0.00013137,-0.00002769,-0.00002220,0
 .00001894,0.00002218,-0.00000344,0.00000167,0.00002106,0.00025251,0.00
 004432,0.00041259,-0.00001214,-0.00011914,0.00002518,0.00064775,-0.000
 16887,0.00004775,0.00005205,-0.00008343,0.00004318,-0.00000846,-0.0002
 5309,-0.00633333,-0.01108114,0.01916565,0.03062502,0.13382201,0.000170
 16,0.00053596,0.00002147,-0.00027917,-0.00021599,-0.00005266,0.0000178
 3,0.00007648,-0.00004406,-0.00000637,0.00000116,-0.00004388,0.00014692
 ,0.00003267,-0.00004743,-0.00041845,0.00007307,0.00042116,-0.00000999,
 -0.00007005,0.00001849,-0.00000959,0.00002194,0.00005738,-0.00023950,-
 0.00027721,0.00071886,-0.00139034,-0.00215403,0.00187993,-0.00043086,-
 0.00004967,-0.00009936,0.04032382,0.11550407,-0.22419902,0.00000343,0.
 00003435,-0.00000309,-0.00001188,-0.00000949,0.00000719,0.00002191,0.0
 0001308,0.00001196,0.00003611,0.00004670,0.00003425,-0.00002215,-0.000
 00332,0.00000333,0.00007942,-0.00003551,-0.00001627,-0.00001540,0.0000
 0086,0.00001154,0.00001182,0.00000612,0.00000107,0.00002561,0.00001449
 ,-0.00001582,-0.00000892,-0.00000909,0.00000075,-0.00006676,-0.0000127
 1,0.00058159,0.00051391,0.00014552,0.00087621,0.00035700,-0.00042273,0
 .00047467,-0.00002065,0.00008823,0.00000391,0.00002141,-0.00031159,0.0
 0027749,-0.00024994,0.00016426,-0.00151586,-0.04294723,-0.12816030,0.2
 4144561,0.00030925,0.00012029,-0.00050124,-0.00042895,0.00008701,-0.00
 000469,0.00001638,0.00003370,0.00000582,-0.00000865,0.00005770,-0.0000
 5389,-0.00009007,0.00006096,-0.00015174,-0.00005745,0.00019331,-0.0000
 1823,0.00000536,0.00001477,0.00003712,0.00000250,0.00001117,0.00002315
 ,0.00118088,0.00074246,-0.00155199,-0.00340065,-0.01966969,-0.02601751
 ,0.00191224,-0.00097871,-0.00079232,-0.04937806,-0.00694391,-0.0096833
 9,0.00001058,-0.00000467,0.00001089,-0.00001885,0.00006152,0.00003540,
 0.00000585,-0.00001328,0.00003464,0.00000087,-0.00005840,0.00010920,0.
 00011891,-0.00006083,0.00015738,-0.00004754,-0.00000420,0.00002172,0.0
 0000062,-0.00000896,0.00002736,0.00000658,0.00000100,-0.00000394,0.000
 00444,0.00000680,-0.00000545,-0.00000489,0.00000285,0.00000801,0.00020
 025,0.00010773,0.00079680,-0.00573742,-0.00276424,-0.00041475,-0.00008
 009,0.00015138,-0.00004283,-0.00030907,0.00051906,0.00057683,0.0003649
 1,0.00005192,0.00038462,0.00235894,0.01232339,0.02021478,-0.00057144,0
 .00437544,0.00439785,0.05363456,-0.00029815,0.00002412,0.00086313,0.00
 032099,-0.00009817,-0.00024139,-0.00006312,0.00006823,-0.00022761,-0.0
 0001489,-0.00006094,-0.00004687,0.00010677,0.00007805,-0.00012993,-0.0
 0005222,0.00018558,0.00035483,-0.00004776,-0.00004284,-0.00001995,0.00
 002580,0.00001333,-0.00002568,0.00058011,0.00028334,-0.00147003,-0.001
 01864,-0.00967624,-0.01122054,0.00094553,0.00043993,0.00069451,-0.0077
 2999,-0.14230301,-0.12226749,0.00000295,0.00001574,-0.00000022,-0.0000
 0924,0.00004623,0.00006458,-0.00003645,-0.00001706,0.00001955,0.000008
 93,0.00000111,0.00008647,0.00007039,-0.00001782,0.00009484,-0.00000968
 ,-0.00000519,-0.00001262,-0.00000785,0.00000979,0.00005013,0.00000485,
 0.00000323,0.00002190,0.00000145,0.00000724,0.00000300,0.00000218,-0.0
 0000937,0.00002314,-0.00022637,-0.00004802,0.00102488,-0.00283050,-0.0
 0036597,0.00014209,-0.00009960,0.00007360,0.00009816,-0.00033408,0.000
 66351,0.00010104,-0.00005527,-0.00000687,0.00024521,-0.00243456,-0.013
 15439,-0.01990624,0.00161400,0.01242851,0.01497274,0.01158444,0.151464
 33,-0.00006267,-0.00034899,0.00023841,0.00023708,0.00025092,-0.0000321
 5,-0.00005228,0.00001333,-0.00007806,0.00000590,-0.00000592,-0.0000275
 3,0.00009578,0.00008449,-0.00007513,0.00007665,-0.00005174,0.00028207,
 -0.00009354,-0.00001873,-0.00002659,0.00000830,0.00002459,-0.00001907,
 0.00021607,0.00075543,0.00114607,-0.00062676,-0.00121359,-0.00302986,0
 .00055851,-0.00002482,0.00025012,-0.01071255,-0.12216231,-0.21210756,0
 .00000668,0.00000650,-0.00000553,-0.00000709,0.00002341,0.00002442,-0.
 00001581,-0.00001088,0.00000962,-0.00000160,0.00002020,0.00002247,0.00
 003345,-0.00001559,-0.00000748,-0.00003032,0.00000588,-0.00000265,0.00
 000528,0.00000693,0.00000488,-0.00002096,-0.00003009,0.00002981,-0.000
 00576,-0.00000350,0.00000094,0.00000507,-0.00000241,0.00000934,-0.0001
 9769,-0.00040806,0.00044340,-0.00073140,0.00010441,0.00141774,-0.00002
 183,-0.00009441,-0.00018371,-0.00064585,0.00034615,0.00025657,-0.00005
 912,0.00032176,0.00024922,0.00085909,0.00264620,0.00299223,-0.00122303
 ,-0.01692754,-0.02080940,0.01240040,0.13670836,0.22902741\\0.00003113,
 -0.00003445,0.00001837,0.00000754,-0.00001212,-0.00003221,0.00000167,-
 0.00001662,0.00002016,0.00001106,0.00000689,-0.00003067,-0.00001641,-0
 .00000288,0.00000399,0.00000022,-0.00000207,0.00001289,-0.00001482,0.0
 0002436,-0.00001076,-0.00000833,-0.00000035,0.00000226,-0.00003435,-0.
 00000824,-0.00003293,0.00002130,0.00003959,0.00000878,-0.00000023,0.00
 001281,-0.00002435,-0.00000058,-0.00003748,0.00002088,-0.00000403,0.00
 000400,-0.00000414,-0.00001123,-0.00000631,0.00001393,0.00000081,-0.00
 000241,0.00001506,0.00000492,-0.00000142,-0.00000302,0.00001615,0.0000
 0688,0.00000787,0.00000584,-0.00001653,0.00000185,0.00000496,0.0000075
 8,-0.00000410,0.00000220,-0.00000490,-0.00000160,0.00001017,0.00000077
 ,0.00001057,0.00000961,0.00001305,-0.00000231,-0.00000499,-0.00000823,
 0.00000162,0.00000318,0.00001373,-0.00001048,-0.00000490,0.00000057,0.
 00001108,-0.00000949,0.00000804,-0.00000617,0.00000924,0.00000766,0.00
 000469,-0.00001559,-0.00002908,0.00000206,-0.00000109,0.00001475,-0.00
 002488,-0.00001396,0.00002241,0.00003156\\\@


 WHEN ALL ELSE FAILS, LOOK AT THE SCHRODINGER EQUATION.
     -- RUSSELL T. PACK, APRIL 1978
 Job cpu time:       0 days  0 hours  3 minutes 13.4 seconds.
 Elapsed time:       0 days  0 hours  3 minutes 18.8 seconds.
 File lengths (MBytes):  RWF=    166 Int=      0 D2E=      0 Chk=     16 Scr=      1
 Normal termination of Gaussian 16 at Sat Feb 24 05:04:02 2024.
