 Entering Gaussian System, Link 0=g16
 Input=/Volumes/SSD-PMU3/b3lyp_6-31gd_freq/JCIMXPHFZLCWHT-AEJSXWLSSA-N_calculating/gaussianinput0.gjf
 Output=/Volumes/SSD-PMU3/b3lyp_6-31gd_freq/JCIMXPHFZLCWHT-AEJSXWLSSA-N_calculating/gaussianinput0.log
 Initial command:
 /Applications/g16/l1.exe "/Users/macmini_m1_2022/PycharmProjects/sphere_model/sphere_model_lib/Gau-94075.inp" -scrdir="/Users/macmini_m1_2022/PycharmProjects/sphere_model/sphere_model_lib/"
 Entering Link 1 = /Applications/g16/l1.exe PID=     94076.
  
 Copyright (c) 1988,1990,1992,1993,1995,1998,2003,2009,2016,
            Gaussian, Inc.  All Rights Reserved.
  
 This is part of the Gaussian(R) 16 program.  It is based on
 the Gaussian(R) 09 system (copyright 2009, Gaussian, Inc.),
 the Gaussian(R) 03 system (copyright 2003, Gaussian, Inc.),
 the Gaussian(R) 98 system (copyright 1998, Gaussian, Inc.),
 the Gaussian(R) 94 system (copyright 1995, Gaussian, Inc.),
 the Gaussian 92(TM) system (copyright 1992, Gaussian, Inc.),
 the Gaussian 90(TM) system (copyright 1990, Gaussian, Inc.),
 the Gaussian 88(TM) system (copyright 1988, Gaussian, Inc.),
 the Gaussian 86(TM) system (copyright 1986, Carnegie Mellon
 University), and the Gaussian 82(TM) system (copyright 1983,
 Carnegie Mellon University). Gaussian is a federally registered
 trademark of Gaussian, Inc.
  
 This software contains proprietary and confidential information,
 including trade secrets, belonging to Gaussian, Inc.
  
 This software is provided under written license and may be
 used, copied, transmitted, or stored only in accord with that
 written license.
  
 The following legend is applicable only to US Government
 contracts under FAR:
  
                    RESTRICTED RIGHTS LEGEND
  
 Use, reproduction and disclosure by the US Government is
 subject to restrictions as set forth in subparagraphs (a)
 and (c) of the Commercial Computer Software - Restricted
 Rights clause in FAR 52.227-19.
  
 Gaussian, Inc.
 340 Quinnipiac St., Bldg. 40, Wallingford CT 06492
  
  
 ---------------------------------------------------------------
 Warning -- This program may not be used in any manner that
 competes with the business of Gaussian, Inc. or will provide
 assistance to any competitor of Gaussian, Inc.  The licensee
 of this program is prohibited from giving any competitor of
 Gaussian, Inc. access to this program.  By using this program,
 the user acknowledges that Gaussian, Inc. is engaged in the
 business of creating and licensing software in the field of
 computational chemistry and represents and warrants to the
 licensee that it is not a competitor of Gaussian, Inc. and that
 it will not use this program in any manner prohibited above.
 ---------------------------------------------------------------
  

 Cite this work as:
 Gaussian 16, Revision A.03,
 M. J. Frisch, G. W. Trucks, H. B. Schlegel, G. E. Scuseria, 
 M. A. Robb, J. R. Cheeseman, G. Scalmani, V. Barone, 
 G. A. Petersson, H. Nakatsuji, X. Li, M. Caricato, A. V. Marenich, 
 J. Bloino, B. G. Janesko, R. Gomperts, B. Mennucci, H. P. Hratchian, 
 J. V. Ortiz, A. F. Izmaylov, J. L. Sonnenberg, D. Williams-Young, 
 F. Ding, F. Lipparini, F. Egidi, J. Goings, B. Peng, A. Petrone, 
 T. Henderson, D. Ranasinghe, V. G. Zakrzewski, J. Gao, N. Rega, 
 G. Zheng, W. Liang, M. Hada, M. Ehara, K. Toyota, R. Fukuda, 
 J. Hasegawa, M. Ishida, T. Nakajima, Y. Honda, O. Kitao, H. Nakai, 
 T. Vreven, K. Throssell, J. A. Montgomery, Jr., J. E. Peralta, 
 F. Ogliaro, M. J. Bearpark, J. J. Heyd, E. N. Brothers, K. N. Kudin, 
 V. N. Staroverov, T. A. Keith, R. Kobayashi, J. Normand, 
 K. Raghavachari, A. P. Rendell, J. C. Burant, S. S. Iyengar, 
 J. Tomasi, M. Cossi, J. M. Millam, M. Klene, C. Adamo, R. Cammi, 
 J. W. Ochterski, R. L. Martin, K. Morokuma, O. Farkas, 
 J. B. Foresman, and D. J. Fox, Gaussian, Inc., Wallingford CT, 2016.
 
 ******************************************
 Gaussian 16:  EM64M-G16RevA.03 25-Dec-2016
                24-Feb-2024 
 ******************************************
 %nprocshared=10
 Will use up to   10 processors via shared memory.
 %mem=12GB
 %chk= 0.chk
 ---------------------
 # freq b3lyp/6-31g(d)
 ---------------------
 1/10=4,30=1,38=1/1,3;
 2/12=2,17=6,18=5,40=1/2;
 3/5=1,6=6,7=1,11=2,25=1,30=1,71=2,74=-5,140=1/1,2,3;
 4//1;
 5/5=2,38=5,98=1/2;
 8/6=4,10=90,11=11/1;
 11/6=1,8=1,9=11,15=111,16=1/1,2,10;
 10/6=1/2;
 6/7=2,8=2,9=2,10=2,28=1/1;
 7/8=1,10=1,25=1/1,2,3,16;
 1/10=4,30=1/3;
 99//99;
 ---------
 good luck
 ---------
 Symbolic Z-matrix:
 Charge =  0 Multiplicity = 1
 O                     1.2173    0.        0. 
 C                     0.        0.        0. 
 C                    -0.84776  -1.26495  -0.01291 
 C                    -1.51394  -1.3325   -1.41141 
 C                    -2.32053  -0.02615  -1.67367 
 C                    -2.2981    0.87164  -0.41425 
 C                    -2.89041   0.04886   0.75203 
 C                    -1.95309  -1.15763   1.06343 
 C                    -0.85058   1.27773  -0.01291 
 C                    -0.14845   2.46735  -0.71801 
 C                    -0.83807   3.80055  -0.39196 
 C                     0.04616   2.31321  -2.23462 
 H                    -0.2001   -2.13006   0.1574 
 H                    -2.16687  -2.21339  -1.44247 
 H                    -0.74787  -1.48242  -2.18005 
 H                    -1.91465   0.50649  -2.53672 
 H                    -3.36317  -0.26249  -1.9183 
 H                    -2.90877   1.76614  -0.58362 
 H                    -3.89302  -0.30126   0.47794 
 H                    -3.0116    0.68132   1.63943 
 H                    -2.51919  -2.09641   1.08211 
 H                    -1.49606  -1.05265   2.05438 
 H                    -0.9023    1.57238   1.05019 
 H                     0.85472   2.48919  -0.2736 
 H                    -0.27063   4.64091  -0.80883 
 H                    -0.92052   3.95821   0.69044 
 H                    -1.8495    3.84961  -0.8147 
 H                    -0.9006    2.39365  -2.78137 
 H                     0.51493   1.35645  -2.48808 
 H                     0.7021    3.10847  -2.60802 
 

 GradGradGradGradGradGradGradGradGradGradGradGradGradGradGradGradGradGrad
 Berny optimization.
 Initialization pass.
 Trust Radius=3.00D-01 FncErr=1.00D-07 GrdErr=1.00D-07 EigMax=2.50D+02 EigMin=1.00D-04
 Number of steps in this run=      2 maximum allowed number of steps=      2.
 GradGradGradGradGradGradGradGradGradGradGradGradGradGradGradGradGradGrad

                          Input orientation:                          
 ---------------------------------------------------------------------
 Center     Atomic      Atomic             Coordinates (Angstroms)
 Number     Number       Type             X           Y           Z
 ---------------------------------------------------------------------
      1          8           0        1.217303    0.000000    0.000000
      2          6           0        0.000000    0.000000    0.000000
      3          6           0       -0.847762   -1.264954   -0.012906
      4          6           0       -1.513936   -1.332503   -1.411407
      5          6           0       -2.320526   -0.026153   -1.673674
      6          6           0       -2.298103    0.871636   -0.414248
      7          6           0       -2.890408    0.048858    0.752028
      8          6           0       -1.953090   -1.157626    1.063429
      9          6           0       -0.850584    1.277725   -0.012906
     10          6           0       -0.148450    2.467348   -0.718014
     11          6           0       -0.838069    3.800554   -0.391955
     12          6           0        0.046158    2.313213   -2.234616
     13          1           0       -0.200099   -2.130063    0.157395
     14          1           0       -2.166865   -2.213394   -1.442474
     15          1           0       -0.747870   -1.482420   -2.180050
     16          1           0       -1.914652    0.506493   -2.536720
     17          1           0       -3.363168   -0.262490   -1.918304
     18          1           0       -2.908766    1.766141   -0.583623
     19          1           0       -3.893016   -0.301261    0.477940
     20          1           0       -3.011597    0.681320    1.639428
     21          1           0       -2.519194   -2.096413    1.082108
     22          1           0       -1.496059   -1.052651    2.054384
     23          1           0       -0.902304    1.572383    1.050189
     24          1           0        0.854719    2.489190   -0.273599
     25          1           0       -0.270629    4.640914   -0.808834
     26          1           0       -0.920522    3.958206    0.690435
     27          1           0       -1.849503    3.849609   -0.814699
     28          1           0       -0.900599    2.393646   -2.781374
     29          1           0        0.514925    1.356454   -2.488084
     30          1           0        0.702102    3.108469   -2.608020
 ---------------------------------------------------------------------
                    Distance matrix (angstroms):
                    1          2          3          4          5
     1  O    0.000000
     2  C    1.217303   0.000000
     3  C    2.421728   1.522818   0.000000
     4  C    3.350716   2.461633   1.550534   0.000000
     5  C    3.913835   2.861243   2.542009   1.557537   0.000000
     6  C    3.645467   2.492514   2.613347   2.543123   1.546830
     7  C    4.176269   2.987037   2.546297   2.912608   2.492874
     8  C    3.538696   2.507098   1.546534   2.519574   2.984455
     9  C    2.430824   1.535005   2.542681   3.034655   2.572737
    10  C    2.910091   2.573983   3.862162   4.096854   3.442201
    11  C    4.338478   3.911547   5.079679   5.276775   4.299322
    12  C    3.422871   3.216612   4.305620   4.050038   3.374683
    13  H    2.563390   2.145223   1.094022   2.196226   3.503635
    14  H    4.293301   3.416892   2.164079   1.096928   2.204788
    15  H    3.288175   2.740346   2.180317   1.095511   2.202357
    16  H    4.062096   3.218288   3.262808   2.192900   1.092380
    17  H    4.972877   3.880682   3.311003   2.195799   1.096723
    18  H    4.525960   3.452650   3.709581   3.497481   2.178659
    19  H    5.141454   3.933797   3.231595   3.208288   2.679151
    20  H    4.586449   3.495946   3.346696   3.950451   3.457563
    21  H    4.418972   3.451412   2.164270   2.794945   3.452503
    22  H    3.562429   2.750774   2.176936   3.477117   3.953715
    23  H    2.840426   2.095099   3.030450   3.856412   3.462095
    24  H    2.530295   2.646029   4.130375   4.637938   4.285947
    25  H    4.940267   4.718637   5.987141   6.131119   5.170255
    26  H    4.551307   4.122069   5.270805   5.723765   4.839849
    27  H    4.988840   4.347860   5.273055   5.227136   3.997653
    28  H    4.236873   3.778447   4.588307   4.017111   3.016392
    29  H    2.919566   2.880222   3.854245   3.536382   3.258013
    30  H    4.090205   4.117924   5.316345   5.105383   4.453666
                    6          7          8          9         10
     6  C    0.000000
     7  C    1.545312   0.000000
     8  C    2.533864   1.559211   0.000000
     9  C    1.556051   2.501224   2.881831   0.000000
    10  C    2.694361   3.940616   4.423879   1.550926   0.000000
    11  C    3.272729   4.426739   5.286300   2.551176   1.536010
    12  C    3.299613   4.761383   5.188527   2.610053   1.536786
    13  H    3.706561   3.512698   2.199888   3.473493   4.680299
    14  H    3.254517   3.233750   2.727617   3.995519   5.148610
    15  H    3.326088   3.941112   3.475371   3.510764   4.254118
    16  H    2.187522   3.460837   3.966339   2.845466   3.205014
    17  H    2.163975   2.729673   3.417648   3.509399   4.384874
    18  H    1.096237   2.175629   3.489199   2.190977   2.851157
    19  H    2.171505   1.096782   2.199880   3.462733   4.808043
    20  H    2.182402   1.096437   2.198621   2.784939   4.116435
    21  H    3.331258   2.202031   1.096423   3.920220   5.448741
    22  H    3.231145   2.203103   1.096307   3.181348   4.678956
    23  H    2.140999   2.522417   2.925282   1.104386   2.120330
    24  H    3.546343   4.586187   4.792776   2.108001   1.097420
    25  H    4.298117   5.512396   6.321322   3.504410   2.178891
    26  H    3.555976   4.378041   5.232309   2.772104   2.191456
    27  H    3.038079   4.240734   5.348878   2.873204   2.193986
    28  H    3.142104   4.684261   5.338706   2.985330   2.197411
    29  H    3.528310   4.878978   5.002493   2.827953   2.192556
    30  H    4.337890   5.792864   6.223275   3.535120   2.169469
                   11         12         13         14         15
    11  C    0.000000
    12  C    2.527734   0.000000
    13  H    5.990076   5.052233   0.000000
    14  H    6.247948   5.100503   2.536670   0.000000
    15  H    5.578103   3.878181   2.486593   1.758377   0.000000
    16  H    4.075523   2.683334   4.141180   2.942579   2.333317
    17  H    5.021374   4.284601   4.219166   2.337431   2.897676
    18  H    2.909185   3.428796   4.802748   4.138205   4.215590
    19  H    5.187900   5.450736   4.133389   3.213073   4.283922
    20  H    4.310494   5.198188   4.243208   4.311735   4.939093
    21  H    6.306605   6.084940   2.496884   2.551732   3.762479
    22  H    5.474589   5.665950   2.537498   3.745040   4.321449
    23  H    2.654930   3.498336   3.872761   4.705804   4.448608
    24  H    2.144578   2.128456   4.757720   5.710563   4.687913
    25  H    1.096349   2.747981   6.839934   7.139940   6.293108
    26  H    1.096914   3.492334   6.153874   6.647655   6.153853
    27  H    1.097323   2.823156   6.278692   6.103673   5.613227
    28  H    2.773558   1.096249   5.439762   4.961945   3.925405
    29  H    3.492560   1.095160   4.434593   4.585751   3.122298
    30  H    2.786046   1.096415   5.991970   6.157247   4.833409
                   16         17         18         19         20
    16  H    0.000000
    17  H    1.752704   0.000000
    18  H    2.527759   2.470465   0.000000
    19  H    3.695208   2.454430   2.523849   0.000000
    20  H    4.321350   3.697545   2.475756   1.758243   0.000000
    21  H    4.498501   3.616357   4.224423   2.339867   2.875564
    22  H    4.866661   4.460123   4.111011   2.965664   2.340021
    23  H    3.876453   4.270195   2.594759   3.575244   2.364384
    24  H    4.089281   5.297864   3.844832   5.558095   4.677228
    25  H    4.773032   5.902380   3.908300   6.261195   5.402340
    26  H    4.828783   5.530489   3.222031   5.198455   4.001395
    27  H    3.761120   4.518682   2.348675   4.803809   4.172680
    28  H    2.156271   3.723465   3.042467   5.180754   5.189592
    29  H    2.574421   4.240900   3.939096   5.565542   5.470696
    30  H    3.690903   5.325926   4.351827   6.501117   6.141940
                   21         22         23         24         25
    21  H    0.000000
    22  H    1.755439   0.000000
    23  H    4.009416   2.872587   0.000000
    24  H    5.852263   4.846679   2.383292   0.000000
    25  H    7.350053   6.489713   3.642919   2.486524   0.000000
    26  H    6.274358   5.224968   2.412863   2.497769   1.770949
    27  H    6.277065   5.691108   3.092046   3.075117   1.766081
    28  H    6.140600   5.967922   3.918590   3.062549   3.055812
    29  H    5.820175   5.521038   3.817661   2.510477   3.771558
    30  H    7.147348   6.624564   4.279740   2.419983   2.555712
                   26         27         28         29         30
    26  H    0.000000
    27  H    1.772069   0.000000
    28  H    3.808110   2.624511   0.000000
    29  H    4.351161   3.821853   1.779184   0.000000
    30  H    3.772899   3.205616   1.763427   1.766062   0.000000
 Stoichiometry    C11H18O
 Framework group  C1[X(C11H18O)]
 Deg. of freedom    84
 Full point group                 C1      NOp   1
 Largest Abelian subgroup         C1      NOp   1
 Largest concise Abelian subgroup C1      NOp   1
                         Standard orientation:                         
 ---------------------------------------------------------------------
 Center     Atomic      Atomic             Coordinates (Angstroms)
 Number     Number       Type             X           Y           Z
 ---------------------------------------------------------------------
      1          8           0        0.096606    2.253698   -0.825697
      2          6           0       -0.324692    1.143971   -0.555804
      3          6           0       -1.760517    0.861640   -0.134294
      4          6           0       -1.709548    0.476615    1.366810
      5          6           0       -0.741359   -0.726597    1.568830
      6          6           0       -0.229152   -1.229678    0.198708
      7          6           0       -1.465073   -1.615373   -0.644931
      8          6           0       -2.309616   -0.338460   -0.940531
      9          6           0        0.541241   -0.123268   -0.578239
     10          6           0        2.034392    0.156131   -0.265493
     11          6           0        2.923217   -1.033353   -0.658489
     12          6           0        2.333795    0.605837    1.173198
     13          1           0       -2.361571    1.762402   -0.290002
     14          1           0       -2.725673    0.226068    1.695394
     15          1           0       -1.391835    1.340725    1.960541
     16          1           0        0.092980   -0.441306    2.213640
     17          1           0       -1.256297   -1.551475    2.075996
     18          1           0        0.411102   -2.108197    0.340185
     19          1           0       -2.061981   -2.355664   -0.098488
     20          1           0       -1.151693   -2.094681   -1.579934
     21          1           0       -3.360314   -0.494466   -0.668796
     22          1           0       -2.299205   -0.101385   -2.010847
     23          1           0        0.529684   -0.433386   -1.638127
     24          1           0        2.292458    0.999866   -0.918059
     25          1           0        3.982816   -0.782244   -0.531314
     26          1           0        2.772217   -1.321264   -1.706118
     27          1           0        2.721187   -1.915054   -0.037275
     28          1           0        2.212956   -0.211628    1.893553
     29          1           0        1.691670    1.438367    1.479703
     30          1           0        3.372524    0.948956    1.246931
 ---------------------------------------------------------------------
 Rotational constants (GHZ):           1.3935964           0.7983104           0.7184781
 Standard basis: 6-31G(d) (6D, 7F)
 There are   216 symmetry adapted cartesian basis functions of A   symmetry.
 There are   216 symmetry adapted basis functions of A   symmetry.
   216 basis functions,   408 primitive gaussians,   216 cartesian basis functions
    46 alpha electrons       46 beta electrons
       nuclear repulsion energy       775.3533304266 Hartrees.
 NAtoms=   30 NActive=   30 NUniq=   30 SFac= 1.00D+00 NAtFMM=   60 NAOKFM=F Big=F
 Integral buffers will be    131072 words long.
 Raffenetti 2 integral format.
 Two-electron integral symmetry is turned on.
 One-electron integrals computed using PRISM.
 NBasis=   216 RedAO= T EigKep=  1.30D-03  NBF=   216
 NBsUse=   216 1.00D-06 EigRej= -1.00D+00 NBFU=   216
 ExpMin= 1.61D-01 ExpMax= 5.48D+03 ExpMxC= 8.25D+02 IAcc=3 IRadAn=         5 AccDes= 0.00D+00
 Harris functional with IExCor=  402 and IRadAn=       5 diagonalized for initial guess.
 HarFok:  IExCor=  402 AccDes= 0.00D+00 IRadAn=         5 IDoV= 1 UseB2=F ITyADJ=14
 ICtDFT=  3500011 ScaDFX=  1.000000  1.000000  1.000000  1.000000
 FoFCou: FMM=F IPFlag=           0 FMFlag=      100000 FMFlg1=           0
         NFxFlg=           0 DoJE=T BraDBF=F KetDBF=T FulRan=T
         wScrn=  0.000000 ICntrl=       500 IOpCl=  0 I1Cent=   200000004 NGrid=           0
         NMat0=    1 NMatS0=      1 NMatT0=    0 NMatD0=    1 NMtDS0=    0 NMtDT0=    0
 Petite list used in FoFCou.
 Requested convergence on RMS density matrix=1.00D-08 within 128 cycles.
 Requested convergence on MAX density matrix=1.00D-06.
 Requested convergence on             energy=1.00D-06.
 No special actions if energy rises.
 Integral accuracy reduced to 1.0D-05 until final iterations.
 Initial convergence to 1.0D-05 achieved.  Increase integral accuracy.
 SCF Done:  E(RB3LYP) =  -505.240850086     A.U. after   13 cycles
            NFock= 13  Conv=0.77D-08     -V/T= 2.0098
 DoSCS=F DFT=T ScalE2(SS,OS)=  1.000000  1.000000
 Range of M.O.s used for correlation:     1   216
 NBasis=   216 NAE=    46 NBE=    46 NFC=     0 NFV=     0
 NROrb=    216 NOA=    46 NOB=    46 NVA=   170 NVB=   170
 Symmetrizing basis deriv contribution to polar:
 IMax=3 JMax=2 DiffMx= 0.00D+00
 G2DrvN: will do    31 centers at a time, making    1 passes.
 Calling FoFCou, ICntrl=  3107 FMM=F I1Cent=   0 AccDes= 0.00D+00.
 End of G2Drv F.D. properties file   721 does not exist.
 End of G2Drv F.D. properties file   722 does not exist.
 End of G2Drv F.D. properties file   788 does not exist.
          IDoAtm=111111111111111111111111111111
          Differentiating once with respect to electric field.
                with respect to dipole field.
          Differentiating once with respect to nuclear coordinates.
 Keep R1 ints in memory in canonical form, NReq=285099474.
          There are    93 degrees of freedom in the 1st order CPHF.  IDoFFX=6 NUNeed=     3.
     90 vectors produced by pass  0 Test12= 8.41D-15 1.08D-09 XBig12= 7.74D+01 1.81D+00.
 AX will form    90 AO Fock derivatives at one time.
     90 vectors produced by pass  1 Test12= 8.41D-15 1.08D-09 XBig12= 8.67D+00 4.95D-01.
     90 vectors produced by pass  2 Test12= 8.41D-15 1.08D-09 XBig12= 4.64D-02 2.62D-02.
     90 vectors produced by pass  3 Test12= 8.41D-15 1.08D-09 XBig12= 1.18D-04 1.34D-03.
     90 vectors produced by pass  4 Test12= 8.41D-15 1.08D-09 XBig12= 1.18D-07 3.48D-05.
     43 vectors produced by pass  5 Test12= 8.41D-15 1.08D-09 XBig12= 8.29D-11 8.76D-07.
      3 vectors produced by pass  6 Test12= 8.41D-15 1.08D-09 XBig12= 5.44D-14 2.23D-08.
 InvSVY:  IOpt=1 It=  1 EMax= 1.78D-15
 Solved reduced A of dimension   496 with    93 vectors.
 Isotropic polarizability for W=    0.000000      108.81 Bohr**3.
 End of Minotr F.D. properties file   721 does not exist.
 End of Minotr F.D. properties file   722 does not exist.
 End of Minotr F.D. properties file   788 does not exist.

 **********************************************************************

            Population analysis using the SCF density.

 **********************************************************************

 Orbital symmetries:
       Occupied  (A) (A) (A) (A) (A) (A) (A) (A) (A) (A) (A) (A)
                 (A) (A) (A) (A) (A) (A) (A) (A) (A) (A) (A) (A)
                 (A) (A) (A) (A) (A) (A) (A) (A) (A) (A) (A) (A)
                 (A) (A) (A) (A) (A) (A) (A) (A) (A) (A)
       Virtual   (A) (A) (A) (A) (A) (A) (A) (A) (A) (A) (A) (A)
                 (A) (A) (A) (A) (A) (A) (A) (A) (A) (A) (A) (A)
                 (A) (A) (A) (A) (A) (A) (A) (A) (A) (A) (A) (A)
                 (A) (A) (A) (A) (A) (A) (A) (A) (A) (A) (A) (A)
                 (A) (A) (A) (A) (A) (A) (A) (A) (A) (A) (A) (A)
                 (A) (A) (A) (A) (A) (A) (A) (A) (A) (A) (A) (A)
                 (A) (A) (A) (A) (A) (A) (A) (A) (A) (A) (A) (A)
                 (A) (A) (A) (A) (A) (A) (A) (A) (A) (A) (A) (A)
                 (A) (A) (A) (A) (A) (A) (A) (A) (A) (A) (A) (A)
                 (A) (A) (A) (A) (A) (A) (A) (A) (A) (A) (A) (A)
                 (A) (A) (A) (A) (A) (A) (A) (A) (A) (A) (A) (A)
                 (A) (A) (A) (A) (A) (A) (A) (A) (A) (A) (A) (A)
                 (A) (A) (A) (A) (A) (A) (A) (A) (A) (A) (A) (A)
                 (A) (A) (A) (A) (A) (A) (A) (A) (A) (A) (A) (A)
                 (A) (A)
 The electronic state is 1-A.
 Alpha  occ. eigenvalues --  -19.13040 -10.26191 -10.19316 -10.19091 -10.19051
 Alpha  occ. eigenvalues --  -10.19027 -10.19016 -10.18831 -10.18654 -10.18418
 Alpha  occ. eigenvalues --  -10.17342 -10.17058  -1.02889  -0.85950  -0.79932
 Alpha  occ. eigenvalues --   -0.74997  -0.74281  -0.71213  -0.68044  -0.62057
 Alpha  occ. eigenvalues --   -0.61428  -0.56965  -0.55651  -0.50339  -0.48485
 Alpha  occ. eigenvalues --   -0.47308  -0.46553  -0.44470  -0.42471  -0.42106
 Alpha  occ. eigenvalues --   -0.40327  -0.39691  -0.39001  -0.38445  -0.38405
 Alpha  occ. eigenvalues --   -0.37453  -0.36919  -0.36077  -0.34828  -0.33564
 Alpha  occ. eigenvalues --   -0.33363  -0.32242  -0.30863  -0.29707  -0.29192
 Alpha  occ. eigenvalues --   -0.22835
 Alpha virt. eigenvalues --   -0.00831   0.06427   0.09212   0.10935   0.11180
 Alpha virt. eigenvalues --    0.11987   0.13613   0.14481   0.15099   0.15215
 Alpha virt. eigenvalues --    0.16716   0.16855   0.17542   0.18484   0.18788
 Alpha virt. eigenvalues --    0.19232   0.19864   0.19998   0.20775   0.21254
 Alpha virt. eigenvalues --    0.21570   0.22399   0.23802   0.25347   0.25845
 Alpha virt. eigenvalues --    0.27071   0.27473   0.29328   0.30982   0.34410
 Alpha virt. eigenvalues --    0.36441   0.38427   0.49081   0.49982   0.51176
 Alpha virt. eigenvalues --    0.52809   0.53269   0.54294   0.55111   0.59379
 Alpha virt. eigenvalues --    0.60039   0.60775   0.62222   0.63642   0.64548
 Alpha virt. eigenvalues --    0.66019   0.67340   0.67863   0.69295   0.70439
 Alpha virt. eigenvalues --    0.70754   0.71217   0.73068   0.76518   0.77262
 Alpha virt. eigenvalues --    0.78671   0.79267   0.82646   0.83080   0.83751
 Alpha virt. eigenvalues --    0.84785   0.85768   0.85829   0.87090   0.87469
 Alpha virt. eigenvalues --    0.88524   0.89415   0.89821   0.91137   0.91575
 Alpha virt. eigenvalues --    0.92889   0.93307   0.94655   0.95188   0.95692
 Alpha virt. eigenvalues --    0.96417   0.97257   0.98190   1.00671   1.01611
 Alpha virt. eigenvalues --    1.02957   1.05944   1.06656   1.13639   1.14963
 Alpha virt. eigenvalues --    1.18670   1.23065   1.27460   1.28101   1.31675
 Alpha virt. eigenvalues --    1.38869   1.40053   1.44887   1.46767   1.50187
 Alpha virt. eigenvalues --    1.55173   1.58500   1.61761   1.64851   1.67320
 Alpha virt. eigenvalues --    1.69099   1.70627   1.71619   1.73392   1.75180
 Alpha virt. eigenvalues --    1.75627   1.77855   1.80965   1.81746   1.82983
 Alpha virt. eigenvalues --    1.86637   1.89745   1.90316   1.90680   1.94898
 Alpha virt. eigenvalues --    1.95675   1.96841   1.97837   2.00855   2.02890
 Alpha virt. eigenvalues --    2.04956   2.07333   2.08204   2.09908   2.10228
 Alpha virt. eigenvalues --    2.11439   2.14767   2.15445   2.18086   2.22895
 Alpha virt. eigenvalues --    2.23387   2.25238   2.27909   2.29379   2.30876
 Alpha virt. eigenvalues --    2.36293   2.40615   2.41496   2.41631   2.44019
 Alpha virt. eigenvalues --    2.45991   2.46541   2.48095   2.52535   2.55078
 Alpha virt. eigenvalues --    2.60902   2.62762   2.66972   2.67530   2.69937
 Alpha virt. eigenvalues --    2.71515   2.72631   2.73348   2.78220   2.83051
 Alpha virt. eigenvalues --    2.88256   3.02489   3.07206   4.11387   4.13877
 Alpha virt. eigenvalues --    4.18932   4.27475   4.29215   4.34970   4.45141
 Alpha virt. eigenvalues --    4.54547   4.56430   4.67775   4.73451   4.94169
          Condensed to atoms (all electrons):
               1          2          3          4          5          6
     1  O    8.052079   0.552838  -0.065819  -0.000279  -0.000064   0.003313
     2  C    0.552838   4.560525   0.354439  -0.033851  -0.018947  -0.026651
     3  C   -0.065819   0.354439   5.143184   0.357490  -0.045340   0.023421
     4  C   -0.000279  -0.033851   0.357490   5.085914   0.344899  -0.046678
     5  C   -0.000064  -0.018947  -0.045340   0.344899   5.082162   0.382754
     6  C    0.003313  -0.026651   0.023421  -0.046678   0.382754   4.973025
     7  C    0.000055  -0.019438  -0.038365  -0.019252  -0.044520   0.374843
     8  C    0.001309  -0.030958   0.343909  -0.036424  -0.020012  -0.053800
     9  C   -0.088660   0.289110  -0.138516  -0.010819  -0.037124   0.314850
    10  C   -0.002821  -0.025612   0.005212  -0.000652  -0.002026  -0.033738
    11  C    0.000318   0.004022  -0.000155  -0.000009  -0.000040  -0.004099
    12  C   -0.001981  -0.004801  -0.000108   0.000271  -0.002230  -0.005465
    13  H    0.003886  -0.031306   0.348477  -0.032476   0.005269  -0.000550
    14  H   -0.000067   0.004321  -0.032508   0.367146  -0.029111   0.001349
    15  H    0.001338  -0.003330  -0.034752   0.370860  -0.032064   0.002065
    16  H   -0.000038   0.000947   0.001171  -0.031863   0.369013  -0.034264
    17  H    0.000001   0.000320   0.002279  -0.031788   0.364802  -0.031926
    18  H   -0.000064   0.003666  -0.000786   0.005748  -0.040716   0.371745
    19  H    0.000003   0.000380   0.000219   0.001440  -0.006438  -0.034862
    20  H   -0.000001   0.000691   0.002599  -0.000010   0.005407  -0.031758
    21  H   -0.000077   0.003716  -0.027078  -0.007615   0.000741   0.002703
    22  H    0.000425  -0.003790  -0.037377   0.005301   0.000003   0.000776
    23  H   -0.001367  -0.029940   0.001958   0.000426   0.005568  -0.048960
    24  H    0.015021  -0.006991   0.000763  -0.000036  -0.000130   0.005650
    25  H    0.000003  -0.000072   0.000002   0.000000  -0.000002   0.000053
    26  H    0.000003   0.000069   0.000002  -0.000000   0.000024  -0.000160
    27  H   -0.000006  -0.000090  -0.000002   0.000001  -0.000040   0.001787
    28  H    0.000037  -0.000082   0.000026  -0.000043  -0.003252   0.003243
    29  H    0.003499   0.005296  -0.000439   0.000097  -0.000617  -0.000357
    30  H   -0.000019   0.000003   0.000004  -0.000009   0.000193  -0.000038
               7          8          9         10         11         12
     1  O    0.000055   0.001309  -0.088660  -0.002821   0.000318  -0.001981
     2  C   -0.019438  -0.030958   0.289110  -0.025612   0.004022  -0.004801
     3  C   -0.038365   0.343909  -0.138516   0.005212  -0.000155  -0.000108
     4  C   -0.019252  -0.036424  -0.010819  -0.000652  -0.000009   0.000271
     5  C   -0.044520  -0.020012  -0.037124  -0.002026  -0.000040  -0.002230
     6  C    0.374843  -0.053800   0.314850  -0.033738  -0.004099  -0.005465
     7  C    5.082697   0.340393  -0.030874   0.003876   0.000067   0.000031
     8  C    0.340393   5.101647  -0.002607   0.000105  -0.000002  -0.000006
     9  C   -0.030874  -0.002607   5.349173   0.364802  -0.041739  -0.045742
    10  C    0.003876   0.000105   0.364802   4.854711   0.362459   0.381537
    11  C    0.000067  -0.000002  -0.041739   0.362459   5.135131  -0.057169
    12  C    0.000031  -0.000006  -0.045742   0.381537  -0.057169   5.122160
    13  H    0.004985  -0.034887   0.008280  -0.000099   0.000002  -0.000005
    14  H    0.001235  -0.008383  -0.000338   0.000021   0.000000  -0.000003
    15  H   -0.000071   0.005465   0.001512  -0.000020   0.000000   0.000003
    16  H    0.005422   0.000010  -0.004631   0.000142   0.000067   0.002803
    17  H   -0.007365   0.000593   0.004701  -0.000012  -0.000008   0.000016
    18  H   -0.039085   0.005907  -0.038940  -0.004757   0.001985  -0.000336
    19  H    0.365295  -0.030990   0.004531  -0.000137  -0.000004   0.000002
    20  H    0.368089  -0.033078  -0.006441   0.000043   0.000004   0.000005
    21  H   -0.029531   0.365287  -0.000334   0.000004   0.000000   0.000000
    22  H   -0.032266   0.372405   0.001713  -0.000031  -0.000001   0.000001
    23  H   -0.007334   0.000025   0.347341  -0.030744  -0.006703   0.005623
    24  H   -0.000185  -0.000047  -0.048074   0.374314  -0.044439  -0.042912
    25  H    0.000002   0.000000   0.004446  -0.030738   0.371263  -0.002494
    26  H   -0.000056   0.000001  -0.004369  -0.030689   0.368863   0.005293
    27  H   -0.000155   0.000002  -0.006951  -0.029724   0.367531  -0.005594
    28  H   -0.000034  -0.000000  -0.005660  -0.033327  -0.006085   0.369411
    29  H   -0.000018   0.000015  -0.006335  -0.028974   0.005357   0.370427
    30  H    0.000001   0.000000   0.005153  -0.028219  -0.003054   0.368511
              13         14         15         16         17         18
     1  O    0.003886  -0.000067   0.001338  -0.000038   0.000001  -0.000064
     2  C   -0.031306   0.004321  -0.003330   0.000947   0.000320   0.003666
     3  C    0.348477  -0.032508  -0.034752   0.001171   0.002279  -0.000786
     4  C   -0.032476   0.367146   0.370860  -0.031863  -0.031788   0.005748
     5  C    0.005269  -0.029111  -0.032064   0.369013   0.364802  -0.040716
     6  C   -0.000550   0.001349   0.002065  -0.034264  -0.031926   0.371745
     7  C    0.004985   0.001235  -0.000071   0.005422  -0.007365  -0.039085
     8  C   -0.034887  -0.008383   0.005465   0.000010   0.000593   0.005907
     9  C    0.008280  -0.000338   0.001512  -0.004631   0.004701  -0.038940
    10  C   -0.000099   0.000021  -0.000020   0.000142  -0.000012  -0.004757
    11  C    0.000002   0.000000   0.000000   0.000067  -0.000008   0.001985
    12  C   -0.000005  -0.000003   0.000003   0.002803   0.000016  -0.000336
    13  H    0.600007  -0.002946  -0.002349  -0.000116  -0.000128   0.000009
    14  H   -0.002946   0.592920  -0.035608   0.003960  -0.010705  -0.000201
    15  H   -0.002349  -0.035608   0.579772  -0.010172   0.003690  -0.000102
    16  H   -0.000116   0.003960  -0.010172   0.579877  -0.034579  -0.002141
    17  H   -0.000128  -0.010705   0.003690  -0.034579   0.601296  -0.002524
    18  H    0.000009  -0.000201  -0.000102  -0.002141  -0.002524   0.617619
    19  H   -0.000172  -0.000335   0.000002   0.000080   0.005783  -0.001942
    20  H   -0.000123   0.000001   0.000009  -0.000204   0.000022  -0.003083
    21  H   -0.003275   0.006048  -0.000047   0.000008  -0.000192  -0.000165
    22  H   -0.001359   0.000031  -0.000189   0.000014   0.000007  -0.000111
    23  H   -0.000275   0.000008   0.000000  -0.000060  -0.000193  -0.001723
    24  H   -0.000015   0.000001  -0.000007  -0.000018   0.000004  -0.000017
    25  H   -0.000000   0.000000  -0.000000   0.000000  -0.000000  -0.000138
    26  H   -0.000000  -0.000000  -0.000000  -0.000004  -0.000000   0.000096
    27  H    0.000000  -0.000000   0.000000  -0.000035   0.000008   0.004559
    28  H   -0.000000   0.000002  -0.000022   0.004754   0.000129   0.000275
    29  H    0.000011   0.000006   0.000829   0.000468   0.000019   0.000045
    30  H   -0.000000   0.000000  -0.000005   0.000024  -0.000003  -0.000020
              19         20         21         22         23         24
     1  O    0.000003  -0.000001  -0.000077   0.000425  -0.001367   0.015021
     2  C    0.000380   0.000691   0.003716  -0.003790  -0.029940  -0.006991
     3  C    0.000219   0.002599  -0.027078  -0.037377   0.001958   0.000763
     4  C    0.001440  -0.000010  -0.007615   0.005301   0.000426  -0.000036
     5  C   -0.006438   0.005407   0.000741   0.000003   0.005568  -0.000130
     6  C   -0.034862  -0.031758   0.002703   0.000776  -0.048960   0.005650
     7  C    0.365295   0.368089  -0.029531  -0.032266  -0.007334  -0.000185
     8  C   -0.030990  -0.033078   0.365287   0.372405   0.000025  -0.000047
     9  C    0.004531  -0.006441  -0.000334   0.001713   0.347341  -0.048074
    10  C   -0.000137   0.000043   0.000004  -0.000031  -0.030744   0.374314
    11  C   -0.000004   0.000004   0.000000  -0.000001  -0.006703  -0.044439
    12  C    0.000002   0.000005   0.000000   0.000001   0.005623  -0.042912
    13  H   -0.000172  -0.000123  -0.003275  -0.001359  -0.000275  -0.000015
    14  H   -0.000335   0.000001   0.006048   0.000031   0.000008   0.000001
    15  H    0.000002   0.000009  -0.000047  -0.000189   0.000000  -0.000007
    16  H    0.000080  -0.000204   0.000008   0.000014  -0.000060  -0.000018
    17  H    0.005783   0.000022  -0.000192   0.000007  -0.000193   0.000004
    18  H   -0.001942  -0.003083  -0.000165  -0.000111  -0.001723  -0.000017
    19  H    0.603125  -0.035630  -0.010165   0.004224   0.000199   0.000003
    20  H   -0.035630   0.596702   0.003497  -0.010557   0.006011  -0.000003
    21  H   -0.010165   0.003497   0.588814  -0.035985   0.000111   0.000000
    22  H    0.004224  -0.010557  -0.035985   0.589923   0.000141  -0.000004
    23  H    0.000199   0.006011   0.000111   0.000141   0.607094  -0.003111
    24  H    0.000003  -0.000003   0.000000  -0.000004  -0.003111   0.602182
    25  H   -0.000000  -0.000000   0.000000  -0.000000   0.000059  -0.003442
    26  H    0.000001   0.000027   0.000000  -0.000001   0.006063  -0.003195
    27  H    0.000008   0.000003  -0.000000  -0.000000  -0.000316   0.005196
    28  H    0.000002  -0.000000  -0.000000  -0.000000  -0.000064   0.005592
    29  H    0.000000  -0.000000  -0.000000  -0.000001   0.000069  -0.002612
    30  H   -0.000000  -0.000000  -0.000000  -0.000000  -0.000155  -0.005745
              25         26         27         28         29         30
     1  O    0.000003   0.000003  -0.000006   0.000037   0.003499  -0.000019
     2  C   -0.000072   0.000069  -0.000090  -0.000082   0.005296   0.000003
     3  C    0.000002   0.000002  -0.000002   0.000026  -0.000439   0.000004
     4  C    0.000000  -0.000000   0.000001  -0.000043   0.000097  -0.000009
     5  C   -0.000002   0.000024  -0.000040  -0.003252  -0.000617   0.000193
     6  C    0.000053  -0.000160   0.001787   0.003243  -0.000357  -0.000038
     7  C    0.000002  -0.000056  -0.000155  -0.000034  -0.000018   0.000001
     8  C    0.000000   0.000001   0.000002  -0.000000   0.000015   0.000000
     9  C    0.004446  -0.004369  -0.006951  -0.005660  -0.006335   0.005153
    10  C   -0.030738  -0.030689  -0.029724  -0.033327  -0.028974  -0.028219
    11  C    0.371263   0.368863   0.367531  -0.006085   0.005357  -0.003054
    12  C   -0.002494   0.005293  -0.005594   0.369411   0.370427   0.368511
    13  H   -0.000000  -0.000000   0.000000  -0.000000   0.000011  -0.000000
    14  H    0.000000  -0.000000  -0.000000   0.000002   0.000006   0.000000
    15  H   -0.000000  -0.000000   0.000000  -0.000022   0.000829  -0.000005
    16  H    0.000000  -0.000004  -0.000035   0.004754   0.000468   0.000024
    17  H   -0.000000  -0.000000   0.000008   0.000129   0.000019  -0.000003
    18  H   -0.000138   0.000096   0.004559   0.000275   0.000045  -0.000020
    19  H   -0.000000   0.000001   0.000008   0.000002   0.000000  -0.000000
    20  H   -0.000000   0.000027   0.000003  -0.000000  -0.000000  -0.000000
    21  H    0.000000   0.000000  -0.000000  -0.000000  -0.000000  -0.000000
    22  H   -0.000000  -0.000001  -0.000000  -0.000000  -0.000001  -0.000000
    23  H    0.000059   0.006063  -0.000316  -0.000064   0.000069  -0.000155
    24  H   -0.003442  -0.003195   0.005196   0.005592  -0.002612  -0.005745
    25  H    0.573927  -0.029193  -0.031898  -0.000300  -0.000034   0.003823
    26  H   -0.029193   0.581098  -0.032370   0.000005  -0.000178  -0.000061
    27  H   -0.031898  -0.032370   0.583081   0.005114  -0.000053  -0.000330
    28  H   -0.000300   0.000005   0.005114   0.585716  -0.033676  -0.032264
    29  H   -0.000034  -0.000178  -0.000053  -0.033676   0.561968  -0.028608
    30  H    0.003823  -0.000061  -0.000330  -0.032264  -0.028608   0.577604
 Mulliken charges:
               1
     1  O   -0.472864
     2  C    0.455515
     3  C   -0.163911
     4  C   -0.287788
     5  C   -0.278160
     6  C   -0.108272
     7  C   -0.278442
     8  C   -0.285880
     9  C   -0.177458
    10  C   -0.064908
    11  C   -0.453562
    12  C   -0.457250
    13  H    0.139156
    14  H    0.143157
    15  H    0.153191
    16  H    0.149365
    17  H    0.135754
    18  H    0.125199
    19  H    0.135379
    20  H    0.137777
    21  H    0.143536
    22  H    0.146707
    23  H    0.150249
    24  H    0.152255
    25  H    0.144735
    26  H    0.138733
    27  H    0.140274
    28  H    0.140503
    29  H    0.153795
    30  H    0.143214
 Sum of Mulliken charges =  -0.00000
 Mulliken charges with hydrogens summed into heavy atoms:
               1
     1  O   -0.472864
     2  C    0.455515
     3  C   -0.024755
     4  C    0.008560
     5  C    0.006959
     6  C    0.016927
     7  C   -0.005286
     8  C    0.004363
     9  C   -0.027208
    10  C    0.087347
    11  C   -0.029820
    12  C   -0.019737
 APT charges:
               1
     1  O   -0.650324
     2  C    0.697550
     3  C   -0.057612
     4  C    0.105142
     5  C    0.078993
     6  C    0.090169
     7  C    0.103119
     8  C    0.110578
     9  C   -0.072187
    10  C    0.150140
    11  C    0.065848
    12  C    0.041312
    13  H   -0.047474
    14  H   -0.044266
    15  H   -0.032427
    16  H   -0.028330
    17  H   -0.051191
    18  H   -0.053777
    19  H   -0.055382
    20  H   -0.045735
    21  H   -0.043755
    22  H   -0.040159
    23  H   -0.035656
    24  H   -0.037920
    25  H   -0.034902
    26  H   -0.028779
    27  H   -0.020318
    28  H   -0.019276
    29  H   -0.011940
    30  H   -0.031440
 Sum of APT charges =   0.00000
 APT charges with hydrogens summed into heavy atoms:
               1
     1  O   -0.650324
     2  C    0.697550
     3  C   -0.105086
     4  C    0.028449
     5  C   -0.000528
     6  C    0.036391
     7  C    0.002002
     8  C    0.026664
     9  C   -0.107843
    10  C    0.112220
    11  C   -0.018151
    12  C   -0.021343
 Electronic spatial extent (au):  <R**2>=           1977.5683
 Charge=             -0.0000 electrons
 Dipole moment (field-independent basis, Debye):
    X=             -0.8828    Y=             -2.5694    Z=              0.6782  Tot=              2.8002
 Quadrupole moment (field-independent basis, Debye-Ang):
   XX=            -71.6131   YY=            -81.9798   ZZ=            -73.9400
   XY=             -0.6152   XZ=             -0.0310   YZ=              2.8464
 Traceless Quadrupole moment (field-independent basis, Debye-Ang):
   XX=              4.2312   YY=             -6.1355   ZZ=              1.9043
   XY=             -0.6152   XZ=             -0.0310   YZ=              2.8464
 Octapole moment (field-independent basis, Debye-Ang**2):
  XXX=             -2.5770  YYY=            -11.5032  ZZZ=             -6.4103  XYY=             -3.2950
  XXY=              5.8611  XXZ=             -0.2793  XZZ=             -1.2734  YZZ=              0.5595
  YYZ=              8.0638  XYZ=              1.0105
 Hexadecapole moment (field-independent basis, Debye-Ang**3):
 XXXX=          -1470.7444 YYYY=           -696.1994 ZZZZ=           -514.3883 XXXY=             11.3081
 XXXZ=             -3.9850 YYYX=             -2.1869 YYYZ=              9.8791 ZZZX=             -1.3720
 ZZZY=             -3.8067 XXYY=           -358.0159 XXZZ=           -339.3466 YYZZ=           -197.3305
 XXYZ=             -7.1944 YYXZ=              0.4427 ZZXY=             -1.0105
 N-N= 7.753533304266D+02 E-N=-2.722021482984D+03  KE= 5.003546068398D+02
  Exact polarizability: 120.953   1.479 106.008  -1.433   0.259  99.482
 Approx polarizability: 156.210   6.033 163.159  -3.693  -4.436 147.111
 Calling FoFJK, ICntrl=    100127 FMM=F ISym2X=0 I1Cent= 0 IOpClX= 0 NMat=1 NMatS=1 NMatT=0.
 Full mass-weighted force constant matrix:
 Low frequencies ---   -7.7574   -2.3390   -0.0005   -0.0004   -0.0003    9.0839
 Low frequencies ---   40.4802   67.1761  149.9048
 Diagonal vibrational polarizability:
        8.5531490       3.5940204      18.0326279
 Harmonic frequencies (cm**-1), IR intensities (KM/Mole), Raman scattering
 activities (A**4/AMU), depolarization ratios for plane and unpolarized
 incident light, reduced masses (AMU), force constants (mDyne/A),
 and normal coordinates:
                      1                      2                      3
                      A                      A                      A
 Frequencies --     40.4002                67.1669               149.9030
 Red. masses --      2.9627                 2.8878                 2.9976
 Frc consts  --      0.0028                 0.0077                 0.0397
 IR Inten    --      0.5432                 1.2158                 2.1377
  Atom  AN      X      Y      Z        X      Y      Z        X      Y      Z
     1   8    -0.01  -0.03  -0.14     0.02   0.04   0.18     0.07   0.01   0.23
     2   6     0.00  -0.01  -0.04     0.01   0.01   0.06     0.01  -0.03  -0.04
     3   6     0.03   0.02   0.09    -0.01  -0.01  -0.00    -0.01  -0.03  -0.10
     4   6     0.14  -0.02   0.07    -0.06  -0.07  -0.01     0.12   0.16  -0.05
     5   6     0.03  -0.13  -0.05     0.03  -0.00  -0.01    -0.05   0.03  -0.04
     6   6    -0.01  -0.04  -0.09     0.00  -0.00  -0.02    -0.01  -0.01  -0.01
     7   6    -0.04   0.05  -0.10    -0.01  -0.00  -0.01     0.02  -0.06  -0.02
     8   6    -0.07   0.07   0.09     0.03   0.01  -0.06    -0.09  -0.10   0.08
     9   6     0.00  -0.01  -0.03    -0.01   0.01  -0.02    -0.00  -0.03  -0.05
    10   6    -0.01   0.01   0.03     0.01  -0.03  -0.07    -0.02   0.00  -0.03
    11   6     0.01  -0.02   0.17    -0.06  -0.14   0.11     0.03   0.03  -0.00
    12   6    -0.08   0.13   0.00     0.05   0.19  -0.15    -0.09   0.01  -0.02
    13   1     0.05   0.05   0.16    -0.01  -0.01   0.01    -0.01  -0.03  -0.15
    14   1     0.15   0.09   0.17    -0.06  -0.16  -0.08     0.13   0.38   0.13
    15   1     0.30  -0.07   0.06    -0.15  -0.07   0.04     0.36   0.19  -0.23
    16   1     0.05  -0.28  -0.00     0.04   0.07  -0.06    -0.07  -0.12   0.05
    17   1    -0.05  -0.14  -0.14     0.10  -0.01   0.04    -0.20   0.07  -0.12
    18   1    -0.03  -0.07  -0.17     0.00  -0.00  -0.03     0.00   0.01   0.03
    19   1    -0.00  -0.03  -0.17    -0.03   0.03   0.02     0.09  -0.15  -0.06
    20   1    -0.06   0.17  -0.17    -0.02  -0.05   0.01     0.05   0.03  -0.05
    21   1    -0.04   0.06   0.22     0.01   0.02  -0.14    -0.03  -0.13   0.30
    22   1    -0.21   0.13   0.10     0.12   0.02  -0.06    -0.31  -0.17   0.06
    23   1     0.05   0.01  -0.04    -0.05   0.03  -0.03    -0.01  -0.06  -0.04
    24   1     0.02  -0.05  -0.03     0.05  -0.15  -0.21    -0.02   0.01  -0.02
    25   1     0.01  -0.00   0.18    -0.04  -0.16   0.00     0.02   0.06   0.05
    26   1     0.05  -0.12   0.19    -0.13  -0.35   0.18     0.09   0.04  -0.02
    27   1     0.00   0.03   0.24    -0.06  -0.01   0.30     0.03   0.02  -0.02
    28   1    -0.07   0.18   0.06     0.01   0.32  -0.01    -0.09   0.00  -0.03
    29   1    -0.12   0.13  -0.08     0.09   0.28  -0.29    -0.13  -0.01  -0.05
    30   1    -0.10   0.17   0.01     0.07   0.15  -0.22    -0.10   0.05   0.02
                      4                      5                      6
                      A                      A                      A
 Frequencies --    167.7720               201.0770               242.6770
 Red. masses --      2.7765                 2.2562                 1.2744
 Frc consts  --      0.0460                 0.0537                 0.0442
 IR Inten    --      1.9339                 0.6795                 0.3704
  Atom  AN      X      Y      Z        X      Y      Z        X      Y      Z
     1   8     0.13  -0.09   0.04    -0.04   0.05   0.03     0.02  -0.01  -0.01
     2   6     0.04  -0.07   0.01    -0.02   0.03  -0.04     0.01   0.00   0.02
     3   6     0.04   0.03   0.02    -0.00  -0.01  -0.01     0.02   0.00   0.02
     4   6    -0.02  -0.04   0.00     0.06  -0.03  -0.01     0.00   0.00   0.02
     5   6     0.01  -0.01   0.02     0.18   0.07  -0.04    -0.05  -0.04   0.03
     6   6    -0.06  -0.06   0.01     0.05   0.03  -0.07     0.01  -0.00   0.04
     7   6    -0.14   0.01   0.07    -0.03  -0.01   0.07     0.04  -0.01  -0.00
     8   6     0.01   0.08  -0.05     0.01  -0.01  -0.01     0.05   0.00  -0.01
     9   6    -0.02  -0.11  -0.02    -0.01   0.03  -0.10    -0.00  -0.00   0.02
    10   6    -0.04   0.00  -0.03    -0.02  -0.01   0.00    -0.00   0.01  -0.02
    11   6     0.13   0.14  -0.04    -0.04  -0.05   0.07    -0.05  -0.02  -0.04
    12   6    -0.10   0.07  -0.04    -0.12  -0.07   0.05    -0.03   0.06  -0.04
    13   1     0.09   0.06   0.04    -0.03  -0.02   0.02     0.01  -0.01   0.01
    14   1    -0.03  -0.10  -0.07     0.09  -0.14  -0.01    -0.01   0.06   0.03
    15   1    -0.09  -0.05   0.06    -0.03  -0.00   0.00     0.05  -0.00   0.01
    16   1     0.05   0.04  -0.05     0.23   0.20  -0.17    -0.08  -0.10   0.10
    17   1     0.06   0.01   0.09     0.32   0.07   0.09    -0.12  -0.05  -0.05
    18   1    -0.11  -0.10  -0.01     0.07   0.04  -0.10     0.01   0.00   0.05
    19   1    -0.22   0.16   0.19    -0.02   0.08   0.22     0.02  -0.01  -0.03
    20   1    -0.25  -0.14   0.12    -0.14  -0.14   0.10     0.07   0.01   0.00
    21   1    -0.04   0.18  -0.19    -0.01   0.01  -0.06     0.04  -0.00  -0.06
    22   1     0.18   0.08  -0.05     0.07  -0.04  -0.01     0.10   0.02  -0.01
    23   1    -0.02  -0.13  -0.02     0.01   0.05  -0.11    -0.03  -0.02   0.02
    24   1    -0.15   0.04  -0.03     0.07  -0.01   0.04    -0.00  -0.01  -0.04
    25   1     0.09   0.29   0.02    -0.05  -0.17   0.35    -0.05  -0.24   0.44
    26   1     0.22   0.16  -0.05     0.17   0.07   0.01     0.29   0.34  -0.18
    27   1     0.24   0.09  -0.08    -0.27  -0.09  -0.06    -0.43  -0.18  -0.39
    28   1     0.06   0.05  -0.03     0.01  -0.16  -0.03    -0.02   0.08  -0.00
    29   1    -0.24  -0.04  -0.03    -0.26  -0.21   0.12    -0.06   0.05  -0.08
    30   1    -0.16   0.26  -0.05    -0.18   0.09   0.09    -0.04   0.09  -0.03
                      7                      8                      9
                      A                      A                      A
 Frequencies --    247.3320               283.6757               294.6333
 Red. masses --      1.8974                 2.2217                 1.2076
 Frc consts  --      0.0684                 0.1053                 0.0618
 IR Inten    --      0.1874                 0.2215                 0.1962
  Atom  AN      X      Y      Z        X      Y      Z        X      Y      Z
     1   8    -0.00  -0.03   0.02    -0.08   0.01   0.03     0.03  -0.02  -0.00
     2   6    -0.00  -0.04  -0.01    -0.04  -0.01  -0.01     0.00  -0.01   0.01
     3   6    -0.03  -0.00  -0.02    -0.03  -0.03  -0.04     0.00   0.00  -0.01
     4   6    -0.08  -0.02  -0.03     0.12   0.04  -0.02     0.01   0.01  -0.00
     5   6     0.02   0.06  -0.03     0.01  -0.05  -0.03     0.01   0.00   0.01
     6   6    -0.04   0.00  -0.03    -0.04  -0.04  -0.04    -0.01  -0.01   0.01
     7   6    -0.04   0.03  -0.05    -0.12  -0.03   0.04     0.03  -0.00  -0.04
     8   6    -0.14  -0.00   0.06     0.00  -0.00  -0.10     0.02  -0.00  -0.01
     9   6     0.02  -0.02   0.01    -0.02   0.00   0.03    -0.01  -0.00   0.03
    10   6     0.05  -0.01   0.03    -0.00   0.03   0.07    -0.03   0.01   0.03
    11   6     0.07   0.01   0.03    -0.02   0.03   0.02    -0.09  -0.01  -0.02
    12   6     0.15   0.02   0.01     0.17   0.03   0.05     0.03   0.03   0.02
    13   1     0.01   0.03  -0.03    -0.04  -0.03  -0.01    -0.01  -0.01  -0.01
    14   1    -0.08  -0.15  -0.12     0.15   0.21   0.17     0.02   0.02   0.01
    15   1    -0.21  -0.02   0.03     0.33   0.07  -0.17     0.03   0.02  -0.02
    16   1     0.07   0.19  -0.15     0.04  -0.14  -0.02     0.03   0.01  -0.02
    17   1     0.14   0.07   0.10    -0.07  -0.01  -0.05     0.01   0.02   0.04
    18   1    -0.08  -0.03  -0.02    -0.05  -0.06  -0.08    -0.00  -0.01   0.02
    19   1     0.01  -0.06  -0.12    -0.16   0.12   0.21     0.02  -0.04  -0.10
    20   1    -0.02   0.13  -0.10    -0.23  -0.22   0.10     0.08   0.05  -0.05
    21   1    -0.08  -0.02   0.27    -0.06   0.06  -0.31     0.02  -0.02  -0.00
    22   1    -0.34  -0.02   0.06     0.23   0.01  -0.10    -0.00   0.01  -0.01
    23   1     0.07  -0.02   0.01     0.06   0.02   0.03     0.00  -0.00   0.03
    24   1     0.02  -0.01   0.02    -0.03   0.03   0.06    -0.06   0.01   0.01
    25   1     0.05  -0.07   0.35    -0.02  -0.02   0.09    -0.06  -0.04  -0.14
    26   1     0.32   0.20  -0.06     0.02   0.12  -0.01    -0.21  -0.05   0.01
    27   1    -0.13  -0.09  -0.17    -0.08  -0.01  -0.06    -0.04   0.02   0.04
    28   1     0.28   0.02   0.03     0.21   0.06   0.09     0.55  -0.10  -0.04
    29   1     0.13  -0.02   0.07     0.27   0.09   0.11    -0.31  -0.31   0.23
    30   1     0.13   0.09  -0.12     0.21  -0.04  -0.11    -0.13   0.52  -0.15
                     10                     11                     12
                      A                      A                      A
 Frequencies --    311.0363               368.8146               407.2573
 Red. masses --      2.4294                 2.4667                 2.4978
 Frc consts  --      0.1385                 0.1977                 0.2441
 IR Inten    --      2.0118                 0.4464                 3.9959
  Atom  AN      X      Y      Z        X      Y      Z        X      Y      Z
     1   8    -0.15   0.07   0.01     0.08   0.09  -0.03     0.11  -0.04  -0.01
     2   6    -0.03   0.03   0.02     0.06   0.09  -0.04    -0.03   0.01  -0.01
     3   6    -0.02  -0.00   0.04     0.05   0.03  -0.05    -0.02   0.02   0.03
     4   6    -0.02   0.04   0.04    -0.05  -0.08  -0.06    -0.01   0.00   0.03
     5   6    -0.09  -0.01   0.02    -0.10  -0.12  -0.04    -0.01  -0.01   0.01
     6   6    -0.01   0.03   0.02     0.03   0.02  -0.03    -0.00  -0.00   0.01
     7   6     0.01   0.02   0.01    -0.06  -0.05   0.15     0.04  -0.03  -0.02
     8   6     0.03   0.02  -0.03    -0.04  -0.04   0.09     0.04  -0.02   0.00
     9   6     0.02   0.00  -0.02     0.02   0.08  -0.02    -0.09   0.01  -0.04
    10   6     0.06  -0.07  -0.09     0.04   0.04  -0.01    -0.11   0.10  -0.09
    11   6     0.19  -0.05   0.06    -0.02  -0.00   0.01    -0.06   0.11   0.15
    12   6     0.01  -0.08  -0.09     0.04   0.01   0.01     0.07  -0.11  -0.09
    13   1    -0.01   0.00   0.01     0.01   0.00  -0.03    -0.07  -0.02   0.03
    14   1    -0.03   0.13   0.10    -0.09  -0.10  -0.21    -0.00   0.00   0.04
    15   1     0.07   0.05  -0.01    -0.11  -0.15   0.06     0.00  -0.01   0.04
    16   1    -0.12  -0.11   0.12    -0.20  -0.22   0.14    -0.00  -0.01   0.01
    17   1    -0.17  -0.03  -0.09    -0.21  -0.18  -0.25    -0.01  -0.01   0.00
    18   1    -0.01   0.03   0.05     0.08   0.05  -0.07     0.04   0.03   0.02
    19   1    -0.01   0.04   0.02    -0.01   0.07   0.37     0.03  -0.06  -0.07
    20   1     0.01  -0.01   0.02    -0.26  -0.22   0.17     0.08   0.02  -0.02
    21   1     0.00   0.01  -0.14    -0.01   0.04   0.25     0.03  -0.04  -0.04
    22   1     0.13   0.06  -0.02    -0.16  -0.19   0.06     0.07   0.00   0.01
    23   1    -0.06  -0.01  -0.02     0.01   0.08  -0.02    -0.11  -0.01  -0.04
    24   1     0.08  -0.09  -0.11     0.07   0.04  -0.01    -0.14   0.11  -0.09
    25   1     0.14   0.07   0.19    -0.00  -0.06  -0.01    -0.09   0.16   0.35
    26   1     0.37  -0.16   0.07    -0.05  -0.03   0.02     0.18  -0.08   0.17
    27   1     0.20  -0.01   0.12    -0.06   0.03   0.04    -0.17   0.22   0.27
    28   1     0.31  -0.20  -0.17     0.16  -0.06  -0.05     0.08  -0.26  -0.25
    29   1    -0.24  -0.32   0.04    -0.06  -0.10   0.09     0.26  -0.08   0.21
    30   1    -0.09   0.25  -0.10    -0.00   0.14  -0.01     0.15  -0.31  -0.19
                     13                     14                     15
                      A                      A                      A
 Frequencies --    461.6827               494.0785               531.3363
 Red. masses --      3.5758                 4.2179                 4.0156
 Frc consts  --      0.4491                 0.6067                 0.6679
 IR Inten    --      0.8333                 1.5295                 5.1468
  Atom  AN      X      Y      Z        X      Y      Z        X      Y      Z
     1   8     0.06   0.17  -0.06    -0.06   0.09   0.02    -0.21   0.06   0.05
     2   6     0.02   0.19   0.04     0.01   0.03  -0.10     0.10  -0.08  -0.02
     3   6     0.04   0.04  -0.00     0.07  -0.02  -0.17     0.25   0.04   0.01
     4   6     0.04   0.00  -0.01     0.14  -0.14  -0.14    -0.02   0.06  -0.05
     5   6     0.03  -0.00  -0.01     0.09  -0.11   0.21    -0.06   0.04  -0.04
     6   6    -0.11  -0.08  -0.01    -0.02  -0.03   0.19    -0.04  -0.13  -0.01
     7   6    -0.01  -0.16  -0.05    -0.01   0.14   0.02    -0.02  -0.08  -0.02
     8   6     0.08  -0.08   0.03    -0.09   0.07  -0.09     0.15   0.07   0.12
     9   6    -0.14   0.02   0.07    -0.01  -0.02   0.12     0.05  -0.12  -0.07
    10   6    -0.13  -0.17   0.06    -0.03   0.01  -0.04    -0.04   0.05  -0.01
    11   6     0.08  -0.01  -0.01    -0.01   0.02   0.02    -0.09   0.07   0.03
    12   6    -0.00   0.01  -0.01    -0.03  -0.04  -0.06     0.01  -0.00  -0.00
    13   1    -0.13  -0.07  -0.00     0.08   0.03   0.05     0.36   0.08  -0.13
    14   1     0.03  -0.03  -0.07     0.10  -0.15  -0.24    -0.09  -0.01  -0.33
    15   1    -0.01  -0.02   0.06     0.02  -0.09  -0.15    -0.17  -0.01   0.12
    16   1     0.15   0.09  -0.21     0.07  -0.05   0.21    -0.01   0.08  -0.12
    17   1     0.11   0.08   0.21     0.03  -0.05   0.25    -0.05   0.11   0.08
    18   1     0.02   0.00  -0.01    -0.07  -0.10  -0.02    -0.06  -0.13   0.11
    19   1    -0.05  -0.23  -0.18    -0.08   0.04  -0.19    -0.09  -0.07  -0.09
    20   1     0.08  -0.04  -0.08     0.21   0.25   0.04    -0.07  -0.02  -0.07
    21   1     0.09  -0.01   0.12    -0.04   0.09   0.15     0.16   0.22   0.26
    22   1    -0.01  -0.10   0.03    -0.30  -0.05  -0.12     0.04   0.06   0.12
    23   1    -0.19   0.13   0.04    -0.08  -0.19   0.18     0.11  -0.17  -0.05
    24   1    -0.15  -0.17   0.05    -0.08   0.01  -0.07    -0.10   0.08   0.00
    25   1     0.00   0.26   0.06    -0.03   0.04   0.08    -0.07  -0.02   0.01
    26   1     0.20   0.10  -0.06     0.06  -0.03   0.03    -0.13   0.03   0.04
    27   1     0.29  -0.14  -0.13    -0.05   0.05   0.06    -0.17   0.11   0.07
    28   1     0.06   0.16   0.17    -0.08  -0.09  -0.12     0.02  -0.04  -0.04
    29   1     0.07   0.10  -0.11    -0.01  -0.04  -0.02     0.08   0.01   0.09
    30   1     0.01  -0.01  -0.21    -0.02  -0.09  -0.01     0.04  -0.07  -0.06
                     16                     17                     18
                      A                      A                      A
 Frequencies --    565.9934               595.6116               679.1653
 Red. masses --      2.9715                 4.9993                 3.9645
 Frc consts  --      0.5609                 1.0449                 1.0774
 IR Inten    --      1.2959                 0.5962                 4.4368
  Atom  AN      X      Y      Z        X      Y      Z        X      Y      Z
     1   8     0.03   0.03  -0.05    -0.07  -0.12  -0.04    -0.04  -0.05  -0.03
     2   6     0.08   0.04   0.12    -0.04  -0.02   0.31     0.17  -0.08   0.15
     3   6     0.03  -0.08   0.01    -0.06   0.13  -0.08     0.19  -0.20  -0.01
     4   6     0.00   0.02   0.04     0.02   0.04  -0.20     0.00  -0.02   0.04
     5   6    -0.00   0.03   0.04     0.05  -0.01  -0.19    -0.00   0.05   0.04
     6   6    -0.11  -0.06  -0.00     0.14  -0.12  -0.03    -0.03   0.23  -0.07
     7   6    -0.13  -0.11  -0.09     0.06   0.05   0.07    -0.03   0.05  -0.03
     8   6    -0.05  -0.07  -0.04     0.03   0.07   0.05    -0.06  -0.06  -0.08
     9   6     0.07   0.07   0.11    -0.02   0.03   0.25     0.02   0.10   0.02
    10   6     0.16   0.14  -0.09    -0.03  -0.02  -0.03    -0.12  -0.09   0.04
    11   6     0.00   0.01  -0.00    -0.00   0.01   0.01    -0.05   0.05   0.03
    12   6    -0.03  -0.01  -0.03    -0.04  -0.04  -0.08    -0.03  -0.03  -0.06
    13   1     0.02  -0.09  -0.03     0.02   0.16  -0.15     0.34  -0.11  -0.08
    14   1     0.01   0.08   0.10     0.06   0.03  -0.10    -0.02   0.06   0.03
    15   1     0.05   0.06  -0.04     0.11  -0.01  -0.18     0.00   0.07  -0.09
    16   1     0.12   0.13  -0.18    -0.01   0.05  -0.15    -0.03  -0.05   0.12
    17   1     0.11   0.10   0.27    -0.02   0.07  -0.13     0.01  -0.08  -0.16
    18   1    -0.14  -0.08   0.02     0.12  -0.14  -0.06    -0.02   0.24  -0.12
    19   1    -0.13  -0.11  -0.09     0.05   0.16   0.20     0.06   0.12   0.16
    20   1    -0.10  -0.11  -0.08    -0.15  -0.04   0.05    -0.02  -0.12   0.06
    21   1    -0.06   0.03  -0.03     0.08   0.02   0.21    -0.02   0.04   0.12
    22   1    -0.05  -0.02  -0.03    -0.13  -0.05   0.03    -0.21  -0.03  -0.08
    23   1    -0.04   0.19   0.08    -0.20   0.37   0.14    -0.08   0.25  -0.03
    24   1     0.11   0.14  -0.12    -0.12  -0.03  -0.08    -0.08  -0.09   0.05
    25   1     0.06  -0.24  -0.01    -0.03   0.08   0.10    -0.11   0.28   0.07
    26   1    -0.06  -0.11   0.04     0.11  -0.02   0.01     0.04   0.10  -0.00
    27   1    -0.24   0.14   0.11     0.01   0.01   0.03     0.13  -0.04  -0.03
    28   1    -0.21  -0.17  -0.25    -0.08  -0.06  -0.12     0.10   0.06   0.07
    29   1    -0.15  -0.10  -0.01    -0.07  -0.05  -0.09     0.06   0.03  -0.06
    30   1    -0.06  -0.01   0.32    -0.05  -0.03  -0.01    -0.01  -0.04  -0.30
                     19                     20                     21
                      A                      A                      A
 Frequencies --    783.8982               811.1653               815.4442
 Red. masses --      3.2084                 2.8525                 1.4768
 Frc consts  --      1.1616                 1.1059                 0.5786
 IR Inten    --      0.9815                 2.6058                 0.9189
  Atom  AN      X      Y      Z        X      Y      Z        X      Y      Z
     1   8     0.01   0.13  -0.03    -0.01  -0.02  -0.02     0.00  -0.02  -0.00
     2   6     0.12   0.07   0.00    -0.00   0.02   0.13    -0.02   0.00   0.01
     3   6    -0.09  -0.01   0.02    -0.01   0.09  -0.04     0.02  -0.03  -0.01
     4   6    -0.11   0.01   0.09    -0.03   0.09   0.04    -0.05  -0.05  -0.02
     5   6    -0.01  -0.01  -0.04     0.07  -0.01   0.18    -0.06  -0.05   0.04
     6   6     0.11  -0.11   0.00     0.13  -0.11  -0.01    -0.02  -0.01  -0.00
     7   6     0.06   0.06  -0.01    -0.02  -0.10  -0.06     0.04   0.05  -0.01
     8   6    -0.09  -0.01  -0.07    -0.06   0.03  -0.12     0.09   0.03  -0.01
     9   6     0.16  -0.16   0.02    -0.02  -0.01  -0.15    -0.05   0.02  -0.07
    10   6    -0.03  -0.06   0.04    -0.02   0.01  -0.02    -0.01   0.02  -0.03
    11   6    -0.08   0.08   0.04     0.01  -0.02  -0.01     0.03  -0.03  -0.02
    12   6    -0.03  -0.04  -0.09     0.01   0.02   0.07     0.01   0.02   0.06
    13   1    -0.04   0.02  -0.00     0.07   0.14  -0.08    -0.02  -0.05   0.02
    14   1    -0.06   0.21   0.39    -0.02  -0.09  -0.07    -0.08   0.33   0.19
    15   1     0.20   0.00  -0.06    -0.25   0.16   0.06     0.31  -0.04  -0.22
    16   1    -0.02   0.15  -0.10    -0.06  -0.19   0.44     0.01   0.29  -0.20
    17   1     0.15  -0.05   0.07    -0.19   0.02  -0.04     0.23  -0.05   0.32
    18   1    -0.05  -0.22   0.09     0.18  -0.09  -0.06     0.02   0.01  -0.03
    19   1     0.03   0.22   0.19    -0.13   0.03  -0.02    -0.08   0.24   0.12
    20   1    -0.11  -0.17   0.05    -0.07  -0.22  -0.02    -0.06  -0.16   0.07
    21   1    -0.05  -0.19   0.00     0.01   0.01   0.17     0.19  -0.04   0.33
    22   1    -0.20   0.01  -0.07    -0.34  -0.00  -0.13    -0.27   0.03  -0.01
    23   1     0.24  -0.20   0.04    -0.13   0.20  -0.21    -0.10   0.02  -0.06
    24   1    -0.10  -0.04   0.04     0.07   0.03   0.04     0.03   0.02  -0.00
    25   1    -0.07   0.08   0.00     0.01  -0.02  -0.00     0.03  -0.04  -0.00
    26   1    -0.14   0.15   0.03     0.02  -0.04  -0.01     0.05  -0.07  -0.01
    27   1    -0.06   0.05  -0.00     0.01  -0.01  -0.00     0.01  -0.01   0.00
    28   1     0.03   0.02  -0.01     0.07   0.05   0.11     0.02   0.01   0.04
    29   1     0.00  -0.01  -0.12     0.07   0.05   0.11     0.03   0.03   0.10
    30   1    -0.02  -0.04  -0.20     0.03   0.00  -0.04     0.02   0.01   0.04
                     22                     23                     24
                      A                      A                      A
 Frequencies --    833.0049               858.9044               871.8447
 Red. masses --      1.9605                 2.2758                 2.0528
 Frc consts  --      0.8015                 0.9892                 0.9194
 IR Inten    --      2.0915                 2.6343                 6.7431
  Atom  AN      X      Y      Z        X      Y      Z        X      Y      Z
     1   8    -0.01  -0.03   0.04     0.00  -0.03   0.02    -0.03  -0.02   0.01
     2   6    -0.07  -0.03  -0.12    -0.03  -0.04  -0.09     0.04  -0.05  -0.01
     3   6     0.02   0.07  -0.02    -0.00  -0.01  -0.05     0.05   0.16  -0.03
     4   6     0.02   0.05   0.12    -0.09   0.07   0.00    -0.02  -0.03   0.06
     5   6     0.01  -0.01  -0.00     0.01  -0.09   0.13    -0.02  -0.06  -0.05
     6   6    -0.02   0.04  -0.03     0.08  -0.05  -0.07     0.00   0.05   0.03
     7   6     0.04  -0.03  -0.09    -0.05  -0.02  -0.02     0.05  -0.13   0.05
     8   6     0.05  -0.01  -0.05     0.02   0.03   0.10    -0.13   0.03  -0.08
     9   6    -0.01   0.03   0.13     0.04   0.13   0.04    -0.02   0.03   0.01
    10   6     0.01   0.00   0.02     0.01  -0.03   0.05    -0.01   0.01  -0.01
    11   6     0.00  -0.01   0.00    -0.04   0.02   0.03     0.01  -0.02  -0.01
    12   6    -0.00  -0.01  -0.05    -0.01  -0.04  -0.08    -0.00   0.01   0.02
    13   1     0.01   0.05  -0.07     0.04  -0.01  -0.21     0.34   0.36  -0.01
    14   1     0.00  -0.16  -0.11    -0.14   0.24  -0.02    -0.05   0.18   0.12
    15   1    -0.20   0.00   0.31     0.02   0.07  -0.07     0.25  -0.18   0.14
    16   1     0.11  -0.14  -0.08     0.02   0.16   0.02     0.04   0.16  -0.24
    17   1    -0.01  -0.00   0.00     0.15  -0.08   0.31     0.26  -0.14   0.11
    18   1     0.02   0.07  -0.01     0.20  -0.00  -0.29     0.17   0.18   0.09
    19   1    -0.05   0.31   0.27     0.04  -0.12  -0.07     0.15  -0.27  -0.03
    20   1    -0.16  -0.45   0.06    -0.20   0.16  -0.16     0.20   0.01   0.03
    21   1     0.15  -0.15   0.25    -0.07   0.15  -0.18    -0.16   0.10  -0.16
    22   1    -0.31   0.06  -0.04     0.30   0.03   0.10     0.02  -0.13  -0.11
    23   1     0.09  -0.10   0.17     0.13   0.17   0.02    -0.05  -0.04   0.03
    24   1    -0.04  -0.03  -0.04     0.15  -0.07   0.05    -0.00   0.00  -0.02
    25   1    -0.00   0.02   0.01    -0.07   0.17   0.01    -0.00   0.01   0.01
    26   1     0.02   0.01  -0.01    -0.02   0.14  -0.01     0.04  -0.03  -0.01
    27   1     0.03  -0.02  -0.01     0.12  -0.08  -0.06     0.02  -0.01   0.00
    28   1    -0.06  -0.04  -0.09    -0.00   0.01  -0.02     0.00  -0.01   0.00
    29   1    -0.06  -0.05  -0.08    -0.05  -0.04  -0.18     0.01   0.01   0.05
    30   1    -0.01   0.00   0.07    -0.03   0.02  -0.09     0.00  -0.01   0.02
                     25                     26                     27
                      A                      A                      A
 Frequencies --    875.8085               918.6058               941.8529
 Red. masses --      2.4861                 2.4381                 1.1905
 Frc consts  --      1.1236                 1.2122                 0.6222
 IR Inten    --      0.8154                 1.8137                 1.3035
  Atom  AN      X      Y      Z        X      Y      Z        X      Y      Z
     1   8    -0.02   0.01  -0.01     0.01   0.05   0.00     0.00   0.00   0.00
     2   6     0.04  -0.00   0.05     0.05  -0.00  -0.07    -0.00  -0.00  -0.02
     3   6    -0.01   0.06  -0.12     0.04  -0.10   0.02     0.00  -0.01   0.00
     4   6    -0.07   0.09   0.11    -0.05   0.05   0.02     0.00   0.01  -0.00
     5   6     0.08  -0.11   0.01     0.01   0.00  -0.02    -0.01  -0.00   0.01
     6   6    -0.11   0.00  -0.06     0.11  -0.03  -0.02     0.01   0.00  -0.01
     7   6     0.01   0.15   0.08    -0.00   0.03  -0.04     0.01  -0.00  -0.01
     8   6     0.07  -0.11   0.01    -0.07   0.01   0.04    -0.01   0.00   0.01
     9   6    -0.02  -0.05  -0.02    -0.02  -0.02   0.12    -0.00   0.00   0.02
    10   6    -0.00   0.01  -0.03    -0.13   0.05  -0.08     0.00  -0.03  -0.03
    11   6     0.02  -0.00  -0.02     0.05  -0.11  -0.08    -0.01   0.04  -0.07
    12   6     0.00   0.02   0.04    -0.02   0.09   0.10     0.02  -0.07   0.04
    13   1     0.03   0.03  -0.44     0.07  -0.09  -0.06     0.01  -0.01   0.01
    14   1    -0.05  -0.03   0.08    -0.06   0.05  -0.00    -0.01   0.01  -0.03
    15   1    -0.10   0.05   0.19    -0.06   0.08  -0.01    -0.01   0.00   0.01
    16   1     0.18  -0.21  -0.08    -0.03   0.03   0.02    -0.00   0.02  -0.01
    17   1     0.10  -0.14  -0.02     0.02  -0.01  -0.04     0.01   0.00   0.03
    18   1    -0.27  -0.15  -0.29     0.16  -0.00  -0.08     0.03   0.01  -0.01
    19   1     0.10  -0.02  -0.05     0.08   0.05   0.08     0.03   0.02   0.03
    20   1     0.16   0.28   0.07    -0.20  -0.00  -0.09    -0.04  -0.02  -0.02
    21   1     0.06  -0.12  -0.02    -0.13   0.04  -0.19    -0.02  -0.00  -0.04
    22   1     0.10  -0.33  -0.04     0.16   0.14   0.06     0.03   0.03   0.02
    23   1    -0.06   0.03  -0.04    -0.06  -0.10   0.13    -0.03   0.01   0.02
    24   1    -0.10   0.05  -0.02    -0.28   0.01  -0.19    -0.13   0.22   0.24
    25   1     0.04  -0.10   0.00    -0.00   0.01   0.09    -0.02  -0.05   0.19
    26   1     0.02  -0.09   0.00     0.28  -0.31  -0.06     0.21  -0.38   0.02
    27   1    -0.09   0.06   0.04     0.08  -0.04   0.04    -0.23   0.31   0.25
    28   1    -0.01  -0.00   0.01    -0.00  -0.11  -0.12     0.04   0.25   0.39
    29   1     0.02   0.02   0.07     0.12   0.06   0.48    -0.07   0.02  -0.39
    30   1     0.01  -0.01   0.05     0.05  -0.11   0.08    -0.05   0.17  -0.04
                     28                     29                     30
                      A                      A                      A
 Frequencies --    958.8212               975.5930              1000.2105
 Red. masses --      1.8327                 1.5023                 2.4365
 Frc consts  --      0.9927                 0.8424                 1.4362
 IR Inten    --      0.1374                 0.2500                 0.1175
  Atom  AN      X      Y      Z        X      Y      Z        X      Y      Z
     1   8    -0.00  -0.00  -0.00     0.00   0.00  -0.00    -0.01   0.02  -0.01
     2   6     0.01  -0.00   0.02     0.01  -0.00  -0.01     0.03   0.01   0.05
     3   6     0.02   0.03   0.07     0.01  -0.02   0.00    -0.04   0.08   0.05
     4   6     0.09   0.04  -0.06     0.00   0.01   0.02    -0.03   0.00  -0.12
     5   6    -0.10  -0.02   0.06    -0.00   0.01  -0.03     0.06  -0.04   0.11
     6   6    -0.04  -0.05  -0.06     0.00  -0.04   0.02    -0.03   0.16  -0.09
     7   6     0.11   0.07  -0.00     0.01   0.02   0.02     0.01  -0.06  -0.07
     8   6    -0.09  -0.08  -0.00    -0.01  -0.00  -0.01     0.01  -0.01   0.05
     9   6     0.02   0.02  -0.04    -0.01   0.01  -0.02    -0.04  -0.16   0.02
    10   6    -0.01   0.00  -0.00     0.03  -0.06  -0.07     0.02  -0.05  -0.00
    11   6     0.00  -0.01   0.00    -0.13   0.03   0.00    -0.01   0.05   0.01
    12   6    -0.01   0.01   0.01     0.09   0.02   0.06     0.06   0.03   0.00
    13   1     0.08   0.10   0.24     0.03  -0.01  -0.01    -0.07   0.07   0.13
    14   1     0.01  -0.04  -0.38     0.01  -0.03   0.02    -0.05   0.16  -0.06
    15   1    -0.13  -0.02   0.15    -0.02   0.00   0.03     0.04   0.05  -0.23
    16   1     0.04   0.10  -0.18     0.00  -0.01  -0.02    -0.01   0.02   0.18
    17   1    -0.09   0.17   0.38    -0.03   0.03  -0.01     0.09  -0.14  -0.01
    18   1    -0.14  -0.14  -0.15    -0.02  -0.05   0.03     0.04   0.18  -0.29
    19   1     0.24   0.14   0.24    -0.03   0.02  -0.02     0.19  -0.03   0.16
    20   1    -0.04  -0.12   0.05     0.03   0.03   0.02    -0.07  -0.17  -0.05
    21   1    -0.13  -0.28  -0.26     0.00  -0.03   0.00    -0.02  -0.02  -0.06
    22   1     0.15  -0.01   0.02    -0.03  -0.01  -0.02     0.10   0.05   0.06
    23   1    -0.02   0.11  -0.06    -0.05   0.01  -0.02     0.05  -0.33   0.08
    24   1     0.06  -0.01   0.01     0.18  -0.21  -0.21    -0.26  -0.08  -0.16
    25   1    -0.00   0.02  -0.02    -0.26   0.52   0.15     0.02  -0.08  -0.01
    26   1    -0.01   0.03  -0.00     0.21   0.02  -0.04    -0.09   0.04   0.02
    27   1     0.03  -0.03  -0.02     0.22  -0.04   0.01    -0.11   0.07   0.02
    28   1     0.04  -0.00   0.00    -0.16  -0.02  -0.03    -0.15  -0.08  -0.15
    29   1     0.04   0.02   0.06    -0.16  -0.11  -0.12    -0.11  -0.09  -0.04
    30   1     0.00  -0.03  -0.07     0.02   0.15   0.51     0.02   0.05   0.36
                     31                     32                     33
                      A                      A                      A
 Frequencies --   1026.8008              1047.0683              1052.6370
 Red. masses --      2.6355                 2.0220                 1.9946
 Frc consts  --      1.6372                 1.3061                 1.3021
 IR Inten    --      2.6280                10.6128                 4.3359
  Atom  AN      X      Y      Z        X      Y      Z        X      Y      Z
     1   8    -0.02  -0.02   0.00    -0.00   0.01  -0.01     0.00  -0.00   0.01
     2   6     0.03  -0.01   0.04     0.08  -0.02   0.03     0.01  -0.02  -0.04
     3   6    -0.09   0.14  -0.06    -0.09  -0.05  -0.03    -0.02   0.00   0.11
     4   6     0.07  -0.10  -0.01    -0.01   0.07  -0.05    -0.08   0.04  -0.08
     5   6    -0.04   0.04   0.07     0.05  -0.11  -0.03     0.08  -0.03   0.01
     6   6    -0.02   0.08   0.01    -0.07   0.04   0.10    -0.11  -0.03  -0.03
     7   6    -0.08  -0.02  -0.08     0.06  -0.05  -0.05     0.03  -0.06   0.08
     8   6     0.08  -0.06   0.06    -0.03   0.08   0.08     0.02   0.05  -0.05
     9   6     0.19   0.01  -0.01     0.03   0.02  -0.04     0.08   0.06   0.02
    10   6    -0.06   0.02  -0.03     0.03  -0.02  -0.05    -0.03   0.05   0.03
    11   6    -0.05  -0.05  -0.06    -0.02   0.02   0.02    -0.02  -0.06  -0.05
    12   6    -0.05   0.02   0.03    -0.03  -0.00   0.04    -0.02   0.00  -0.02
    13   1    -0.14   0.11  -0.10    -0.08  -0.08  -0.28     0.04   0.07   0.26
    14   1     0.12  -0.11   0.12     0.04  -0.13  -0.03    -0.04   0.06   0.05
    15   1     0.16  -0.20   0.09    -0.14   0.09  -0.02    -0.08   0.19  -0.29
    16   1    -0.06   0.09   0.07     0.25  -0.24  -0.23     0.09  -0.18   0.06
    17   1    -0.01   0.02   0.07     0.07  -0.08   0.06    -0.07   0.01  -0.08
    18   1    -0.15   0.01   0.18     0.03   0.14   0.25    -0.20  -0.12  -0.19
    19   1    -0.07   0.02  -0.02    -0.05   0.14   0.10     0.01  -0.12  -0.03
    20   1    -0.23  -0.02  -0.13     0.01  -0.25   0.04     0.36  -0.06   0.19
    21   1     0.07  -0.10  -0.01    -0.06  -0.04  -0.10     0.08  -0.03   0.14
    22   1     0.10  -0.18   0.04     0.08   0.40   0.15    -0.17   0.05  -0.05
    23   1     0.27  -0.03   0.00    -0.22  -0.10   0.00     0.35   0.05   0.02
    24   1     0.04   0.01  -0.01     0.21  -0.03  -0.00    -0.01   0.07   0.06
    25   1    -0.16   0.30   0.14    -0.03   0.06  -0.02    -0.09   0.18   0.11
    26   1     0.29  -0.21  -0.06    -0.04   0.08   0.00     0.23  -0.19  -0.05
    27   1     0.15  -0.02   0.06     0.02  -0.01  -0.02     0.12  -0.02   0.05
    28   1     0.09  -0.00   0.02     0.11   0.05   0.12     0.01  -0.02  -0.05
    29   1     0.11   0.08   0.21     0.09   0.07   0.09     0.02   0.01   0.04
    30   1     0.00  -0.08  -0.19    -0.00  -0.05  -0.17    -0.01  -0.04  -0.09
                     34                     35                     36
                      A                      A                      A
 Frequencies --   1074.1942              1089.8473              1129.1877
 Red. masses --      2.7567                 1.8443                 1.8092
 Frc consts  --      1.8742                 1.2907                 1.3592
 IR Inten    --      0.1227                20.6151                 0.3127
  Atom  AN      X      Y      Z        X      Y      Z        X      Y      Z
     1   8     0.00   0.01  -0.01    -0.01   0.02   0.01    -0.00   0.01  -0.01
     2   6     0.02   0.00   0.00     0.12  -0.07  -0.08     0.05  -0.00   0.05
     3   6    -0.05  -0.06  -0.15    -0.03   0.05   0.02    -0.02  -0.02  -0.02
     4   6     0.04  -0.10   0.09    -0.05  -0.08  -0.03     0.02   0.01  -0.01
     5   6    -0.07   0.09   0.07     0.05   0.08   0.01    -0.01  -0.03  -0.01
     6   6    -0.07  -0.04  -0.13    -0.05  -0.06   0.01    -0.00  -0.01   0.06
     7   6     0.14  -0.07   0.06     0.02   0.02  -0.04     0.01   0.02  -0.01
     8   6    -0.02   0.18   0.04     0.01  -0.03   0.06    -0.02  -0.01   0.03
     9   6     0.01  -0.02   0.00    -0.09   0.06   0.03    -0.04   0.02  -0.09
    10   6    -0.02  -0.02   0.02     0.02  -0.00  -0.01    -0.08   0.07   0.14
    11   6     0.01   0.01  -0.01     0.02   0.01   0.02     0.02  -0.06  -0.03
    12   6     0.02   0.02  -0.01     0.00  -0.01   0.01     0.08   0.01  -0.09
    13   1    -0.06  -0.06  -0.14     0.32   0.28  -0.07     0.08   0.02  -0.20
    14   1     0.14  -0.25   0.27     0.09  -0.11   0.39     0.04  -0.06  -0.02
    15   1    -0.04   0.05  -0.09     0.14  -0.06  -0.16     0.01  -0.05   0.09
    16   1     0.04  -0.10   0.00    -0.07  -0.06   0.23     0.02   0.00  -0.05
    17   1    -0.19   0.18   0.10    -0.20   0.14  -0.13     0.04  -0.03   0.04
    18   1    -0.11  -0.05   0.00     0.04  -0.01  -0.13     0.16   0.13   0.20
    19   1     0.37  -0.13   0.22    -0.11   0.15   0.00    -0.21   0.15  -0.08
    20   1     0.02  -0.04  -0.00    -0.06  -0.10  -0.00    -0.01  -0.04   0.02
    21   1    -0.06   0.38   0.03     0.02  -0.42  -0.13    -0.03  -0.20  -0.09
    22   1     0.05   0.07   0.02     0.09  -0.01   0.06     0.04   0.15   0.06
    23   1     0.09   0.28  -0.09    -0.23   0.17  -0.01     0.32   0.07  -0.10
    24   1    -0.18  -0.01  -0.04     0.06   0.00   0.01    -0.27   0.16   0.18
    25   1     0.02  -0.05   0.02     0.04  -0.07  -0.04     0.01  -0.04   0.04
    26   1     0.01  -0.05   0.00    -0.08   0.07   0.02     0.12  -0.15  -0.02
    27   1    -0.06   0.04   0.03    -0.03  -0.01  -0.02     0.07  -0.05   0.01
    28   1    -0.07  -0.06  -0.11     0.01   0.02   0.04    -0.22  -0.08  -0.24
    29   1    -0.04  -0.04   0.02     0.00   0.01  -0.03    -0.18  -0.15  -0.21
    30   1     0.02  -0.00   0.13    -0.00   0.01  -0.02     0.01   0.09   0.32
                     37                     38                     39
                      A                      A                      A
 Frequencies --   1143.0780              1156.7032              1170.4766
 Red. masses --      1.5454                 1.3374                 1.0890
 Frc consts  --      1.1897                 1.0543                 0.8790
 IR Inten    --     17.1294                 0.5826                 0.2764
  Atom  AN      X      Y      Z        X      Y      Z        X      Y      Z
     1   8    -0.01   0.00   0.00    -0.00  -0.01   0.01     0.00  -0.01   0.00
     2   6     0.10  -0.04  -0.00     0.00  -0.01  -0.05    -0.01  -0.00  -0.02
     3   6    -0.09  -0.02   0.03    -0.02   0.00   0.00     0.00   0.00  -0.01
     4   6     0.05   0.03  -0.00     0.02   0.01  -0.00    -0.02   0.00   0.01
     5   6    -0.07  -0.03  -0.01     0.00  -0.00   0.01     0.00  -0.02   0.01
     6   6     0.03   0.01  -0.03     0.00   0.00  -0.00    -0.01  -0.01   0.01
     7   6    -0.05  -0.01   0.07    -0.02  -0.02   0.02     0.01   0.02  -0.01
     8   6     0.05   0.03  -0.05     0.00   0.01   0.01     0.01  -0.00   0.00
     9   6     0.01   0.02   0.01     0.06   0.03   0.01     0.02   0.02  -0.01
    10   6     0.00  -0.04  -0.01    -0.02  -0.12  -0.01    -0.02  -0.05   0.00
[...]
 87,0.00001295,-0.00030344,-0.00035936,0.00045586,0.00003672,-0.0000007
 9,0.00006744,0.00013510,-0.00004176,-0.00007015,0.00002125,-0.00005728
 ,0.00003611,0.00033567,0.00100597,-0.00007415,0.00650377,0.05822834,0.
 00038122,0.00085702,-0.00094061,-0.00105126,0.00018586,0.00067092,0.00
 017056,-0.00011886,0.00019377,-0.00000063,0.00001457,-0.00000205,0.000
 43138,0.00008598,-0.00038662,0.00004041,0.00228973,-0.00093274,0.00052
 474,0.00015427,0.00034965,0.00001972,-0.00007463,0.00004837,0.01471328
 ,0.00206681,0.00475582,-0.09438552,-0.00338082,-0.09044037,0.00794948,
 -0.00028030,0.00304836,-0.03080530,-0.00076399,-0.01933731,-0.00002929
 ,-0.00003265,0.00000669,0.00001457,-0.00001262,0.00002916,-0.00002539,
 0.00004530,0.00000446,0.00003158,0.00012713,0.00019191,-0.00000863,0.0
 0004962,0.00019429,-0.00009910,-0.00018648,-0.00007066,0.00017136,0.00
 015069,-0.00019736,-0.00001169,-0.00003240,0.00000414,-0.00002113,0.00
 002091,-0.00000435,-0.00001958,0.00002570,-0.00001913,0.00050349,-0.00
 061492,0.00077192,0.09927618,0.00084420,0.10534649,-0.00003384,-0.0001
 2585,0.00004025,0.00070828,0.00057242,-0.00037845,-0.00020635,0.000197
 01,0.00008424,-0.00001415,0.00000799,-0.00010939,0.00011599,-0.0000903
 4,0.00013940,-0.00047325,0.00041123,-0.00019351,0.00021230,-0.00004727
 ,-0.00002255,-0.00008704,-0.00004492,0.00005988,-0.00120797,0.00289010
 ,0.00071699,0.00839501,0.01289955,-0.00638179,-0.12201419,-0.10592151,
 0.05305004,0.00040463,0.00003320,-0.00037212,0.00006063,0.00008184,0.0
 0001397,0.00002163,-0.00002676,0.00002055,0.00002170,-0.00003187,0.000
 00097,-0.00000641,0.00000415,-0.00000842,-0.00000272,0.00000188,0.0000
 0771,0.00052344,-0.00011731,0.00011173,0.00001026,0.00000355,-0.000025
 68,-0.00000066,0.00000733,-0.00001901,0.00002438,-0.00003333,0.0000051
 7,0.00001813,-0.00002116,0.00001362,-0.00020133,-0.00004465,0.00011874
 ,0.00092655,-0.00054892,-0.00044504,0.13001354,0.00087000,-0.00001123,
 -0.00014457,-0.00263280,-0.00026320,0.00078416,0.00052790,-0.00048031,
 -0.00011037,-0.00000670,-0.00003545,0.00014807,-0.00006291,0.00000259,
 0.00012623,0.00068128,0.00013353,0.00023403,-0.00007005,-0.00001502,-0
 .00008816,0.00006709,0.00004338,-0.00010337,0.00434777,-0.00465531,-0.
 00205728,-0.01576316,-0.02212102,0.01148202,-0.10522239,-0.19873887,0.
 07585977,-0.00113366,0.00080080,0.00108633,-0.00011106,-0.00023489,-0.
 00002806,-0.00004288,-0.00000671,-0.00005782,0.00002678,-0.00001563,-0
 .00002025,0.00000104,0.00001345,-0.00004979,-0.00003101,-0.00003634,-0
 .00006791,-0.00009049,0.00016242,-0.00005076,-0.00007213,-0.00005379,0
 .00004016,0.00000843,0.00001202,0.00000294,-0.00004055,-0.00001976,0.0
 0001277,0.00001044,0.00001216,0.00000465,0.00019519,0.00042834,-0.0001
 8755,0.00004813,0.00123737,0.00038037,0.11365948,0.21755213,-0.0001218
 7,0.00007506,-0.00008165,0.00009313,-0.00017762,0.00059854,-0.00001668
 ,-0.00000860,-0.00014316,-0.00002062,-0.00005244,-0.00001548,0.0000704
 6,-0.00002422,0.00006627,-0.00008291,0.00004659,0.00004174,0.00006568,
 -0.00006556,-0.00006653,0.00000676,0.00000284,0.00002066,0.00027456,-0
 .00086579,-0.00003664,-0.00442018,-0.00546180,0.00136271,0.05314973,0.
 07629851,-0.08828579,-0.00047704,-0.00077517,0.00053548,-0.00000063,0.
 00000507,-0.00001030,0.00000166,0.00000246,-0.00000709,0.00000113,-0.0
 0001239,0.00000329,-0.00001446,0.00000610,-0.00000065,0.00001201,0.000
 01863,0.00000979,0.00016099,0.00002162,-0.00006954,0.00000390,0.000024
 01,0.00001895,-0.00002777,-0.00000231,0.00005218,0.00001419,0.00000142
 ,-0.00000046,0.00000153,-0.00001024,0.00000607,-0.00004726,-0.00009711
 ,0.00056706,-0.00009899,0.00052352,0.00000535,-0.05935810,-0.08350213,
 0.09137511,-0.00002542,0.00004265,-0.00010023,-0.00017154,-0.00015509,
 -0.00001594,0.00004202,-0.00002070,0.00004016,-0.00000329,0.00001584,0
 .00003442,-0.00003286,0.00001150,0.00001146,-0.00011347,0.00004707,0.0
 0000132,0.00006882,-0.00008404,-0.00004998,-0.00001186,-0.00001470,0.0
 0003393,0.00034674,-0.00074768,-0.00010696,-0.00196079,0.00107502,0.01
 584274,-0.05108831,0.00196224,0.01671329,-0.00115245,0.00321441,-0.000
 17131,-0.00001655,-0.00000910,0.00000568,0.00000581,0.00000302,-0.0000
 0661,0.00000446,-0.00001569,-0.00000786,-0.00005020,0.00002369,0.00000
 509,0.00001621,0.00001034,-0.00001923,0.00004214,0.00002148,-0.0001013
 8,0.00000250,0.00001584,0.00000545,-0.00000687,-0.00001303,0.00005015,
 -0.00000251,0.00000133,0.00000307,-0.00000023,-0.00000050,-0.00000647,
 0.00031784,-0.00000295,-0.00028236,0.00027227,-0.00072889,0.00015191,-
 0.00131421,0.00329117,0.01791784,0.05034188,-0.00032765,0.00001365,0.0
 0009707,0.00062470,0.00003402,0.00017971,-0.00008564,0.00009624,-0.000
 15154,-0.00000906,-0.00003322,-0.00003028,0.00011415,0.00007192,-0.000
 10270,-0.00012860,-0.00009904,0.00016455,-0.00003558,-0.00006465,-0.00
 003766,0.00002269,0.00000502,0.00000783,-0.00009126,0.00143013,-0.0016
 7746,0.00035808,-0.00364065,-0.02947044,0.00198436,-0.05369651,-0.0331
 8888,0.00268008,-0.00551196,0.00017262,0.00001508,0.00004919,0.0000017
 1,-0.00000384,-0.00000423,0.00001296,-0.00001593,0.00003760,0.00002204
 ,0.00003689,0.00001020,0.00008384,-0.00001057,0.00001138,0.00006115,-0
 .00001143,0.00000971,-0.00008680,0.00001000,0.00002320,0.00002399,-0.0
 0004107,-0.00000991,0.00006420,0.00001019,0.00001666,0.00000153,-0.000
 00447,-0.00000996,0.00001875,-0.00015995,-0.00046671,0.00095669,-0.000
 24658,0.00119367,0.00062337,-0.00020857,0.00427462,0.02537196,-0.00452
 394,0.05694367,-0.00023263,-0.00007026,0.00010908,0.00033316,-0.000125
 70,0.00039658,-0.00002304,0.00001228,-0.00014286,-0.00002785,-0.000035
 75,-0.00000694,0.00006932,0.00006700,-0.00008331,-0.00012689,-0.000128
 02,0.00006581,0.00000614,-0.00009581,-0.00012913,0.00002149,0.00000913
 ,0.00000897,-0.00027870,0.00106496,0.00035874,0.00046251,0.00031305,-0
 .00651283,0.01692243,-0.03397053,-0.30354542,0.00120717,-0.00232564,0.
 00112731,0.00000085,0.00000103,0.00000438,-0.00001076,-0.00002020,0.00
 000584,-0.00000517,0.00003229,0.00001980,0.00001744,0.00002627,0.00010
 443,-0.00001851,-0.00000670,0.00003932,0.00005113,-0.00003272,-0.00014
 137,-0.00001415,0.00000295,0.00003212,-0.00002845,0.00000486,0.0001048
 5,-0.00000163,0.00000439,0.00000222,0.00000257,-0.00001068,0.00001977,
 -0.00019483,-0.00041150,0.00075726,0.00039795,-0.00006192,0.00051532,0
 .00020964,-0.00141765,-0.01136901,-0.01973242,0.03784111,0.33003461,0.
 00031421,0.00044089,-0.00006787,-0.00029407,-0.00021466,0.00003045,-0.
 00001208,0.00007210,0.00006498,-0.00001228,0.00002969,-0.00013664,0.00
 017626,-0.00007307,0.00012807,-0.00060992,0.00013366,-0.00040356,0.000
 36003,-0.00003910,0.00002543,-0.00008717,-0.00002710,0.00010113,-0.000
 25868,-0.00071153,0.00045024,-0.01444479,0.00108193,-0.00585534,-0.267
 34720,0.00680822,-0.09240701,0.00037030,-0.00068323,-0.00098184,0.0000
 3636,0.00003825,0.00000983,0.00003736,-0.00001871,0.00003983,0.0000196
 6,-0.00004094,-0.00000393,-0.00004920,0.00002694,0.00002479,0.00002156
 ,0.00002358,0.00002869,0.00050879,-0.00088644,0.00012951,0.00005103,0.
 00005081,-0.00005073,-0.00001914,-0.00000274,0.00001813,0.00004641,-0.
 00002504,-0.00000230,0.00001463,-0.00003246,0.00002591,-0.00002982,0.0
 0002128,0.00004444,0.00022512,0.00301444,0.00122619,-0.01592405,0.0005
 3679,-0.00717876,0.00371699,-0.00059451,0.00111147,0.29249414,-0.00068
 279,-0.00047881,0.00014441,0.00088829,-0.00000319,-0.00020514,-0.00005
 051,-0.00000075,-0.00000234,0.00004926,-0.00000755,0.00009454,-0.00012
 120,0.00006298,-0.00016457,0.00032084,-0.00090442,0.00008328,-0.000305
 84,0.00017190,0.00010394,0.00009954,0.00001657,-0.00007189,0.00034136,
 0.00181489,0.00013693,0.02885453,-0.00020136,0.01240472,0.00677457,-0.
 04914022,0.00274632,-0.00037052,0.00118730,0.00163227,-0.00003138,0.00
 001206,-0.00000349,-0.00003155,0.00004028,-0.00002307,-0.00002155,0.00
 003864,0.00001396,0.00002069,-0.00003032,-0.00001889,0.00000244,-0.000
 00179,-0.00000194,-0.00107788,-0.00076589,0.00005912,0.00000530,-0.000
 00104,0.00000715,0.00000050,-0.00001414,-0.00000469,-0.00004761,0.0000
 4872,-0.00000382,-0.00001724,0.00002977,-0.00002257,-0.00000197,-0.000
 11569,0.00004311,0.00267468,-0.00514988,-0.00166369,-0.02322871,0.0012
 9852,-0.01138079,-0.00389942,-0.00082129,-0.00095804,-0.00926278,0.052
 76118,0.00010514,-0.00006485,0.00002058,0.00008770,-0.00001732,-0.0000
 0295,-0.00003429,0.00003497,0.00001273,-0.00000953,-0.00000754,-0.0000
 9496,0.00011764,-0.00012956,0.00019389,-0.00054738,0.00039206,-0.00010
 219,0.00016527,-0.00003807,-0.00002430,-0.00006229,-0.00000002,0.00002
 777,-0.00067305,0.00014052,-0.00001761,0.00702349,0.00074617,0.0020811
 8,-0.09246069,0.00296181,-0.08977986,0.00125291,0.00039668,0.00126588,
 0.00002200,0.00000874,-0.00000507,0.00001495,-0.00001666,0.00000468,0.
 00002049,-0.00004102,-0.00000701,-0.00000086,-0.00003822,-0.00006570,0
 .00000246,0.00001563,-0.00000223,0.00042363,-0.00013734,0.00028626,0.0
 0000630,0.00001089,-0.00000980,-0.00001005,0.00001932,-0.00004671,0.00
 002401,-0.00003031,0.00000573,0.00001880,-0.00002584,0.00001839,-0.000
 13290,-0.00011770,-0.00000393,0.00109931,-0.00134395,0.00043410,0.0129
 1041,-0.00124685,0.00530205,-0.03124950,0.00079636,-0.01173197,0.10239
 234,-0.00230015,0.09209005,0.00041747,0.00024290,-0.00029366,-0.000566
 20,-0.00040837,0.00009357,0.00006191,-0.00001261,0.00004141,-0.0001725
 9,0.00006668,0.00004629,-0.00041709,-0.00084849,-0.00068315,-0.0000039
 2,0.00010046,-0.00049333,0.00007854,0.00011665,0.00010828,-0.00001456,
 0.00003494,0.00003048,0.00022640,-0.00027846,-0.00033965,0.00491646,-0
 .00006707,0.00204684,0.00095430,-0.00004703,0.00036528,-0.24655419,0.0
 1776957,-0.10953287,0.00003314,0.00001358,0.00004542,0.00008665,-0.000
 07569,0.00005198,0.00002263,-0.00001723,-0.00004014,-0.00065933,-0.001
 35344,0.00110470,-0.00019850,-0.00025377,0.00030507,0.00003184,-0.0000
 1281,-0.00001839,0.00006734,0.00004258,-0.00004952,-0.00001823,-0.0000
 1865,0.00006297,0.00002927,0.00000787,-0.00001757,-0.00000534,-0.00001
 075,0.00002406,0.00008559,0.00010863,-0.00016309,0.00147689,0.00039349
 ,0.00120138,-0.00013344,0.00001711,-0.00006332,0.00029439,-0.00016910,
 -0.00003240,0.00028300,-0.00048365,-0.00040516,0.26838916,-0.00064938,
 -0.00018006,0.00051921,0.00100822,0.00010745,-0.00011299,-0.00008277,0
 .00002282,-0.00004636,0.00022106,-0.00020759,-0.00004463,-0.00047414,-
 0.00079218,0.00070920,0.00001640,0.00046285,0.00017250,-0.00001352,-0.
 00014991,-0.00009325,0.00002298,-0.00005987,-0.00000867,0.00070796,0.0
 0013879,0.00035503,-0.00293618,-0.00093459,-0.00185630,-0.00114159,0.0
 0039054,-0.00027288,0.01712495,-0.05121513,0.00890930,-0.00003733,0.00
 000505,-0.00005472,-0.00007220,0.00008594,-0.00005066,-0.00003084,-0.0
 0002002,0.00004851,-0.00104692,-0.00158279,-0.00004877,0.00009929,0.00
 011830,-0.00017389,0.00000163,0.00000228,0.00001373,-0.00002124,-0.000
 00767,0.00000743,0.00001402,0.00003102,-0.00011110,-0.00002356,0.00001
 010,0.00001752,-0.00000220,0.00000789,-0.00002662,-0.00012739,-0.00001
 838,-0.00004814,0.00022399,0.00056630,-0.00098664,-0.00015710,-0.00005
 566,-0.00004160,0.00006195,-0.00004481,0.00023299,0.00025072,0.0002134
 7,-0.00005871,-0.01671707,0.05119685,0.00034343,0.00036814,0.00012636,
 -0.00032033,-0.00043390,-0.00010220,0.00001975,0.00003082,-0.00000519,
 -0.00023066,0.00000245,0.00001598,0.00039617,0.00000281,-0.00040616,-0
 .00010196,0.00054179,-0.00043484,0.00022694,0.00002749,0.00004639,-0.0
 0006691,0.00000306,0.00005103,-0.00061876,-0.00036652,0.00103426,-0.03
 120134,0.00140378,-0.01633138,-0.00125888,0.00131018,0.00163493,-0.109
 31687,0.00916419,-0.11029048,0.00004787,0.00003695,0.00003894,0.000079
 07,-0.00010261,0.00007239,0.00002177,-0.00001949,0.00001143,-0.0000714
 1,0.00031350,0.00085717,-0.00008712,-0.00006395,0.00020175,0.00032088,
 -0.00010861,-0.00010246,0.00004633,0.00003547,-0.00003529,-0.00002452,
 -0.00001055,0.00008838,0.00004359,-0.00001694,-0.00000512,0.00000565,-
 0.00002157,0.00003502,0.00021760,-0.00007015,0.00016405,0.00169964,-0.
 00100506,-0.00681381,0.00009016,-0.00014724,-0.00003258,0.00035340,0.0
 0027391,0.00034443,0.00107009,-0.00067496,0.00012361,0.12138427,-0.009
 24816,0.12060363,-0.00034867,-0.00005146,-0.00017632,0.00045299,-0.000
 12382,0.00026648,-0.00001896,-0.00010906,0.00006271,-0.00004843,-0.000
 18249,0.00028509,0.00003580,-0.00012101,0.00052877,-0.00016987,0.00028
 595,0.00019530,0.00001703,-0.00012667,-0.00009516,-0.00005031,-0.00002
 210,0.00001362,0.00006138,0.00064699,-0.00015181,-0.00290841,0.0026376
 3,0.00101187,0.00055286,-0.00034919,0.00136784,-0.09871969,0.09928903,
 0.02446410,-0.00002159,0.00000440,-0.00003558,0.00004692,0.00003461,-0
 .00011440,0.00006436,-0.00029088,-0.00006965,-0.00057000,0.00031827,-0
 .00031705,0.00018481,0.00013738,-0.00025130,0.00015122,-0.00010008,-0.
 00005945,-0.00002531,-0.00001637,0.00002538,0.00001431,0.00001203,-0.0
 0007377,0.00000443,-0.00000989,0.00001142,0.00001605,-0.00001076,-0.00
 003764,-0.00001061,-0.00004589,-0.00008373,0.00026836,-0.00040569,0.00
 017130,0.00001086,0.00032594,-0.00011897,0.00030747,0.00052490,0.00006
 824,0.00041728,-0.00032174,-0.00016399,-0.01142577,0.02543085,0.007088
 72,0.10187355,-0.00057009,-0.00038041,0.00091874,0.00094091,-0.0001011
 1,0.00016463,-0.00011911,0.00008787,-0.00004649,-0.00009027,0.00009227
 ,0.00000631,-0.00020892,0.00010849,-0.00032419,-0.00003930,-0.00006041
 ,-0.00009379,0.00004520,0.00003264,0.00005003,0.00000723,-0.00003492,-
 0.00000821,-0.00033855,0.00061347,0.00010005,0.00013614,-0.00184825,0.
 00005550,-0.00040297,0.00091992,-0.00124202,0.09918300,-0.25311243,-0.
 05133429,0.00001959,0.00003982,0.00001966,0.00000674,-0.00000026,-0.00
 001114,0.00000329,0.00004031,-0.00002356,-0.00017397,-0.00024044,0.000
 22891,-0.00005924,-0.00004424,0.00014815,-0.00006106,0.00002325,0.0000
 1983,0.00002674,0.00002905,-0.00002539,-0.00001182,-0.00000041,0.00003
 944,-0.00000348,0.00001454,0.00000874,-0.00000418,0.00000051,0.0000084
 1,0.00001043,0.00006128,-0.00010179,-0.00012998,-0.00008595,-0.0002844
 9,-0.00000922,0.00050746,0.00016934,0.00037465,-0.00001722,-0.00008028
 ,0.00005295,-0.00002320,0.00013378,-0.00041771,-0.00046678,0.00066399,
 -0.10897713,0.27431245,-0.00156265,-0.00003060,0.00073419,0.00249328,0
 .00070321,-0.00087707,-0.00024833,0.00015807,-0.00028371,0.00002529,-0
 .00010506,0.00008272,0.00013192,-0.00000883,0.00004278,0.00013580,0.00
 016138,-0.00020171,0.00009592,-0.00000224,0.00000197,0.00006872,-0.000
 08968,-0.00006826,0.00004455,-0.00004473,0.00196189,0.01480562,-0.0305
 5062,-0.00547761,-0.00016230,0.00085874,-0.00715353,0.02388007,-0.0499
 6393,-0.06176132,-0.00000619,0.00004090,0.00000779,-0.00007791,-0.0000
 1955,-0.00002590,0.00000443,0.00009314,0.00008206,0.00008490,0.0001444
 3,0.00004039,-0.00002214,0.00004228,-0.00000783,-0.00016742,-0.0000186
 3,-0.00004007,-0.00000717,0.00001335,-0.00002020,-0.00000888,0.0000162
 3,0.00001668,-0.00005701,0.00000439,0.00002868,0.00000440,0.00001424,0
 .00000418,-0.00041318,-0.00017398,0.00024863,-0.00045133,0.00009292,0.
 00110660,-0.00032464,0.00012163,0.00009941,0.00116290,-0.00199386,-0.0
 0061838,0.00021634,0.00017546,0.00006554,-0.00563246,0.01520254,0.0035
 0993,-0.02835228,0.05589483,0.06643978,0.00031150,-0.00006307,-0.00007
 704,-0.00044338,0.00003802,0.00008965,0.00006080,-0.00004694,0.0000007
 9,-0.00021696,0.00000519,0.00012150,0.00009939,0.00002570,-0.00056355,
 0.00015610,0.00008664,-0.00033000,0.00007231,0.00007668,0.00002615,-0.
 00002736,0.00002492,-0.00001106,0.00101052,0.00074660,0.00030948,-0.00
 267433,-0.00231837,0.00035393,-0.00028278,-0.00069142,-0.00019447,-0.1
 4432392,-0.11451661,0.05180331,0.00001928,-0.00001923,0.00003003,0.000
 05715,-0.00008623,0.00000645,0.00004530,-0.00005442,-0.00002412,-0.000
 22651,-0.00008176,0.00058354,-0.00007972,-0.00012597,0.00013673,0.0000
 5988,-0.00000050,-0.00009450,0.00000563,0.00000028,-0.00001375,0.00000
 076,-0.00001103,0.00006494,0.00000554,-0.00001817,-0.00000492,0.000008
 88,-0.00000337,0.00001156,0.00002389,-0.00026732,0.00016543,0.00091045
 ,0.00059109,-0.00007619,0.00015227,0.00066525,0.00027400,0.00017101,0.
 00028662,-0.00015405,-0.00000473,-0.00007565,0.00006284,-0.01728581,-0
 .02165059,0.00984343,0.00983794,0.01081012,-0.00566021,0.15255691,-0.0
 0003760,-0.00002813,0.00016426,0.00009052,0.00029425,-0.00027002,0.000
 00419,0.00003357,-0.00007387,0.00001956,0.00010470,-0.00008859,-0.0000
 6642,0.00018990,-0.00048073,0.00009029,-0.00010494,-0.00008748,-0.0000
 0221,0.00004370,0.00000768,0.00002840,-0.00000224,-0.00002444,0.000619
 65,0.00095640,-0.00072096,0.00309747,0.00179082,-0.00108529,0.00046475
 ,0.00064301,-0.00051867,-0.11475273,-0.18869971,0.06274961,0.00000686,
 -0.00002454,0.00002372,-0.00004021,-0.00003605,0.00004248,0.00000614,0
 .00013146,0.00004031,0.00001200,-0.00026559,0.00035074,-0.00010993,-0.
 00010033,0.00015899,-0.00005198,0.00003115,0.00003720,-0.00000453,-0.0
 0000950,-0.00001116,0.00000068,0.00000388,0.00003659,-0.00001363,-0.00
 000841,0.00000485,-0.00000118,0.00000538,0.00002553,-0.00012667,0.0001
 1110,0.00002895,0.00023799,0.00031928,0.00051098,-0.00011227,0.0002643
 9,-0.00008935,0.00004354,0.00019927,0.00013906,0.00003006,-0.00003677,
 -0.00004281,0.00227743,0.00237580,-0.00188882,-0.01838374,-0.02046730,
 0.00926395,0.12667355,0.20228541,-0.00065455,0.00021653,0.00008195,0.0
 0103173,-0.00137798,-0.00013016,-0.00007597,0.00005050,0.00002632,-0.0
 0006179,0.00007833,-0.00005515,-0.00010035,-0.00009139,-0.00043607,-0.
 00043388,-0.00017021,-0.00039542,0.00017498,0.00007835,0.00015646,-0.0
 0000624,-0.00003787,0.00003519,-0.00034515,-0.00244062,-0.00574274,0.0
 2064492,0.02571084,-0.01260966,0.00000237,0.00137133,0.00104710,0.0509
 2349,0.06187688,-0.07525692,0.00003522,0.00008176,0.00003703,0.0000325
 3,-0.00002939,0.00006529,0.00000653,0.00005646,0.00001667,0.00003766,-
 0.00003368,0.00046989,-0.00008549,-0.00007482,0.00021742,0.00014525,-0
 .00001119,0.00003198,0.00010701,0.00011496,-0.00003386,-0.00004621,-0.
 00000463,0.00009635,0.00003440,0.00002079,0.00000058,-0.00001118,-0.00
 001991,0.00004286,0.00074440,0.00153626,-0.00126340,-0.00032555,0.0004
 4428,0.00146769,0.00004522,-0.00100337,0.00005421,-0.00048255,-0.00003
 574,0.00023040,-0.00004989,-0.00014516,-0.00003815,-0.00914726,-0.0129
 0386,0.00559986,-0.00545974,-0.00505472,0.00206237,-0.05667991,-0.0682
 0273,0.08422195\\0.00009896,-0.00003176,-0.00001102,-0.00009501,0.0000
 6215,-0.00002106,0.00000880,-0.00002512,0.00008494,-0.00003504,0.00000
 128,-0.00002239,0.00001409,0.00000028,-0.00002559,-0.00003532,0.000024
 17,-0.00004085,-0.00001500,-0.00000607,0.00000771,0.00001627,-0.000033
 90,-0.00000204,0.00007253,-0.00001516,0.00000288,-0.00001137,0.0000090
 2,0.00003160,-0.00001559,0.00001723,0.00000591,0.00000893,0.00002050,-
 0.00005612,-0.00000259,0.00000208,-0.00000639,-0.00001127,0.00001362,0
 .00001464,-0.00000383,-0.00000391,0.00001135,0.00000034,-0.00000242,0.
 00000885,0.00001098,-0.00001059,0.00000348,-0.00001150,0.00000484,0.00
 000083,0.00000519,0.00000046,-0.00000814,-0.00000173,-0.00001799,-0.00
 000442,-0.00000453,0.00001278,0.00000159,0.00000476,0.00000517,0.00000
 141,-0.00001249,-0.00000789,0.00001021,0.00000395,0.00000462,-0.000000
 76,-0.00000094,-0.00001523,0.00000074,0.00000123,-0.00000591,-0.000006
 25,0.00000920,-0.00000595,0.00000521,0.00001412,-0.00000488,0.00001355
 ,-0.00000893,0.00001513,-0.00000316,-0.00000421,-0.00000653,0.00000332
 \\\@


 GARLIC THEN HAVE POWER TO SAVE FROM DEATH
 BEAR WITH IT THOUGH IT MAKETH UNSAVORY BREATH,
 AND SCORN NOT GARLIC LIKE SOME THAT THINK
 IT ONLY MAKETH MEN WINK AND DRINK AND STINK.
   --  SIR JOHN HARRINGTON,
       "THE ENGLISHMAN'S DOCTOR", 1609
 Job cpu time:       0 days  0 hours  3 minutes 13.7 seconds.
 Elapsed time:       0 days  0 hours  3 minutes 18.7 seconds.
 File lengths (MBytes):  RWF=    166 Int=      0 D2E=      0 Chk=     16 Scr=      1
 Normal termination of Gaussian 16 at Sat Feb 24 05:00:39 2024.
