 Entering Gaussian System, Link 0=g16
 Input=/Volumes/SSD-PMU3/b3lyp_6-31gd_freq/BYLLPDFBHUIPKF-BZNPZCIMSA-N_calculating/gaussianinput0.gjf
 Output=/Volumes/SSD-PMU3/b3lyp_6-31gd_freq/BYLLPDFBHUIPKF-BZNPZCIMSA-N_calculating/gaussianinput0.log
 Initial command:
 /Applications/g16/l1.exe "/Users/macmini_m1_2022/PycharmProjects/sphere_model/sphere_model_lib/Gau-56953.inp" -scrdir="/Users/macmini_m1_2022/PycharmProjects/sphere_model/sphere_model_lib/"
 Entering Link 1 = /Applications/g16/l1.exe PID=     56954.
  
 Copyright (c) 1988,1990,1992,1993,1995,1998,2003,2009,2016,
            Gaussian, Inc.  All Rights Reserved.
  
 This is part of the Gaussian(R) 16 program.  It is based on
 the Gaussian(R) 09 system (copyright 2009, Gaussian, Inc.),
 the Gaussian(R) 03 system (copyright 2003, Gaussian, Inc.),
 the Gaussian(R) 98 system (copyright 1998, Gaussian, Inc.),
 the Gaussian(R) 94 system (copyright 1995, Gaussian, Inc.),
 the Gaussian 92(TM) system (copyright 1992, Gaussian, Inc.),
 the Gaussian 90(TM) system (copyright 1990, Gaussian, Inc.),
 the Gaussian 88(TM) system (copyright 1988, Gaussian, Inc.),
 the Gaussian 86(TM) system (copyright 1986, Carnegie Mellon
 University), and the Gaussian 82(TM) system (copyright 1983,
 Carnegie Mellon University). Gaussian is a federally registered
 trademark of Gaussian, Inc.
  
 This software contains proprietary and confidential information,
 including trade secrets, belonging to Gaussian, Inc.
  
 This software is provided under written license and may be
 used, copied, transmitted, or stored only in accord with that
 written license.
  
 The following legend is applicable only to US Government
 contracts under FAR:
  
                    RESTRICTED RIGHTS LEGEND
  
 Use, reproduction and disclosure by the US Government is
 subject to restrictions as set forth in subparagraphs (a)
 and (c) of the Commercial Computer Software - Restricted
 Rights clause in FAR 52.227-19.
  
 Gaussian, Inc.
 340 Quinnipiac St., Bldg. 40, Wallingford CT 06492
  
  
 ---------------------------------------------------------------
 Warning -- This program may not be used in any manner that
 competes with the business of Gaussian, Inc. or will provide
 assistance to any competitor of Gaussian, Inc.  The licensee
 of this program is prohibited from giving any competitor of
 Gaussian, Inc. access to this program.  By using this program,
 the user acknowledges that Gaussian, Inc. is engaged in the
 business of creating and licensing software in the field of
 computational chemistry and represents and warrants to the
 licensee that it is not a competitor of Gaussian, Inc. and that
 it will not use this program in any manner prohibited above.
 ---------------------------------------------------------------
  

 Cite this work as:
 Gaussian 16, Revision A.03,
 M. J. Frisch, G. W. Trucks, H. B. Schlegel, G. E. Scuseria, 
 M. A. Robb, J. R. Cheeseman, G. Scalmani, V. Barone, 
 G. A. Petersson, H. Nakatsuji, X. Li, M. Caricato, A. V. Marenich, 
 J. Bloino, B. G. Janesko, R. Gomperts, B. Mennucci, H. P. Hratchian, 
 J. V. Ortiz, A. F. Izmaylov, J. L. Sonnenberg, D. Williams-Young, 
 F. Ding, F. Lipparini, F. Egidi, J. Goings, B. Peng, A. Petrone, 
 T. Henderson, D. Ranasinghe, V. G. Zakrzewski, J. Gao, N. Rega, 
 G. Zheng, W. Liang, M. Hada, M. Ehara, K. Toyota, R. Fukuda, 
 J. Hasegawa, M. Ishida, T. Nakajima, Y. Honda, O. Kitao, H. Nakai, 
 T. Vreven, K. Throssell, J. A. Montgomery, Jr., J. E. Peralta, 
 F. Ogliaro, M. J. Bearpark, J. J. Heyd, E. N. Brothers, K. N. Kudin, 
 V. N. Staroverov, T. A. Keith, R. Kobayashi, J. Normand, 
 K. Raghavachari, A. P. Rendell, J. C. Burant, S. S. Iyengar, 
 J. Tomasi, M. Cossi, J. M. Millam, M. Klene, C. Adamo, R. Cammi, 
 J. W. Ochterski, R. L. Martin, K. Morokuma, O. Farkas, 
 J. B. Foresman, and D. J. Fox, Gaussian, Inc., Wallingford CT, 2016.
 
 ******************************************
 Gaussian 16:  EM64M-G16RevA.03 25-Dec-2016
                22-Feb-2024 
 ******************************************
 %nprocshared=8
 Will use up to    8 processors via shared memory.
 %mem=4GB
 %chk= 0.chk
 ---------------------
 # freq b3lyp/6-31g(d)
 ---------------------
 1/10=4,30=1,38=1/1,3;
 2/12=2,17=6,18=5,40=1/2;
 3/5=1,6=6,7=1,11=2,25=1,30=1,71=2,74=-5,140=1/1,2,3;
 4//1;
 5/5=2,38=5,98=1/2;
 8/6=4,10=90,11=11/1;
 11/6=1,8=1,9=11,15=111,16=1/1,2,10;
 10/6=1/2;
 6/7=2,8=2,9=2,10=2,28=1/1;
 7/8=1,10=1,25=1/1,2,3,16;
 1/10=4,30=1/3;
 99//99;
 ---------
 good luck
 ---------
 Symbolic Z-matrix:
 Charge =  0 Multiplicity = 1
 O                     1.21652   0.        0. 
 C                     0.        0.        0. 
 C                    -0.81423  -1.29656   0.01378 
 C                    -2.25235  -1.09311  -0.5193 
 C                    -3.25607  -0.56361   0.54207 
 C                    -3.10875   0.94144   0.86613 
 C                    -1.68564   1.29672   1.3316 
 C                    -0.83297   1.2695    0.01378 
 C                    -1.90353   1.3049   -1.1477 
 C                    -3.19156   1.76333  -0.43202 
 C                    -2.15365  -0.11262  -1.70731 
 H                    -0.26973  -2.02156  -0.60185 
 H                    -0.81358  -1.70071   1.0358 
 H                    -2.62294  -2.06621  -0.86468 
 H                    -4.27565  -0.73464   0.16972 
 H                    -3.15983  -1.15612   1.46232 
 H                    -3.86481   1.23143   1.60571 
 H                    -1.29887   0.62258   2.10457 
 H                    -1.66874   2.30756   1.75411 
 H                    -0.1503    2.12081  -0.03925 
 H                    -1.59303   1.98523  -1.94685 
 H                    -3.16711   2.83769  -0.20888 
 H                    -4.0934    1.56507  -1.02353 
 H                    -1.34142  -0.42494  -2.37783 
 H                    -3.07395  -0.11311  -2.3047 
 

 GradGradGradGradGradGradGradGradGradGradGradGradGradGradGradGradGradGrad
 Berny optimization.
 Initialization pass.
 Trust Radius=3.00D-01 FncErr=1.00D-07 GrdErr=1.00D-07 EigMax=2.50D+02 EigMin=1.00D-04
 Number of steps in this run=      2 maximum allowed number of steps=      2.
 GradGradGradGradGradGradGradGradGradGradGradGradGradGradGradGradGradGrad

                          Input orientation:                          
 ---------------------------------------------------------------------
 Center     Atomic      Atomic             Coordinates (Angstroms)
 Number     Number       Type             X           Y           Z
 ---------------------------------------------------------------------
      1          8           0        1.216522    0.000000    0.000000
      2          6           0        0.000000    0.000000    0.000000
      3          6           0       -0.814230   -1.296564    0.013775
      4          6           0       -2.252350   -1.093109   -0.519295
      5          6           0       -3.256068   -0.563614    0.542073
      6          6           0       -3.108752    0.941435    0.866131
      7          6           0       -1.685644    1.296716    1.331597
      8          6           0       -0.832970    1.269501    0.013775
      9          6           0       -1.903527    1.304900   -1.147704
     10          6           0       -3.191558    1.763328   -0.432015
     11          6           0       -2.153646   -0.112617   -1.707306
     12          1           0       -0.269734   -2.021559   -0.601851
     13          1           0       -0.813583   -1.700710    1.035797
     14          1           0       -2.622939   -2.066208   -0.864684
     15          1           0       -4.275652   -0.734641    0.169717
     16          1           0       -3.159825   -1.156120    1.462322
     17          1           0       -3.864809    1.231427    1.605710
     18          1           0       -1.298873    0.622577    2.104571
     19          1           0       -1.668738    2.307557    1.754107
     20          1           0       -0.150296    2.120812   -0.039252
     21          1           0       -1.593028    1.985228   -1.946852
     22          1           0       -3.167108    2.837685   -0.208879
     23          1           0       -4.093403    1.565071   -1.023525
     24          1           0       -1.341419   -0.424935   -2.377827
     25          1           0       -3.073954   -0.113112   -2.304704
 ---------------------------------------------------------------------
                    Distance matrix (angstroms):
                    1          2          3          4          5
     1  O    0.000000
     2  C    1.216522   0.000000
     3  C    2.409403   1.531091   0.000000
     4  C    3.673912   2.556880   1.547174   0.000000
     5  C    4.540437   3.348654   2.603630   1.553807   0.000000
     6  C    4.510485   3.361669   3.316622   2.606185   1.546573
     7  C    3.446330   2.509187   3.036629   3.075422   2.559376
     8  C    2.410859   1.518441   2.566133   2.807264   3.083961
     9  C    3.571371   2.577480   3.050117   2.503402   2.859381
    10  C    4.767298   3.671785   3.900430   3.008149   2.523424
    11  C    3.779631   2.750594   2.481509   1.543528   2.545278
    12  H    2.580287   2.126425   1.095942   2.190799   3.514592
    13  H    2.843698   2.151094   1.099028   2.203983   2.739066
    14  H    4.445037   3.449160   2.153014   1.097065   2.153510
    15  H    5.543688   4.341624   3.510202   2.167254   1.098841
    16  H    4.756828   3.668718   2.760404   2.180433   1.098719
    17  H    5.469428   4.362507   4.269781   3.538239   2.173491
    18  H    3.338268   2.550273   2.879133   3.276793   2.771112
    19  H    4.089797   3.344607   4.092509   4.132008   3.497466
    20  H    2.523406   2.126493   3.481678   3.870189   4.146071
    21  H    3.952839   3.204544   3.901377   3.456701   3.931545
    22  H    5.226117   4.257542   4.762103   4.047750   3.484348
    23  H    5.629596   4.500333   4.474139   3.272559   2.771918
    24  H    3.518195   2.762976   2.599505   2.174947   3.494414
    25  H    4.871616   3.843650   3.447065   2.196159   2.887950
                    6          7          8          9         10
     6  C    0.000000
     7  C    1.538870   0.000000
     8  C    2.452208   1.569856   0.000000
     9  C    2.374912   2.488870   1.579993   0.000000
    10  C    1.538684   2.365551   2.450619   1.543176   0.000000
    11  C    2.940379   3.382333   2.572267   1.544367   2.494554
    12  H    4.358248   4.093162   3.395189   3.746006   4.784482
    13  H    3.503929   3.135690   3.141187   3.871608   4.450707
    14  H    3.503948   4.124491   3.886211   3.458616   3.895623
    15  H    2.157749   3.490633   3.986598   3.394452   2.788761
    16  H    2.181236   2.864734   3.660079   3.800939   3.480330
    17  H    1.096674   2.197308   3.424581   3.381318   2.210997
    18  H    2.216093   1.096150   2.237634   3.377642   3.364199
    19  H    2.174496   1.095719   2.191991   3.079116   2.719245
    20  H    3.311059   2.217128   1.092514   2.228945   3.087286
    21  H    3.361517   3.351247   2.221263   1.094483   2.213429
    22  H    2.180554   2.634841   2.820811   2.197148   1.097557
    23  H    2.220194   3.378745   3.434207   2.208770   1.096592
    24  H    3.938743   4.103949   2.974793   2.195791   3.463769
    25  H    3.341777   4.139771   3.508415   2.172396   2.653643
                   11         12         13         14         15
    11  C    0.000000
    12  H    2.900899   0.000000
    13  H    3.441282   1.755166   0.000000
    14  H    2.178707   2.368259   2.649375   0.000000
    15  H    2.900524   4.277716   3.697202   2.361041   0.000000
    16  H    3.485375   3.655465   2.446089   2.555673   1.758847
    17  H    3.963661   5.327270   4.269919   4.303427   2.469067
    18  H    3.975117   3.921135   2.602969   4.218909   3.800910
    19  H    4.251324   5.123377   4.160945   5.186365   4.308278
    20  H    3.432786   4.182107   4.024886   4.932184   5.021538
    21  H    2.184635   4.428823   4.805192   4.318094   4.367382
    22  H    3.460733   5.671107   5.261685   4.977386   3.759484
    23  H    2.654214   5.259484   5.065901   3.920929   2.597252
    24  H    1.098569   2.617596   3.682260   2.574038   3.898156
    25  H    1.097202   3.795462   4.334592   2.468128   2.820130
                   16         17         18         19         20
    16  H    0.000000
    17  H    2.493580   0.000000
    18  H    2.653185   2.683950   0.000000
    19  H    3.782266   2.450062   1.760336   0.000000
    20  H    4.695772   4.158667   2.856556   2.357260   0.000000
    21  H    4.893402   4.283679   4.284551   3.715740   2.395579
    22  H    4.329370   2.521822   3.707972   2.525760   3.105452
    23  H    3.802089   2.660160   4.299148   3.761054   4.101918
    24  H    4.311378   4.997960   4.603367   4.964527   3.656301
    25  H    3.909696   4.210056   4.809767   4.930336   4.320933
                   21         22         23         24         25
    21  H    0.000000
    22  H    2.494987   0.000000
    23  H    2.698322   1.772348   0.000000
    24  H    2.461287   4.322287   3.656183   0.000000
    25  H    2.593112   3.620547   2.344567   1.761890   0.000000
 Stoichiometry    C10H14O
 Framework group  C1[X(C10H14O)]
 Deg. of freedom    69
 Full point group                 C1      NOp   1
 Largest Abelian subgroup         C1      NOp   1
 Largest concise Abelian subgroup C1      NOp   1
                         Standard orientation:                         
 ---------------------------------------------------------------------
 Center     Atomic      Atomic             Coordinates (Angstroms)
 Number     Number       Type             X           Y           Z
 ---------------------------------------------------------------------
      1          8           0        2.835303   -0.625215    0.034607
      2          6           0        1.679927   -0.255325   -0.056029
      3          6           0        1.310926    1.156141   -0.520615
      4          6           0       -0.105330    1.575105   -0.059710
      5          6           0       -1.249879    1.074703   -0.983789
      6          6           0       -1.587623   -0.426393   -0.827181
      7          6           0       -0.358340   -1.323270   -1.056519
      8          6           0        0.492292   -1.150098    0.251489
      9          6           0       -0.507015   -0.496965    1.286468
     10          6           0       -1.890929   -0.739892    0.648377
     11          6           0       -0.288448    1.029435    1.372487
     12          1           0        2.069415    1.834337   -0.113389
     13          1           0        1.412602    1.203714   -1.613895
     14          1           0       -0.145129    2.671423   -0.052329
     15          1           0       -2.155708    1.654059   -0.757355
     16          1           0       -0.996132    1.294419   -2.029983
     17          1           0       -2.414321   -0.686709   -1.499119
     18          1           0        0.200422   -1.072756   -1.965679
     19          1           0       -0.668117   -2.369925   -1.152183
     20          1           0        0.876270   -2.108256    0.609371
     21          1           0       -0.404844   -0.956961    2.274323
     22          1           0       -2.208474   -1.784353    0.761940
     23          1           0       -2.671063   -0.103966    1.083698
     24          1           0        0.596870    1.271411    1.976236
     25          1           0       -1.147691    1.494621    1.871641
 ---------------------------------------------------------------------
 Rotational constants (GHZ):           1.8137204           1.1723854           1.0514296
 Standard basis: 6-31G(d) (6D, 7F)
 There are   193 symmetry adapted cartesian basis functions of A   symmetry.
 There are   193 symmetry adapted basis functions of A   symmetry.
   193 basis functions,   364 primitive gaussians,   193 cartesian basis functions
    41 alpha electrons       41 beta electrons
       nuclear repulsion energy       665.1958336332 Hartrees.
 NAtoms=   25 NActive=   25 NUniq=   25 SFac= 1.00D+00 NAtFMM=   60 NAOKFM=F Big=F
 Integral buffers will be    131072 words long.
 Raffenetti 2 integral format.
 Two-electron integral symmetry is turned on.
 One-electron integrals computed using PRISM.
 NBasis=   193 RedAO= T EigKep=  1.54D-03  NBF=   193
 NBsUse=   193 1.00D-06 EigRej= -1.00D+00 NBFU=   193
 ExpMin= 1.61D-01 ExpMax= 5.48D+03 ExpMxC= 8.25D+02 IAcc=3 IRadAn=         5 AccDes= 0.00D+00
 Harris functional with IExCor=  402 and IRadAn=       5 diagonalized for initial guess.
 HarFok:  IExCor=  402 AccDes= 0.00D+00 IRadAn=         5 IDoV= 1 UseB2=F ITyADJ=14
 ICtDFT=  3500011 ScaDFX=  1.000000  1.000000  1.000000  1.000000
 FoFCou: FMM=F IPFlag=           0 FMFlag=      100000 FMFlg1=           0
         NFxFlg=           0 DoJE=T BraDBF=F KetDBF=T FulRan=T
         wScrn=  0.000000 ICntrl=       500 IOpCl=  0 I1Cent=   200000004 NGrid=           0
         NMat0=    1 NMatS0=      1 NMatT0=    0 NMatD0=    1 NMtDS0=    0 NMtDT0=    0
 Petite list used in FoFCou.
 Requested convergence on RMS density matrix=1.00D-08 within 128 cycles.
 Requested convergence on MAX density matrix=1.00D-06.
 Requested convergence on             energy=1.00D-06.
 No special actions if energy rises.
 Integral accuracy reduced to 1.0D-05 until final iterations.
 Initial convergence to 1.0D-05 achieved.  Increase integral accuracy.
 SCF Done:  E(RB3LYP) =  -464.722917956     A.U. after   13 cycles
            NFock= 13  Conv=0.75D-08     -V/T= 2.0096
 DoSCS=F DFT=T ScalE2(SS,OS)=  1.000000  1.000000
 Range of M.O.s used for correlation:     1   193
 NBasis=   193 NAE=    41 NBE=    41 NFC=     0 NFV=     0
 NROrb=    193 NOA=    41 NOB=    41 NVA=   152 NVB=   152
 Symmetrizing basis deriv contribution to polar:
 IMax=3 JMax=2 DiffMx= 0.00D+00
 G2DrvN: will do    26 centers at a time, making    1 passes.
 Calling FoFCou, ICntrl=  3107 FMM=F I1Cent=   0 AccDes= 0.00D+00.
 End of G2Drv F.D. properties file   721 does not exist.
 End of G2Drv F.D. properties file   722 does not exist.
 End of G2Drv F.D. properties file   788 does not exist.
          IDoAtm=1111111111111111111111111
          Differentiating once with respect to electric field.
                with respect to dipole field.
          Differentiating once with respect to nuclear coordinates.
 Keep R1 ints in memory in canonical form, NReq=183418865.
          There are    78 degrees of freedom in the 1st order CPHF.  IDoFFX=6 NUNeed=     3.
     75 vectors produced by pass  0 Test12= 7.99D-15 1.28D-09 XBig12= 7.54D+01 2.75D+00.
 AX will form    75 AO Fock derivatives at one time.
     75 vectors produced by pass  1 Test12= 7.99D-15 1.28D-09 XBig12= 1.05D+01 6.85D-01.
     75 vectors produced by pass  2 Test12= 7.99D-15 1.28D-09 XBig12= 1.15D-01 5.62D-02.
     75 vectors produced by pass  3 Test12= 7.99D-15 1.28D-09 XBig12= 4.58D-04 3.40D-03.
     75 vectors produced by pass  4 Test12= 7.99D-15 1.28D-09 XBig12= 6.20D-07 8.48D-05.
     39 vectors produced by pass  5 Test12= 7.99D-15 1.28D-09 XBig12= 3.66D-10 1.56D-06.
      4 vectors produced by pass  6 Test12= 7.99D-15 1.28D-09 XBig12= 2.14D-13 3.63D-08.
      1 vectors produced by pass  7 Test12= 7.99D-15 1.28D-09 XBig12= 1.66D-16 1.43D-09.
 InvSVY:  IOpt=1 It=  1 EMax= 7.11D-15
 Solved reduced A of dimension   419 with    78 vectors.
 Isotropic polarizability for W=    0.000000       95.07 Bohr**3.
 End of Minotr F.D. properties file   721 does not exist.
 End of Minotr F.D. properties file   722 does not exist.
 End of Minotr F.D. properties file   788 does not exist.

 **********************************************************************

            Population analysis using the SCF density.

 **********************************************************************

 Orbital symmetries:
       Occupied  (A) (A) (A) (A) (A) (A) (A) (A) (A) (A) (A) (A)
                 (A) (A) (A) (A) (A) (A) (A) (A) (A) (A) (A) (A)
                 (A) (A) (A) (A) (A) (A) (A) (A) (A) (A) (A) (A)
                 (A) (A) (A) (A) (A)
       Virtual   (A) (A) (A) (A) (A) (A) (A) (A) (A) (A) (A) (A)
                 (A) (A) (A) (A) (A) (A) (A) (A) (A) (A) (A) (A)
                 (A) (A) (A) (A) (A) (A) (A) (A) (A) (A) (A) (A)
                 (A) (A) (A) (A) (A) (A) (A) (A) (A) (A) (A) (A)
                 (A) (A) (A) (A) (A) (A) (A) (A) (A) (A) (A) (A)
                 (A) (A) (A) (A) (A) (A) (A) (A) (A) (A) (A) (A)
                 (A) (A) (A) (A) (A) (A) (A) (A) (A) (A) (A) (A)
                 (A) (A) (A) (A) (A) (A) (A) (A) (A) (A) (A) (A)
                 (A) (A) (A) (A) (A) (A) (A) (A) (A) (A) (A) (A)
                 (A) (A) (A) (A) (A) (A) (A) (A) (A) (A) (A) (A)
                 (A) (A) (A) (A) (A) (A) (A) (A) (A) (A) (A) (A)
                 (A) (A) (A) (A) (A) (A) (A) (A) (A) (A) (A) (A)
                 (A) (A) (A) (A) (A) (A) (A) (A)
 The electronic state is 1-A.
 Alpha  occ. eigenvalues --  -19.12682 -10.26300 -10.19615 -10.19542 -10.19190
 Alpha  occ. eigenvalues --  -10.19008 -10.18946 -10.18628 -10.18627 -10.18515
 Alpha  occ. eigenvalues --  -10.18244  -1.02644  -0.87351  -0.79012  -0.75686
 Alpha  occ. eigenvalues --   -0.74487  -0.68499  -0.65043  -0.60204  -0.57863
 Alpha  occ. eigenvalues --   -0.54335  -0.52031  -0.48752  -0.46782  -0.45549
 Alpha  occ. eigenvalues --   -0.44632  -0.42466  -0.41638  -0.40493  -0.39370
 Alpha  occ. eigenvalues --   -0.38058  -0.37850  -0.36912  -0.34915  -0.33785
 Alpha  occ. eigenvalues --   -0.33204  -0.31665  -0.31027  -0.30096  -0.29866
 Alpha  occ. eigenvalues --   -0.22839
 Alpha virt. eigenvalues --   -0.00658   0.06458   0.09858   0.11171   0.12555
 Alpha virt. eigenvalues --    0.13135   0.13994   0.15091   0.15554   0.15910
 Alpha virt. eigenvalues --    0.16531   0.17838   0.18305   0.18596   0.19111
 Alpha virt. eigenvalues --    0.20323   0.21572   0.22210   0.22661   0.23276
 Alpha virt. eigenvalues --    0.25281   0.26147   0.28213   0.28447   0.29401
 Alpha virt. eigenvalues --    0.32308   0.35951   0.38099   0.49515   0.52230
 Alpha virt. eigenvalues --    0.52795   0.54850   0.56118   0.57655   0.58956
 Alpha virt. eigenvalues --    0.60920   0.61924   0.62332   0.64030   0.64283
 Alpha virt. eigenvalues --    0.65117   0.67670   0.68127   0.69289   0.69794
 Alpha virt. eigenvalues --    0.72205   0.74917   0.76762   0.77176   0.78556
 Alpha virt. eigenvalues --    0.79496   0.80627   0.81597   0.83843   0.85871
 Alpha virt. eigenvalues --    0.86341   0.88080   0.88428   0.89696   0.89935
 Alpha virt. eigenvalues --    0.91310   0.91889   0.92827   0.93582   0.94491
 Alpha virt. eigenvalues --    0.95867   0.96817   0.97324   0.99129   1.00447
 Alpha virt. eigenvalues --    1.04378   1.09442   1.12644   1.15549   1.20337
 Alpha virt. eigenvalues --    1.23283   1.23861   1.30203   1.35017   1.41065
 Alpha virt. eigenvalues --    1.46748   1.49529   1.53064   1.54673   1.57652
 Alpha virt. eigenvalues --    1.62341   1.64213   1.66107   1.68772   1.70061
 Alpha virt. eigenvalues --    1.71672   1.74792   1.76684   1.79910   1.80616
 Alpha virt. eigenvalues --    1.83523   1.84852   1.86507   1.87109   1.87692
 Alpha virt. eigenvalues --    1.91187   1.93570   1.94787   1.98413   2.01247
 Alpha virt. eigenvalues --    2.03431   2.05427   2.06898   2.11100   2.12103
 Alpha virt. eigenvalues --    2.14256   2.15354   2.19029   2.20548   2.23713
 Alpha virt. eigenvalues --    2.26247   2.29242   2.31977   2.35120   2.37317
 Alpha virt. eigenvalues --    2.38928   2.39886   2.42585   2.43377   2.45617
 Alpha virt. eigenvalues --    2.50447   2.52191   2.55511   2.56685   2.62336
 Alpha virt. eigenvalues --    2.64166   2.67579   2.68759   2.70505   2.72938
 Alpha virt. eigenvalues --    2.73336   2.78931   2.80576   2.84064   2.99926
 Alpha virt. eigenvalues --    3.04759   4.05298   4.12320   4.24922   4.28615
 Alpha virt. eigenvalues --    4.33449   4.47445   4.56452   4.65681   4.72746
 Alpha virt. eigenvalues --    4.73393   4.86851
          Condensed to atoms (all electrons):
               1          2          3          4          5          6
     1  O    8.033641   0.565792  -0.079510   0.003346  -0.000040  -0.000001
     2  C    0.565792   4.477502   0.309057  -0.024394  -0.001915  -0.001172
     3  C   -0.079510   0.309057   5.390999   0.303644  -0.039309  -0.003333
     4  C    0.003346  -0.024394   0.303644   4.971981   0.376972  -0.031702
     5  C   -0.000040  -0.001915  -0.039309   0.376972   5.066160   0.384696
     6  C   -0.000001  -0.001172  -0.003333  -0.031702   0.384696   4.936829
     7  C    0.000179  -0.030963   0.006467  -0.007911  -0.046279   0.370160
     8  C   -0.069969   0.357886  -0.133928   0.011142  -0.007723  -0.054881
     9  C    0.002254  -0.022391  -0.014281  -0.032029  -0.016300  -0.039741
    10  C   -0.000084   0.001013   0.000977  -0.020157  -0.044968   0.372202
    11  C   -0.000398  -0.009982  -0.050518   0.373353  -0.051033  -0.014134
    12  H    0.001579  -0.023985   0.348502  -0.027802   0.004180  -0.000052
    13  H   -0.000121  -0.021032   0.347485  -0.032070  -0.005849  -0.000465
    14  H   -0.000084   0.003456  -0.035102   0.370119  -0.038850   0.004666
    15  H    0.000001  -0.000078   0.004866  -0.033516   0.361334  -0.036815
    16  H   -0.000004  -0.000028  -0.007033  -0.037014   0.363898  -0.034599
    17  H    0.000001  -0.000042  -0.000102   0.004524  -0.038595   0.367413
    18  H    0.000283  -0.004367   0.004068  -0.001700  -0.004383  -0.033745
    19  H   -0.000066   0.003281  -0.000404   0.000091   0.004958  -0.031175
    20  H    0.003668  -0.028490   0.008407  -0.000652  -0.000015   0.003487
    21  H    0.000042   0.000978  -0.000114   0.004610   0.000483   0.004608
    22  H    0.000001   0.000181  -0.000059   0.000235   0.004849  -0.034882
    23  H    0.000001  -0.000077   0.000104  -0.000353  -0.004931  -0.031645
    24  H   -0.000219   0.001141  -0.004894  -0.040207   0.005069   0.000048
    25  H    0.000001   0.000315   0.005316  -0.031775  -0.001539  -0.001011
               7          8          9         10         11         12
     1  O    0.000179  -0.069969   0.002254  -0.000084  -0.000398   0.001579
     2  C   -0.030963   0.357886  -0.022391   0.001013  -0.009982  -0.023985
     3  C    0.006467  -0.133928  -0.014281   0.000977  -0.050518   0.348502
     4  C   -0.007911   0.011142  -0.032029  -0.020157   0.373353  -0.027802
     5  C   -0.046279  -0.007723  -0.016300  -0.044968  -0.051033   0.004180
     6  C    0.370160  -0.054881  -0.039741   0.372202  -0.014134  -0.000052
     7  C    5.145796   0.324192  -0.062486  -0.077928  -0.002791   0.000057
     8  C    0.324192   5.257482   0.342732  -0.062479  -0.052966   0.005755
     9  C   -0.062486   0.342732   4.994460   0.356243   0.377706  -0.000209
    10  C   -0.077928  -0.062479   0.356243   5.122521  -0.039629   0.000002
    11  C   -0.002791  -0.052966   0.377706  -0.039629   5.085720  -0.001673
    12  H    0.000057   0.005755  -0.000209   0.000002  -0.001673   0.554496
    13  H    0.000413   0.001172   0.000343   0.000058   0.004828  -0.023435
    14  H   -0.000018  -0.000381   0.005212  -0.000043  -0.039217  -0.007386
    15  H    0.005483   0.000203  -0.001519  -0.004177  -0.000807  -0.000174
    16  H   -0.004569  -0.000409  -0.000014   0.005313   0.005152   0.000086
    17  H   -0.037938   0.005704   0.005961  -0.037155   0.000041   0.000004
    18  H    0.368360  -0.042300   0.004716   0.006041   0.000237  -0.000057
    19  H    0.364380  -0.024996  -0.000430  -0.001165  -0.000077  -0.000002
    20  H   -0.030659   0.343779  -0.031890   0.002795   0.004647  -0.000212
    21  H    0.005543  -0.034670   0.370039  -0.036553  -0.038598   0.000027
    22  H   -0.002000  -0.002857  -0.030770   0.365214   0.004612  -0.000000
    23  H    0.006369   0.005264  -0.033495   0.363462  -0.007044  -0.000002
    24  H   -0.000165  -0.002269  -0.032991   0.005244   0.367778   0.003278
    25  H    0.000016   0.005168  -0.037487  -0.007295   0.366907  -0.000083
              13         14         15         16         17         18
     1  O   -0.000121  -0.000084   0.000001  -0.000004   0.000001   0.000283
     2  C   -0.021032   0.003456  -0.000078  -0.000028  -0.000042  -0.004367
     3  C    0.347485  -0.035102   0.004866  -0.007033  -0.000102   0.004068
     4  C   -0.032070   0.370119  -0.033516  -0.037014   0.004524  -0.001700
     5  C   -0.005849  -0.038850   0.361334   0.363898  -0.038595  -0.004383
     6  C   -0.000465   0.004666  -0.036815  -0.034599   0.367413  -0.033745
     7  C    0.000413  -0.000018   0.005483  -0.004569  -0.037938   0.368360
     8  C    0.001172  -0.000381   0.000203  -0.000409   0.005704  -0.042300
     9  C    0.000343   0.005212  -0.001519  -0.000014   0.005961   0.004716
    10  C    0.000058  -0.000043  -0.004177   0.005313  -0.037155   0.006041
    11  C    0.004828  -0.039217  -0.000807   0.005152   0.000041   0.000237
    12  H   -0.023435  -0.007386  -0.000174   0.000086   0.000004  -0.000057
    13  H    0.559580  -0.000243   0.000072   0.005840  -0.000035   0.000643
    14  H   -0.000243   0.623704  -0.006764  -0.001230  -0.000148  -0.000011
    15  H    0.000072  -0.006764   0.610896  -0.035027  -0.003097   0.000048
    16  H    0.005840  -0.001230  -0.035027   0.608339  -0.003263   0.003182
    17  H   -0.000035  -0.000148  -0.003097  -0.003263   0.623175   0.000605
    18  H    0.000643  -0.000011   0.000048   0.003182   0.000605   0.585911
    19  H    0.000042   0.000005  -0.000188  -0.000056  -0.004899  -0.034029
    20  H   -0.000162   0.000010   0.000006  -0.000007  -0.000179   0.003135
    21  H    0.000012  -0.000165  -0.000025   0.000015  -0.000185  -0.000111
    22  H   -0.000002   0.000017  -0.000009  -0.000171  -0.004265  -0.000004
    23  H   -0.000002  -0.000108   0.004112  -0.000001   0.000071  -0.000180
    24  H    0.000176  -0.002007  -0.000151  -0.000157   0.000015  -0.000001
    25  H   -0.000171  -0.003988   0.002291  -0.000091  -0.000049   0.000006
              19         20         21         22         23         24
     1  O   -0.000066   0.003668   0.000042   0.000001   0.000001  -0.000219
     2  C    0.003281  -0.028490   0.000978   0.000181  -0.000077   0.001141
     3  C   -0.000404   0.008407  -0.000114  -0.000059   0.000104  -0.004894
     4  C    0.000091  -0.000652   0.004610   0.000235  -0.000353  -0.040207
     5  C    0.004958  -0.000015   0.000483   0.004849  -0.004931   0.005069
     6  C   -0.031175   0.003487   0.004608  -0.034882  -0.031645   0.000048
     7  C    0.364380  -0.030659   0.005543  -0.002000   0.006369  -0.000165
     8  C   -0.024996   0.343779  -0.034670  -0.002857   0.005264  -0.002269
     9  C   -0.000430  -0.031890   0.370039  -0.030770  -0.033495  -0.032991
    10  C   -0.001165   0.002795  -0.036553   0.365214   0.363462   0.005244
    11  C   -0.000077   0.004647  -0.038598   0.004612  -0.007044   0.367778
    12  H   -0.000002  -0.000212   0.000027  -0.000000  -0.000002   0.003278
    13  H    0.000042  -0.000162   0.000012  -0.000002  -0.000002   0.000176
    14  H    0.000005   0.000010  -0.000165   0.000017  -0.000108  -0.002007
    15  H   -0.000188   0.000006  -0.000025  -0.000009   0.004112  -0.000151
    16  H   -0.000056  -0.000007   0.000015  -0.000171  -0.000001  -0.000157
    17  H   -0.004899  -0.000179  -0.000185  -0.004265   0.000071   0.000015
    18  H   -0.034029   0.003135  -0.000111  -0.000004  -0.000180  -0.000001
    19  H    0.581705  -0.008482  -0.000161   0.003359  -0.000116   0.000000
    20  H   -0.008482   0.591539  -0.006885   0.000489  -0.000115  -0.000072
    21  H   -0.000161  -0.006885   0.608990  -0.004828   0.000879  -0.004592
    22  H    0.003359   0.000489  -0.004828   0.602414  -0.035379  -0.000178
    23  H   -0.000116  -0.000115   0.000879  -0.035379   0.595380   0.000098
    24  H    0.000000  -0.000072  -0.004592  -0.000178   0.000098   0.598669
    25  H    0.000006  -0.000094  -0.000734   0.000165   0.005971  -0.034896
              25
     1  O    0.000001
     2  C    0.000315
     3  C    0.005316
     4  C   -0.031775
     5  C   -0.001539
     6  C   -0.001011
     7  C    0.000016
     8  C    0.005168
     9  C   -0.037487
    10  C   -0.007295
    11  C    0.366907
    12  H   -0.000083
    13  H   -0.000171
    14  H   -0.003988
    15  H    0.002291
    16  H   -0.000091
    17  H   -0.000049
    18  H    0.000006
    19  H    0.000006
    20  H   -0.000094
    21  H   -0.000734
    22  H    0.000165
    23  H    0.005971
    24  H   -0.034896
    25  H    0.598064
 Mulliken charges:
               1
     1  O   -0.460293
     2  C    0.448315
     3  C   -0.361304
     4  C   -0.098736
     5  C   -0.270870
     6  C   -0.094756
     7  C   -0.293709
     8  C   -0.170649
     9  C   -0.103632
    10  C   -0.269452
    11  C   -0.282114
    12  H    0.167106
    13  H    0.162923
    14  H    0.128556
    15  H    0.133038
    16  H    0.131849
    17  H    0.122437
    18  H    0.143653
    19  H    0.148417
    20  H    0.145949
    21  H    0.131394
    22  H    0.133870
    23  H    0.131737
    24  H    0.141282
    25  H    0.134988
 Sum of Mulliken charges =  -0.00000
 Mulliken charges with hydrogens summed into heavy atoms:
               1
     1  O   -0.460293
     2  C    0.448315
     3  C   -0.031275
     4  C    0.029820
     5  C   -0.005983
     6  C    0.027681
     7  C   -0.001639
     8  C   -0.024700
     9  C    0.027762
    10  C   -0.003844
    11  C   -0.005843
 APT charges:
               1
     1  O   -0.664995
     2  C    0.741443
     3  C   -0.048642
     4  C    0.120486
     5  C    0.101800
     6  C    0.106988
     7  C    0.086632
     8  C   -0.095689
     9  C    0.128713
    10  C    0.070415
    11  C    0.078778
    12  H   -0.018495
    13  H   -0.009407
    14  H   -0.070686
    15  H   -0.054511
    16  H   -0.053650
    17  H   -0.065731
    18  H   -0.025355
    19  H   -0.044366
    20  H   -0.041304
    21  H   -0.064004
    22  H   -0.049070
    23  H   -0.039929
    24  H   -0.045575
    25  H   -0.043847
 Sum of APT charges =  -0.00000
 APT charges with hydrogens summed into heavy atoms:
               1
     1  O   -0.664995
     2  C    0.741443
     3  C   -0.076543
     4  C    0.049800
     5  C   -0.006361
     6  C    0.041258
     7  C    0.016911
     8  C   -0.136993
     9  C    0.064709
    10  C   -0.018584
    11  C   -0.010644
 Electronic spatial extent (au):  <R**2>=           1391.2346
 Charge=             -0.0000 electrons
 Dipole moment (field-independent basis, Debye):
    X=             -3.1052    Y=              0.9030    Z=             -0.2280  Tot=              3.2419
 Quadrupole moment (field-independent basis, Debye-Ang):
   XX=            -77.1968   YY=            -64.6026   ZZ=            -64.6258
   XY=              3.5763   XZ=             -0.5231   YZ=              0.0285
 Traceless Quadrupole moment (field-independent basis, Debye-Ang):
   XX=             -8.3884   YY=              4.2058   ZZ=              4.1826
   XY=              3.5763   XZ=             -0.5231   YZ=              0.0285
 Octapole moment (field-independent basis, Debye-Ang**2):
  XXX=            -28.7620  YYY=             -3.6015  ZZZ=             -1.0318  XYY=              1.8772
  XXY=             10.5624  XXZ=             -0.6230  XZZ=              5.3960  YZZ=             -0.9133
  YYZ=              0.5662  XYZ=             -0.4371
 Hexadecapole moment (field-independent basis, Debye-Ang**3):
 XXXX=           -985.7349 YYYY=           -535.8403 ZZZZ=           -408.4897 XXXY=             22.3023
 XXXZ=             -0.6510 YYYX=             -0.4100 YYYZ=             -0.1821 ZZZX=             -1.3053
 ZZZY=             -3.1490 XXYY=           -237.0696 XXZZ=           -209.7670 YYZZ=           -160.5256
 XXYZ=              3.9213 YYXZ=              0.2696 ZZXY=             -1.6440
 N-N= 6.651958336332D+02 E-N=-2.408574713849D+03  KE= 4.603023531952D+02
  Exact polarizability: 103.410   0.129  94.265   0.313  -0.717  87.545
 Approx polarizability: 152.622  -4.213 135.133   1.029  -1.164 130.425
 Calling FoFJK, ICntrl=    100127 FMM=F ISym2X=0 I1Cent= 0 IOpClX= 0 NMat=1 NMatS=1 NMatT=0.
 Full mass-weighted force constant matrix:
 Low frequencies ---   -4.2846    0.0004    0.0007    0.0007    3.6434    9.0944
 Low frequencies ---   90.9744  243.8859  254.9130
 Diagonal vibrational polarizability:
        3.4697280       4.7741075      11.6289465
 Harmonic frequencies (cm**-1), IR intensities (KM/Mole), Raman scattering
 activities (A**4/AMU), depolarization ratios for plane and unpolarized
 incident light, reduced masses (AMU), force constants (mDyne/A),
 and normal coordinates:
                      1                      2                      3
                      A                      A                      A
 Frequencies --     90.9714               243.8854               254.9127
 Red. masses --      4.8117                 2.5196                 2.3984
 Frc consts  --      0.0235                 0.0883                 0.0918
 IR Inten    --      3.6638                 0.2585                 0.6751
  Atom  AN      X      Y      Z        X      Y      Z        X      Y      Z
     1   8     0.01   0.11   0.37     0.02  -0.11  -0.03     0.00  -0.06   0.05
     2   6     0.00  -0.01  -0.00     0.04  -0.06   0.06     0.02  -0.01  -0.02
     3   6    -0.03  -0.08  -0.19    -0.00  -0.09  -0.05     0.09   0.07   0.14
     4   6     0.02  -0.03  -0.04    -0.00  -0.00  -0.05     0.00   0.00  -0.06
     5   6    -0.09   0.04   0.06    -0.11   0.04   0.07     0.00  -0.06  -0.05
     6   6    -0.07   0.04   0.03     0.01   0.01   0.02    -0.10  -0.03   0.07
     7   6    -0.08   0.06  -0.10     0.11   0.17  -0.03    -0.09   0.04  -0.07
     8   6    -0.00  -0.04  -0.14     0.01   0.03   0.07    -0.01   0.02  -0.11
     9   6     0.08  -0.05  -0.05    -0.01   0.05   0.02     0.08   0.02  -0.03
    10   6     0.03  -0.01   0.04     0.03  -0.11  -0.00     0.04  -0.06   0.10
    11   6     0.13  -0.05  -0.04    -0.08   0.07  -0.05    -0.05   0.05  -0.06
    12   1     0.04  -0.03  -0.41     0.00  -0.04  -0.14    -0.02   0.01   0.44
    13   1    -0.21  -0.25  -0.21    -0.03  -0.19  -0.05     0.35   0.28   0.17
    14   1     0.08  -0.02  -0.01     0.07   0.00  -0.10    -0.04   0.00  -0.12
    15   1    -0.05   0.04   0.19    -0.10  -0.00   0.27     0.05   0.04  -0.14
    16   1    -0.20   0.09   0.04    -0.29   0.13   0.04     0.04  -0.21  -0.08
    17   1    -0.12   0.06   0.08     0.04  -0.04   0.00    -0.16  -0.02   0.15
    18   1    -0.14   0.11  -0.11     0.16   0.40   0.06    -0.17   0.15  -0.09
    19   1    -0.09   0.06  -0.15     0.24   0.15  -0.26    -0.01   0.02  -0.12
    20   1    -0.02  -0.07  -0.19    -0.10  -0.02   0.06    -0.04  -0.00  -0.14
    21   1     0.14  -0.07  -0.07    -0.00   0.11   0.05     0.20   0.05  -0.03
    22   1     0.03  -0.02   0.03     0.20  -0.16  -0.07     0.13  -0.08   0.10
    23   1     0.07  -0.02   0.12    -0.08  -0.26   0.02     0.04  -0.12   0.19
    24   1     0.18  -0.09  -0.11    -0.14   0.13   0.02    -0.13   0.17  -0.00
    25   1     0.18  -0.04   0.04    -0.15   0.07  -0.15    -0.14  -0.02  -0.15
                      4                      5                      6
                      A                      A                      A
 Frequencies --    365.8652               382.1066               411.3457
 Red. masses --      1.9393                 2.9492                 2.6905
 Frc consts  --      0.1529                 0.2537                 0.2682
 IR Inten    --      0.1674                 2.3379                 0.2472
  Atom  AN      X      Y      Z        X      Y      Z        X      Y      Z
     1   8    -0.01  -0.02  -0.01     0.13   0.12  -0.06     0.17   0.07  -0.03
     2   6    -0.01  -0.00   0.05     0.07  -0.03   0.04     0.13  -0.01   0.01
     3   6    -0.03   0.01   0.05    -0.03  -0.10  -0.01     0.10  -0.02   0.06
     4   6    -0.08  -0.05  -0.03    -0.01  -0.08  -0.01     0.04  -0.06  -0.05
     5   6    -0.08  -0.07  -0.05     0.06   0.02  -0.13    -0.12   0.01   0.10
     6   6    -0.02  -0.06  -0.02    -0.06   0.09   0.07    -0.07  -0.02  -0.03
     7   6     0.08   0.09  -0.04    -0.03   0.13   0.03    -0.06  -0.05   0.04
     8   6    -0.01  -0.00   0.02     0.03  -0.05   0.04     0.03   0.00  -0.00
     9   6     0.00   0.00   0.01    -0.01  -0.09   0.05    -0.08   0.00  -0.04
    10   6    -0.02   0.11   0.01    -0.05   0.05   0.07    -0.12   0.05  -0.04
    11   6     0.14  -0.04   0.01    -0.11  -0.09  -0.01    -0.02  -0.01  -0.06
    12   1    -0.12   0.02   0.20    -0.01  -0.04  -0.15    -0.01   0.00   0.22
    13   1     0.13   0.08   0.07    -0.10  -0.22  -0.03     0.27   0.07   0.07
    14   1    -0.12  -0.05  -0.05     0.05  -0.08   0.05     0.06  -0.06  -0.08
    15   1    -0.09  -0.08  -0.08     0.11   0.21  -0.44    -0.08  -0.07   0.48
    16   1    -0.04  -0.07  -0.05     0.32  -0.24  -0.12    -0.43   0.23   0.07
    17   1    -0.01  -0.14   0.00    -0.07   0.04   0.09    -0.04  -0.02  -0.07
    18   1     0.10   0.34   0.04    -0.06   0.26   0.05    -0.09  -0.18  -0.02
    19   1     0.24   0.06  -0.26     0.00   0.13  -0.10    -0.10  -0.05   0.17
    20   1    -0.04  -0.03  -0.01    -0.05  -0.11  -0.05    -0.02  -0.01   0.03
    21   1    -0.04  -0.02   0.01    -0.02  -0.08   0.06    -0.12   0.01  -0.04
    22   1    -0.18   0.17   0.15    -0.18   0.08  -0.01    -0.24   0.10   0.04
    23   1     0.07   0.28  -0.07     0.04   0.11   0.15    -0.04   0.18  -0.09
    24   1     0.32  -0.14  -0.21    -0.18   0.02   0.05    -0.03  -0.06  -0.02
    25   1     0.32   0.04   0.25    -0.18  -0.12  -0.11    -0.01   0.05  -0.10
                      7                      8                      9
                      A                      A                      A
 Frequencies --    417.2162               460.7370               484.1115
 Red. masses --      3.8688                 2.6245                 3.8075
 Frc consts  --      0.3968                 0.3282                 0.5258
 IR Inten    --      2.3025                 0.9664                 6.7013
  Atom  AN      X      Y      Z        X      Y      Z        X      Y      Z
     1   8    -0.03  -0.02  -0.00     0.05  -0.07   0.02     0.02   0.23  -0.06
     2   6     0.03   0.14  -0.02     0.07   0.01  -0.05    -0.09  -0.11  -0.01
     3   6     0.15   0.11  -0.13    -0.01  -0.01  -0.03    -0.01  -0.14   0.07
     4   6     0.14  -0.06  -0.00    -0.01  -0.04   0.12     0.10   0.02   0.04
     5   6     0.10  -0.10   0.03     0.03  -0.12   0.06     0.11  -0.08   0.08
     6   6    -0.09  -0.07   0.05    -0.01  -0.10  -0.02    -0.01  -0.07  -0.01
     7   6    -0.01   0.08   0.03     0.02  -0.01  -0.10    -0.03  -0.03  -0.12
     8   6    -0.05   0.17   0.03     0.01   0.08  -0.10    -0.11  -0.10  -0.01
     9   6    -0.17  -0.02   0.03     0.01   0.07  -0.02    -0.06   0.13  -0.00
    10   6    -0.16  -0.14   0.01    -0.02   0.12   0.01    -0.02  -0.06  -0.02
    11   6     0.07  -0.08   0.01    -0.10   0.07   0.14     0.07   0.15   0.05
    12   1     0.17   0.16  -0.22     0.06   0.08  -0.31     0.08  -0.29   0.15
    13   1     0.04   0.05  -0.14    -0.31  -0.12  -0.07     0.04  -0.07   0.08
    14   1     0.02  -0.06   0.03    -0.05  -0.04  -0.00     0.14   0.02  -0.14
    15   1     0.17   0.04  -0.05     0.01  -0.13   0.02     0.12  -0.05   0.05
    16   1     0.15  -0.25   0.01     0.10  -0.07   0.09     0.13  -0.09   0.09
    17   1    -0.05   0.00  -0.04    -0.04  -0.06  -0.01    -0.04   0.06  -0.02
    18   1    -0.06   0.25   0.04    -0.05   0.10  -0.11     0.02   0.24  -0.01
    19   1     0.18   0.03  -0.04     0.16  -0.05  -0.13     0.09  -0.04  -0.39
    20   1     0.03   0.19  -0.00    -0.02   0.08  -0.06    -0.27  -0.13   0.09
    21   1    -0.16  -0.05   0.02     0.04  -0.05  -0.08    -0.07   0.15   0.01
    22   1    -0.04  -0.18  -0.03    -0.20   0.20   0.23     0.19  -0.12   0.04
    23   1    -0.24  -0.23   0.01     0.09   0.34  -0.13    -0.16  -0.18  -0.09
    24   1     0.14  -0.31   0.00    -0.23   0.19   0.27     0.09   0.04   0.05
    25   1     0.19   0.15   0.02    -0.24  -0.01  -0.03     0.11   0.22   0.05
                     10                     11                     12
                      A                      A                      A
 Frequencies --    519.5012               600.6432               647.7225
 Red. masses --      2.2915                 2.9141                 4.2006
 Frc consts  --      0.3644                 0.6194                 1.0383
 IR Inten    --      0.9055                 0.3390                 0.0159
  Atom  AN      X      Y      Z        X      Y      Z        X      Y      Z
     1   8     0.11  -0.06  -0.01    -0.04  -0.01  -0.08     0.12  -0.07   0.05
     2   6     0.11  -0.01   0.07    -0.02   0.10   0.29     0.10  -0.10  -0.10
     3   6    -0.05  -0.03   0.05     0.02   0.02   0.10    -0.07   0.10  -0.04
     4   6    -0.09   0.01   0.05     0.04   0.11  -0.03    -0.08   0.28   0.04
     5   6    -0.05   0.01  -0.07     0.03  -0.01   0.03     0.02   0.06   0.05
     6   6    -0.08   0.02  -0.06    -0.01  -0.04   0.03     0.03  -0.04   0.12
     7   6    -0.09  -0.00   0.00    -0.02  -0.05  -0.07     0.07  -0.06   0.02
     8   6     0.01   0.07  -0.01    -0.01  -0.03  -0.04     0.05  -0.16  -0.02
     9   6    -0.01   0.09  -0.02     0.03  -0.05  -0.09    -0.09  -0.01  -0.10
    10   6     0.02  -0.07  -0.06    -0.02  -0.01   0.04    -0.18  -0.07   0.06
    11   6     0.07   0.05   0.08     0.02  -0.01  -0.11    -0.01   0.05  -0.08
    12   1    -0.06   0.11  -0.15     0.12   0.22  -0.43     0.00   0.02  -0.03
    13   1    -0.17  -0.20   0.03    -0.16  -0.63   0.05    -0.15   0.24  -0.04
    14   1    -0.06   0.01  -0.02    -0.02   0.11  -0.02    -0.06   0.29   0.07
    15   1    -0.06   0.07  -0.27     0.03  -0.05   0.10    -0.08   0.03  -0.27
    16   1     0.16  -0.07  -0.03    -0.07  -0.02   0.01     0.17  -0.19   0.04
    17   1    -0.09  -0.01  -0.04    -0.04   0.04   0.04     0.13   0.06  -0.03
    18   1    -0.12  -0.20  -0.07    -0.07  -0.04  -0.10     0.02   0.18   0.06
    19   1    -0.15  -0.00   0.22     0.00  -0.06  -0.03     0.11  -0.05  -0.23
    20   1    -0.10   0.03   0.01     0.01  -0.04  -0.09    -0.00  -0.14   0.09
    21   1    -0.03   0.03  -0.05     0.10   0.04  -0.06    -0.00   0.16  -0.04
    22   1     0.31  -0.17  -0.14    -0.14   0.04   0.12    -0.27  -0.03   0.12
    23   1    -0.13  -0.32   0.02     0.09   0.13   0.03    -0.10   0.05   0.02
    24   1     0.24  -0.08  -0.11    -0.00  -0.03  -0.07     0.10  -0.18  -0.16
    25   1     0.23   0.10   0.32     0.00  -0.08  -0.08     0.12   0.02   0.17
                     13                     14                     15
                      A                      A                      A
 Frequencies --    734.6192               769.3026               781.6667
 Red. masses --      3.8227                 3.1739                 3.2589
 Frc consts  --      1.2155                 1.1067                 1.1732
 IR Inten    --      0.6394                 0.7019                 1.0882
  Atom  AN      X      Y      Z        X      Y      Z        X      Y      Z
     1   8     0.06  -0.01  -0.01     0.05  -0.04   0.01    -0.02   0.02  -0.00
     2   6     0.06   0.01   0.04     0.05   0.02   0.02    -0.02   0.02  -0.03
     3   6     0.11   0.17  -0.09    -0.13   0.05   0.00     0.03  -0.14   0.05
     4   6     0.01   0.06  -0.03    -0.09  -0.13  -0.07    -0.00   0.02  -0.04
     5   6    -0.06   0.06  -0.12     0.15  -0.09   0.11    -0.04   0.13  -0.10
     6   6     0.00  -0.02  -0.06     0.18   0.11   0.08     0.12  -0.01   0.04
     7   6    -0.07  -0.14  -0.16    -0.05   0.02  -0.09     0.11  -0.05  -0.10
     8   6    -0.10  -0.14   0.07    -0.03   0.00  -0.05     0.00   0.13  -0.15
     9   6    -0.05  -0.05   0.24    -0.08   0.01   0.10    -0.10  -0.02   0.11
    10   6     0.08   0.03   0.04     0.02   0.02   0.02    -0.08  -0.07   0.16
    11   6    -0.01   0.01   0.10    -0.03   0.00  -0.11    -0.06   0.02   0.07
    12   1     0.13   0.22  -0.19    -0.31   0.22   0.05     0.05  -0.16   0.06
    13   1     0.04   0.06  -0.10    -0.09   0.09   0.01     0.13  -0.19   0.05
    14   1    -0.11   0.05   0.11    -0.17  -0.13  -0.10     0.24   0.02  -0.03
    15   1    -0.09  -0.06   0.06     0.12  -0.19   0.23    -0.08   0.05  -0.05
    16   1    -0.21   0.20  -0.13     0.02  -0.02   0.10    -0.12   0.12  -0.12
    17   1    -0.18  -0.01   0.16     0.11   0.31   0.10     0.11  -0.06   0.06
    18   1     0.09   0.10  -0.00    -0.08  -0.09  -0.14     0.03  -0.29  -0.22
    19   1    -0.05  -0.11  -0.47    -0.25   0.07  -0.01     0.05  -0.06   0.19
    20   1    -0.08  -0.14   0.05    -0.07  -0.03  -0.09     0.07   0.16  -0.15
    21   1    -0.18  -0.06   0.25    -0.03   0.08   0.13     0.20  -0.11   0.04
    22   1     0.12   0.00  -0.04     0.03   0.00  -0.16    -0.23  -0.03   0.16
    23   1    -0.04  -0.06  -0.04    -0.09  -0.03  -0.09    -0.06   0.05   0.03
    24   1    -0.04   0.11   0.10     0.11  -0.02  -0.31     0.13  -0.17  -0.14
    25   1    -0.03   0.06   0.03     0.12   0.19  -0.01     0.16   0.22   0.27
                     16                     17                     18
                      A                      A                      A
 Frequencies --    808.2236               851.3613               882.0306
 Red. masses --      2.7230                 2.7361                 2.4757
 Frc consts  --      1.0480                 1.1685                 1.1348
 IR Inten    --      0.3483                 3.5839                 2.1003
  Atom  AN      X      Y      Z        X      Y      Z        X      Y      Z
     1   8    -0.03  -0.00  -0.01     0.02   0.03  -0.01    -0.05  -0.01  -0.00
     2   6    -0.02   0.01   0.02    -0.01  -0.07  -0.02    -0.02   0.07  -0.02
     3   6     0.04   0.01  -0.01     0.11  -0.01  -0.02     0.04  -0.03   0.02
     4   6     0.00   0.06  -0.07    -0.02   0.13  -0.01     0.01  -0.04  -0.02
     5   6    -0.04  -0.10   0.01    -0.05  -0.12  -0.02    -0.06  -0.01   0.01
     6   6     0.04   0.03   0.01     0.14  -0.01   0.09    -0.02   0.06   0.16
     7   6    -0.03   0.11   0.06    -0.04   0.10   0.06     0.04  -0.09  -0.02
     8   6     0.09  -0.11  -0.07    -0.13   0.05  -0.02     0.16  -0.07  -0.03
     9   6     0.03  -0.12   0.10    -0.05   0.01  -0.06    -0.11   0.05  -0.07
    10   6    -0.09  -0.04  -0.10     0.13   0.04  -0.04     0.05   0.11  -0.06
    11   6     0.05   0.16   0.13    -0.08  -0.09   0.03    -0.05  -0.00   0.05
    12   1     0.05   0.00  -0.03     0.27  -0.14  -0.09     0.04   0.00  -0.03
    13   1     0.11  -0.10  -0.01     0.08  -0.10  -0.03     0.05  -0.13   0.02
    14   1    -0.05   0.06  -0.31    -0.10   0.13   0.03     0.08  -0.04  -0.07
    15   1    -0.05  -0.10  -0.04    -0.16  -0.30  -0.01    -0.02   0.09  -0.08
    16   1    -0.06  -0.20  -0.02    -0.21  -0.21  -0.08    -0.05  -0.21  -0.03
    17   1     0.16  -0.02  -0.12     0.10  -0.09   0.16    -0.13   0.03   0.31
    18   1    -0.12  -0.04  -0.03    -0.09  -0.03  -0.00    -0.08   0.14  -0.03
    19   1    -0.21   0.16   0.15    -0.17   0.13   0.18     0.05  -0.08  -0.23
    20   1     0.21  -0.15  -0.32    -0.34  -0.03  -0.01     0.41   0.07   0.08
    21   1    -0.02  -0.20   0.06    -0.06  -0.04  -0.09    -0.37  -0.01  -0.07
    22   1    -0.24  -0.01  -0.22     0.12   0.05  -0.05     0.31   0.01  -0.24
    23   1    -0.09   0.02  -0.18     0.10   0.06  -0.12    -0.11  -0.15   0.03
    24   1     0.00   0.31   0.14     0.00  -0.32   0.00     0.02  -0.18   0.01
    25   1    -0.03   0.11   0.04     0.02  -0.14   0.24     0.04   0.09   0.11
                     19                     20                     21
                      A                      A                      A
 Frequencies --    886.8679               915.3472               921.7095
 Red. masses --      1.8854                 2.1407                 2.2240
 Frc consts  --      0.8737                 1.0568                 1.1132
 IR Inten    --      0.6006                 0.9411                 1.7533
  Atom  AN      X      Y      Z        X      Y      Z        X      Y      Z
     1   8    -0.01   0.00   0.01     0.01  -0.01   0.01     0.02  -0.00  -0.01
     2   6    -0.00  -0.01  -0.10     0.01   0.01  -0.03     0.01   0.01   0.08
     3   6     0.01   0.04   0.13    -0.06  -0.06   0.01    -0.02   0.01  -0.09
     4   6     0.01  -0.04   0.02    -0.01   0.10  -0.06    -0.03  -0.03  -0.08
     5   6     0.05  -0.02  -0.11     0.13  -0.00  -0.02     0.06  -0.02  -0.03
     6   6     0.01  -0.01  -0.03    -0.06  -0.02  -0.01     0.03   0.08   0.01
     7   6    -0.01   0.02   0.13    -0.10  -0.03  -0.01     0.05  -0.06   0.04
     8   6     0.00  -0.05  -0.08     0.07   0.09   0.10    -0.08  -0.00  -0.02
     9   6     0.00   0.03   0.02     0.03  -0.09   0.01     0.04  -0.01  -0.14
    10   6    -0.05   0.03   0.04     0.06  -0.04  -0.06    -0.09   0.04   0.07
    11   6    -0.02  -0.00  -0.03    -0.08   0.03   0.04    -0.00   0.01   0.16
    12   1     0.18   0.10  -0.29    -0.02  -0.13   0.07    -0.18   0.07   0.12
    13   1    -0.40  -0.18   0.08    -0.01   0.03   0.02     0.23   0.07  -0.06
    14   1    -0.05  -0.04   0.03     0.06   0.10  -0.22    -0.07  -0.02  -0.26
    15   1     0.07  -0.15   0.32     0.13  -0.12   0.29     0.05  -0.10   0.17
    16   1    -0.27   0.29  -0.12    -0.18   0.17  -0.06    -0.12   0.12  -0.05
    17   1     0.10  -0.12  -0.10    -0.20   0.16   0.08     0.09   0.14  -0.08
    18   1    -0.01   0.23   0.18    -0.16   0.26   0.04     0.12   0.07   0.12
    19   1     0.07   0.02  -0.12     0.18  -0.10  -0.14     0.08  -0.06  -0.12
    20   1     0.06  -0.04  -0.10     0.16   0.13   0.10    -0.19   0.02   0.15
    21   1     0.06   0.06   0.02    -0.02  -0.10   0.01     0.19  -0.24  -0.26
    22   1     0.14  -0.04  -0.08    -0.23   0.04  -0.10     0.14  -0.05  -0.12
    23   1    -0.15  -0.15   0.12     0.25   0.14   0.02    -0.12  -0.20   0.35
    24   1     0.06  -0.00  -0.15     0.11  -0.14  -0.18    -0.04   0.04   0.19
    25   1     0.05   0.02   0.08     0.10   0.04   0.34    -0.08  -0.15   0.17
                     22                     23                     24
                      A                      A                      A
 Frequencies --    962.5836               968.3004               980.9775
 Red. masses --      2.0412                 2.1589                 2.4978
 Frc consts  --      1.1143                 1.1926                 1.4162
 IR Inten    --      1.2150                 3.1673                 2.8655
  Atom  AN      X      Y      Z        X      Y      Z        X      Y      Z
     1   8     0.02  -0.01   0.00    -0.01   0.02   0.00    -0.03   0.01   0.00
     2   6     0.02   0.02   0.00    -0.00   0.01  -0.07    -0.03  -0.01   0.00
     3   6    -0.07  -0.06   0.02     0.16  -0.01   0.05     0.06  -0.04  -0.03
     4   6     0.01   0.06   0.01    -0.10  -0.06   0.01    -0.05   0.05   0.04
     5   6    -0.02   0.03  -0.03    -0.06  -0.01   0.08     0.02  -0.09  -0.03
     6   6     0.07  -0.04   0.09     0.01   0.09   0.01     0.02   0.04  -0.07
     7   6    -0.06  -0.07   0.02     0.01  -0.08  -0.01    -0.04   0.05  -0.14
     8   6    -0.03   0.11  -0.02    -0.08   0.04   0.05     0.16  -0.01   0.11
     9   6     0.06   0.00   0.07     0.11  -0.02   0.01     0.06   0.09   0.01
    10   6    -0.08   0.05  -0.08    -0.05  -0.03  -0.05    -0.13   0.04   0.08
    11   6     0.11  -0.07  -0.03    -0.04   0.04  -0.04    -0.01  -0.08  -0.01
    12   1    -0.10  -0.07   0.09     0.23   0.04  -0.18     0.19  -0.23   0.04
    13   1     0.08  -0.05   0.04    -0.00  -0.23   0.02     0.13  -0.02  -0.03
    14   1     0.11   0.06   0.21    -0.12  -0.07  -0.02    -0.18   0.04   0.13
    15   1    -0.13  -0.14  -0.06    -0.08   0.07  -0.19    -0.08  -0.28   0.07
    16   1    -0.07  -0.01  -0.05     0.15  -0.18   0.09    -0.10   0.06  -0.02
    17   1     0.04  -0.03   0.13     0.01   0.23  -0.03     0.10   0.15  -0.23
    18   1    -0.20   0.28   0.03     0.22   0.06   0.16    -0.16  -0.11  -0.26
    19   1     0.16  -0.12  -0.17    -0.03  -0.05  -0.27    -0.17   0.07   0.05
    20   1     0.01   0.14  -0.00    -0.01   0.13   0.22     0.24   0.03   0.13
    21   1     0.12  -0.06   0.03     0.31   0.01  -0.00     0.08   0.26   0.10
    22   1     0.08  -0.02  -0.28    -0.23   0.01  -0.21     0.14  -0.05   0.04
    23   1    -0.33  -0.13  -0.26     0.02   0.05  -0.04    -0.25  -0.17   0.17
    24   1    -0.10   0.24   0.16     0.10   0.15  -0.28    -0.03  -0.05   0.01
    25   1    -0.12  -0.21  -0.29     0.05  -0.03   0.18    -0.05  -0.25   0.09
                     25                     26                     27
                      A                      A                      A
 Frequencies --    996.9653              1009.7906              1042.2208
 Red. masses --      2.1150                 2.2636                 1.7765
 Frc consts  --      1.2385                 1.3599                 1.1369
 IR Inten    --      3.9253                 1.2548                 5.9708
  Atom  AN      X      Y      Z        X      Y      Z        X      Y      Z
     1   8    -0.02  -0.00  -0.02    -0.01  -0.01   0.00     0.01  -0.01   0.01
     2   6     0.00   0.06   0.07     0.01   0.03  -0.01     0.03   0.06  -0.06
     3   6     0.07  -0.04  -0.10    -0.03   0.04   0.03    -0.02  -0.06   0.05
     4   6    -0.08  -0.05   0.02     0.08  -0.10   0.01     0.01   0.04   0.00
     5   6     0.03   0.09   0.04    -0.06   0.04  -0.10    -0.06  -0.05   0.03
     6   6     0.06  -0.09  -0.03     0.12  -0.00   0.08     0.06   0.04  -0.09
     7   6    -0.11  -0.00   0.10    -0.09   0.02  -0.05    -0.06  -0.02   0.02
     8   6     0.03  -0.05  -0.07     0.02  -0.03   0.11    -0.02   0.04   0.02
     9   6     0.01   0.06   0.00     0.03   0.05  -0.11    -0.08  -0.07  -0.02
    10   6     0.02  -0.02  -0.00    -0.02  -0.11  -0.01     0.05   0.00   0.08
    11   6    -0.07  -0.00   0.01     0.02   0.03   0.06     0.06   0.02  -0.02
    12   1    -0.08   0.00   0.12    -0.09   0.15  -0.05    -0.05   0.01   0.00
    13   1     0.41  -0.08  -0.07    -0.23   0.13   0.02     0.02  -0.12   0.05
    14   1    -0.00  -0.04   0.15     0.22  -0.10  -0.03     0.11   0.05  -0.13
    15   1    -0.05   0.00  -0.09    -0.03   0.04   0.00    -0.19  -0.18  -0.18
    16   1     0.24   0.21   0.11    -0.16  -0.05  -0.14     0.11  -0.05   0.07
    17   1     0.23  -0.14  -0.22     0.20  -0.13   0.02     0.21   0.10  -0.30
    18   1    -0.23   0.34   0.12    -0.16   0.08  -0.08     0.06   0.13   0.13
    19   1    -0.04   0.00  -0.23    -0.38   0.12  -0.20    -0.16   0.03  -0.27
    20   1     0.11  -0.04  -0.12    -0.02   0.04   0.34     0.20   0.13   0.01
    21   1     0.01   0.11   0.02     0.13   0.09  -0.11    -0.28  -0.09  -0.01
    22   1     0.07  -0.01   0.24    -0.28  -0.01   0.14     0.08   0.00   0.14
    23   1     0.00   0.06  -0.16     0.12   0.19  -0.20     0.21  -0.02   0.40
    24   1     0.05  -0.05  -0.16    -0.01  -0.10   0.15    -0.06  -0.03   0.17
    25   1     0.05   0.04   0.17    -0.00   0.05  -0.01    -0.03   0.08  -0.24
                     28                     29                     30
                      A                      A                      A
 Frequencies --   1062.3031              1092.7465              1120.1549
 Red. masses --      1.7089                 1.7188                 1.6772
 Frc consts  --      1.1362                 1.2093                 1.2399
 IR Inten    --      1.5563                 4.2865                 4.9628
  Atom  AN      X      Y      Z        X      Y      Z        X      Y      Z
     1   8    -0.00   0.01  -0.01    -0.00   0.01   0.01     0.00  -0.00   0.00
     2   6    -0.01  -0.02   0.06    -0.01  -0.05  -0.06     0.01   0.04   0.01
     3   6     0.03  -0.01  -0.06     0.05   0.02   0.04    -0.00  -0.01   0.01
     4   6    -0.01  -0.04   0.14    -0.10  -0.03  -0.05     0.07   0.01  -0.01
     5   6    -0.01  -0.03  -0.06     0.05   0.08   0.01    -0.04   0.01   0.06
     6   6     0.02   0.01   0.02     0.03  -0.07   0.06     0.02  -0.08  -0.02
     7   6    -0.01  -0.00  -0.01    -0.00   0.03  -0.05    -0.01   0.02  -0.04
     8   6     0.01   0.01   0.01    -0.00   0.02   0.07    -0.04  -0.01   0.06
     9   6    -0.02  -0.08  -0.06    -0.04  -0.06  -0.05     0.06  -0.09   0.01
    10   6     0.00   0.01   0.01    -0.01   0.01   0.01    -0.03   0.12   0.01
    11   6     0.00   0.11  -0.06     0.06   0.02   0.01    -0.09   0.02  -0.04
    12   1     0.10  -0.17   0.07     0.11   0.04  -0.10    -0.02   0.02   0.00
    13   1    -0.01   0.20  -0.05     0.00  -0.18   0.02    -0.23   0.25  -0.00
    14   1    -0.07  -0.04   0.34    -0.22  -0.03  -0.02     0.34   0.02  -0.28
    15   1    -0.14  -0.25   0.01     0.10   0.13   0.06     0.01   0.15  -0.09
    16   1     0.02   0.22   0.00     0.10   0.17   0.04     0.16  -0.07   0.09
    17   1    -0.04  -0.12   0.15     0.09  -0.14   0.01     0.17  -0.37  -0.09
    18   1    -0.17   0.06  -0.09    -0.23  -0.02  -0.20    -0.10  -0.03  -0.10
    19   1     0.11  -0.04   0.08     0.01   0.01   0.14    -0.11   0.04   0.01
    20   1    -0.06  -0.01   0.01    -0.04   0.02   0.09    -0.02  -0.02  -0.01
    21   1     0.05  -0.14  -0.10    -0.40  -0.33  -0.14     0.13  -0.12  -0.02
    22   1    -0.12   0.01  -0.34     0.17  -0.02   0.24     0.28   0.01  -0.15
    23   1     0.11  -0.05   0.30    -0.03  -0.04   0.01    -0.24  -0.19   0.07
    24   1     0.06   0.12  -0.15     0.02   0.43  -0.09     0.07  -0.08  -0.22
    25   1     0.09   0.39  -0.15    -0.07  -0.16  -0.05     0.06  -0.02   0.24
                     31                     32                     33
                      A                      A                      A
 Frequencies --   1138.3699              1144.7591              1170.9662
 Red. masses --      1.0917                 1.5116                 1.1252
 Frc consts  --      0.8335                 1.1671                 0.9090
 IR Inten    --      0.1859                12.0370                 0.5762
  Atom  AN      X      Y      Z        X      Y      Z        X      Y      Z
     1   8    -0.00   0.00   0.00     0.01  -0.02   0.00    -0.01   0.00  -0.00
     2   6     0.00   0.01  -0.04     0.04   0.12  -0.01     0.00   0.02   0.02
     3   6     0.02  -0.00   0.01     0.01  -0.08  -0.02     0.03  -0.01  -0.01
     4   6    -0.03  -0.00   0.00    -0.03   0.01   0.07    -0.01  -0.03   0.02
     5   6     0.00   0.01   0.00     0.03  -0.02  -0.04    -0.01   0.01  -0.01
     6   6     0.02  -0.02  -0.01    -0.01  -0.01   0.01     0.02   0.01   0.03
     7   6    -0.00   0.02  -0.00     0.00   0.04   0.00     0.01  -0.03  -0.01
     8   6    -0.00  -0.01   0.02    -0.05  -0.03   0.01    -0.04   0.00  -0.00
     9   6    -0.03  -0.00  -0.02    -0.01  -0.04  -0.06     0.02   0.02   0.00
    10   6     0.00  -0.00   0.02    -0.01  -0.01   0.03    -0.01  -0.03  -0.03
    11   6     0.04   0.00  -0.00     0.02   0.04  -0.02     0.02   0.01  -0.00
    12   1    -0.03   0.07  -0.02     0.03  -0.15   0.07     0.01   0.01  -0.00
    13   1     0.08  -0.13   0.01    -0.00   0.14  -0.01    -0.17   0.21  -0.01
    14   1    -0.12  -0.00  -0.38     0.14   0.02   0.00     0.19  -0.02  -0.16
    15   1    -0.04  -0.04  -0.03     0.03  -0.08   0.10    -0.06  -0.06  -0.02
    16   1     0.30   0.39   0.16    -0.08   0.08  -0.05    -0.04  -0.03  -0.03
    17   1    -0.17  -0.24   0.31    -0.24   0.02   0.29     0.10   0.10  -0.10
    18   1    -0.02  -0.01  -0.02     0.41  -0.17   0.20    -0.16   0.05  -0.09
    19   1     0.00   0.01   0.04    -0.25   0.12  -0.08     0.23  -0.10   0.12
    20   1     0.01  -0.02  -0.02     0.19   0.00  -0.16    -0.08  -0.11  -0.27
    21   1     0.16   0.25   0.09    -0.14   0.06   0.00    -0.35   0.38   0.21
    22   1    -0.15   0.01  -0.29     0.08  -0.02   0.19    -0.11   0.00  -0.07
    23   1    -0.02  -0.01  -0.00    -0.18   0.01  -0.30     0.18   0.02   0.25
    24   1    -0.07  -0.25   0.25     0.03   0.23  -0.11    -0.00   0.10  -0.01
    25   1    -0.05  -0.09  -0.05    -0.04  -0.23   0.12    -0.07  -0.36   0.20
                     34                     35                     36
                      A                      A                      A
 Frequencies --   1198.7584              1203.6806              1252.8687
 Red. masses --      1.1866                 1.3346                 1.5847
 Frc consts  --      1.0046                 1.1393                 1.4656
 IR Inten    --      1.1171                 7.9030                13.6026
  Atom  AN      X      Y      Z        X      Y      Z        X      Y      Z
     1   8    -0.01   0.01   0.00     0.02   0.00  -0.01    -0.02  -0.02   0.00
     2   6    -0.01  -0.03  -0.00    -0.02  -0.05   0.10     0.04   0.13  -0.02
     3   6     0.03   0.02   0.01     0.01   0.01  -0.01     0.01  -0.04   0.01
     4   6     0.01  -0.03  -0.02    -0.01  -0.01  -0.01    -0.03   0.02   0.02
     5   6    -0.02   0.02   0.01    -0.03   0.00   0.00     0.01  -0.02  -0.01
     6   6     0.04   0.00  -0.04     0.02   0.04  -0.01    -0.05   0.02  -0.01
     7   6    -0.04   0.01   0.01    -0.03  -0.04   0.02     0.07   0.01   0.03
     8   6     0.04  -0.01   0.04     0.03   0.05  -0.04    -0.01  -0.09  -0.04
     9   6    -0.01  -0.02  -0.03    -0.05  -0.00   0.01    -0.05  -0.01   0.04
    10   6    -0.00   0.00   0.04     0.02  -0.01   0.02     0.05  -0.01   0.00
    11   6    -0.01   0.01   0.00     0.03  -0.01  -0.02     0.02  -0.02  -0.02
    12   1    -0.05   0.15  -0.05     0.35  -0.37   0.01     0.10  -0.14   0.01
    13   1    -0.13   0.07   0.00    -0.39   0.41  -0.03    -0.05   0.08   0.01
    14   1     0.21  -0.02  -0.09    -0.30  -0.02  -0.33     0.15   0.03  -0.17
    15   1    -0.26  -0.28  -0.19     0.09   0.18   0.01    -0.03  -0.07  -0.00
    16   1     0.07   0.04   0.03     0.06   0.04   0.03    -0.01   0.08   0.00
    17   1    -0.23   0.47   0.11     0.04  -0.02  -0.01     0.00   0.16  -0.13
    18   1    -0.03   0.05   0.03    -0.00   0.11   0.08    -0.42   0.08  -0.26
    19   1     0.35  -0.11   0.18    -0.02  -0.03  -0.11     0.02   0.02   0.09
    20   1    -0.04  -0.12  -0.16     0.16   0.12  -0.01    -0.34   0.01   0.57
    21   1     0.11  -0.14  -0.10     0.09  -0.08  -0.04     0.22  -0.08  -0.02
    22   1     0.13  -0.02   0.20     0.03  -0.00   0.11    -0.00   0.01   0.04
    23   1    -0.17  -0.01  -0.26    -0.04   0.04  -0.17    -0.00   0.04  -0.15
    24   1     0.01  -0.05   0.00    -0.02  -0.01   0.06    -0.01   0.11  -0.02
    25   1     0.00   0.05  -0.02    -0.03  -0.11  -0.04    -0.02  -0.07  -0.04
                     37                     38                     39
                      A                      A                      A
 Frequencies --   1265.2415              1285.1126              1295.0272
 Red. masses --      1.3334                 1.4267                 1.6122
 Frc consts  --      1.2576                 1.3883                 1.5930
 IR Inten    --     10.6820                 0.7043                 0.2105
  Atom  AN      X      Y      Z        X      Y      Z        X      Y      Z
     1   8    -0.00   0.02  -0.01     0.02   0.01   0.00     0.01   0.00  -0.00
     2   6    -0.04  -0.10   0.04    -0.02  -0.06  -0.01    -0.00  -0.02   0.02
     3   6     0.04   0.01  -0.01     0.02  -0.02  -0.02     0.03  -0.01  -0.00
     4   6     0.03   0.02  -0.01    -0.01  -0.00   0.07    -0.02   0.01   0.03
     5   6     0.01  -0.02   0.01     0.00  -0.01  -0.03     0.02   0.00  -0.04
     6   6    -0.02   0.01  -0.02    -0.03   0.04   0.00    -0.07   0.01   0.12
     7   6     0.01   0.02   0.01     0.03  -0.01  -0.00     0.04   0.00  -0.02
     8   6     0.02   0.01  -0.07    -0.08  -0.01   0.03    -0.06  -0.00  -0.02
     9   6    -0.04   0.04   0.03    -0.05  -0.06  -0.02     0.13  -0.01   0.04
    10   6     0.00  -0.02   0.00     0.05   0.02   0.01    -0.04  -0.00  -0.07
    11   6     0.01  -0.02  -0.01     0.02   0.06  -0.03    -0.03  -0.01  -0.02
    12   1    -0.25   0.33  -0.03    -0.25   0.27   0.01    -0.04   0.06  -0.00
    13   1    -0.09   0.11  -0.02     0.09  -0.06  -0.01    -0.08   0.09  -0.01
    14   1     0.30   0.03   0.02    -0.10  -0.00   0.01    -0.04   0.01  -0.27
    15   1    -0.15  -0.24  -0.07     0.13   0.14   0.10    -0.17  -0.28  -0.04
    16   1     0.10   0.12   0.06    -0.17  -0.12  -0.09     0.11   0.33   0.05
    17   1    -0.09  -0.12   0.12     0.14   0.01  -0.20     0.14   0.08  -0.16
    18   1     0.04  -0.01   0.03    -0.26   0.08  -0.15     0.07  -0.07  -0.02
    19   1    -0.17   0.08  -0.06     0.11  -0.04   0.10    -0.11   0.04   0.02
    20   1     0.24   0.26   0.36     0.48   0.17  -0.08     0.16   0.13   0.11
    21   1    -0.05  -0.13  -0.04     0.31   0.16   0.05    -0.28  -0.09   0.04
    22   1    -0.11   0.01  -0.08     0.12   0.01   0.08     0.15  -0.02   0.31
    23   1     0.07   0.01   0.08    -0.08   0.02  -0.23    -0.00   0.01  -0.04
    24   1     0.02   0.27  -0.15    -0.03  -0.11   0.11    -0.03  -0.36   0.12
    25   1    -0.04  -0.28   0.15    -0.03  -0.12   0.07     0.07   0.31  -0.17
                     40                     41                     42
                      A                      A                      A
 Frequencies --   1314.7423              1325.4441              1330.3535
 Red. masses --      1.7456                 1.4245                 1.6381
 Frc consts  --      1.7777                 1.4745                 1.7081
 IR Inten    --      2.2199                 0.5725                 0.4934
  Atom  AN      X      Y      Z        X      Y      Z        X      Y      Z
     1   8     0.01  -0.00  -0.00     0.01  -0.01  -0.00     0.04  -0.02   0.00
     2   6     0.01   0.03   0.01     0.00   0.02   0.01     0.01   0.01  -0.00
     3   6     0.06  -0.06   0.02     0.00  -0.01   0.01    -0.10   0.08   0.01
     4   6    -0.10   0.00  -0.08    -0.03  -0.01  -0.04     0.09  -0.03  -0.06
     5   6     0.06   0.06   0.03     0.02   0.04   0.02    -0.03  -0.00   0.01
     6   6    -0.01  -0.09   0.01     0.00  -0.05   0.01     0.03  -0.01  -0.03
     7   6     0.02   0.03  -0.00    -0.09   0.07  -0.04     0.05   0.02   0.02
     8   6    -0.05  -0.04   0.04    -0.04  -0.06  -0.05    -0.11  -0.04   0.00
     9   6    -0.05   0.06   0.01     0.03  -0.01  -0.02     0.02   0.02  -0.02
    10   6    -0.00   0.02  -0.07     0.04   0.01   0.08    -0.03  -0.01  -0.03
    11   6     0.03  -0.03   0.04     0.01   0.01   0.02    -0.03  -0.01   0.03
    12   1     0.04   0.01  -0.04     0.08  -0.08  -0.01     0.30  -0.37   0.01
    13   1    -0.29   0.29   0.00    -0.08   0.06   0.00     0.15  -0.18   0.02
    14   1     0.11   0.01   0.17    -0.03  -0.01   0.12    -0.07  -0.04   0.12
    15   1    -0.06  -0.11  -0.04    -0.02  -0.00  -0.02    -0.12  -0.10  -0.10
    16   1    -0.11  -0.13  -0.05    -0.06  -0.11  -0.03     0.17   0.11   0.08
    17   1    -0.07   0.09   0.01     0.14   0.03  -0.19    -0.19   0.15   0.18
    18   1     0.01  -0.06  -0.03     0.25  -0.11   0.12    -0.26   0.08  -0.15
    19   1    -0.17   0.08  -0.01     0.38  -0.10   0.26    -0.01   0.03   0.10
    20   1     0.30  -0.02  -0.24     0.22   0.21   0.39     0.48   0.20   0.02
    21   1     0.46  -0.05  -0.10    -0.23   0.10   0.05    -0.00   0.09   0.02
    22   1     0.00   0.02  -0.08    -0.15   0.02  -0.39     0.03  -0.01   0.10
    23   1     0.20  -0.01   0.34    -0.11  -0.01  -0.15     0.07   0.00   0.11
    24   1    -0.04  -0.04   0.14    -0.01  -0.07   0.07     0.04   0.11  -0.13
    25   1    -0.00   0.16  -0.19    -0.00   0.08  -0.06     0.01  -0.03   0.12
                     43                     44                     45
                      A                      A                      A
 Frequencies --   1348.9488              1361.1166              1363.5123
 Red. masses --      1.3998                 1.4661                 1.7992
 Frc consts  --      1.5008                 1.6003                 1.9708
 IR Inten    --      0.9881                 2.8856                 8.2162
  Atom  AN      X      Y      Z        X      Y      Z        X      Y      Z
     1   8    -0.00   0.00  -0.00     0.01  -0.01   0.00    -0.00  -0.01   0.00
     2   6    -0.00  -0.01   0.00    -0.01  -0.00  -0.01     0.02   0.06  -0.02
     3   6     0.00   0.01  -0.01    -0.05   0.08  -0.01     0.02  -0.08   0.01
     4   6    -0.00  -0.01   0.06    -0.00  -0.02   0.03     0.04   0.06   0.02
     5   6     0.02   0.05   0.01     0.01   0.00  -0.01    -0.03  -0.05   0.00
     6   6     0.06  -0.01  -0.03    -0.07   0.03   0.09     0.04   0.11  -0.02
     7   6    -0.05   0.03  -0.01    -0.05   0.00  -0.05    -0.05   0.00  -0.03
     8   6     0.02  -0.01  -0.05     0.02  -0.00   0.03    -0.05  -0.07   0.04
     9   6    -0.02  -0.07   0.01    -0.08   0.02   0.01     0.02   0.11   0.02
    10   6    -0.05   0.02  -0.09     0.04   0.00  -0.03    -0.03  -0.05  -0.01
    11   6     0.00  -0.02   0.01     0.01  -0.03   0.00    -0.02  -0.08   0.00
    12   1    -0.03   0.03   0.01     0.20  -0.19   0.00    -0.19   0.17  -0.02
    13   1     0.07  -0.06  -0.01     0.19  -0.20   0.00    -0.05   0.13   0.01
    14   1    -0.09  -0.01  -0.30     0.30  -0.01  -0.23    -0.23   0.05  -0.10
    15   1    -0.01   0.01   0.01    -0.13  -0.21  -0.01     0.10   0.13   0.04
    16   1    -0.18  -0.27  -0.11     0.07   0.11   0.03     0.08   0.06   0.05
    17   1    -0.12  -0.10   0.24     0.30  -0.18  -0.28     0.04  -0.35   0.16
    18   1     0.13  -0.02   0.09     0.28  -0.12   0.12    -0.02   0.02  -0.01
    19   1     0.18  -0.04   0.11     0.16  -0.07   0.05     0.44  -0.16   0.20
    20   1    -0.04   0.11   0.33     0.04  -0.06  -0.15     0.18  -0.05  -0.13
    21   1     0.16   0.31   0.17     0.35  -0.05  -0.08    -0.03  -0.36  -0.20
    22   1     0.22  -0.02   0.35     0.03   0.01  -0.01    -0.06  -0.02   0.10
    23   1     0.11  -0.04   0.29     0.09   0.05  -0.02     0.10   0.07   0.05
    24   1     0.01   0.13  -0.05     0.03   0.20  -0.13     0.03   0.17  -0.17
    25   1     0.03   0.13  -0.08    -0.02  -0.09  -0.00     0.04   0.12  -0.07
                     46                     47                     48
                      A                      A                      A
 Frequencies --   1380.7866              1389.3884              1402.6242
 Red. masses --      1.5444                 1.4768                 1.3986
 Frc consts  --      1.7349                 1.6797                 1.6211
 IR Inten    --      0.4515                 3.2921                 2.6142
  Atom  AN      X      Y      Z        X      Y      Z        X      Y      Z
     1   8    -0.00   0.01  -0.00     0.01   0.00  -0.00     0.00   0.00  -0.00
     2   6    -0.01  -0.02   0.01    -0.02  -0.04   0.01    -0.01  -0.02   0.01
     3   6     0.01  -0.01   0.01    -0.00   0.06  -0.02     0.01   0.01   0.01
     4   6    -0.02   0.02  -0.04    -0.09   0.01   0.11    -0.07   0.03  -0.06
     5   6     0.04   0.00   0.03    -0.01  -0.01  -0.02    -0.06  -0.12  -0.03
     6   6    -0.05   0.07  -0.03     0.04  -0.05  -0.04     0.03   0.02   0.02
     7   6     0.04  -0.04   0.01     0.02   0.01   0.02    -0.03   0.00  -0.01
     8   6    -0.01   0.03   0.01    -0.02  -0.00   0.00     0.01   0.00  -0.02
     9   6     0.01  -0.05  -0.08     0.04   0.06   0.00    -0.01  -0.04  -0.01
    10   6     0.02  -0.01   0.05    -0.00  -0.01   0.04    -0.02   0.00  -0.03
    11   6    -0.01  -0.09   0.10     0.00  -0.06  -0.01     0.01  -0.00   0.03
    12   1     0.01   0.03  -0.04     0.08  -0.04  -0.00     0.06   0.02  -0.09
    13   1    -0.07   0.09   0.00     0.16  -0.13  -0.02    -0.01   0.10   0.00
    14   1     0.08   0.03  -0.04     0.45   0.03  -0.44     0.46   0.05   0.33
    15   1    -0.11  -0.18  -0.09     0.21   0.27   0.13     0.29   0.34   0.17
    16   1    -0.05  -0.03   0.00    -0.12  -0.13  -0.07     0.27   0.32   0.15
    17   1     0.04  -0.29   0.00    -0.11   0.22   0.04     0.02   0.08   0.02
    18   1    -0.16   0.06  -0.08    -0.11   0.05  -0.04     0.07   0.03   0.06
    19   1    -0.09   0.01  -0.07    -0.08   0.04  -0.00     0.10  -0.04   0.09
    20   1    -0.00  -0.02  -0.12     0.16   0.04  -0.07    -0.01   0.04   0.09
    21   1    -0.07   0.44   0.16    -0.18  -0.18  -0.09     0.08   0.21   0.10
    22   1    -0.01  -0.01  -0.05    -0.12   0.00  -0.21     0.14  -0.02   0.17
    23   1    -0.12   0.03  -0.27    -0.01  -0.00   0.01     0.05   0.03   0.04
    24   1     0.08   0.33  -0.20     0.02   0.02  -0.08    -0.02   0.01   0.07
    25   1     0.06   0.42  -0.25     0.02   0.20  -0.22     0.02   0.11  -0.04
                     49                     50                     51
                      A                      A                      A
 Frequencies --   1405.2585              1482.6028              1514.1887
 Red. masses --      1.4722                 1.0845                 1.0870
 Frc consts  --      1.7129                 1.4046                 1.4684
 IR Inten    --      0.8894                 8.1224                 3.2977
  Atom  AN      X      Y      Z        X      Y      Z        X      Y      Z
     1   8    -0.01   0.00   0.00     0.00  -0.00  -0.00     0.00   0.00  -0.00
     2   6     0.00   0.00  -0.01     0.00   0.01  -0.00    -0.00  -0.00   0.00
     3   6     0.00  -0.05   0.00     0.05   0.04  -0.04     0.01  -0.00  -0.00
     4   6     0.09   0.03   0.03    -0.00   0.01  -0.01    -0.00   0.00  -0.01
     5   6    -0.06  -0.01  -0.04    -0.00  -0.02   0.00    -0.04   0.05  -0.05
     6   6     0.01  -0.11   0.06     0.00   0.00   0.00    -0.00   0.00  -0.00
     7   6    -0.00   0.02  -0.00    -0.00   0.01   0.01    -0.00   0.02   0.02
     8   6     0.01   0.00   0.00    -0.00  -0.00   0.00    -0.00   0.00   0.00
     9   6    -0.04  -0.00  -0.02    -0.00  -0.00  -0.00     0.00  -0.00  -0.00
    10   6     0.02   0.02   0.00    -0.01  -0.00   0.00     0.00  -0.00   0.01
    11   6    -0.02  -0.06   0.03    -0.00  -0.01  -0.00    -0.00  -0.02  -0.02
    12   1    -0.17   0.15  -0.01    -0.19  -0.14   0.65    -0.02  -0.00   0.04
    13   1     0.00   0.07   0.00    -0.50  -0.44  -0.09    -0.05  -0.01  -0.01
    14   1    -0.39   0.02  -0.17     0.03   0.01   0.03    -0.01   0.01  -0.01
    15   1     0.06   0.17  -0.01     0.03   0.06  -0.09    -0.03  -0.22   0.58
    16   1     0.13   0.24   0.05    -0.06   0.09   0.01     0.50  -0.36   0.02
    17   1     0.03   0.52  -0.21     0.00   0.01   0.00    -0.01   0.01  -0.01
    18   1     0.10  -0.04   0.05    -0.01  -0.07  -0.02    -0.06  -0.21  -0.09
    19   1    -0.12   0.05  -0.01     0.05  -0.00  -0.06     0.10  -0.00  -0.21
    20   1    -0.01  -0.01  -0.02     0.01   0.00   0.00     0.01   0.01  -0.01
    21   1     0.11   0.16   0.04     0.01   0.01   0.00    -0.01   0.01   0.00
    22   1     0.01   0.01  -0.19     0.05  -0.02  -0.02     0.02  -0.01  -0.02
    23   1     0.04   0.01   0.04     0.03   0.04  -0.01    -0.00   0.02  -0.03
    24   1     0.04   0.35  -0.21    -0.04   0.06   0.04    -0.14   0.11   0.14
    25   1     0.05   0.11  -0.01     0.05   0.05   0.04     0.15   0.11   0.14
                     52                     53                     54
                      A                      A                      A
 Frequencies --   1520.0492              1530.1453              1545.8936
 Red. masses --      1.0950                 1.0909                 1.0938
 Frc consts  --      1.4907                 1.5048                 1.5400
 IR Inten    --      3.8396                 8.2852                 1.7171
[...]
 00004847,0.00015421,-0.00016187,0.00011973,-0.00055887,0.00031554,-0.0
 0002042,-0.00002735,-0.00026367,-0.00091525,-0.00106127,0.00106459,0.0
 0407605,-0.00172589,-0.00413188,0.11971187,-0.04605573,-0.16607803,-0.
 00911680,0.00319360,0.00889725,-0.00283082,-0.00008048,-0.00058554,-0.
 00061614,0.00415719,-0.00440897,0.01914382,-0.00825215,-0.01578936,-0.
 00020665,0.00040516,0.00055905,0.00007341,0.00001153,0.00002554,0.0000
 3912,0.00001234,0.00004078,0.00032722,-0.00014371,-0.00013749,-0.00021
 643,0.00001223,-0.00011929,-0.00024225,-0.00027028,0.00069273,-0.13111
 978,0.05068528,0.17818419,-0.00005760,-0.00028092,-0.00020324,0.001272
 49,-0.00000503,0.00112548,-0.00004198,0.00028852,-0.00008399,-0.000087
 22,-0.00033785,-0.00011687,0.00198547,0.00146890,0.00029567,-0.0076134
 5,0.02013268,-0.02108080,-0.08088948,0.05675208,-0.06394921,0.00631225
 ,-0.01137800,0.01225833,-0.00248859,-0.00013827,0.00212672,-0.00636681
 ,-0.00213290,-0.00180916,0.00027812,-0.00011365,0.00014735,-0.00000133
 ,0.00000672,0.00004269,0.00015255,0.00005036,0.00025723,0.00003716,-0.
 00002423,-0.00005743,0.00012276,0.00031279,0.00050269,-0.00003529,-0.0
 0093853,0.00039983,-0.00011119,0.00016331,0.00048835,0.08674157,-0.001
 20167,0.00004368,-0.00035540,0.00209982,0.00029181,-0.00031623,-0.0000
 0599,-0.00072363,0.00019169,0.00006818,0.00007317,-0.00012620,0.000008
 19,0.00092264,-0.00050220,-0.00279680,0.00501590,-0.00655342,0.0577032
 6,-0.15286714,0.11410773,-0.00248769,0.00169278,-0.00273112,0.00007313
 ,0.00020175,-0.00147179,-0.00082448,-0.00004471,-0.00094387,-0.0000313
 4,-0.00011084,0.00004933,0.00002461,0.00023389,-0.00007392,0.00021204,
 -0.00052531,-0.00080315,-0.00000321,0.00001361,0.00002370,0.00013256,0
 .00019609,0.00001753,0.00001434,0.00029382,0.00017454,0.00032395,-0.00
 002167,0.00025764,-0.06419423,0.16339892,0.00080534,-0.00052798,0.0001
 4190,-0.00113099,0.00236408,-0.00102026,-0.00016596,0.00005054,-0.0005
 3668,-0.00033151,-0.00001000,-0.00025421,0.00049646,0.00064354,0.00014
 809,-0.00166263,0.00392679,-0.00505216,-0.06350740,0.11247314,-0.17437
 479,-0.00772405,0.01233881,-0.01444176,0.00129637,0.00063943,-0.002688
 67,-0.00117156,-0.00087440,-0.00105902,-0.00020834,0.00055618,-0.00021
 265,0.00009610,-0.00008706,0.00037923,0.00002343,-0.00070510,0.0005610
 0,0.00008888,-0.00007870,0.00009372,0.00017297,-0.00007418,0.00023854,
 -0.00020710,-0.00063144,0.00016476,-0.00046546,-0.00011941,-0.00003248
 ,0.06899816,-0.12257412,0.19059874,-0.00144824,0.00072050,-0.00094100,
 0.00082103,-0.00263988,0.00365162,0.00011690,0.00047831,-0.00115840,-0
 .00052916,0.00020421,0.00032096,-0.00621561,0.00077098,-0.00277700,-0.
 00053160,-0.03147859,-0.01208031,-0.04585002,-0.00022705,-0.00466335,-
 0.00326563,0.01835358,0.01067589,-0.00080909,0.00020614,-0.00007041,0.
 00077179,-0.00096879,0.00082971,0.00013207,-0.00021019,0.00006361,0.00
 008613,-0.00016729,0.00012621,0.00010775,0.00019698,0.00028105,0.00023
 104,-0.00001790,-0.00004774,-0.00038119,-0.00218489,-0.00051895,0.0000
 6177,0.00017280,0.00019623,0.00140516,0.00001945,0.00081937,0.00052002
 ,0.01145312,0.00472152,0.05352857,-0.00011092,-0.00001944,-0.00013033,
 0.00024787,0.00046515,0.00048284,0.00000580,0.00004097,-0.00004912,0.0
 0003176,0.00024714,0.00037870,-0.00230783,0.00136465,-0.00033655,-0.00
 016672,-0.00777588,-0.00170253,-0.00135257,-0.27539748,-0.09138691,-0.
 00092627,0.00135696,0.00188082,0.00003273,0.00005666,-0.00002602,0.000
 79162,0.00005156,0.00046518,-0.00005351,-0.00007087,0.00002342,0.00000
 543,0.00004901,-0.00012860,-0.00000412,0.00027753,-0.00016765,0.000005
 53,-0.00002083,-0.00005397,-0.00010088,-0.00065751,-0.00037410,0.00015
 838,0.00025010,0.00000480,-0.00037076,0.00059648,0.00036207,-0.0002920
 8,-0.01931664,-0.00743518,0.00420456,0.29581994,0.00138110,-0.00092093
 ,0.00096988,-0.00013285,0.00326994,-0.00464170,-0.00042975,0.00013929,
 0.00051007,0.00012352,0.00017587,0.00011469,-0.00159078,0.00056357,-0.
 00003102,0.00051161,-0.00740756,-0.00348812,-0.00484506,-0.09144098,-0
 .08544223,0.00351738,-0.02456212,-0.01230132,0.00103131,0.00029562,-0.
 00046422,-0.00002190,-0.00116732,0.00012743,-0.00010361,0.00014424,0.0
 0027886,0.00004000,0.00004486,0.00013481,-0.00010845,-0.00034739,0.000
 17628,-0.00007658,-0.00001473,-0.00000313,0.00000910,-0.00049397,0.000
 25978,-0.00004906,-0.00029870,0.00011952,0.00003337,0.00053764,0.00060
 227,0.00063649,0.02193509,0.00985540,0.00097142,0.09835811,0.09198276,
 0.00202946,-0.00151960,0.00007189,0.01134813,0.01708352,-0.00123529,-0
 .00202754,0.00257394,0.00036916,-0.00024419,0.00033901,-0.00006698,0.0
 0034575,0.00026046,0.00002099,-0.00133424,0.00055345,0.00229001,-0.008
 80698,-0.01069846,0.00129795,-0.15372588,-0.13479817,0.00706534,-0.009
 28869,-0.01535230,0.00086104,-0.00009516,-0.00044123,-0.00018055,-0.00
 197045,0.00152338,-0.00146771,0.00042168,0.00079158,0.00001278,0.00010
 023,0.00020117,-0.00002448,0.00004977,-0.00007242,0.00000219,0.0000637
 1,-0.00001560,-0.00007280,-0.00002569,0.00001670,0.00004320,-0.0008135
 8,-0.00020386,-0.00020852,-0.00086283,-0.00012911,0.00058290,0.0009199
 4,0.00017220,-0.00012645,0.16329637,0.00035424,0.00602903,-0.00028072,
 -0.02264955,-0.02737887,0.00181994,0.00430129,-0.00323439,-0.00081621,
 0.00098674,0.00055682,0.00034759,0.00016860,-0.00000591,-0.00005847,0.
 00068612,0.00036651,-0.00056821,0.00386825,0.00303747,-0.00102470,-0.1
 2987821,-0.21496651,0.01128191,0.00265408,0.00279139,-0.00039952,0.000
 09759,-0.00007444,0.00004612,0.00024965,0.00046949,0.00013688,-0.00059
 540,-0.00145215,0.00012363,-0.00009100,-0.00043018,0.00011124,-0.00006
 244,0.00007573,-0.00000953,-0.00009622,0.00007554,0.00008386,0.0000255
 9,-0.00000440,-0.00001675,0.00021747,0.00003498,-0.00000494,-0.0001709
 1,0.00016031,0.00000605,0.00027458,0.00160681,0.00010452,0.13966810,0.
 23126424,-0.00025399,0.00020865,-0.00129675,-0.00010351,-0.00134635,0.
 00067055,-0.00015362,0.00012887,0.00182033,0.00005895,0.00044597,-0.00
 044425,0.00004146,-0.00024486,-0.00009588,0.00106276,-0.00011884,-0.00
 448547,0.01743637,0.01994881,-0.00187395,0.00670891,0.01119249,-0.0470
 6405,-0.01367394,-0.01976958,-0.00057036,-0.00031553,-0.00008139,-0.00
 084686,-0.00380764,0.00117213,-0.00224153,0.00010101,0.00022317,0.0000
 2175,-0.00004933,-0.00043861,-0.00000044,-0.00001112,-0.00001647,0.000
 12915,0.00005542,0.00012962,0.00013198,-0.00002396,-0.00005019,0.00010
 637,0.00109250,0.00012828,0.00052715,0.00112595,0.00038822,-0.00147945
 ,-0.00033838,0.00011059,0.00157880,-0.00899981,-0.01058222,0.05464672,
 -0.00122877,0.00050915,0.00057353,0.00121879,-0.00202805,-0.00199200,-
 0.00000381,-0.00022433,0.00040189,0.00036777,-0.00010933,-0.00096698,0
 .00009532,0.00046030,-0.00013831,-0.00549290,0.00257007,0.00174093,-0.
 00230772,0.00087577,-0.00218323,0.00405487,0.01447923,-0.01723671,-0.0
 7021858,-0.04692532,0.05564225,-0.00546320,-0.01788702,0.02009818,-0.0
 0077357,-0.00234835,0.00355107,0.00008659,0.00006969,0.00003580,0.0000
 2799,-0.00005906,0.00006103,0.00025163,-0.00002112,0.00010531,0.000029
 56,-0.00001329,0.00002735,0.00010950,-0.00014629,0.00003903,0.00046184
 ,-0.00093466,0.00150172,0.00071922,-0.00018089,-0.00069336,0.00013641,
 -0.00003288,-0.00017002,0.00127833,0.00000235,0.00060489,0.07482245,0.
 00059638,0.00015559,-0.00022564,-0.00047280,-0.00026733,0.00018972,-0.
 00055323,0.00063472,-0.00039893,-0.00186874,-0.00511180,-0.00439701,0.
 00046067,0.00006036,-0.00074803,0.00196498,-0.00022142,-0.00158526,0.0
 0031369,0.00030902,-0.00107834,-0.00028106,0.00014296,-0.00125446,-0.0
 4673640,-0.15169033,0.12201081,0.00279779,0.00788954,-0.00929907,-0.00
 746633,-0.01973408,0.02266656,0.00004347,0.00000719,0.00000509,0.00012
 210,0.00001734,0.00010291,-0.00011564,-0.00135998,0.00173990,-0.000053
 42,0.00000356,0.00004695,-0.00001874,0.00015320,0.00013411,-0.00003991
 ,0.00042389,-0.00074002,0.00001383,0.00001851,-0.00019829,0.00001586,0
 .00001791,-0.00001152,0.00033403,0.00113899,-0.00031030,0.05143026,0.1
 6453162,-0.00105856,0.00062630,0.00041591,0.00085965,-0.00233070,-0.00
 166539,-0.00012423,-0.00002180,0.00014090,-0.00065062,-0.00244276,-0.0
 0080428,-0.00001048,-0.00053488,0.00002219,0.00177132,-0.00124814,-0.0
 0170724,-0.00086936,0.00084653,-0.00207151,0.00481922,0.01270251,-0.01
 411557,0.05507296,0.12081703,-0.18865375,0.00215853,0.00726156,-0.0083
 3617,-0.00343244,-0.00933263,0.01128051,0.00000521,0.00005352,0.000030
 36,0.00007537,-0.00006716,0.00007369,-0.00002527,-0.00060625,0.0006254
 9,0.00001645,0.00004453,0.00002477,-0.00007898,0.00006854,0.00011774,0
 .00008756,0.00066305,-0.00071405,0.00040874,-0.00021141,-0.00078717,0.
 00007620,-0.00009064,-0.00029992,0.00006297,-0.00038726,0.00099361,-0.
 05931883,-0.12704289,0.20406313,0.00013158,-0.00011479,0.00000464,0.00
 001542,0.00013246,0.00018932,0.00010074,-0.00006877,-0.00000219,-0.000
 11403,-0.00010978,0.00046236,0.00036361,-0.00060103,0.00041355,-0.0011
 5656,-0.00101274,-0.00045344,0.00025614,0.00086114,-0.00054613,0.00080
 890,-0.00038138,0.00045126,0.00166618,0.02766606,0.00556064,-0.0524875
 5,-0.00870266,-0.00486554,-0.00521619,0.00043392,0.00157679,0.00003521
 ,-0.00004259,-0.00002819,-0.00004870,0.00001246,-0.00003789,0.00005529
 ,0.00008058,-0.00015116,0.00030778,0.00043362,0.00010744,0.00038425,-0
 .00034204,0.00007581,-0.00001927,-0.00027268,-0.00031475,-0.00002853,-
 0.00013491,0.00019293,0.00010443,0.00023063,-0.00057273,-0.00031510,0.
 00003106,-0.00010092,0.00161810,-0.00070368,-0.00044677,0.05284971,0.0
 0013641,0.00016174,-0.00004238,-0.00001600,-0.00037800,0.00009057,-0.0
 0011310,0.00014434,-0.00011651,-0.00028712,0.00060816,0.00003375,0.000
 65949,0.00012457,0.00443760,-0.00099800,-0.01739458,-0.00388402,-0.000
 66444,0.00022045,-0.00112548,0.00007093,0.00011230,-0.00007637,-0.0010
 3661,-0.00673441,-0.00164123,-0.00749987,-0.29381417,-0.05259623,0.002
 07575,0.00084952,-0.00086483,0.00007804,0.00003919,-0.00000362,-0.0000
 0694,0.00000781,0.00004133,0.00002130,-0.00001850,-0.00003890,-0.00000
 494,0.00029132,-0.00004649,0.00005528,-0.00127152,-0.00027976,-0.00041
 606,0.00084639,0.00009806,-0.00012803,0.00048267,0.00020882,0.00054948
 ,0.00066798,0.00063792,0.00033767,-0.00003726,0.00007701,0.00026136,0.
 00102101,-0.00021290,0.00773660,0.31974371,0.00004045,-0.00007660,-0.0
 0000548,0.00000995,0.00020224,-0.00011809,-0.00008864,0.00000166,0.000
 14519,0.00032694,0.00015703,-0.00063300,-0.00150295,0.00215229,-0.0055
 5199,0.00010681,0.02960217,0.00660881,0.00062748,0.00086901,0.00077350
 ,-0.00022140,0.00001972,-0.00006107,-0.00162847,-0.01708989,-0.0043024
 3,-0.00462273,-0.05362230,-0.05951908,0.00396038,-0.00110980,-0.001700
 11,-0.00007255,0.00004468,-0.00002114,0.00009188,-0.00002594,0.0000662
 8,-0.00012268,-0.00003844,0.00020798,0.00015653,-0.00017294,-0.0000428
 6,0.00016790,0.00198970,0.00041895,0.00051575,-0.00077524,0.00149530,0
 .00040062,-0.00020549,0.00004955,-0.00043317,-0.00021016,-0.00028499,0
 .00016089,0.00001714,0.00021185,-0.00093331,0.00018911,0.00032644,0.00
 252760,0.05647614,0.06516377,-0.00083185,0.00097448,0.00032682,-0.0001
 9172,-0.00218252,-0.00106130,-0.00007230,0.00008492,0.00021391,0.00010
 087,0.00038031,0.00002467,-0.00001874,-0.00027727,-0.00003189,0.001672
 35,0.00065622,0.00192155,-0.00051569,0.00015164,0.00108276,-0.00319444
 ,0.00261431,0.00105526,-0.01908813,-0.00397714,-0.01470943,-0.22172511
 ,-0.04026545,-0.11442220,0.00025900,-0.00180543,-0.00199703,0.00004827
 ,0.00009565,0.00002008,0.00008169,-0.00000925,0.00005544,0.00000935,0.
 00009857,-0.00003933,0.00032167,0.00050450,0.00004057,0.00018740,0.000
 14212,0.00013989,0.00010308,0.00033080,-0.00048608,0.00032666,-0.00007
 278,-0.00020763,-0.00003103,-0.00020228,0.00003831,-0.00030903,0.00000
 381,-0.00026261,-0.00026388,-0.00018252,0.00050198,-0.00006765,-0.0007
 9485,-0.00009311,0.24150397,0.00006213,-0.00024346,-0.00010966,0.00040
 338,0.00043991,0.00025814,-0.00005014,0.00000651,0.00001262,0.00000688
 ,-0.00016162,0.00005533,0.00099048,0.00104968,0.00002653,0.01404889,0.
 00305055,0.00682575,0.00120724,-0.00172207,0.00204207,0.00164060,-0.00
 031653,0.00089700,0.00584899,0.00027382,0.00420843,-0.04303146,-0.0615
 5194,-0.02795330,0.00158261,0.00003838,0.00027086,-0.00004157,0.000000
 25,-0.00001795,-0.00000787,0.00001397,-0.00003373,-0.00001733,-0.00000
 570,-0.00004857,-0.00032927,-0.00018287,0.00002508,-0.00015531,0.00026
 547,-0.00011399,-0.00033741,0.00022689,-0.00024243,0.00085409,0.000559
 32,0.00051058,0.00022460,0.00035013,0.00035591,0.00033177,-0.00008003,
 0.00013495,-0.00013425,0.00002906,-0.00007645,-0.02661695,-0.00529713,
 -0.01734923,0.04318343,0.06345404,0.00028864,-0.00020860,-0.00021971,0
 .00030102,0.00045321,0.00070052,0.00000833,-0.00004925,-0.00023536,0.0
 0009101,0.00018379,-0.00004789,-0.00042910,-0.00181066,0.00115955,-0.0
 2287955,-0.00739499,-0.01188899,-0.00050424,0.00421930,-0.00490985,0.0
 0280709,-0.00158599,-0.00122304,0.01358779,0.00268508,0.00914026,-0.11
 527836,-0.02634857,-0.12395732,0.00058311,0.00016936,0.00094270,0.0000
 0632,-0.00002130,0.00003101,0.00000457,-0.00004892,0.00002770,-0.00008
 490,0.00004284,0.00008676,0.00071321,0.00077965,0.00038656,0.00043294,
 -0.00028555,0.00005922,0.00046515,-0.00034567,0.00001799,-0.00202165,-
 0.00029597,-0.00031053,0.00038083,0.00008254,0.00017339,-0.00000337,0.
 00002207,0.00020472,-0.00034690,0.00030320,-0.00007472,-0.00494627,-0.
 00138521,-0.00335715,0.12660480,0.03064996,0.13318870,0.00019656,-0.00
 001114,-0.00026783,-0.00007516,0.00039760,0.00031766,0.00038945,0.0003
 1383,-0.00197668,-0.00225697,0.00068489,0.00082772,0.00109628,-0.00083
 674,-0.00019058,0.00010894,-0.00012670,-0.00033110,-0.00005432,0.00009
 489,0.00020715,0.00053719,0.00024661,0.00043355,0.00515968,-0.00214625
 ,-0.00500174,-0.00011816,-0.00035093,-0.00047182,-0.19309229,0.0529393
 3,0.11278694,0.00055348,-0.00022483,0.00015223,0.00010914,-0.00009640,
 -0.00008508,-0.00015386,-0.00025056,0.00010590,0.00027507,0.00000377,-
 0.00028828,0.00008965,0.00016559,0.00034308,0.00002297,0.00008764,0.00
 005073,0.00000292,-0.00001429,0.00001376,0.00003089,0.00001830,0.00004
 326,0.00005646,-0.00001749,0.00012914,0.00057753,0.00077596,0.00002955
 ,0.00043435,-0.00005077,0.00021497,0.00064427,-0.00010088,0.00008528,0
 .20636740,-0.00048503,0.00026175,0.00023588,0.00043389,-0.00003971,-0.
 00072689,-0.00067508,0.00094993,-0.00029337,-0.01670357,0.00682864,0.0
 1427086,0.00080851,-0.00302614,0.00331300,-0.00005036,-0.00059479,0.00
 042741,0.00020457,0.00040158,0.00003805,0.00005950,0.00044245,0.001139
 40,0.02516381,-0.00859270,-0.01797416,-0.00245759,-0.00626191,-0.00191
 947,0.05264807,-0.06871076,-0.04406375,0.00010294,-0.00017586,0.000007
 00,-0.00024116,0.00009417,-0.00023392,-0.00013987,0.00057243,-0.000808
 11,0.00014084,-0.00009189,-0.00022618,-0.00089849,0.00066431,0.0011674
 2,0.00002332,0.00025334,-0.00015439,-0.00012167,0.00000818,-0.00008614
 ,0.00001381,0.00004411,0.00013182,-0.00009518,-0.00005965,-0.00001318,
 0.00022078,0.00128274,0.00075879,0.00155658,-0.00059148,-0.00150339,-0
 .00034705,0.00003522,0.00030009,-0.05909768,0.07630879,-0.00063823,0.0
 0024020,0.00034212,-0.00001927,-0.00096978,-0.00129990,0.00124450,-0.0
 0073801,0.00063540,0.01866347,-0.00695187,-0.01775711,-0.00136506,0.00
 470973,-0.00284472,-0.00017352,0.00042503,0.00063433,0.00026257,0.0001
 6419,0.00003424,0.00019618,0.00019167,0.00036108,0.00801071,-0.0025271
 7,-0.00643124,-0.00161853,-0.00192614,0.00030497,0.11146522,-0.0441404
 9,-0.14140770,-0.00065950,0.00068139,-0.00015488,0.00009043,-0.0000063
 2,0.00052621,-0.00011223,0.00014451,0.00073699,0.00026586,0.00001582,-
 0.00000010,0.00124506,-0.00049792,-0.00112531,-0.00002682,-0.00006827,
 0.00002030,-0.00000988,0.00001016,-0.00004075,-0.00015426,-0.00003253,
 0.00008168,-0.00010849,0.00000856,-0.00001179,-0.00050050,0.00019438,0
 .00093067,0.00060029,0.00003775,-0.00017756,0.00029089,0.00011081,0.00
 012557,-0.12404617,0.04580690,0.15466595,-0.00004588,0.00007276,-0.000
 10749,0.00062622,-0.00009582,0.00067369,0.00086480,-0.00012495,-0.0000
 5873,0.00309257,0.00047174,0.00258567,0.00019076,-0.00003482,-0.000066
 45,0.00025235,0.00005668,-0.00000671,-0.00062275,-0.00025176,0.0002184
 4,0.00077964,-0.00081145,0.00052126,-0.00522785,0.00027069,-0.00320079
 ,0.00034280,0.00162287,0.00124343,-0.23394666,0.00021777,-0.11555969,0
 .00020430,-0.00017988,0.00011450,0.00012692,-0.00007225,-0.00008956,0.
 00048449,0.00064917,-0.00027008,0.00027666,-0.00011608,-0.00014041,0.0
 0012423,-0.00001255,-0.00013553,0.00002352,0.00001191,-0.00000902,0.00
 011311,-0.00003580,-0.00001280,0.00008769,0.00001601,-0.00010963,-0.00
 009047,-0.00002830,-0.00032301,-0.00010351,-0.00037655,0.00006984,0.00
 032189,0.00003442,0.00041088,0.00105100,0.00043734,0.00013426,-0.02090
 147,-0.00006387,-0.01290274,0.25197563,-0.00008087,0.00064441,0.000001
 64,0.00017387,-0.00218107,0.00022442,-0.00123782,-0.00190410,0.0047810
 5,0.02018710,-0.00070465,0.01067467,0.00032106,0.00035291,-0.00072304,
 0.00009681,-0.00003426,-0.00009508,-0.00050983,0.00004585,0.00010770,-
 0.00044483,-0.00517133,-0.00109468,-0.02525068,-0.00129023,-0.01902025
 ,-0.00199877,0.00116585,-0.00024613,0.00113314,-0.04675879,0.00073835,
 -0.00014964,0.00012352,-0.00014601,0.00155372,-0.00027346,0.00088729,0
 .00031018,0.00065565,-0.00077548,-0.00039114,0.00022730,0.00005916,-0.
 00007124,-0.00018121,-0.00016777,0.00004179,0.00009798,-0.00003181,0.0
 0021301,0.00000290,-0.00031596,0.00003562,-0.00000447,-0.00002920,-0.0
 0086104,0.00011650,-0.00131678,0.00016588,0.00054775,0.00076350,-0.000
 07109,0.00021589,0.00045849,0.00089579,-0.00023183,-0.00011041,0.00759
 626,-0.00000276,0.00511739,-0.00165729,0.05454165,-0.00068673,-0.00016
 059,0.00017819,0.00123517,0.00047059,-0.00030160,0.00149178,0.00233626
 ,-0.00344684,-0.02159650,-0.00037219,-0.01189516,-0.00080924,-0.000489
 39,0.00071799,0.00025735,0.00030067,-0.00033204,-0.00005215,0.00010271
 ,0.00035241,-0.00067601,-0.00240634,0.00061647,-0.00891176,-0.00133055
 ,-0.00730466,-0.00159896,0.00019141,0.00006917,-0.11354719,0.00074620,
 -0.12382350,-0.00019484,0.00025540,0.00000844,-0.00145101,0.00025896,-
 0.00035332,0.00035959,-0.00014701,0.00125137,0.00072190,0.00004300,-0.
 00028542,0.00024831,0.00015189,0.00026842,0.00003763,-0.00008238,-0.00
 002003,0.00011793,0.00000865,0.00005967,0.00006835,-0.00002480,-0.0000
 0896,-0.00034685,0.00003902,-0.00063218,0.00009717,-0.00029299,0.00018
 436,0.00030337,0.00017497,0.00030732,0.00099366,-0.00043874,-0.0000201
 0,0.01691835,0.00040632,0.01185153,0.12702066,0.00025893,0.13255848\\0
 .00004458,-0.00000791,0.00002211,0.00004278,0.00006039,0.00002882,-0.0
 0007514,-0.00000361,-0.00003093,0.00001814,-0.00007627,0.00004291,0.00
 001461,-0.00000189,0.00001666,-0.00001090,0.00005071,0.00000322,-0.000
 00148,-0.00002224,0.00007663,-0.00002251,-0.00004597,-0.00015493,0.000
 03960,-0.00000177,0.00010559,0.00000958,0.00001133,-0.00002141,-0.0000
 0086,-0.00002785,-0.00001260,0.00000781,0.00000148,-0.00001169,0.00000
 590,0.00000772,-0.00000797,-0.00000393,0.00000083,-0.00000273,-0.00000
 596,0.00000911,-0.00000183,-0.00000956,0.00000118,-0.00001019,-0.00001
 089,0.00000866,-0.00000443,-0.00000352,0.00000048,-0.00001518,0.000005
 16,0.00000270,-0.00001635,-0.00001847,0.00001925,-0.00000108,-0.000007
 88,0.00000627,-0.00001321,-0.00000764,0.00000638,-0.00000730,-0.000004
 54,0.00000590,0.00000641,-0.00000529,0.00000108,-0.00000125,0.00000039
 ,-0.00000597,0.00001072\\\@


 READER, WHETHER YOU BE DILETTANTE OR PROFESSOR ... SHOW YOURSELF TO BE
 MORE HUMAN THAN CRITICAL, AND THEN YOUR PLEASURE WILL INCREASE.
                                           -- DOMENICO SCARLATTI (1738)
 Job cpu time:       0 days  0 hours  2 minutes 33.6 seconds.
 Elapsed time:       0 days  0 hours 33 minutes 57.5 seconds.
 File lengths (MBytes):  RWF=    115 Int=      0 D2E=      0 Chk=      5 Scr=      1
 Normal termination of Gaussian 16 at Thu Feb 22 02:09:02 2024.
