 Entering Gaussian System, Link 0=g16
 Input=/Volumes/SSD-PMU3/b3lyp_6-31gd_freq/YNEYSORFAULDSN-MYJAWHEDSA-N_calculating/gaussianinput0.gjf
 Output=/Volumes/SSD-PMU3/b3lyp_6-31gd_freq/YNEYSORFAULDSN-MYJAWHEDSA-N_calculating/gaussianinput0.log
 Initial command:
 /Applications/g16/l1.exe "/Users/macmini_m1_2022/PycharmProjects/sphere_model/sphere_model_lib/Gau-88354.inp" -scrdir="/Users/macmini_m1_2022/PycharmProjects/sphere_model/sphere_model_lib/"
 Entering Link 1 = /Applications/g16/l1.exe PID=     88355.
  
 Copyright (c) 1988,1990,1992,1993,1995,1998,2003,2009,2016,
            Gaussian, Inc.  All Rights Reserved.
  
 This is part of the Gaussian(R) 16 program.  It is based on
 the Gaussian(R) 09 system (copyright 2009, Gaussian, Inc.),
 the Gaussian(R) 03 system (copyright 2003, Gaussian, Inc.),
 the Gaussian(R) 98 system (copyright 1998, Gaussian, Inc.),
 the Gaussian(R) 94 system (copyright 1995, Gaussian, Inc.),
 the Gaussian 92(TM) system (copyright 1992, Gaussian, Inc.),
 the Gaussian 90(TM) system (copyright 1990, Gaussian, Inc.),
 the Gaussian 88(TM) system (copyright 1988, Gaussian, Inc.),
 the Gaussian 86(TM) system (copyright 1986, Carnegie Mellon
 University), and the Gaussian 82(TM) system (copyright 1983,
 Carnegie Mellon University). Gaussian is a federally registered
 trademark of Gaussian, Inc.
  
 This software contains proprietary and confidential information,
 including trade secrets, belonging to Gaussian, Inc.
  
 This software is provided under written license and may be
 used, copied, transmitted, or stored only in accord with that
 written license.
  
 The following legend is applicable only to US Government
 contracts under FAR:
  
                    RESTRICTED RIGHTS LEGEND
  
 Use, reproduction and disclosure by the US Government is
 subject to restrictions as set forth in subparagraphs (a)
 and (c) of the Commercial Computer Software - Restricted
 Rights clause in FAR 52.227-19.
  
 Gaussian, Inc.
 340 Quinnipiac St., Bldg. 40, Wallingford CT 06492
  
  
 ---------------------------------------------------------------
 Warning -- This program may not be used in any manner that
 competes with the business of Gaussian, Inc. or will provide
 assistance to any competitor of Gaussian, Inc.  The licensee
 of this program is prohibited from giving any competitor of
 Gaussian, Inc. access to this program.  By using this program,
 the user acknowledges that Gaussian, Inc. is engaged in the
 business of creating and licensing software in the field of
 computational chemistry and represents and warrants to the
 licensee that it is not a competitor of Gaussian, Inc. and that
 it will not use this program in any manner prohibited above.
 ---------------------------------------------------------------
  

 Cite this work as:
 Gaussian 16, Revision A.03,
 M. J. Frisch, G. W. Trucks, H. B. Schlegel, G. E. Scuseria, 
 M. A. Robb, J. R. Cheeseman, G. Scalmani, V. Barone, 
 G. A. Petersson, H. Nakatsuji, X. Li, M. Caricato, A. V. Marenich, 
 J. Bloino, B. G. Janesko, R. Gomperts, B. Mennucci, H. P. Hratchian, 
 J. V. Ortiz, A. F. Izmaylov, J. L. Sonnenberg, D. Williams-Young, 
 F. Ding, F. Lipparini, F. Egidi, J. Goings, B. Peng, A. Petrone, 
 T. Henderson, D. Ranasinghe, V. G. Zakrzewski, J. Gao, N. Rega, 
 G. Zheng, W. Liang, M. Hada, M. Ehara, K. Toyota, R. Fukuda, 
 J. Hasegawa, M. Ishida, T. Nakajima, Y. Honda, O. Kitao, H. Nakai, 
 T. Vreven, K. Throssell, J. A. Montgomery, Jr., J. E. Peralta, 
 F. Ogliaro, M. J. Bearpark, J. J. Heyd, E. N. Brothers, K. N. Kudin, 
 V. N. Staroverov, T. A. Keith, R. Kobayashi, J. Normand, 
 K. Raghavachari, A. P. Rendell, J. C. Burant, S. S. Iyengar, 
 J. Tomasi, M. Cossi, J. M. Millam, M. Klene, C. Adamo, R. Cammi, 
 J. W. Ochterski, R. L. Martin, K. Morokuma, O. Farkas, 
 J. B. Foresman, and D. J. Fox, Gaussian, Inc., Wallingford CT, 2016.
 
 ******************************************
 Gaussian 16:  EM64M-G16RevA.03 25-Dec-2016
                24-Feb-2024 
 ******************************************
 %nprocshared=10
 Will use up to   10 processors via shared memory.
 %mem=12GB
 %chk= 0.chk
 ---------------------
 # freq b3lyp/6-31g(d)
 ---------------------
 1/10=4,30=1,38=1/1,3;
 2/12=2,17=6,18=5,40=1/2;
 3/5=1,6=6,7=1,11=2,25=1,30=1,71=2,74=-5,140=1/1,2,3;
 4//1;
 5/5=2,38=5,98=1/2;
 8/6=4,10=90,11=11/1;
 11/6=1,8=1,9=11,15=111,16=1/1,2,10;
 10/6=1/2;
 6/7=2,8=2,9=2,10=2,28=1/1;
 7/8=1,10=1,25=1/1,2,3,16;
 1/10=4,30=1/3;
 99//99;
 ---------
 good luck
 ---------
 Symbolic Z-matrix:
 Charge =  0 Multiplicity = 1
 O                     1.21787   0.        0. 
 C                     0.        0.        0. 
 C                    -0.82022  -1.28953  -0.01486 
 C                     0.06427  -2.53693  -0.02601 
 C                    -1.81427  -1.25512  -1.20248 
 C                    -2.71223   0.       -1.20179 
 C                    -3.81638  0.        -2.31873 
 C                    -4.71766  -1.24471  -2.16146 
 C                    -3.21657   0.00001  -3.74011 
 C                    -4.71768   1.24468  -2.16144 
 C                    -1.81427   1.25512  -1.20248 
 C                    -0.82022   1.28953  -0.01486 
 C                     0.06427   2.53693  -0.02601 
 H                    -1.42143  -1.28172   0.90951 
 H                    -0.54944  -3.44407   0.01036 
 H                     0.67813  -2.5718   -0.93223 
 H                     0.74701  -2.54379   0.82848 
 H                    -2.41669  -2.16877  -1.16417 
 H                    -1.23716  -1.30088  -2.13685 
 H                    -3.26272  0.        -0.24582 
 H                    -5.56488  -1.19003  -2.85532 
 H                    -4.18401  -2.17615  -2.37622 
 H                    -5.12582  -1.31561  -1.14514 
 H                    -2.5993   -0.88609  -3.92527 
 H                    -2.59932   0.88613  -3.92526 
 H                    -4.01895   0.00001  -4.48775 
 H                    -4.18406   2.17614  -2.37621 
 H                    -5.12584   1.31557  -1.14512 
 H                    -5.56491   1.18999  -2.8553 
 H                    -2.41669   2.16877  -1.16417 
 H                    -1.23716   1.30089  -2.13685 
 H                    -1.42143   1.28172   0.90951 
 H                     0.67813   2.5718   -0.93223 
 H                    -0.54944   3.44407   0.01036 
 H                     0.74701   2.54379   0.82848 
 

 GradGradGradGradGradGradGradGradGradGradGradGradGradGradGradGradGradGrad
 Berny optimization.
 Initialization pass.
 Trust Radius=3.00D-01 FncErr=1.00D-07 GrdErr=1.00D-07 EigMax=2.50D+02 EigMin=1.00D-04
 Number of steps in this run=      2 maximum allowed number of steps=      2.
 GradGradGradGradGradGradGradGradGradGradGradGradGradGradGradGradGradGrad

                          Input orientation:                          
 ---------------------------------------------------------------------
 Center     Atomic      Atomic             Coordinates (Angstroms)
 Number     Number       Type             X           Y           Z
 ---------------------------------------------------------------------
      1          8           0        1.217874    0.000000    0.000000
      2          6           0        0.000000    0.000000    0.000000
      3          6           0       -0.820224   -1.289530   -0.014859
      4          6           0        0.064269   -2.536926   -0.026012
      5          6           0       -1.814269   -1.255122   -1.202479
      6          6           0       -2.712233    0.000000   -1.201790
      7          6           0       -3.816380   -0.000003   -2.318729
      8          6           0       -4.717658   -1.244711   -2.161455
      9          6           0       -3.216570    0.000010   -3.740105
     10          6           0       -4.717684    1.244684   -2.161441
     11          6           0       -1.814271    1.255123   -1.202478
     12          6           0       -0.820224    1.289530   -0.014859
     13          6           0        0.064270    2.536926   -0.026013
     14          1           0       -1.421432   -1.281721    0.909509
     15          1           0       -0.549441   -3.444071    0.010362
     16          1           0        0.678127   -2.571798   -0.932233
     17          1           0        0.747010   -2.543787    0.828480
     18          1           0       -2.416687   -2.168773   -1.164174
     19          1           0       -1.237155   -1.300883   -2.136851
     20          1           0       -3.262715   -0.000001   -0.245816
     21          1           0       -5.564877   -1.190034   -2.855320
     22          1           0       -4.184013   -2.176150   -2.376224
     23          1           0       -5.125817   -1.315607   -1.145139
     24          1           0       -2.599301   -0.886093   -3.925270
     25          1           0       -2.599315    0.886126   -3.925259
     26          1           0       -4.018954    0.000008   -4.487750
     27          1           0       -4.184062    2.176136   -2.376210
     28          1           0       -5.125837    1.315565   -1.145122
     29          1           0       -5.564907    1.189991   -2.855301
     30          1           0       -2.416689    2.168773   -1.164170
     31          1           0       -1.237158    1.300886   -2.136851
     32          1           0       -1.421431    1.281722    0.909510
     33          1           0        0.678127    2.571797   -0.932234
     34          1           0       -0.549440    3.444071    0.010362
     35          1           0        0.747011    2.543787    0.828479
 ---------------------------------------------------------------------
                    Distance matrix (angstroms):
                    1          2          3          4          5
     1  O    0.000000
     2  C    1.217874   0.000000
     3  C    2.411836   1.528357   0.000000
     4  C    2.787019   2.537873   1.529199   0.000000
     5  C    3.495022   2.512540   1.549113   2.560469   0.000000
     6  C    4.109749   2.966565   2.579029   3.940484   1.543266
     7  C    5.542582   4.465564   3.993451   5.172230   2.613386
     8  C    6.438302   5.336430   4.449705   5.394141   3.057681
     9  C    5.801093   4.933022   4.613333   5.567265   3.159327
    10  C    6.438316   5.336441   5.120571   6.459699   3.949488
    11  C    3.495024   2.512542   2.978897   4.392337   2.510245
    12  C    2.411836   1.528357   2.579060   3.927368   2.978896
    13  C    2.787019   2.537873   3.927368   5.073852   4.392335
    14  H    3.071799   2.119076   1.102709   2.158251   2.148377
    15  H    3.871064   3.487638   2.171637   1.095844   2.803974
    16  H    2.788284   2.818343   2.175050   1.095114   2.831732
    17  H    2.716421   2.777635   2.177293   1.093773   3.513631
    18  H    4.389637   3.449529   2.154690   2.754286   1.095049
    19  H    3.505081   2.790875   2.162593   2.770767   1.099184
    20  H    4.487327   3.271962   2.771640   4.189645   2.142085
    21  H    7.454847   6.366859   5.530809   6.442545   4.099168
    22  H    6.289869   5.280912   4.204428   4.868424   2.800296
    23  H    6.579102   5.414440   4.451555   5.448032   3.312597
    24  H    5.546506   4.790540   4.314996   5.002406   2.857630
    25  H    5.546513   4.790544   4.815586   5.832332   3.551728
    26  H    6.896685   6.024275   5.648144   6.558647   4.150782
    27  H    6.289901   5.280939   5.376079   6.766439   4.332101
    28  H    6.579110   5.414446   5.157743   6.559824   4.192637
    29  H    7.454860   6.366868   6.060376   7.320001   4.772597
    30  H    4.389637   3.449530   3.978627   5.440051   3.476699
    31  H    3.505085   2.790877   3.374454   4.569262   2.781957
    32  H    3.071799   2.119077   2.797721   4.202925   3.324214
    33  H    2.788284   2.818343   4.242226   5.224664   4.574973
    34  H    3.871063   3.487638   4.741407   6.012511   5.015296
    35  H    2.716421   2.777635   4.226318   5.197108   5.011652
                    6          7          8          9         10
     6  C    0.000000
     7  C    1.570571   0.000000
     8  C    2.547939   1.544777   0.000000
     9  C    2.587933   1.542751   2.508930   0.000000
    10  C    2.547941   1.544776   2.489395   2.508931   0.000000
    11  C    1.543266   2.613388   3.949489   3.159320   3.057699
    12  C    2.579029   3.993453   5.120571   4.613328   4.449721
    13  C    3.940484   5.172234   6.459700   5.567255   5.394166
    14  H    2.786855   4.219016   4.505252   5.146287   5.165146
    15  H    4.243655   5.287642   5.189220   5.748154   6.638931
    16  H    4.263959   5.360699   5.690926   5.446743   6.722445
    17  H    4.749654   6.099204   6.363168   6.561466   7.290749
    18  H    2.189141   2.827667   2.672626   3.461048   4.235660
    19  H    2.177726   2.894438   3.481043   2.860215   4.312145
    20  H    1.103139   2.145580   2.708475   3.494594   2.708467
    21  H    3.505413   2.182051   1.096457   2.777336   2.669655
    22  H    2.877683   2.207731   1.094752   2.744411   3.468867
    23  H    2.749440   2.196077   1.097505   3.479931   2.784696
    24  H    2.866227   2.201684   2.779764   1.095667   3.484085
    25  H    2.866226   2.201684   3.484085   1.095668   2.779767
    26  H    3.536248   2.178460   2.729315   1.096719   2.729314
    27  H    2.877692   2.207731   3.468867   2.744408   1.094752
    28  H    2.749438   2.196076   2.784700   3.479931   1.097505
    29  H    3.505414   2.182050   2.669649   2.777340   1.096458
    30  H    2.189141   2.827672   4.235671   3.461038   2.672652
    31  H    2.177726   2.894439   4.312140   2.860205   3.481067
    32  H    2.786856   4.219020   5.165153   5.146283   4.505263
    33  H    4.263958   5.360701   6.722441   5.446732   5.690954
    34  H    4.243655   5.287647   6.638939   5.748142   5.189247
    35  H    4.749654   6.099207   7.290750   6.561458   6.363190
                   11         12         13         14         15
    11  C    0.000000
    12  C    1.549113   0.000000
    13  C    2.560470   1.529199   0.000000
    14  H    3.324213   2.797720   4.202925   0.000000
    15  H    5.015297   4.741407   6.012511   2.498918   0.000000
    16  H    4.574976   4.242226   5.224664   3.076436   1.776589
    17  H    5.011653   4.226318   5.197109   2.510282   1.777811
    18  H    3.476699   3.978628   5.440052   2.465270   2.548044
    19  H    2.781957   3.374451   4.569258   3.051989   3.110744
    20  H    2.142085   2.771641   4.189647   2.523471   4.391936
    21  H    4.772601   6.060379   7.320007   5.599150   6.200598
    22  H    4.332089   5.376064   6.766423   4.384963   4.529186
    23  H    4.192646   5.157752   6.559837   4.236177   5.177718
    24  H    3.551714   4.815575   5.832313   4.991892   5.121950
    25  H    2.857620   4.314989   5.002394   5.427886   6.200137
    26  H    4.150777   5.648141   6.558641   6.125386   6.643208
    27  H    2.800325   4.204457   4.868462   5.512245   7.105837
    28  H    3.312614   4.451570   5.448058   4.968905   6.703184
    29  H    4.099187   5.530826   6.442572   6.119766   7.405502
    30  H    1.095049   2.154689   2.754287   4.146877   6.030768
    31  H    1.099185   2.162594   2.770766   3.998015   5.253389
    32  H    2.148377   1.102710   2.158251   2.563443   4.888962
    33  H    2.831733   2.175050   1.095113   4.759177   6.211769
    34  H    2.803974   2.171637   1.095844   4.888962   6.888142
    35  H    3.513632   2.177293   1.093773   4.398093   6.180983
                   16         17         18         19         20
    16  H    0.000000
    17  H    1.762283   0.000000
    18  H    3.129553   3.757697   0.000000
    19  H    2.595117   3.778215   1.758019   0.000000
    20  H    4.755580   4.868558   2.502542   3.061242   0.000000
    21  H    6.677023   7.432560   3.705267   4.388355   3.677722
    22  H    5.087441   5.892391   2.143026   3.083401   3.181675
    23  H    5.942147   6.316146   2.840359   4.013154   2.451683
    24  H    4.747779   6.045154   3.049962   2.286030   3.842351
    25  H    5.626462   6.749832   4.121814   3.136382   3.842346
    26  H    6.427943   7.579420   4.279840   3.867486   4.308817
    27  H    6.947577   7.540768   4.844675   4.564123   3.181671
    28  H    6.988770   7.299317   4.413668   4.790738   2.451671
    29  H    7.538217   8.206804   4.904334   5.044805   3.677714
    30  H    5.666100   6.015635   4.337546   3.791559   2.502542
    31  H    4.485209   5.245152   3.791559   2.601769   3.061242
    32  H    4.759178   4.398093   4.146880   3.998015   2.523474
    33  H    5.143595   5.410551   5.666099   4.485204   4.755581
    34  H    6.211770   6.180982   6.030768   5.253386   4.391938
    35  H    5.410551   5.087574   6.015636   5.245149   4.868559
                   21         22         23         24         25
    21  H    0.000000
    22  H    1.763163   0.000000
    23  H    1.770102   1.772879   0.000000
    24  H    3.167304   2.564196   3.781123   0.000000
    25  H    3.774886   3.779988   4.354298   1.772219   0.000000
    26  H    2.543797   3.036684   3.758861   1.765495   1.765496
    27  H    3.669782   4.352286   3.820302   3.779987   2.564196
    28  H    3.065218   3.820303   2.631172   4.354297   3.781123
    29  H    2.380025   3.669780   3.065204   3.774888   3.167314
    30  H    4.904351   4.844674   4.413688   4.121799   3.049942
    31  H    5.044802   4.564103   4.790741   3.136360   2.286023
    32  H    6.119777   5.512240   4.968921   5.427881   4.991883
    33  H    7.538218   6.947554   6.988777   5.626438   4.747769
    34  H    7.405516   7.105828   6.703204   6.200117   5.121932
    35  H    8.206810   7.540751   7.299329   6.749816   6.045144
                   26         27         28         29         30
    26  H    0.000000
    27  H    3.036675   0.000000
    28  H    3.758862   1.772879   0.000000
    29  H    2.543800   1.763163   1.770103   0.000000
    30  H    4.279834   2.143059   2.840389   3.705296   0.000000
    31  H    3.867480   3.083439   4.013174   4.388380   1.758019
    32  H    6.125384   4.384981   4.236187   5.599162   2.465268
    33  H    6.427936   5.087484   5.942175   6.677054   3.129554
    34  H    6.643200   4.529223   5.177750   6.200630   2.548044
    35  H    7.579415   5.892426   6.316168   7.432584   3.757697
                   31         32         33         34         35
    31  H    0.000000
    32  H    3.051989   0.000000
    33  H    2.595117   3.076436   0.000000
    34  H    3.110743   2.498917   1.776589   0.000000
    35  H    3.778215   2.510282   1.762283   1.777811   0.000000
 Stoichiometry    C12H22O
 Framework group  C1[X(C12H22O)]
 Deg. of freedom    99
 Full point group                 C1      NOp   1
 Largest Abelian subgroup         C1      NOp   1
 Largest concise Abelian subgroup C1      NOp   1
                         Standard orientation:                         
 ---------------------------------------------------------------------
 Center     Atomic      Atomic             Coordinates (Angstroms)
 Number     Number       Type             X           Y           Z
 ---------------------------------------------------------------------
      1          8           0        3.202039    0.000003    0.557412
      2          6           0        2.148630    0.000001   -0.053772
      3          6           0        1.431712    1.289530   -0.452545
      4          6           0        2.191162    2.536927    0.000980
      5          6           0       -0.024096    1.255120    0.075839
      6          6           0       -0.800449   -0.000003   -0.375395
      7          6           0       -2.316020   -0.000002    0.036599
      8          6           0       -3.016661    1.244705   -0.551738
      9          6           0       -2.510520   -0.000015    1.567041
     10          6           0       -3.016673   -1.244690   -0.551763
     11          6           0       -0.024094   -1.255125    0.075838
     12          6           0        1.431716   -1.289530   -0.452545
     13          6           0        2.191169   -2.536925    0.000981
     14          1           0        1.375582    1.281721   -1.553797
     15          1           0        1.678582    3.444072   -0.338469
     16          1           0        2.267341    2.571799    1.092884
     17          1           0        3.210527    2.543790   -0.395489
     18          1           0       -0.525940    2.168771   -0.259613
     19          1           0        0.006173    1.300881    1.173653
     20          1           0       -0.796842   -0.000002   -1.478529
     21          1           0       -4.097682    1.190027   -0.376747
     22          1           0       -2.662863    2.176145   -0.098165
     23          1           0       -2.859669    1.315601   -1.635641
     24          1           0       -2.069533    0.886088    2.036974
     25          1           0       -2.069538   -0.886131    2.036957
     26          1           0       -3.579750   -0.000015    1.811050
     27          1           0       -2.662893   -2.176141   -0.098202
     28          1           0       -2.859674   -1.315571   -1.635666
     29          1           0       -4.097696   -1.189998   -0.376778
     30          1           0       -0.525934   -2.168775   -0.259618
     31          1           0        0.006174   -1.300888    1.173652
     32          1           0        1.375587   -1.281722   -1.553798
     33          1           0        2.267347   -2.571796    1.092885
     34          1           0        1.678592   -3.444070   -0.338469
     35          1           0        3.210534   -2.543784   -0.395488
 ---------------------------------------------------------------------
 Rotational constants (GHZ):           1.1694604           0.5286244           0.4107028
 Standard basis: 6-31G(d) (6D, 7F)
 There are   239 symmetry adapted cartesian basis functions of A   symmetry.
 There are   239 symmetry adapted basis functions of A   symmetry.
   239 basis functions,   452 primitive gaussians,   239 cartesian basis functions
    51 alpha electrons       51 beta electrons
       nuclear repulsion energy       875.1914697758 Hartrees.
 NAtoms=   35 NActive=   35 NUniq=   35 SFac= 1.00D+00 NAtFMM=   60 NAOKFM=F Big=F
 Integral buffers will be    131072 words long.
 Raffenetti 2 integral format.
 Two-electron integral symmetry is turned on.
 One-electron integrals computed using PRISM.
 NBasis=   239 RedAO= T EigKep=  2.55D-03  NBF=   239
 NBsUse=   239 1.00D-06 EigRej= -1.00D+00 NBFU=   239
 ExpMin= 1.61D-01 ExpMax= 5.48D+03 ExpMxC= 8.25D+02 IAcc=3 IRadAn=         5 AccDes= 0.00D+00
 Harris functional with IExCor=  402 and IRadAn=       5 diagonalized for initial guess.
 HarFok:  IExCor=  402 AccDes= 0.00D+00 IRadAn=         5 IDoV= 1 UseB2=F ITyADJ=14
 ICtDFT=  3500011 ScaDFX=  1.000000  1.000000  1.000000  1.000000
 FoFCou: FMM=F IPFlag=           0 FMFlag=      100000 FMFlg1=           0
         NFxFlg=           0 DoJE=T BraDBF=F KetDBF=T FulRan=T
         wScrn=  0.000000 ICntrl=       500 IOpCl=  0 I1Cent=   200000004 NGrid=           0
         NMat0=    1 NMatS0=      1 NMatT0=    0 NMatD0=    1 NMtDS0=    0 NMtDT0=    0
 Petite list used in FoFCou.
 Requested convergence on RMS density matrix=1.00D-08 within 128 cycles.
 Requested convergence on MAX density matrix=1.00D-06.
 Requested convergence on             energy=1.00D-06.
 No special actions if energy rises.
 Integral accuracy reduced to 1.0D-05 until final iterations.
 Initial convergence to 1.0D-05 achieved.  Increase integral accuracy.
 SCF Done:  E(RB3LYP) =  -545.771234629     A.U. after   13 cycles
            NFock= 13  Conv=0.89D-08     -V/T= 2.0099
 DoSCS=F DFT=T ScalE2(SS,OS)=  1.000000  1.000000
 Range of M.O.s used for correlation:     1   239
 NBasis=   239 NAE=    51 NBE=    51 NFC=     0 NFV=     0
 NROrb=    239 NOA=    51 NOB=    51 NVA=   188 NVB=   188
 Symmetrizing basis deriv contribution to polar:
 IMax=3 JMax=2 DiffMx= 0.00D+00
 G2DrvN: will do    36 centers at a time, making    1 passes.
 Calling FoFCou, ICntrl=  3107 FMM=F I1Cent=   0 AccDes= 0.00D+00.
 End of G2Drv F.D. properties file   721 does not exist.
 End of G2Drv F.D. properties file   722 does not exist.
 End of G2Drv F.D. properties file   788 does not exist.
          IDoAtm=11111111111111111111111111111111111
          Differentiating once with respect to electric field.
                with respect to dipole field.
          Differentiating once with respect to nuclear coordinates.
 Keep R1 ints in memory in canonical form, NReq=421970798.
          There are   108 degrees of freedom in the 1st order CPHF.  IDoFFX=6 NUNeed=     3.
    105 vectors produced by pass  0 Test12= 9.59D-15 1.00D-09 XBig12= 8.96D+01 2.28D+00.
 AX will form   105 AO Fock derivatives at one time.
    105 vectors produced by pass  1 Test12= 9.59D-15 1.00D-09 XBig12= 1.33D+01 1.09D+00.
    105 vectors produced by pass  2 Test12= 9.59D-15 1.00D-09 XBig12= 7.07D-02 3.34D-02.
    105 vectors produced by pass  3 Test12= 9.59D-15 1.00D-09 XBig12= 1.66D-04 2.38D-03.
    105 vectors produced by pass  4 Test12= 9.59D-15 1.00D-09 XBig12= 1.40D-07 3.52D-05.
     44 vectors produced by pass  5 Test12= 9.59D-15 1.00D-09 XBig12= 1.14D-10 1.42D-06.
      3 vectors produced by pass  6 Test12= 9.59D-15 1.00D-09 XBig12= 1.03D-13 5.51D-08.
      1 vectors produced by pass  7 Test12= 9.59D-15 1.00D-09 XBig12= 8.93D-17 1.44D-09.
 InvSVY:  IOpt=1 It=  1 EMax= 7.11D-15
 Solved reduced A of dimension   573 with   108 vectors.
 Isotropic polarizability for W=    0.000000      124.83 Bohr**3.
 End of Minotr F.D. properties file   721 does not exist.
 End of Minotr F.D. properties file   722 does not exist.
 End of Minotr F.D. properties file   788 does not exist.

 **********************************************************************

            Population analysis using the SCF density.

 **********************************************************************

 Orbital symmetries:
       Occupied  (A) (A) (A) (A) (A) (A) (A) (A) (A) (A) (A) (A)
                 (A) (A) (A) (A) (A) (A) (A) (A) (A) (A) (A) (A)
                 (A) (A) (A) (A) (A) (A) (A) (A) (A) (A) (A) (A)
                 (A) (A) (A) (A) (A) (A) (A) (A) (A) (A) (A) (A)
                 (A) (A) (A)
       Virtual   (A) (A) (A) (A) (A) (A) (A) (A) (A) (A) (A) (A)
                 (A) (A) (A) (A) (A) (A) (A) (A) (A) (A) (A) (A)
                 (A) (A) (A) (A) (A) (A) (A) (A) (A) (A) (A) (A)
                 (A) (A) (A) (A) (A) (A) (A) (A) (A) (A) (A) (A)
                 (A) (A) (A) (A) (A) (A) (A) (A) (A) (A) (A) (A)
                 (A) (A) (A) (A) (A) (A) (A) (A) (A) (A) (A) (A)
                 (A) (A) (A) (A) (A) (A) (A) (A) (A) (A) (A) (A)
                 (A) (A) (A) (A) (A) (A) (A) (A) (A) (A) (A) (A)
                 (A) (A) (A) (A) (A) (A) (A) (A) (A) (A) (A) (A)
                 (A) (A) (A) (A) (A) (A) (A) (A) (A) (A) (A) (A)
                 (A) (A) (A) (A) (A) (A) (A) (A) (A) (A) (A) (A)
                 (A) (A) (A) (A) (A) (A) (A) (A) (A) (A) (A) (A)
                 (A) (A) (A) (A) (A) (A) (A) (A) (A) (A) (A) (A)
                 (A) (A) (A) (A) (A) (A) (A) (A) (A) (A) (A) (A)
                 (A) (A) (A) (A) (A) (A) (A) (A) (A) (A) (A) (A)
                 (A) (A) (A) (A) (A) (A) (A) (A)
 The electronic state is 1-A.
 Alpha  occ. eigenvalues --  -19.13267 -10.26245 -10.20173 -10.19442 -10.19441
 Alpha  occ. eigenvalues --  -10.19297 -10.18744 -10.18742 -10.17477 -10.17476
 Alpha  occ. eigenvalues --  -10.17448 -10.17125 -10.17125  -1.03110  -0.84615
 Alpha  occ. eigenvalues --   -0.80546  -0.78179  -0.73060  -0.69058  -0.68587
 Alpha  occ. eigenvalues --   -0.66979  -0.66329  -0.60198  -0.58437  -0.53084
 Alpha  occ. eigenvalues --   -0.52105  -0.47698  -0.47092  -0.45496  -0.44762
 Alpha  occ. eigenvalues --   -0.44113  -0.42616  -0.42316  -0.40996  -0.39877
 Alpha  occ. eigenvalues --   -0.39372  -0.38042  -0.37944  -0.37520  -0.36863
 Alpha  occ. eigenvalues --   -0.36082  -0.35887  -0.35565  -0.34374  -0.33997
 Alpha  occ. eigenvalues --   -0.33398  -0.33099  -0.31548  -0.30473  -0.29693
 Alpha  occ. eigenvalues --   -0.23289
 Alpha virt. eigenvalues --   -0.01005   0.07776   0.08960   0.10242   0.10971
 Alpha virt. eigenvalues --    0.12494   0.12630   0.13471   0.14039   0.14232
 Alpha virt. eigenvalues --    0.15776   0.15878   0.16281   0.16780   0.17062
 Alpha virt. eigenvalues --    0.17809   0.18655   0.19133   0.19512   0.19580
 Alpha virt. eigenvalues --    0.20338   0.21149   0.21688   0.23007   0.23547
 Alpha virt. eigenvalues --    0.24735   0.25604   0.25697   0.26314   0.26318
 Alpha virt. eigenvalues --    0.27960   0.28188   0.29921   0.31125   0.33838
 Alpha virt. eigenvalues --    0.37273   0.49126   0.49483   0.49592   0.50719
 Alpha virt. eigenvalues --    0.52453   0.53767   0.54714   0.55945   0.56588
 Alpha virt. eigenvalues --    0.57881   0.60003   0.60833   0.62085   0.64456
 Alpha virt. eigenvalues --    0.64623   0.67208   0.67370   0.67953   0.68938
 Alpha virt. eigenvalues --    0.69108   0.71318   0.73779   0.75055   0.75558
 Alpha virt. eigenvalues --    0.78688   0.79452   0.79901   0.82115   0.83261
 Alpha virt. eigenvalues --    0.84560   0.85004   0.85643   0.87037   0.87356
 Alpha virt. eigenvalues --    0.89011   0.89248   0.89699   0.89810   0.90432
 Alpha virt. eigenvalues --    0.91484   0.91538   0.92167   0.92467   0.92998
 Alpha virt. eigenvalues --    0.93319   0.93967   0.95816   0.96043   0.96829
 Alpha virt. eigenvalues --    0.97423   0.98297   0.99626   1.01892   1.02621
 Alpha virt. eigenvalues --    1.02830   1.04022   1.04931   1.06219   1.09237
 Alpha virt. eigenvalues --    1.15305   1.15979   1.22341   1.24409   1.28225
 Alpha virt. eigenvalues --    1.33397   1.36184   1.39471   1.40544   1.45699
 Alpha virt. eigenvalues --    1.48492   1.49664   1.51122   1.57569   1.59325
 Alpha virt. eigenvalues --    1.59601   1.65553   1.68484   1.69006   1.70049
 Alpha virt. eigenvalues --    1.72045   1.75385   1.76850   1.78551   1.79213
 Alpha virt. eigenvalues --    1.81093   1.84349   1.84795   1.85257   1.87586
 Alpha virt. eigenvalues --    1.88514   1.88613   1.92642   1.94328   1.95083
 Alpha virt. eigenvalues --    1.96510   1.97436   2.01728   2.01962   2.02447
 Alpha virt. eigenvalues --    2.05411   2.07249   2.07867   2.08761   2.09355
 Alpha virt. eigenvalues --    2.13248   2.13868   2.14724   2.17632   2.21300
 Alpha virt. eigenvalues --    2.22604   2.24210   2.25997   2.26832   2.27707
 Alpha virt. eigenvalues --    2.27826   2.29349   2.30778   2.32880   2.36510
 Alpha virt. eigenvalues --    2.39718   2.42515   2.45015   2.48155   2.50370
 Alpha virt. eigenvalues --    2.54263   2.56011   2.57404   2.62153   2.62300
 Alpha virt. eigenvalues --    2.67083   2.67267   2.69826   2.76038   2.79377
 Alpha virt. eigenvalues --    2.85255   2.87059   2.87847   3.00193   3.06194
 Alpha virt. eigenvalues --    4.02823   4.11906   4.19916   4.23662   4.30637
 Alpha virt. eigenvalues --    4.31141   4.33305   4.36476   4.41704   4.58479
 Alpha virt. eigenvalues --    4.63349   4.66717   4.71998
          Condensed to atoms (all electrons):
               1          2          3          4          5          6
     1  O    8.017891   0.587122  -0.089906   0.005490   0.000165   0.000225
     2  C    0.587122   4.547178   0.319197  -0.031184  -0.028246  -0.011817
     3  C   -0.089906   0.319197   5.220236   0.343653   0.350175  -0.028227
     4  C    0.005490  -0.031184   0.343653   5.085244  -0.044102   0.003562
     5  C    0.000165  -0.028246   0.350175  -0.044102   5.099453   0.368694
     6  C    0.000225  -0.011817  -0.028227   0.003562   0.368694   4.974474
     7  C    0.000001   0.000327   0.003384  -0.000100  -0.033131   0.375081
     8  C    0.000000  -0.000009   0.000157  -0.000001  -0.006864  -0.049560
     9  C   -0.000000  -0.000028   0.000167  -0.000000  -0.007601  -0.051234
    10  C    0.000000  -0.000009  -0.000098   0.000001   0.004358  -0.049560
    11  C    0.000165  -0.028246  -0.005888   0.000054  -0.045404   0.368694
    12  C   -0.089906   0.319197  -0.140691   0.006695  -0.005888  -0.028227
    13  C    0.005490  -0.031184   0.006695  -0.000160   0.000054   0.003562
    14  H    0.001421  -0.039252   0.358133  -0.039573  -0.043787  -0.002798
    15  H    0.000483   0.004701  -0.030268   0.363167  -0.003872   0.000034
    16  H    0.003654  -0.005894  -0.033488   0.378477  -0.005177   0.000079
    17  H    0.004212  -0.003343  -0.027032   0.372259   0.004242  -0.000127
    18  H   -0.000063   0.003789  -0.032663  -0.002912   0.365999  -0.031202
    19  H    0.000539  -0.005640  -0.042132  -0.003106   0.365685  -0.036480
    20  H   -0.000011  -0.003069  -0.003426   0.000047  -0.051222   0.363232
    21  H   -0.000000   0.000000  -0.000001  -0.000000   0.000244   0.004861
    22  H   -0.000000  -0.000004  -0.000056   0.000007   0.000672  -0.005613
    23  H   -0.000000  -0.000000  -0.000055   0.000000  -0.000616  -0.005402
    24  H   -0.000000  -0.000001  -0.000047   0.000006   0.001877  -0.005643
    25  H   -0.000000  -0.000001  -0.000012   0.000000  -0.000009  -0.005643
    26  H    0.000000   0.000000  -0.000001  -0.000000   0.000073   0.005253
    27  H   -0.000000  -0.000004  -0.000001   0.000000  -0.000046  -0.005612
    28  H   -0.000000  -0.000000  -0.000003   0.000000   0.000032  -0.005402
    29  H   -0.000000   0.000000   0.000001  -0.000000  -0.000115   0.004861
    30  H   -0.000063   0.003789  -0.000231   0.000011   0.005230  -0.031202
    31  H    0.000539  -0.005640   0.000343  -0.000045  -0.007040  -0.036480
    32  H    0.001421  -0.039252   0.002152  -0.000115  -0.001487  -0.002798
    33  H    0.003654  -0.005894   0.000246  -0.000003  -0.000037   0.000079
    34  H    0.000483   0.004701  -0.000070   0.000001  -0.000007   0.000034
    35  H    0.004212  -0.003343   0.000202  -0.000005  -0.000002  -0.000127
               7          8          9         10         11         12
     1  O    0.000001   0.000000  -0.000000   0.000000   0.000165  -0.089906
     2  C    0.000327  -0.000009  -0.000028  -0.000009  -0.028246   0.319197
     3  C    0.003384   0.000157   0.000167  -0.000098  -0.005888  -0.140691
     4  C   -0.000100  -0.000001  -0.000000   0.000001   0.000054   0.006695
     5  C   -0.033131  -0.006864  -0.007601   0.004358  -0.045404  -0.005888
     6  C    0.375081  -0.049560  -0.051234  -0.049560   0.368694  -0.028227
     7  C    4.759421   0.379843   0.382476   0.379843  -0.033131   0.003384
     8  C    0.379843   5.169309  -0.063813  -0.063294   0.004358  -0.000098
     9  C    0.382476  -0.063813   5.161704  -0.063812  -0.007601   0.000167
    10  C    0.379843  -0.063294  -0.063812   5.169308  -0.006863   0.000157
    11  C   -0.033131   0.004358  -0.007601  -0.006863   5.099451   0.350175
    12  C    0.003384  -0.000098   0.000167   0.000157   0.350175   5.220236
    13  C   -0.000100   0.000001  -0.000000  -0.000001  -0.044102   0.343653
    14  H    0.000001  -0.000015   0.000002  -0.000004  -0.001487   0.002152
    15  H   -0.000000  -0.000004   0.000000  -0.000000  -0.000007  -0.000070
    16  H   -0.000000   0.000000  -0.000002   0.000000  -0.000037   0.000246
    17  H    0.000001   0.000000   0.000000  -0.000000  -0.000002   0.000202
    18  H   -0.006050   0.003098  -0.000283   0.000076   0.005230  -0.000231
    19  H   -0.005590  -0.000405   0.002574   0.000027  -0.007040   0.000343
    20  H   -0.040538  -0.007152   0.006319  -0.007152  -0.051222  -0.003426
    21  H   -0.027971   0.364873  -0.004121  -0.006991  -0.000115   0.000001
    22  H   -0.027222   0.366337  -0.005067   0.005728  -0.000046  -0.000001
    23  H   -0.029930   0.365263   0.005847  -0.004010   0.000032  -0.000003
    24  H   -0.028498  -0.004775   0.367338   0.005627  -0.000009  -0.000012
    25  H   -0.028498   0.005627   0.367338  -0.004775   0.001877  -0.000047
    26  H   -0.029620  -0.005178   0.367259  -0.005178   0.000073  -0.000001
    27  H   -0.027222   0.005728  -0.005067   0.366337   0.000672  -0.000056
    28  H   -0.029930  -0.004010   0.005847   0.365263  -0.000616  -0.000055
    29  H   -0.027971  -0.006991  -0.004121   0.364873   0.000244  -0.000001
    30  H   -0.006050   0.000076  -0.000283   0.003098   0.365999  -0.032663
    31  H   -0.005590   0.000027   0.002574  -0.000405   0.365685  -0.042132
    32  H    0.000001  -0.000004   0.000002  -0.000015  -0.043787   0.358133
    33  H   -0.000000   0.000000  -0.000002   0.000000  -0.005177  -0.033488
    34  H   -0.000000  -0.000000   0.000000  -0.000004  -0.003872  -0.030268
    35  H    0.000001  -0.000000   0.000000   0.000000   0.004241  -0.027032
              13         14         15         16         17         18
     1  O    0.005490   0.001421   0.000483   0.003654   0.004212  -0.000063
     2  C   -0.031184  -0.039252   0.004701  -0.005894  -0.003343   0.003789
     3  C    0.006695   0.358133  -0.030268  -0.033488  -0.027032  -0.032663
     4  C   -0.000160  -0.039573   0.363167   0.378477   0.372259  -0.002912
     5  C    0.000054  -0.043787  -0.003872  -0.005177   0.004242   0.365999
     6  C    0.003562  -0.002798   0.000034   0.000079  -0.000127  -0.031202
     7  C   -0.000100   0.000001  -0.000000  -0.000000   0.000001  -0.006050
     8  C    0.000001  -0.000015  -0.000004   0.000000   0.000000   0.003098
     9  C   -0.000000   0.000002   0.000000  -0.000002   0.000000  -0.000283
    10  C   -0.000001  -0.000004  -0.000000   0.000000  -0.000000   0.000076
    11  C   -0.044102  -0.001487  -0.000007  -0.000037  -0.000002   0.005230
    12  C    0.343653   0.002152  -0.000070   0.000246   0.000202  -0.000231
    13  C    5.085244  -0.000115   0.000001  -0.000003  -0.000005   0.000011
    14  H   -0.000115   0.618069  -0.003273   0.005326  -0.002471  -0.006590
    15  H    0.000001  -0.003273   0.592292  -0.031475  -0.030143   0.004076
    16  H   -0.000003   0.005326  -0.031475   0.557131  -0.027608  -0.000481
    17  H   -0.000005  -0.002471  -0.030143  -0.027608   0.551796  -0.000077
    18  H    0.000011  -0.006590   0.004076  -0.000481  -0.000077   0.593037
    19  H   -0.000045   0.006447  -0.000237   0.005294  -0.000027  -0.037673
    20  H    0.000047   0.006023  -0.000004   0.000008   0.000001  -0.004037
    21  H   -0.000000  -0.000000   0.000000  -0.000000   0.000000  -0.000104
    22  H    0.000000   0.000009  -0.000007   0.000001  -0.000000   0.003604
    23  H    0.000000   0.000015   0.000000  -0.000000  -0.000000   0.000561
    24  H    0.000000  -0.000001   0.000001  -0.000004  -0.000000   0.000203
    25  H    0.000006  -0.000000   0.000000   0.000000  -0.000000   0.000024
    26  H   -0.000000   0.000000  -0.000000   0.000000   0.000000  -0.000033
    27  H    0.000007   0.000000  -0.000000   0.000000  -0.000000  -0.000002
    28  H    0.000000   0.000000   0.000000  -0.000000  -0.000000  -0.000009
    29  H   -0.000000   0.000000   0.000000   0.000000   0.000000  -0.000003
    30  H   -0.002912  -0.000033  -0.000000   0.000000  -0.000000  -0.000184
    31  H   -0.003106   0.000115  -0.000000  -0.000008  -0.000000  -0.000008
    32  H   -0.039573   0.002157  -0.000004  -0.000003  -0.000017  -0.000033
    33  H    0.378477  -0.000003  -0.000000  -0.000002  -0.000000   0.000000
    34  H    0.363167  -0.000004  -0.000000  -0.000000  -0.000000  -0.000000
    35  H    0.372259  -0.000017  -0.000000  -0.000000  -0.000001  -0.000000
              19         20         21         22         23         24
     1  O    0.000539  -0.000011  -0.000000  -0.000000  -0.000000  -0.000000
     2  C   -0.005640  -0.003069   0.000000  -0.000004  -0.000000  -0.000001
     3  C   -0.042132  -0.003426  -0.000001  -0.000056  -0.000055  -0.000047
     4  C   -0.003106   0.000047  -0.000000   0.000007   0.000000   0.000006
     5  C    0.365685  -0.051222   0.000244   0.000672  -0.000616   0.001877
     6  C   -0.036480   0.363232   0.004861  -0.005613  -0.005402  -0.005643
     7  C   -0.005590  -0.040538  -0.027971  -0.027222  -0.029930  -0.028498
     8  C   -0.000405  -0.007152   0.364873   0.366337   0.365263  -0.004775
     9  C    0.002574   0.006319  -0.004121  -0.005067   0.005847   0.367338
    10  C    0.000027  -0.007152  -0.006991   0.005728  -0.004010   0.005627
    11  C   -0.007040  -0.051222  -0.000115  -0.000046   0.000032  -0.000009
    12  C    0.000343  -0.003426   0.000001  -0.000001  -0.000003  -0.000012
    13  C   -0.000045   0.000047  -0.000000   0.000000   0.000000   0.000000
    14  H    0.006447   0.006023  -0.000000   0.000009   0.000015  -0.000001
    15  H   -0.000237  -0.000004   0.000000  -0.000007   0.000000   0.000001
    16  H    0.005294   0.000008  -0.000000   0.000001  -0.000000  -0.000004
    17  H   -0.000027   0.000001   0.000000  -0.000000  -0.000000  -0.000000
    18  H   -0.037673  -0.004037  -0.000104   0.003604   0.000561   0.000203
    19  H    0.602225   0.006336  -0.000031   0.000342   0.000078   0.003384
    20  H    0.006336   0.658876  -0.000064  -0.000097   0.006063  -0.000031
    21  H   -0.000031  -0.000064   0.580815  -0.030190  -0.030240  -0.000159
    22  H    0.000342  -0.000097  -0.030190   0.574845  -0.031548   0.003879
    23  H    0.000078   0.006063  -0.030240  -0.031548   0.583740  -0.000038
    24  H    0.003384  -0.000031  -0.000159   0.003879  -0.000038   0.574152
    25  H    0.000051  -0.000031  -0.000081  -0.000014  -0.000192  -0.030897
    26  H   -0.000081  -0.000152   0.003952  -0.000123  -0.000036  -0.030472
    27  H   -0.000002  -0.000097   0.000022  -0.000195  -0.000073  -0.000014
    28  H    0.000003   0.006063  -0.000101  -0.000073   0.003346  -0.000192
    29  H    0.000002  -0.000064   0.005406   0.000022  -0.000101  -0.000081
    30  H   -0.000008  -0.004037  -0.000003  -0.000002  -0.000009   0.000024
    31  H    0.004609   0.006336   0.000002  -0.000002   0.000003   0.000051
    32  H    0.000115   0.006023   0.000000   0.000000   0.000000  -0.000000
    33  H   -0.000008   0.000008   0.000000   0.000000  -0.000000   0.000000
    34  H   -0.000000  -0.000004   0.000000  -0.000000   0.000000   0.000000
    35  H   -0.000000   0.000001   0.000000  -0.000000  -0.000000  -0.000000
              25         26         27         28         29         30
     1  O   -0.000000   0.000000  -0.000000  -0.000000  -0.000000  -0.000063
     2  C   -0.000001   0.000000  -0.000004  -0.000000   0.000000   0.003789
     3  C   -0.000012  -0.000001  -0.000001  -0.000003   0.000001  -0.000231
     4  C    0.000000  -0.000000   0.000000   0.000000  -0.000000   0.000011
     5  C   -0.000009   0.000073  -0.000046   0.000032  -0.000115   0.005230
     6  C   -0.005643   0.005253  -0.005612  -0.005402   0.004861  -0.031202
     7  C   -0.028498  -0.029620  -0.027222  -0.029930  -0.027971  -0.006050
     8  C    0.005627  -0.005178   0.005728  -0.004010  -0.006991   0.000076
     9  C    0.367338   0.367259  -0.005067   0.005847  -0.004121  -0.000283
    10  C   -0.004775  -0.005178   0.366337   0.365263   0.364873   0.003098
    11  C    0.001877   0.000073   0.000672  -0.000616   0.000244   0.365999
    12  C   -0.000047  -0.000001  -0.000056  -0.000055  -0.000001  -0.032663
    13  C    0.000006  -0.000000   0.000007   0.000000  -0.000000  -0.002912
    14  H   -0.000000   0.000000   0.000000   0.000000   0.000000  -0.000033
    15  H    0.000000  -0.000000  -0.000000   0.000000   0.000000  -0.000000
    16  H    0.000000   0.000000   0.000000  -0.000000   0.000000   0.000000
    17  H   -0.000000   0.000000  -0.000000  -0.000000   0.000000  -0.000000
    18  H    0.000024  -0.000033  -0.000002  -0.000009  -0.000003  -0.000184
    19  H    0.000051  -0.000081  -0.000002   0.000003   0.000002  -0.000008
    20  H   -0.000031  -0.000152  -0.000097   0.006063  -0.000064  -0.004037
    21  H   -0.000081   0.003952   0.000022  -0.000101   0.005406  -0.000003
    22  H   -0.000014  -0.000123  -0.000195  -0.000073   0.000022  -0.000002
    23  H   -0.000192  -0.000036  -0.000073   0.003346  -0.000101  -0.000009
    24  H   -0.030897  -0.030472  -0.000014  -0.000192  -0.000081   0.000024
    25  H    0.574153  -0.030472   0.003879  -0.000038  -0.000159   0.000203
    26  H   -0.030472   0.580493  -0.000123  -0.000036   0.003952  -0.000033
    27  H    0.003879  -0.000123   0.574845  -0.031548  -0.030191   0.003604
    28  H   -0.000038  -0.000036  -0.031548   0.583740  -0.030240   0.000561
    29  H   -0.000159   0.003952  -0.030191  -0.030240   0.580815  -0.000104
    30  H    0.000203  -0.000033   0.003604   0.000561  -0.000104   0.593037
    31  H    0.003384  -0.000081   0.000342   0.000078  -0.000031  -0.037673
    32  H   -0.000001   0.000000   0.000009   0.000015  -0.000000  -0.006590
    33  H   -0.000004   0.000000   0.000001  -0.000000  -0.000000  -0.000481
    34  H    0.000001  -0.000000  -0.000007   0.000000   0.000000   0.004076
    35  H   -0.000000   0.000000  -0.000000  -0.000000   0.000000  -0.000077
              31         32         33         34         35
     1  O    0.000539   0.001421   0.003654   0.000483   0.004212
     2  C   -0.005640  -0.039252  -0.005894   0.004701  -0.003343
     3  C    0.000343   0.002152   0.000246  -0.000070   0.000202
     4  C   -0.000045  -0.000115  -0.000003   0.000001  -0.000005
     5  C   -0.007040  -0.001487  -0.000037  -0.000007  -0.000002
     6  C   -0.036480  -0.002798   0.000079   0.000034  -0.000127
     7  C   -0.005590   0.000001  -0.000000  -0.000000   0.000001
     8  C    0.000027  -0.000004   0.000000  -0.000000  -0.000000
     9  C    0.002574   0.000002  -0.000002   0.000000   0.000000
    10  C   -0.000405  -0.000015   0.000000  -0.000004   0.000000
    11  C    0.365685  -0.043787  -0.005177  -0.003872   0.004241
    12  C   -0.042132   0.358133  -0.033488  -0.030268  -0.027032
    13  C   -0.003106  -0.039573   0.378477   0.363167   0.372259
    14  H    0.000115   0.002157  -0.000003  -0.000004  -0.000017
    15  H   -0.000000  -0.000004  -0.000000  -0.000000  -0.000000
    16  H   -0.000008  -0.000003  -0.000002  -0.000000  -0.000000
    17  H   -0.000000  -0.000017  -0.000000  -0.000000  -0.000001
    18  H   -0.000008  -0.000033   0.000000  -0.000000  -0.000000
    19  H    0.004609   0.000115  -0.000008  -0.000000  -0.000000
    20  H    0.006336   0.006023   0.000008  -0.000004   0.000001
    21  H    0.000002   0.000000   0.000000   0.000000   0.000000
    22  H   -0.000002   0.000000   0.000000  -0.000000  -0.000000
    23  H    0.000003   0.000000  -0.000000   0.000000  -0.000000
    24  H    0.000051  -0.000000   0.000000   0.000000  -0.000000
    25  H    0.003384  -0.000001  -0.000004   0.000001  -0.000000
    26  H   -0.000081   0.000000   0.000000  -0.000000   0.000000
    27  H    0.000342   0.000009   0.000001  -0.000007  -0.000000
    28  H    0.000078   0.000015  -0.000000   0.000000  -0.000000
    29  H   -0.000031  -0.000000  -0.000000   0.000000   0.000000
    30  H   -0.037673  -0.006590  -0.000481   0.004076  -0.000077
    31  H    0.602225   0.006447   0.005294  -0.000237  -0.000027
    32  H    0.006447   0.618069   0.005326  -0.003273  -0.002471
    33  H    0.005294   0.005326   0.557130  -0.031475  -0.027608
    34  H   -0.000237  -0.003273  -0.031475   0.592292  -0.030143
    35  H   -0.000027  -0.002471  -0.027608  -0.030143   0.551796
 Mulliken charges:
               1
     1  O   -0.457219
     2  C    0.452059
     3  C   -0.170445
     4  C   -0.437368
     5  C   -0.282302
     6  C   -0.079572
     7  C    0.103376
     8  C   -0.452527
     9  C   -0.456580
    10  C   -0.452527
    11  C   -0.282302
    12  C   -0.170446
    13  C   -0.437368
    14  H    0.139552
    15  H    0.134609
    16  H    0.153966
    17  H    0.158141
    18  H    0.142930
    19  H    0.140452
    20  H    0.110456
    21  H    0.139997
    22  H    0.144817
    23  H    0.137303
    24  H    0.144331
    25  H    0.144331
    26  H    0.140565
    27  H    0.144816
    28  H    0.137303
    29  H    0.139997
    30  H    0.142930
    31  H    0.140452
    32  H    0.139552
    33  H    0.153966
    34  H    0.134609
    35  H    0.158141
 Sum of Mulliken charges =  -0.00000
 Mulliken charges with hydrogens summed into heavy atoms:
               1
     1  O   -0.457219
     2  C    0.452059
     3  C   -0.030894
     4  C    0.009349
     5  C    0.001080
     6  C    0.030885
     7  C    0.103376
     8  C   -0.030410
     9  C   -0.027353
    10  C   -0.030409
    11  C    0.001080
    12  C   -0.030894
    13  C    0.009349
 APT charges:
               1
     1  O   -0.625173
     2  C    0.657976
     3  C   -0.018133
     4  C    0.061302
     5  C    0.080156
     6  C    0.082380
     7  C    0.134957
     8  C    0.035696
     9  C    0.027850
    10  C    0.035696
    11  C    0.080156
    12  C   -0.018133
    13  C    0.061302
    14  H   -0.040422
    15  H   -0.028279
    16  H   -0.008009
    17  H   -0.015056
    18  H   -0.035478
    19  H   -0.027466
    20  H   -0.070199
    21  H   -0.034007
    22  H   -0.017830
    23  H   -0.024444
    24  H   -0.018134
    25  H   -0.018134
    26  H   -0.027585
    27  H   -0.017830
    28  H   -0.024444
    29  H   -0.034007
    30  H   -0.035478
    31  H   -0.027466
    32  H   -0.040422
    33  H   -0.008008
    34  H   -0.028279
    35  H   -0.015056
 Sum of APT charges =  -0.00000
 APT charges with hydrogens summed into heavy atoms:
               1
     1  O   -0.625173
     2  C    0.657976
     3  C   -0.058555
     4  C    0.009959
     5  C    0.017212
     6  C    0.012181
     7  C    0.134957
     8  C   -0.040585
     9  C   -0.036002
    10  C   -0.040585
    11  C    0.017212
    12  C   -0.058555
    13  C    0.009959
 Electronic spatial extent (au):  <R**2>=           2956.7722
 Charge=             -0.0000 electrons
 Dipole moment (field-independent basis, Debye):
    X=             -2.6348    Y=             -0.0000    Z=             -1.2164  Tot=              2.9020
 Quadrupole moment (field-independent basis, Debye-Ang):
   XX=            -93.7815   YY=            -81.7179   ZZ=            -82.2398
   XY=             -0.0000   XZ=             -4.2208   YZ=              0.0000
 Traceless Quadrupole moment (field-independent basis, Debye-Ang):
   XX=             -7.8685   YY=              4.1952   ZZ=              3.6733
   XY=             -0.0000   XZ=             -4.2208   YZ=              0.0000
 Octapole moment (field-independent basis, Debye-Ang**2):
  XXX=            -32.9861  YYY=             -0.0000  ZZZ=              0.3549  XYY=              6.6727
  XXY=             -0.0000  XXZ=            -12.0677  XZZ=              5.7540  YZZ=              0.0000
  YYZ=              0.6262  XYZ=             -0.0000
 Hexadecapole moment (field-independent basis, Debye-Ang**3):
 XXXX=          -2615.1581 YYYY=          -1158.6335 ZZZZ=           -341.3782 XXXY=             -0.0003
 XXXZ=            -50.7190 YYYX=              0.0002 YYYZ=              0.0000 ZZZX=             11.3738
 ZZZY=              0.0000 XXYY=           -613.9928 XXZZ=           -479.6854 YYZZ=           -249.0905
 XXYZ=             -0.0001 YYXZ=             -1.2837 ZZXY=             -0.0001
 N-N= 8.751914697758D+02 E-N=-3.014703718464D+03  KE= 5.404262210866D+02
  Exact polarizability: 142.797  -0.000 125.965   2.734   0.000 105.738
 Approx polarizability: 185.639  -0.000 168.032   9.046   0.000 169.559
 Calling FoFJK, ICntrl=    100127 FMM=F ISym2X=0 I1Cent= 0 IOpClX= 0 NMat=1 NMatS=1 NMatT=0.
 Full mass-weighted force constant matrix:
 Low frequencies ---   -8.6296   -7.6306   -0.0006   -0.0004    0.0003    7.4193
 Low frequencies ---   30.9521   62.4205  118.9464
 Diagonal vibrational polarizability:
        6.1125187       6.8752301      16.1732018
 Harmonic frequencies (cm**-1), IR intensities (KM/Mole), Raman scattering
 activities (A**4/AMU), depolarization ratios for plane and unpolarized
 incident light, reduced masses (AMU), force constants (mDyne/A),
 and normal coordinates:
                      1                      2                      3
                      A                      A                      A
 Frequencies --     30.9466                62.4191               118.9461
 Red. masses --      2.5402                 6.3190                 2.7581
 Frc consts  --      0.0014                 0.0145                 0.0230
 IR Inten    --      0.0307                 2.5103                 0.0268
  Atom  AN      X      Y      Z        X      Y      Z        X      Y      Z
     1   8     0.00  -0.03  -0.00    -0.24  -0.00   0.43     0.04  -0.00  -0.06
     2   6     0.00  -0.00  -0.00    -0.04  -0.00   0.09     0.01  -0.00  -0.01
     3   6     0.00   0.01   0.05     0.04  -0.02  -0.09     0.02   0.01  -0.00
     4   6     0.00  -0.01   0.11     0.02   0.01  -0.14    -0.04  -0.01   0.17
     5   6     0.00  -0.01   0.06     0.01   0.02  -0.14    -0.02   0.00  -0.14
     6   6     0.00   0.01   0.00     0.01  -0.00  -0.09    -0.02  -0.00  -0.13
     7   6    -0.00   0.01  -0.00     0.03   0.00   0.03     0.01  -0.00  -0.01
     8   6    -0.03  -0.08  -0.16    -0.01   0.00   0.09    -0.05   0.00   0.06
     9   6    -0.00   0.19   0.00     0.15   0.00   0.05     0.14   0.00   0.01
    10   6     0.03  -0.08   0.16    -0.01  -0.00   0.09    -0.05  -0.00   0.06
    11   6    -0.00  -0.01  -0.06     0.01  -0.02  -0.14    -0.02  -0.00  -0.14
    12   6    -0.00   0.01  -0.05     0.04   0.02  -0.09     0.02  -0.01  -0.00
    13   6    -0.00  -0.01  -0.11     0.02  -0.01  -0.14    -0.04   0.01   0.17
    14   1     0.00   0.06   0.05     0.09  -0.11  -0.09     0.14   0.07  -0.01
    15   1     0.00   0.01   0.15     0.04  -0.01  -0.23     0.01   0.01   0.15
    16   1    -0.00  -0.05   0.11    -0.03   0.09  -0.14    -0.19  -0.08   0.18
    17   1     0.00   0.01   0.11     0.04  -0.02  -0.09     0.02   0.01   0.31
    18   1     0.00   0.01   0.11     0.03  -0.00  -0.20     0.00  -0.01  -0.22
    19   1     0.01  -0.07   0.06    -0.01   0.08  -0.14    -0.11   0.05  -0.14
    20   1     0.00   0.05   0.00    -0.07  -0.00  -0.09    -0.08  -0.00  -0.13
    21   1    -0.02  -0.05  -0.09     0.00   0.00   0.17    -0.03   0.00   0.17
    22   1    -0.00  -0.01  -0.33     0.02  -0.00   0.06    -0.00   0.00   0.02
    23   1    -0.09  -0.26  -0.18    -0.10   0.00   0.08    -0.17  -0.00   0.04
    24   1    -0.11   0.31  -0.12     0.18  -0.00   0.01     0.17  -0.00  -0.03
    25   1     0.11   0.31   0.12     0.18   0.00   0.01     0.17   0.00  -0.03
    26   1    -0.00   0.09  -0.00     0.17   0.00   0.12     0.16   0.00   0.09
    27   1     0.00  -0.01   0.33     0.02   0.00   0.06    -0.00  -0.00   0.02
    28   1     0.09  -0.26   0.18    -0.10  -0.00   0.08    -0.17   0.00   0.04
    29   1     0.02  -0.05   0.09     0.00  -0.00   0.17    -0.03  -0.00   0.17
    30   1    -0.00   0.01  -0.11     0.03   0.00  -0.20     0.00   0.01  -0.22
    31   1    -0.01  -0.07  -0.06    -0.01  -0.08  -0.14    -0.11  -0.05  -0.14
    32   1    -0.00   0.06  -0.05     0.09   0.11  -0.09     0.14  -0.07  -0.01
    33   1     0.00  -0.05  -0.11    -0.03  -0.09  -0.14    -0.19   0.08   0.18
    34   1    -0.00   0.01  -0.15     0.04   0.01  -0.23     0.01  -0.01   0.15
    35   1    -0.00   0.01  -0.11     0.04   0.02  -0.09     0.02  -0.01   0.31
                      4                      5                      6
                      A                      A                      A
 Frequencies --    120.0963               158.9375               194.1474
 Red. masses --      2.1037                 2.6420                 1.1632
 Frc consts  --      0.0179                 0.0393                 0.0258
 IR Inten    --      0.0607                 0.0272                 0.1298
  Atom  AN      X      Y      Z        X      Y      Z        X      Y      Z
     1   8    -0.00  -0.03   0.00    -0.00  -0.04  -0.00    -0.06  -0.00   0.02
     2   6    -0.00  -0.01   0.00    -0.00  -0.00  -0.00    -0.02  -0.00  -0.04
     3   6     0.03   0.01  -0.01     0.04   0.03   0.01    -0.01   0.01  -0.03
     4   6    -0.00  -0.02   0.11     0.14  -0.02  -0.03     0.02  -0.03   0.04
     5   6    -0.03   0.06  -0.17     0.02   0.11   0.00     0.00   0.00  -0.00
     6   6     0.00  -0.03   0.00     0.00   0.11  -0.00     0.00   0.00  -0.00
     7   6    -0.00  -0.01   0.00     0.00  -0.02   0.00     0.01   0.00  -0.00
     8   6     0.00  -0.02  -0.01    -0.14  -0.08   0.04     0.01  -0.00  -0.00
     9   6    -0.00  -0.00  -0.00     0.00  -0.08  -0.00     0.02  -0.00  -0.00
    10   6    -0.00  -0.02   0.01     0.14  -0.08  -0.04     0.01   0.00  -0.00
    11   6     0.03   0.06   0.17    -0.02   0.11  -0.00     0.00  -0.00  -0.00
    12   6    -0.03   0.01   0.01    -0.04   0.03  -0.01    -0.01  -0.01  -0.03
    13   6     0.00  -0.02  -0.11    -0.14  -0.02   0.03     0.02   0.03   0.04
    14   1     0.15   0.04  -0.02     0.03   0.02   0.01    -0.02   0.06  -0.02
    15   1     0.05   0.00   0.08     0.20   0.02  -0.03    -0.15   0.01   0.40
    16   1    -0.13  -0.05   0.12     0.18  -0.01  -0.04     0.34  -0.29   0.02
    17   1     0.05  -0.02   0.23     0.13  -0.11  -0.07    -0.10   0.16  -0.26
    18   1    -0.01  -0.01  -0.40     0.05   0.12  -0.03    -0.01   0.00   0.01
    19   1    -0.15   0.27  -0.18     0.00   0.13  -0.00     0.02  -0.01  -0.00
    20   1     0.00  -0.19   0.00    -0.00   0.12  -0.00     0.01   0.00  -0.00
    21   1    -0.01  -0.04  -0.07    -0.11  -0.11   0.21     0.01  -0.00  -0.00
    22   1    -0.04  -0.02   0.03    -0.10  -0.04  -0.08     0.00  -0.00  -0.00
    23   1     0.06   0.01  -0.00    -0.31  -0.14   0.01     0.01   0.00  -0.00
    24   1     0.07  -0.04   0.00    -0.16  -0.01   0.01     0.02  -0.00  -0.01
    25   1    -0.07  -0.04  -0.00     0.16  -0.01  -0.01     0.02   0.00  -0.01
    26   1    -0.00   0.08  -0.00     0.00  -0.28  -0.00     0.02  -0.00   0.00
    27   1     0.04  -0.02  -0.03     0.10  -0.04   0.08     0.00   0.00  -0.00
    28   1    -0.06   0.01   0.00     0.31  -0.14  -0.01     0.01  -0.00  -0.00
    29   1     0.01  -0.04   0.07     0.11  -0.11  -0.21     0.01   0.00  -0.00
    30   1     0.01  -0.01   0.40    -0.05   0.12   0.03    -0.01  -0.00   0.01
    31   1     0.15   0.27   0.18    -0.00   0.13   0.00     0.02   0.01  -0.00
    32   1    -0.15   0.04   0.02    -0.03   0.02  -0.01    -0.02  -0.06  -0.02
    33   1     0.14  -0.05  -0.12    -0.18  -0.01   0.04     0.34   0.29   0.02
    34   1    -0.05   0.00  -0.08    -0.20   0.02   0.03    -0.15  -0.01   0.40
    35   1    -0.05  -0.02  -0.23    -0.13  -0.11   0.07    -0.10  -0.16  -0.26
                      7                      8                      9
                      A                      A                      A
 Frequencies --    203.5728               231.3064               242.2676
 Red. masses --      1.0271                 1.1697                 2.0993
 Frc consts  --      0.0251                 0.0369                 0.0726
 IR Inten    --      0.0394                 0.0057                 0.2112
  Atom  AN      X      Y      Z        X      Y      Z        X      Y      Z
     1   8    -0.00   0.01   0.00    -0.00  -0.00  -0.00     0.12  -0.00   0.02
     2   6    -0.00   0.00  -0.00    -0.00   0.01   0.00     0.07  -0.00   0.10
     3   6    -0.00   0.00  -0.01     0.00   0.02   0.01     0.02  -0.02   0.06
     4   6     0.01  -0.01   0.00     0.05   0.00  -0.01    -0.10   0.10  -0.05
     5   6    -0.01   0.01  -0.02     0.00   0.02   0.03     0.00  -0.02   0.01
     6   6     0.00  -0.00  -0.00     0.00   0.02   0.00     0.00  -0.00  -0.03
     7   6     0.00  -0.00  -0.00     0.00  -0.01  -0.00     0.00   0.00  -0.03
     8   6     0.00  -0.00  -0.01    -0.01  -0.04  -0.04    -0.03  -0.01  -0.01
     9   6     0.00   0.00  -0.00     0.00   0.00  -0.00     0.06   0.00  -0.02
    10   6    -0.00  -0.00   0.01     0.01  -0.04   0.04    -0.03   0.01  -0.01
    11   6     0.01   0.01   0.02    -0.00   0.02  -0.03     0.00   0.02   0.01
    12   6     0.00   0.00   0.01    -0.00   0.02  -0.01     0.02   0.02   0.06
    13   6    -0.01  -0.01  -0.00    -0.05   0.00   0.01    -0.10  -0.10  -0.05
    14   1     0.00   0.01  -0.01    -0.01   0.02   0.01     0.04  -0.10   0.06
    15   1    -0.19   0.01   0.35     0.10   0.01  -0.05    -0.33   0.00   0.04
    16   1     0.36  -0.23  -0.02     0.03   0.03  -0.01     0.08   0.11  -0.07
    17   1    -0.11   0.18  -0.32     0.06  -0.07   0.01    -0.18   0.29  -0.25
    18   1    -0.00  -0.00  -0.05    -0.00   0.03   0.07     0.03  -0.01  -0.02
    19   1    -0.02   0.04  -0.02     0.02  -0.02   0.03    -0.05  -0.01   0.01
    20   1     0.00  -0.02  -0.00     0.00   0.05   0.00     0.03  -0.00  -0.03
    21   1    -0.00  -0.02  -0.04    -0.05  -0.18  -0.30    -0.01   0.04   0.16
    22   1    -0.02  -0.01   0.02    -0.22  -0.04   0.14     0.07   0.01  -0.15
    23   1     0.04   0.01   0.00     0.24   0.09   0.01    -0.20  -0.11  -0.05
    24   1     0.04  -0.02   0.00     0.31  -0.18   0.04     0.08  -0.00  -0.04
    25   1    -0.04  -0.02  -0.00    -0.31  -0.18  -0.04     0.08   0.00  -0.04
    26   1     0.00   0.05   0.00     0.00   0.37   0.00     0.07  -0.00   0.03
    27   1     0.02  -0.01  -0.02     0.22  -0.04  -0.14     0.07  -0.01  -0.15
    28   1    -0.04   0.01  -0.00    -0.24   0.09  -0.01    -0.20   0.11  -0.05
    29   1     0.00  -0.02   0.04     0.05  -0.18   0.30    -0.01  -0.04   0.16
    30   1     0.00  -0.00   0.05     0.00   0.03  -0.07     0.03   0.01  -0.02
    31   1     0.02   0.04   0.02    -0.02  -0.02  -0.03    -0.05   0.01   0.01
    32   1    -0.00   0.01   0.01     0.01   0.02  -0.01     0.04   0.10   0.06
    33   1    -0.36  -0.23   0.02    -0.03   0.03   0.01     0.08  -0.11  -0.07
    34   1     0.19   0.01  -0.35    -0.10   0.01   0.05    -0.33  -0.00   0.04
    35   1     0.11   0.18   0.32    -0.06  -0.07  -0.01    -0.18  -0.29  -0.25
                     10                     11                     12
                      A                      A                      A
 Frequencies --    243.3249               263.0819               265.9461
 Red. masses --      1.9876                 1.7726                 1.0224
 Frc consts  --      0.0693                 0.0723                 0.0426
 IR Inten    --      0.0010                 0.2771                 0.0137
  Atom  AN      X      Y      Z        X      Y      Z        X      Y      Z
     1   8     0.05   0.00   0.00    -0.09  -0.00  -0.00    -0.00   0.00  -0.00
     2   6     0.02   0.00   0.04    -0.05  -0.00  -0.07    -0.00   0.01  -0.00
     3   6     0.03  -0.01   0.03    -0.04   0.02  -0.02     0.01   0.01  -0.00
     4   6     0.13  -0.06  -0.02    -0.03  -0.01   0.02    -0.00   0.01   0.00
     5   6     0.00   0.01  -0.00     0.01  -0.02   0.09     0.01  -0.00  -0.00
     6   6    -0.03   0.00  -0.01     0.03  -0.00   0.02     0.00   0.00   0.00
     7   6    -0.06  -0.00  -0.01     0.04   0.00  -0.03     0.00  -0.00  -0.00
     8   6    -0.12  -0.03  -0.01     0.01  -0.03  -0.05     0.01  -0.00  -0.01
     9   6    -0.07   0.00  -0.01     0.14   0.00  -0.02     0.00  -0.02  -0.00
    10   6    -0.12   0.03  -0.01     0.01   0.03  -0.05    -0.01  -0.00   0.01
    11   6     0.00  -0.01  -0.00     0.01   0.02   0.09    -0.01  -0.00   0.00
    12   6     0.03   0.01   0.03    -0.04  -0.02  -0.02    -0.01   0.01   0.00
    13   6     0.13   0.06  -0.02    -0.03   0.01   0.02     0.00   0.01  -0.00
    14   1     0.04  -0.04   0.03    -0.11   0.07  -0.02     0.01   0.01  -0.00
    15   1     0.20  -0.01  -0.01     0.04   0.01  -0.04    -0.01   0.01   0.01
    16   1     0.19  -0.05  -0.02    -0.13   0.01   0.03    -0.01   0.00   0.00
    17   1     0.11  -0.16  -0.07     0.01  -0.05   0.12    -0.00   0.02   0.01
    18   1     0.02   0.01  -0.02    -0.02   0.01   0.23     0.01   0.00   0.01
    19   1    -0.03   0.02   0.00     0.11  -0.15   0.09     0.02  -0.00  -0.00
    20   1    -0.02   0.00  -0.01     0.09  -0.00   0.02     0.00   0.00   0.00
    21   1    -0.08   0.05   0.27     0.04   0.07   0.19     0.04   0.13   0.23
    22   1     0.04   0.02  -0.22     0.17   0.02  -0.28     0.19   0.02  -0.21
    23   1    -0.39  -0.19  -0.05    -0.22  -0.22  -0.09    -0.22  -0.16  -0.05
    24   1    -0.07  -0.00  -0.01     0.18  -0.00  -0.06     0.36  -0.24   0.07
    25   1    -0.07   0.00  -0.01     0.18   0.00  -0.06    -0.36  -0.24  -0.07
    26   1    -0.07   0.00  -0.02     0.16  -0.00   0.08     0.00   0.40   0.00
    27   1     0.04  -0.02  -0.22     0.17  -0.02  -0.28    -0.19   0.02   0.21
    28   1    -0.39   0.19  -0.05    -0.22   0.22  -0.09     0.22  -0.16   0.05
    29   1    -0.08  -0.05   0.27     0.04  -0.07   0.19    -0.04   0.13  -0.23
    30   1     0.02  -0.01  -0.02    -0.02  -0.01   0.23    -0.01   0.00  -0.01
    31   1    -0.03  -0.02   0.00     0.11   0.15   0.09    -0.02  -0.00   0.00
    32   1     0.04   0.04   0.03    -0.11  -0.07  -0.02    -0.01   0.01   0.00
    33   1     0.19   0.05  -0.02    -0.13  -0.01   0.03     0.01   0.00  -0.00
    34   1     0.20   0.01  -0.01     0.04  -0.01  -0.04     0.01   0.01  -0.01
    35   1     0.11   0.16  -0.07     0.01   0.05   0.12     0.00   0.02  -0.01
                     13                     14                     15
                      A                      A                      A
 Frequencies --    302.4339               303.6229               331.4848
 Red. masses --      2.2556                 2.4300                 3.8681
 Frc consts  --      0.1216                 0.1320                 0.2504
 IR Inten    --      0.3791                 0.3666                10.0063
  Atom  AN      X      Y      Z        X      Y      Z        X      Y      Z
     1   8     0.01   0.00  -0.04    -0.00   0.09   0.00    -0.00   0.33  -0.00
     2   6    -0.06   0.00   0.09     0.00   0.05  -0.00    -0.00   0.04   0.00
     3   6    -0.06  -0.01   0.09     0.00   0.05   0.01    -0.06  -0.03  -0.07
     4   6     0.06  -0.03  -0.03     0.10  -0.00   0.00     0.06  -0.16   0.05
     5   6    -0.07   0.02   0.03    -0.01   0.02   0.01    -0.02  -0.04  -0.00
     6   6    -0.02  -0.00  -0.03     0.00  -0.02   0.00    -0.00  -0.04   0.00
     7   6    -0.00  -0.00  -0.06    -0.00  -0.05   0.00     0.00  -0.00   0.00
     8   6    -0.03   0.00  -0.02     0.16  -0.01  -0.09    -0.05   0.01   0.06
     9   6     0.20  -0.00  -0.04    -0.00  -0.14   0.00     0.00   0.10   0.00
    10   6    -0.03  -0.00  -0.02    -0.16  -0.01   0.09     0.05   0.01  -0.06
    11   6    -0.07  -0.02   0.03     0.01   0.02  -0.01     0.02  -0.04   0.00
    12   6    -0.06   0.01   0.09    -0.00   0.05  -0.01     0.06  -0.03   0.07
    13   6     0.06   0.03  -0.03    -0.10  -0.00  -0.00    -0.06  -0.16  -0.05
    14   1    -0.05  -0.06   0.09    -0.01   0.06   0.01    -0.07   0.01  -0.07
    15   1     0.11  -0.01  -0.05     0.20   0.05  -0.00     0.23  -0.05   0.11
    16   1     0.17   0.03  -0.04     0.12  -0.01   0.00     0.01  -0.29   0.06
    17   1     0.02  -0.15  -0.13     0.10  -0.12  -0.00     0.09  -0.30   0.12
    18   1    -0.07   0.01  -0.00    -0.02   0.01   0.01    -0.06  -0.04   0.07
    19   1    -0.13   0.02   0.03    -0.02   0.01   0.01     0.05  -0.09  -0.00
    20   1     0.06  -0.00  -0.03    -0.00  -0.02   0.00    -0.00  -0.05   0.00
    21   1    -0.06  -0.13  -0.22     0.14   0.16  -0.13    -0.03  -0.03   0.14
    22   1    -0.21  -0.02   0.15     0.28  -0.02  -0.16    -0.05  -0.00   0.09
    23   1     0.14   0.16   0.01     0.22  -0.14  -0.09    -0.12   0.06   0.06
    24   1     0.28  -0.00  -0.12    -0.16  -0.10   0.07     0.06   0.11  -0.09
    25   1     0.28   0.00  -0.12     0.16  -0.10  -0.07    -0.06   0.11   0.09
    26   1     0.25  -0.00   0.15    -0.00  -0.36  -0.00     0.00   0.20   0.00
    27   1    -0.21   0.02   0.15    -0.28  -0.02   0.16     0.05  -0.00  -0.09
    28   1     0.14  -0.16   0.01    -0.22  -0.14   0.09     0.12   0.06  -0.06
    29   1    -0.06   0.13  -0.22    -0.14   0.16   0.13     0.03  -0.03  -0.14
    30   1    -0.07  -0.01  -0.00     0.02   0.01  -0.01     0.06  -0.04  -0.07
    31   1    -0.13  -0.02   0.03     0.02   0.01  -0.01    -0.05  -0.09   0.00
    32   1    -0.05   0.06   0.09     0.01   0.06  -0.01     0.07   0.01   0.07
    33   1     0.17  -0.03  -0.04    -0.12  -0.01  -0.00    -0.01  -0.29  -0.06
    34   1     0.11   0.01  -0.05    -0.20   0.05   0.00    -0.23  -0.05  -0.11
    35   1     0.02   0.15  -0.13    -0.10  -0.12   0.00    -0.09  -0.30  -0.12
                     16                     17                     18
                      A                      A                      A
 Frequencies --    345.3817               385.8247               390.1145
 Red. masses --      2.0067                 3.5191                 2.1252
 Frc consts  --      0.1410                 0.3087                 0.1906
 IR Inten    --      0.1980                 1.5568                 0.0446
  Atom  AN      X      Y      Z        X      Y      Z        X      Y      Z
     1   8    -0.02   0.00  -0.05    -0.00   0.02  -0.00     0.00  -0.00   0.01
     2   6    -0.08   0.00   0.06    -0.00  -0.07  -0.00     0.02   0.00  -0.02
     3   6    -0.05   0.00   0.05    -0.14  -0.09   0.11     0.02   0.01  -0.02
     4   6     0.01  -0.01  -0.01    -0.09  -0.11  -0.03    -0.00   0.02   0.01
     5   6    -0.07   0.06  -0.05    -0.13   0.13   0.05     0.01   0.04  -0.02
     6   6     0.00  -0.00   0.03     0.00   0.11   0.00     0.00  -0.00   0.09
     7   6     0.05  -0.00   0.05     0.00   0.05   0.00    -0.01  -0.00   0.11
     8   6     0.13   0.00  -0.01    -0.00   0.04  -0.06    -0.05  -0.12  -0.09
     9   6    -0.02  -0.00   0.05     0.00  -0.05   0.00     0.03   0.00   0.14
    10   6     0.13  -0.00  -0.01     0.00   0.04   0.06    -0.05   0.12  -0.09
    11   6    -0.07  -0.06  -0.05     0.13   0.13  -0.05     0.01  -0.04  -0.02
    12   6    -0.05  -0.00   0.05     0.14  -0.09  -0.11     0.02  -0.01  -0.02
    13   6     0.01   0.01  -0.01     0.09  -0.11   0.03    -0.00  -0.02   0.01
    14   1    -0.01  -0.04   0.05    -0.19  -0.14   0.11     0.04   0.02  -0.02
    15   1     0.03  -0.00  -0.01    -0.07  -0.13  -0.08    -0.02   0.02   0.02
    16   1     0.07   0.01  -0.02    -0.04  -0.02  -0.03    -0.03   0.00   0.01
    17   1    -0.01  -0.07  -0.07    -0.10  -0.17  -0.07     0.01   0.06   0.03
    18   1    -0.06  -0.01  -0.26    -0.03   0.12  -0.13    -0.01  -0.01  -0.13
    19   1    -0.18   0.25  -0.05    -0.27   0.25   0.05     0.02   0.17  -0.03
    20   1    -0.03  -0.00   0.03    -0.00   0.18   0.00    -0.06  -0.00   0.09
    21   1     0.14   0.18   0.14    -0.01   0.05  -0.07    -0.07  -0.24  -0.28
    22   1     0.32   0.02  -0.20    -0.01   0.07  -0.12    -0.25   0.00  -0.20
    23   1    -0.00  -0.19  -0.05     0.01  -0.03  -0.06     0.12  -0.29  -0.08
    24   1    -0.04  -0.00   0.07     0.02  -0.12   0.11     0.07  -0.00   0.10
    25   1    -0.04   0.00   0.07    -0.02  -0.12  -0.11     0.07   0.00   0.10
    26   1    -0.03  -0.00  -0.01     0.00  -0.06   0.00     0.05   0.00   0.21
    27   1     0.32  -0.02  -0.20     0.01   0.07   0.12    -0.25  -0.00  -0.20
    28   1    -0.00   0.19  -0.05    -0.01  -0.03   0.06     0.12   0.29  -0.08
    29   1     0.14  -0.18   0.14     0.01   0.05   0.07    -0.07   0.24  -0.28
    30   1    -0.06   0.01  -0.26     0.03   0.12   0.13    -0.01   0.01  -0.13
    31   1    -0.18  -0.25  -0.05     0.27   0.25  -0.05     0.02  -0.17  -0.03
    32   1    -0.01   0.04   0.05     0.19  -0.14  -0.11     0.04  -0.02  -0.02
    33   1     0.07  -0.01  -0.02     0.04  -0.02   0.03    -0.03  -0.00   0.01
    34   1     0.03   0.00  -0.01     0.07  -0.13   0.08    -0.02  -0.02   0.02
    35   1    -0.01   0.07  -0.07     0.10  -0.17   0.07     0.01  -0.06   0.03
                     19                     20                     21
                      A                      A                      A
 Frequencies --    399.6448               436.6996               478.1590
 Red. masses --      2.4016                 3.3852                 2.7064
 Frc consts  --      0.2260                 0.3804                 0.3646
 IR Inten    --      0.7000                 1.2108                 0.2121
  Atom  AN      X      Y      Z        X      Y      Z        X      Y      Z
     1   8    -0.00  -0.05  -0.00    -0.09  -0.00  -0.04    -0.00   0.00  -0.00
     2   6    -0.00   0.02   0.00    -0.07   0.00  -0.05    -0.00  -0.04  -0.00
     3   6    -0.04   0.03   0.10     0.01   0.15   0.03     0.02  -0.03  -0.09
     4   6     0.05   0.03  -0.02     0.07   0.20   0.02    -0.06  -0.04   0.01
     5   6    -0.09   0.01   0.01     0.01   0.11   0.02     0.07   0.12   0.03
     6   6     0.00  -0.07  -0.00     0.10  -0.00   0.03    -0.00   0.15  -0.00
     7   6     0.00  -0.12  -0.00     0.06  -0.00  -0.06    -0.00  -0.11  -0.00
     8   6     0.07  -0.06   0.10    -0.05  -0.01   0.04     0.10  -0.09   0.05
     9   6    -0.00   0.14  -0.00    -0.02   0.00  -0.09    -0.00   0.04   0.00
    10   6    -0.07  -0.06  -0.10    -0.05   0.01   0.04    -0.10  -0.09  -0.05
    11   6     0.09   0.01  -0.01     0.01  -0.11   0.02    -0.07   0.12  -0.03
    12   6     0.04   0.03  -0.10     0.01  -0.15   0.03    -0.02  -0.03   0.09
    13   6    -0.05   0.03   0.02     0.07  -0.20   0.02     0.06  -0.04  -0.01
    14   1    -0.05   0.02   0.10    -0.01   0.23   0.03     0.01  -0.04  -0.09
    15   1     0.10   0.04  -0.08     0.05   0.17  -0.03    -0.13  -0.05   0.06
    16   1     0.15   0.14  -0.03     0.08   0.27   0.02    -0.17  -0.14   0.02
    17   1     0.02  -0.09  -0.11     0.06   0.19  -0.01    -0.03   0.10   0.10
    18   1    -0.08  -0.04  -0.11    -0.08   0.02  -0.09     0.15   0.20   0.12
    19   1    -0.20   0.08   0.01    -0.04   0.22   0.01     0.20   0.07   0.03
    20   1     0.00  -0.06  -0.00     0.17  -0.00   0.03    -0.00   0.23  -0.00
    21   1     0.08   0.02   0.18    -0.03  -0.12   0.13     0.09   0.03   0.02
    22   1     0.17  -0.13   0.16    -0.10  -0.01   0.09     0.20  -0.17   0.12
    23   1    -0.01   0.03   0.10    -0.15   0.10   0.03     0.15  -0.04   0.07
    24   1     0.06   0.22  -0.23    -0.06   0.00  -0.05     0.01   0.12  -0.17
    25   1    -0.06   0.22   0.23    -0.06  -0.00  -0.05    -0.01   0.12   0.17
    26   1    -0.00   0.30  -0.00    -0.04   0.00  -0.17    -0.00   0.10   0.00
    27   1    -0.17  -0.13  -0.16    -0.10   0.01   0.09    -0.20  -0.17  -0.12
    28   1     0.01   0.03  -0.10    -0.15  -0.10   0.03    -0.15  -0.04  -0.07
    29   1    -0.08   0.02  -0.18    -0.03   0.12   0.13    -0.09   0.03  -0.02
    30   1     0.08  -0.04   0.11    -0.08  -0.02  -0.09    -0.15   0.20  -0.12
    31   1     0.20   0.08  -0.01    -0.04  -0.22   0.01    -0.20   0.07  -0.03
    32   1     0.05   0.02  -0.10    -0.01  -0.23   0.03    -0.01  -0.04   0.09
    33   1    -0.15   0.14   0.03     0.08  -0.27   0.02     0.17  -0.14  -0.02
    34   1    -0.10   0.04   0.08     0.05  -0.17  -0.03     0.13  -0.05  -0.06
    35   1    -0.02  -0.09   0.11     0.06  -0.19  -0.01     0.03   0.10  -0.10
                     22                     23                     24
                      A                      A                      A
 Frequencies --    521.7890               530.5561               603.6855
 Red. masses --      2.4916                 2.2683                 3.2445
 Frc consts  --      0.3997                 0.3762                 0.6967
 IR Inten    --      0.0653                 0.4509                 1.8212
  Atom  AN      X      Y      Z        X      Y      Z        X      Y      Z
     1   8    -0.01  -0.00  -0.02     0.02  -0.00   0.01     0.00   0.20   0.00
     2   6    -0.05  -0.00   0.05     0.03  -0.00  -0.02     0.00  -0.08   0.00
     3   6    -0.03  -0.05   0.01     0.01  -0.05  -0.04     0.13  -0.12   0.16
     4   6    -0.05  -0.08  -0.01    -0.05  -0.07  -0.01     0.02   0.03   0.02
     5   6     0.02  -0.00   0.00     0.04   0.09   0.03     0.10  -0.02  -0.00
     6   6     0.12   0.00  -0.03     0.04   0.00   0.21     0.00   0.02   0.00
     7   6     0.20  -0.00  -0.02    -0.04   0.00  -0.06     0.00  -0.00  -0.00
     8   6     0.00  -0.13   0.06    -0.04   0.06  -0.01     0.00  -0.02   0.00
     9   6    -0.03   0.00  -0.08     0.03   0.00  -0.09     0.00   0.00  -0.00
    10   6     0.00   0.13   0.06    -0.04  -0.06  -0.01    -0.00  -0.02  -0.00
    11   6     0.02   0.00   0.00     0.04  -0.09   0.03    -0.10  -0.02   0.00
    12   6    -0.03   0.05   0.01     0.01   0.05  -0.04    -0.13  -0.12  -0.16
    13   6    -0.05   0.08  -0.01    -0.05   0.07  -0.01    -0.02   0.03  -0.02
    14   1    -0.03  -0.10   0.01    -0.03  -0.08  -0.04     0.17  -0.11   0.15
    15   1    -0.06  -0.08  -0.01    -0.07  -0.07   0.03    -0.21  -0.17  -0.16
    16   1    -0.05  -0.09  -0.01    -0.13  -0.14   0.00     0.06   0.30   0.01
    17   1    -0.05  -0.08  -0.01    -0.02   0.01   0.07    -0.01   0.19  -0.06
    18   1    -0.01  -0.03  -0.03     0.05  -0.02  -0.26     0.23  -0.02  -0.20
    19   1    -0.02   0.01   0.00     0.06   0.44   0.02    -0.06   0.12  -0.00
    20   1     0.16   0.00  -0.03     0.16  -0.00   0.21     0.00   0.04   0.00
    21   1     0.03  -0.41   0.14    -0.03   0.07   0.06    -0.00  -0.01  -0.02
    22   1    -0.21  -0.05   0.06     0.01   0.01   0.05     0.01  -0.03   0.02
    23   1    -0.11  -0.06   0.04    -0.10   0.14  -0.01     0.03  -0.01   0.01
    24   1    -0.18   0.01   0.05     0.11  -0.00  -0.15     0.00   0.01  -0.01
    25   1    -0.18  -0.01   0.05     0.11   0.00  -0.15    -0.00   0.01   0.01
    26   1    -0.10   0.00  -0.39     0.07  -0.00   0.05    -0.00   0.01  -0.00
    27   1    -0.21   0.05   0.06     0.01  -0.01   0.05    -0.01  -0.03  -0.02
    28   1    -0.11   0.06   0.04    -0.10  -0.14  -0.01    -0.03  -0.01  -0.01
    29   1     0.03   0.41   0.14    -0.03  -0.07   0.06     0.00  -0.01   0.02
    30   1    -0.01   0.03  -0.03     0.05   0.02  -0.26    -0.23  -0.02   0.20
    31   1    -0.02  -0.01   0.00     0.06  -0.44   0.02     0.06   0.12   0.00
    32   1    -0.03   0.10   0.01    -0.03   0.08  -0.04    -0.17  -0.11  -0.15
    33   1    -0.05   0.09  -0.01    -0.13   0.14   0.00    -0.06   0.30  -0.01
    34   1    -0.06   0.08  -0.01    -0.07   0.07   0.03     0.21  -0.17   0.16
    35   1    -0.05   0.08  -0.01    -0.02  -0.01   0.07     0.01   0.19   0.06
                     25                     26                     27
                      A                      A                      A
 Frequencies --    700.3526               761.8204               784.8880
 Red. masses --      4.2061                 2.5138                 3.0945
 Frc consts  --      1.2155                 0.8596                 1.1232
 IR Inten    --      1.1345                 3.0900                 0.5193
  Atom  AN      X      Y      Z        X      Y      Z        X      Y      Z
     1   8     0.12  -0.00   0.15     0.09  -0.00  -0.00     0.09   0.00   0.05
     2   6     0.29   0.00  -0.21    -0.05   0.00   0.21     0.06   0.00   0.05
     3   6    -0.06   0.04  -0.03    -0.04   0.06  -0.12    -0.07   0.07  -0.05
     4   6     0.00   0.02  -0.00     0.01   0.04  -0.01    -0.03  -0.01  -0.03
     5   6    -0.16  -0.02   0.04    -0.03   0.06  -0.02    -0.02   0.06   0.02
     6   6    -0.11  -0.00   0.03    -0.08  -0.00   0.06     0.15   0.00  -0.09
     7   6     0.04  -0.00  -0.01    -0.03   0.00   0.01     0.11  -0.00  -0.04
     8   6     0.05  -0.08   0.04     0.03  -0.05   0.03    -0.05   0.13  -0.07
     9   6     0.03   0.00  -0.10     0.00   0.00  -0.10     0.00  -0.00   0.20
    10   6     0.05   0.08   0.04     0.03   0.05   0.03    -0.05  -0.13  -0.07
[...]
 141,0.00160713,-0.00032012,-0.00047776,-0.00000169,-0.00003481,-0.0001
 8505,0.00006719,0.00002850,0.00004776,0.00032052,0.00136168,-0.0003020
 7,-0.01184134,-0.00103092,0.01735118,0.00052001,0.00030166,0.00150824,
 -0.00003008,-0.00006586,-0.00027332,-0.00043044,-0.00100602,0.00017884
 ,-0.00024303,-0.00007100,-0.00020664,-0.11958669,-0.00211333,0.1135699
 8,0.00986474,0.00030814,-0.01958286,0.00142185,0.00056004,-0.00021126,
 -0.00012296,-0.00000860,-0.00003682,-0.00001033,0.00001138,0.00000349,
 0.00001153,0.00000800,0.00000326,0.00001804,-0.00002713,0.00000313,0.0
 0002985,0.00003589,-0.00029303,0.00074738,-0.00042959,-0.00026587,-0.0
 0165762,-0.00378945,-0.00036416,-0.00007005,-0.00004644,-0.00011815,0.
 00000811,-0.00003159,0.00000143,0.00019440,0.00014815,-0.00015804,0.00
 005966,0.00006304,-0.00006051,-0.00012224,0.00040841,-0.00136066,0.000
 34038,0.00040377,-0.00012884,-0.00007810,0.00008247,0.00016299,0.00033
 269,-0.00001368,-0.00013082,-0.00010566,-0.00000922,-0.00010889,-0.009
 89315,-0.00079096,0.01618273,0.13086015,-0.00010458,0.00017778,-0.0001
 9760,-0.00048360,-0.00019663,0.00087595,0.00019374,-0.00012807,-0.0000
 7340,0.00002747,0.00000709,0.00003002,-0.00072065,0.00184624,0.0011558
 3,-0.01484991,-0.00168535,0.02403596,0.00061377,0.00066859,0.00043463,
 0.00001519,-0.00002044,0.00006226,-0.00011672,0.00014971,-0.00028578,0
 .00007030,-0.00002143,0.00001619,-0.00187704,-0.05238044,0.00674161,-0
 .00037412,-0.00027337,0.00074433,0.00057211,0.00013464,-0.00077925,-0.
 00002206,0.00010371,-0.00021268,0.00000575,0.00000688,-0.00000009,0.00
 003061,-0.00003356,-0.00000834,0.00001353,-0.00001788,-0.00000510,0.00
 008667,0.00032132,-0.00037322,0.00042959,-0.00038070,-0.00053210,-0.00
 344456,-0.00431242,0.00037412,-0.00000197,-0.00000973,-0.00013348,0.00
 000993,-0.00003019,-0.00002539,0.00014043,0.00008621,-0.00010946,-0.00
 003707,-0.00016142,-0.00011473,-0.00027882,0.00021744,-0.00054246,0.00
 013873,0.00003383,-0.00004358,-0.00003025,0.00004451,-0.00014431,-0.00
 001080,-0.00014269,0.00004331,0.00001128,0.00009982,0.00002490,0.01426
 143,0.00159249,-0.02430029,0.00634724,0.05345680,-0.00147779,0.0002725
 2,0.00040384,0.00264829,-0.00169936,-0.00058041,-0.00000631,0.00037821
 ,-0.00037022,0.00007800,0.00002995,-0.00002297,-0.00006135,-0.00034180
 ,0.00006367,0.00097194,0.00057722,0.00030135,-0.00014861,0.00037613,-0
 .00026150,0.00017585,-0.00006042,0.00007250,-0.00058985,0.00003623,-0.
 00102896,0.00006277,0.00006068,0.00010048,0.11390065,0.00607483,-0.227
 40636,0.01104435,0.00147563,-0.02402639,0.00141797,0.00066594,0.000796
 20,-0.00006613,-0.00004407,0.00018796,-0.00002076,0.00003372,0.0000110
 7,-0.00004725,0.00005064,0.00002204,-0.00000323,-0.00000374,0.00001006
 ,-0.00019226,0.00009571,0.00026867,-0.00026587,0.00053210,0.00028402,-
 0.00036024,-0.00003862,0.00095249,0.00005793,0.00007282,-0.00000447,-0
 .00000207,0.00002123,0.00000036,-0.00000119,0.00000485,0.00005784,0.00
 005281,0.00003626,0.00002444,-0.00119310,-0.00106519,-0.00068402,-0.00
 022159,-0.00019540,0.00018087,0.00006554,0.00003827,-0.00003662,-0.000
 05253,-0.00001696,0.00002505,0.00004745,0.00002995,0.00002055,0.000627
 08,-0.00045374,-0.00082197,-0.12137766,-0.00681072,0.25392556,-0.00146
 911,0.00398356,-0.00247244,-0.01378136,-0.00073922,0.01765484,0.000042
 52,-0.00041041,-0.00085868,0.00000950,0.00013094,-0.00050259,-0.000023
 95,-0.00035809,-0.00002365,0.00134735,0.00040812,-0.00038639,0.0001849
 2,0.00034075,-0.00014168,0.00003717,-0.00003307,0.00010275,-0.00006384
 ,0.00007153,-0.00018277,0.00002209,0.00001069,0.00002842,0.00983239,-0
 .00124784,-0.02074413,-0.11808865,0.00094047,0.11765613,-0.01110517,-0
 .00083813,0.01563954,0.00088391,0.00027856,-0.00046156,0.00001027,0.00
 001534,0.00000161,0.00005528,-0.00017743,-0.00004847,-0.00002831,-0.00
 000689,0.00006544,-0.00002574,-0.00001845,-0.00003095,-0.00012296,0.00
 002206,-0.00006613,-0.00012620,0.00004648,0.00029123,0.00002617,0.0000
 3662,0.00000278,-0.00000138,0.00001624,0.00000334,-0.00001287,-0.00001
 672,0.00000293,-0.00000197,-0.00000057,0.00001789,-0.00005366,-0.00010
 068,0.00011175,-0.00005062,-0.00008402,-0.00000231,0.00001603,0.000015
 73,-0.00003300,-0.00003675,-0.00000255,0.00001257,0.00000995,0.0000148
 1,0.00001483,0.00127786,-0.00009625,0.00089321,-0.00229469,-0.00036263
 ,-0.00380011,0.13394444,0.00323097,-0.00370186,0.00344753,0.01514135,0
 .00365113,-0.02599115,-0.00157630,-0.00056190,0.00274892,0.00012973,0.
 00014395,0.00034263,0.00049222,0.00017274,0.00024370,0.00032238,0.0001
 5098,-0.00099743,-0.00001951,0.00004552,0.00006367,0.00001854,-0.00001
 878,-0.00000865,0.00000849,-0.00004528,-0.00000266,-0.00001861,0.00001
 216,-0.00000508,-0.00098963,0.00063844,0.00070923,0.00270780,-0.050918
 33,-0.00588203,-0.01700858,-0.00134252,0.02395268,-0.00027856,-0.00184
 650,-0.00010325,-0.00004407,0.00002143,0.00001060,-0.00002492,0.000107
 79,0.00002312,-0.00003067,0.00003673,-0.00008290,0.00003871,-0.0000112
 4,0.00002053,0.00000860,0.00010372,0.00004407,-0.00021618,0.00006550,0
 .00000463,0.00000497,0.00000571,0.00001222,-0.00000325,-0.00000134,0.0
 0000168,-0.00001258,-0.00000357,0.00000193,0.00000166,0.00000032,-0.00
 000175,-0.00000930,0.00001254,0.00000485,0.00000605,-0.00000452,0.0000
 0475,-0.00000544,-0.00001775,0.00003216,0.00001739,0.00002077,-0.00001
 488,0.00000230,-0.00001769,-0.00000829,-0.00069853,0.00011336,0.000278
 62,-0.00008584,0.00072099,0.00045681,0.00087219,0.05505556,-0.00051127
 ,-0.00052384,-0.00083186,0.00052915,0.00075184,0.00021140,0.00090705,0
 .00016230,-0.00071267,-0.00019371,-0.00025871,0.00028062,-0.00039966,-
 0.00015942,-0.00005066,0.00195368,0.00088793,0.00037557,-0.00030402,0.
 00015294,0.00019473,-0.00002626,-0.00001792,0.00001096,0.00017865,0.00
 023389,-0.00009034,0.00005891,0.00009379,-0.00007965,0.01217440,-0.001
 24928,-0.02738808,0.11349312,-0.00161514,-0.21267906,-0.00018124,0.000
 10289,0.00051108,-0.00046156,0.00010325,0.00073122,0.00002522,-0.00004
 224,-0.00001129,-0.00008054,0.00013004,0.00003645,0.00002295,0.0000334
 4,-0.00002793,0.00000489,-0.00005198,0.00000059,-0.00003682,0.00021268
 ,0.00018796,-0.00097083,-0.00072848,0.00072846,0.00000520,0.00000334,0
 .00000915,-0.00000195,0.00000957,-0.00000125,-0.00003939,-0.00002460,0
 .00002115,-0.00001205,-0.00000521,0.00001553,-0.00006567,-0.00019493,0
 .00016185,-0.00010087,-0.00009706,0.00008488,0.00003464,-0.00006387,-0
 .00000631,-0.00008558,-0.00000936,0.00004836,-0.00001466,-0.00002097,0
 .00004106,0.00039536,0.00036098,0.00154364,-0.00422049,0.00011669,-0.0
 0341584,-0.12183102,0.00096428,0.23818945,0.00085008,0.00006449,-0.000
 06029,-0.00063456,0.00133144,-0.00042026,-0.00006851,-0.00016650,0.000
 11330,-0.00004034,-0.00000507,-0.00006561,0.00007253,0.00001068,0.0001
 1691,0.00004866,-0.00017984,-0.00029803,0.00002313,0.00000455,-0.00003
 537,0.00000758,-0.00000301,-0.00000565,-0.00005195,-0.00006663,0.00000
 972,-0.00002762,-0.00002909,0.00000651,0.00061378,0.00089059,0.0016642
 0,-0.01184769,-0.00143032,0.01603335,-0.13066411,-0.00300522,0.1226367
 0,0.00005528,0.00002492,-0.00008054,0.00000692,-0.00003143,0.00000239,
 0.00003096,-0.00002075,-0.00000651,-0.00000066,0.00001194,-0.00000644,
 -0.00002106,0.00000767,-0.00003451,0.00001153,-0.00003061,-0.00004725,
 0.00019158,0.00018139,-0.00014274,-0.00000318,0.00000301,0.00000236,-0
 .00000020,0.00000569,0.00000549,0.00000830,0.00000377,-0.00000538,0.00
 000175,0.00000399,-0.00000055,0.00000269,0.00003017,-0.00002340,0.0000
 1541,0.00001530,-0.00001384,-0.00000660,0.00001528,0.00000869,0.000020
 17,0.00000831,-0.00001451,-0.00000107,0.00000551,-0.00000753,-0.000099
 03,-0.00003344,-0.00000971,-0.00009089,-0.00027445,-0.00095444,-0.0015
 1463,-0.00347391,-0.00038298,0.14037717,0.00138117,0.00003447,-0.00048
 877,-0.00207619,0.00127667,0.00099838,-0.00002214,-0.00009251,-0.00001
 029,0.00004217,0.00000440,-0.00008050,0.00000563,0.00008328,0.00002836
 ,0.00001206,-0.00012524,0.00004767,0.00006239,0.00000002,-0.00008208,0
 .00000505,0.00000654,0.00001314,-0.00002862,0.00000467,-0.00000964,0.0
 0000029,0.00000310,0.00000371,0.00080915,0.00090573,0.00114355,-0.0158
 8064,-0.00112542,0.02438762,-0.00243845,-0.04906068,0.00335945,0.00017
 743,0.00010779,-0.00013004,0.00001190,0.00001691,0.00000030,0.00002075
 ,-0.00005640,-0.00001826,0.00000303,-0.00002200,0.00001704,0.00002959,
 -0.00000584,0.00000387,-0.00000800,-0.00003356,-0.00005064,0.00013969,
 0.00006747,-0.00014558,0.00000235,-0.00000035,0.00000109,-0.00000027,-
 0.00000612,-0.00000292,0.00000212,-0.00000050,0.00000069,-0.00000173,-
 0.00001455,-0.00000443,-0.00000659,0.00000995,0.00000013,0.00001031,-0
 .00000083,-0.00001181,-0.00000020,-0.00000331,-0.00000686,0.00000130,-
 0.00000630,0.00000180,-0.00000008,-0.00000059,-0.00000113,-0.00001087,
 -0.00000744,-0.00020907,0.00002132,0.00018797,-0.00066821,-0.00325190,
 -0.00468910,-0.00002762,0.00663204,0.05156102,-0.00134869,-0.00096202,
 0.00063428,0.00211309,-0.00060019,0.00012760,-0.00026478,0.00014239,-0
 .00023760,0.00003771,0.00003878,-0.00000256,0.00000314,-0.00006134,-0.
 00000257,-0.00013776,-0.00008795,0.00031918,0.00000689,0.00006411,-0.0
 0003183,0.00001900,-0.00000997,0.00002196,0.00001671,-0.00000365,0.000
 00524,-0.00000097,0.00000207,0.00000021,-0.00053477,-0.00006047,0.0008
 9164,-0.00062459,0.00141514,0.00006708,0.12250455,0.00494259,-0.232923
 93,-0.00004847,-0.00002312,0.00003645,-0.00002258,0.00001616,0.0000028
 1,-0.00000651,0.00001826,0.00002144,0.00000510,0.00000968,-0.00001497,
 -0.00003270,0.00001832,-0.00001183,0.00000326,0.00000834,0.00002204,-0
 .00010266,-0.00011102,-0.00009983,0.00001173,0.00001016,0.00000186,-0.
 00000260,0.00000628,0.00000089,-0.00000101,-0.00000102,-0.00000041,-0.
 00000279,0.00000742,0.00000246,0.00000400,0.00000463,-0.00001230,0.000
 00746,0.00000711,0.00000737,-0.00000344,0.00000849,-0.00001026,-0.0000
 0763,-0.00000319,0.00000387,0.00000902,0.00000498,0.00000664,-0.000034
 52,0.00004985,-0.00002030,0.00038119,-0.00002542,0.00043925,-0.0003486
 9,0.00008037,0.00114392,-0.13560823,-0.00434217,0.25027109,0.00142601,
 0.00181635,0.00000512,-0.00513280,-0.00323342,-0.00039152,0.00097491,-
 0.00082774,0.00001658,-0.00029132,-0.00025635,0.00000192,0.00013401,0.
 00001821,0.00008672,0.00019062,-0.00000977,0.00023526,-0.00002031,0.00
 009546,-0.00004334,0.00002500,-0.00001850,0.00003490,0.00001829,-0.000
 00519,-0.00000029,0.00000360,0.00000475,0.00000663,0.00107306,-0.00028
 061,0.00032594,0.01164126,-0.01882369,-0.00129921,-0.13417402,0.123687
 87,0.00531200,0.00001027,0.00004407,0.00002522,0.00010380,-0.00011340,
 -0.00000068,0.00000692,-0.00001190,-0.00002258,0.00000136,-0.00000480,
 0.00001982,0.00000058,0.00003588,-0.00000070,-0.00001033,-0.00000575,-
 0.00002076,-0.00000107,-0.00000459,0.00000717,0.00001624,0.00001432,0.
 00000537,-0.00000374,0.00000370,0.00000003,-0.00000254,-0.00000204,-0.
 00000318,-0.00000500,-0.00000243,0.00000047,-0.00000638,0.00000802,-0.
 00001076,0.00000743,0.00000421,0.00001242,-0.00000406,0.00000851,-0.00
 001383,-0.00000836,-0.00000404,0.,0.00001226,0.00000703,0.00000917,-0.
 00006204,0.00022049,0.00000021,-0.00006980,0.00006599,-0.00008975,0.00
 091089,0.00088026,-0.00003895,-0.01023471,0.01420071,-0.00112251,0.144
 64331,-0.00017157,0.00058395,-0.00002875,-0.00516603,-0.00250176,0.000
 18997,0.00148201,-0.00103154,-0.00005869,-0.00058736,-0.00038849,-0.00
 004285,0.00034097,0.00013344,0.00023282,-0.00035945,0.00018220,0.00013
 780,0.00001796,0.00002690,0.00001568,-0.00001071,-0.00000786,-0.000012
 92,-0.00002765,-0.00002480,-0.00001012,-0.00003526,-0.00006653,-0.0000
 2222,0.00175521,0.00068727,0.00063849,0.01605694,-0.02318973,-0.001276
 33,0.12291414,-0.22575441,-0.00766012,-0.00001534,0.00002143,0.0000422
 4,0.00011340,-0.00023661,-0.00001124,0.00003143,0.00001691,-0.00001616
 ,0.00000084,0.00005220,0.00000190,-0.00011073,0.00005536,-0.00006271,-
 0.00001138,0.00000688,-0.00003372,0.00001805,-0.00002017,0.00000683,-0
 .00001291,0.00000644,-0.00000613,0.00000109,0.00003510,0.00001654,0.00
 000798,-0.00000475,0.00000152,-0.00000614,0.00002645,0.00002368,0.0000
 1287,0.00000254,-0.00000795,-0.00000726,0.00000653,-0.00001067,0.00000
 502,0.00002833,-0.00003812,-0.00001814,-0.00001034,0.00001520,-0.00000
 440,0.00003147,0.00000599,-0.00100757,0.00049790,-0.00059907,-0.000104
 75,0.00001343,-0.00006738,0.00007999,0.00100844,0.00045328,-0.00113194
 ,0.00168013,-0.00064880,-0.13344790,0.24716901,-0.00000302,-0.00000863
 ,0.00048250,0.00012578,0.00026221,0.00056784,-0.00010683,0.00004129,0.
 00007811,0.00001989,0.00001932,-0.00001727,0.00007809,-0.00001067,-0.0
 0001799,-0.00011039,0.00006345,-0.00000618,0.00001009,-0.00000242,-0.0
 0002330,0.00000056,-0.00000044,0.00001291,-0.00001210,-0.00002235,0.00
 000143,-0.00002346,-0.00004087,0.00003158,0.00047895,-0.00058896,0.000
 05619,-0.00036932,0.00097135,-0.00133452,0.00511981,-0.00763675,-0.051
 27368,0.00000161,-0.00001060,-0.00001129,-0.00000068,0.00001124,-0.000
 00063,0.00000239,-0.00000030,0.00000281,-0.00000494,0.00000215,-0.0000
 0329,-0.00002171,0.00002956,0.00000429,0.00000349,0.00000009,0.0000110
 7,0.00003341,0.00003078,-0.00003529,0.00000535,0.00000326,0.00000199,-
 0.00000090,0.00000741,-0.00000092,0.00000216,0.00000078,-0.00000465,0.
 00000136,0.00001409,0.00000072,0.00001201,0.00000062,-0.00001212,0.000
 00365,0.00000427,0.00000201,-0.00000684,0.00002256,-0.00001663,0.00000
 596,0.00000740,-0.00000901,0.00001161,0.00001393,-0.00000065,-0.000323
 50,-0.00008103,0.00013653,0.00005207,-0.00010320,-0.00000710,-0.000439
 87,0.00019068,0.00008963,0.01517909,-0.02414743,0.00043353,-0.00565566
 ,0.00807218,0.04853235,0.00093473,0.00063019,0.00028973,-0.00073412,0.
 00081487,0.00019781,-0.00001219,-0.00001218,-0.00012685,0.00001156,0.0
 0000158,0.00003389,-0.00017283,0.00006020,0.00001532,-0.00015024,0.000
 47722,-0.00134494,-0.00006654,-0.00042382,0.00021976,-0.00009973,0.000
 07300,-0.00015903,-0.00004732,0.00001038,0.00002189,0.00002556,-0.0000
 1402,-0.00004257,-0.00165541,-0.00380407,0.00148441,-0.01227364,-0.000
 03418,-0.01481186,-0.15168075,0.00022016,-0.13140150,-0.00002831,0.000
 03067,0.00002295,0.00000136,-0.00000084,-0.00000494,-0.00000066,-0.000
 00303,0.00000510,0.00003346,-0.00002415,0.00000955,0.00003500,-0.00008
 170,0.00001148,0.00001804,-0.00001353,-0.00000323,-0.00000500,0.000051
 55,0.00006214,-0.00006014,-0.00005657,-0.00001006,0.00001087,-0.000013
 19,0.00000192,0.00000571,0.00000638,0.00001321,0.00000809,-0.00001056,
 -0.00000081,0.00000516,-0.00000161,0.00002293,-0.00001201,-0.00000432,
 -0.00003338,0.00001206,-0.00001681,0.00002690,0.00000819,0.00000119,0.
 00000834,-0.00003734,-0.00000536,-0.00001549,0.00039329,-0.00003409,0.
 00035914,0.00015345,-0.00004455,-0.00021856,0.00019113,0.00061226,0.00
 017630,0.01296928,0.00015522,0.01513305,-0.01117334,-0.00060144,-0.014
 06809,0.16339262,0.00150271,-0.00011102,0.00046475,-0.00195099,0.00068
 926,-0.00083229,0.00000481,0.00015216,0.00006592,0.00009069,0.00004924
 ,0.00005032,-0.00011343,0.00027355,-0.00011627,-0.00101089,0.00069595,
 -0.00142635,-0.00011535,-0.00056705,0.00023101,-0.00013939,0.00008509,
 -0.00017860,-0.00005339,0.00001509,0.00003111,0.00002576,-0.00005767,-
 0.00000781,-0.00216622,-0.00528526,0.00127783,-0.01638216,0.00031923,-
 0.02334350,0.00112415,-0.04857726,0.00207453,0.00000689,0.00003673,-0.
 00003344,0.00000480,0.00005220,-0.00000215,-0.00001194,-0.00002200,-0.
 00000967,0.00002415,-0.00005764,0.00002494,0.00005862,-0.00005196,0.00
 004167,0.00002713,-0.00001788,0.00000374,-0.00001286,0.00001987,0.0000
 5524,-0.00006188,-0.00007569,-0.00000824,0.00001018,-0.00001850,-0.000
 00617,0.00000402,0.00000803,0.00001038,0.00000812,-0.00000939,-0.00000
 851,0.00001318,-0.00000297,0.00001572,-0.00000566,-0.00000617,-0.00003
 103,0.00001304,-0.00000053,0.00000305,0.00000159,0.00000195,0.00000732
 ,-0.00002236,0.00000731,-0.00000998,-0.00018952,0.00017863,0.00017265,
 0.00023243,-0.00007514,0.00014592,0.00046079,0.00109261,0.00031751,0.0
 0063148,-0.00069935,0.00008517,0.01593632,0.00096468,0.02288502,0.0020
 5515,0.05099392,0.00136219,0.00125173,0.00052918,-0.00212428,0.0003576
 2,0.00016266,0.00030676,-0.00010004,-0.00014050,-0.00001372,-0.0000370
 2,-0.00000129,-0.00006505,0.00006739,-0.00006846,0.00002371,0.00047052
 ,0.00024143,0.00003316,-0.00006035,0.00006718,-0.00001751,0.00002423,-
 0.00002691,0.00000255,0.00004182,-0.00001494,0.00001140,0.00001381,-0.
 00001184,-0.00009753,-0.00032872,0.00067853,0.00241525,-0.00064185,0.0
 0152107,-0.13109820,0.00011593,-0.21581859,0.00006544,0.00008290,-0.00
 002793,0.00001982,-0.00000190,-0.00000329,-0.00000644,-0.00001704,-0.0
 0001497,0.00000955,-0.00002494,0.00002353,0.00002815,-0.00003406,0.000
 03323,0.00000313,0.00000510,0.00001006,-0.00007771,-0.00011040,0.00001
 307,-0.00001067,-0.00001217,-0.00000880,0.00000397,-0.00000986,-0.0000
 0238,0.00000269,0.00000214,0.00000378,0.00000436,-0.00000597,0.0000003
 5,-0.00000101,-0.00001811,0.00001680,-0.00001373,-0.00001103,-0.000010
 58,0.00000557,-0.00001771,0.00000833,0.00000280,-0.00000295,0.00000497
 ,-0.00001327,-0.00000782,-0.00000736,0.00004897,0.00014486,-0.00007339
 ,0.00013521,0.00016478,0.00051857,-0.00012483,-0.00054160,0.00067727,-
 0.01755496,0.00043067,-0.02109242,0.00260875,0.00075985,0.00232904,0.1
 4412546,-0.00194978,0.23048460\\0.00002708,-0.00000001,-0.00003804,0.0
 0006179,0.00000004,0.00001273,-0.00001892,-0.00002676,-0.00000703,0.00
 001645,-0.00001497,0.00005154,-0.00003937,0.00004439,0.00003027,0.0000
 5960,0.00000022,-0.00003760,-0.00002288,0.00000036,0.00004769,-0.00003
 533,0.00000877,-0.00002778,0.00000058,-0.00000051,-0.00005107,-0.00003
 526,-0.00000867,-0.00002721,-0.00003982,-0.00004406,0.00003051,-0.0000
 1888,0.00002646,-0.00000712,0.00001693,0.00001519,0.00005115,0.0000084
 8,-0.00001096,-0.00000371,0.00001007,0.00000781,-0.00000855,0.00000214
 ,-0.00000371,-0.00000349,0.00000299,-0.00000043,-0.00000572,0.00000417
 ,0.00000749,-0.00000887,-0.00001787,-0.00000450,0.00002341,-0.00000672
 ,0.00000003,0.00000958,0.00000042,0.00000663,-0.00000043,0.00000100,0.
 00000444,0.00000076,0.00000689,0.00000273,-0.00000662,-0.00000648,0.00
 000568,-0.00001155,-0.00000615,-0.00000527,-0.00001152,0.00001105,-0.0
 0000001,0.00001208,0.00000070,-0.00000464,0.00000056,0.00000701,-0.000
 00276,-0.00000678,0.00000010,-0.00000678,-0.00000074,0.00000471,-0.000
 00797,-0.00000868,-0.00001774,0.00000448,0.00002312,0.00000838,0.00001
 102,-0.00000356,0.00000193,0.00000362,-0.00000321,0.00001003,-0.000007
 82,-0.00000844,0.00000294,0.00000047,-0.00000568\\\@


 A ROPE OVER THE TOP OF A FENCE HAS THE SAME LENGTH ON EACH SIDE.
 WEIGHS 1/3 POUND PER FOOT.  ON ONE END HANGS A MONKEY HOLDING A
 BANANA, AND ON THE OTHER END A WEIGHT EQUAL TO THE WEIGHT
 OF THE MONKEY.  THE BANANA WEIGHS TWO OUNCES PER INCH.
 THE ROPE IS AS LONG AS THE AGE OF THE MONKEY, 
 AND THE WEIGHT OF THE MONKEY (IN OUNCES) IS AS MUCH
 AS THE AGE OF THE MONKEY'S MOTHER.  THE COMBINED AGES OF MONKEY
 AND MOTHER ARE THIRTY YEARS.  HALF THE WEIGHT OF THE MONKEY,
  PLUS THE WEIGHT OF THE BANANA, IS ONE FOURTH AS MUCH AS THE WEIGHT
 OF THE WEIGHT AND THE ROPE.
 THE MONKEY'S MOTHER IS HALF AS OLD AS THE MONKEY WILL BE
 WHEN IT IS 3 TIMES AS OLD AS ITS MOTHER WAS WHEN
 SHE WAS HALF AS OLD AS THE MONKEY WILL BE WHEN IT IS
 AS OLD AS ITS MOTHER WILL BE WHEN SHE IS 4 TIMES AS
 OLD AS THE MONKEY WAS WHEN IT WAS TWICE AS OLD AS 
 ITS MOTHER WAS WHEN SHE WAS ONE THIRD AS OLD AS THE
 MONKEY WAS WHEN IT WAS AS OLD AS ITS MOTHER WAS WHEN 
 SHE WAS 3 TIMES AS OLD AS THE MONKEY WAS WHEN IT WAS AS OLD AS ITS
 MOTHER WAS WHEN SHE WAS 3 TIMES AS OLD AS THE MONKEY 
 WAS WHEN IT WAS ONE FOURTH WAS OLD AS IT IS NOW.

 HOW LONG IS THE BANANA?
 Job cpu time:       0 days  0 hours  4 minutes  0.8 seconds.
 Elapsed time:       0 days  0 hours  4 minutes  7.8 seconds.
 File lengths (MBytes):  RWF=    238 Int=      0 D2E=      0 Chk=     16 Scr=      1
 Normal termination of Gaussian 16 at Sat Feb 24 03:12:52 2024.
