 Entering Gaussian System, Link 0=g16
 Input=/Volumes/SSD-PMU3/b3lyp_6-31gd_freq/BITOYSGQNJZELQ-CCIBANHTSA-N_calculating/gaussianinput1.gjf
 Output=/Volumes/SSD-PMU3/b3lyp_6-31gd_freq/BITOYSGQNJZELQ-CCIBANHTSA-N_calculating/gaussianinput1.log
 Initial command:
 /Applications/g16/l1.exe "/Users/macmini_m1_2022/PycharmProjects/sphere_model/sphere_model_lib/Gau-66055.inp" -scrdir="/Users/macmini_m1_2022/PycharmProjects/sphere_model/sphere_model_lib/"
 Entering Link 1 = /Applications/g16/l1.exe PID=     66056.
  
 Copyright (c) 1988,1990,1992,1993,1995,1998,2003,2009,2016,
            Gaussian, Inc.  All Rights Reserved.
  
 This is part of the Gaussian(R) 16 program.  It is based on
 the Gaussian(R) 09 system (copyright 2009, Gaussian, Inc.),
 the Gaussian(R) 03 system (copyright 2003, Gaussian, Inc.),
 the Gaussian(R) 98 system (copyright 1998, Gaussian, Inc.),
 the Gaussian(R) 94 system (copyright 1995, Gaussian, Inc.),
 the Gaussian 92(TM) system (copyright 1992, Gaussian, Inc.),
 the Gaussian 90(TM) system (copyright 1990, Gaussian, Inc.),
 the Gaussian 88(TM) system (copyright 1988, Gaussian, Inc.),
 the Gaussian 86(TM) system (copyright 1986, Carnegie Mellon
 University), and the Gaussian 82(TM) system (copyright 1983,
 Carnegie Mellon University). Gaussian is a federally registered
 trademark of Gaussian, Inc.
  
 This software contains proprietary and confidential information,
 including trade secrets, belonging to Gaussian, Inc.
  
 This software is provided under written license and may be
 used, copied, transmitted, or stored only in accord with that
 written license.
  
 The following legend is applicable only to US Government
 contracts under FAR:
  
                    RESTRICTED RIGHTS LEGEND
  
 Use, reproduction and disclosure by the US Government is
 subject to restrictions as set forth in subparagraphs (a)
 and (c) of the Commercial Computer Software - Restricted
 Rights clause in FAR 52.227-19.
  
 Gaussian, Inc.
 340 Quinnipiac St., Bldg. 40, Wallingford CT 06492
  
  
 ---------------------------------------------------------------
 Warning -- This program may not be used in any manner that
 competes with the business of Gaussian, Inc. or will provide
 assistance to any competitor of Gaussian, Inc.  The licensee
 of this program is prohibited from giving any competitor of
 Gaussian, Inc. access to this program.  By using this program,
 the user acknowledges that Gaussian, Inc. is engaged in the
 business of creating and licensing software in the field of
 computational chemistry and represents and warrants to the
 licensee that it is not a competitor of Gaussian, Inc. and that
 it will not use this program in any manner prohibited above.
 ---------------------------------------------------------------
  

 Cite this work as:
 Gaussian 16, Revision A.03,
 M. J. Frisch, G. W. Trucks, H. B. Schlegel, G. E. Scuseria, 
 M. A. Robb, J. R. Cheeseman, G. Scalmani, V. Barone, 
 G. A. Petersson, H. Nakatsuji, X. Li, M. Caricato, A. V. Marenich, 
 J. Bloino, B. G. Janesko, R. Gomperts, B. Mennucci, H. P. Hratchian, 
 J. V. Ortiz, A. F. Izmaylov, J. L. Sonnenberg, D. Williams-Young, 
 F. Ding, F. Lipparini, F. Egidi, J. Goings, B. Peng, A. Petrone, 
 T. Henderson, D. Ranasinghe, V. G. Zakrzewski, J. Gao, N. Rega, 
 G. Zheng, W. Liang, M. Hada, M. Ehara, K. Toyota, R. Fukuda, 
 J. Hasegawa, M. Ishida, T. Nakajima, Y. Honda, O. Kitao, H. Nakai, 
 T. Vreven, K. Throssell, J. A. Montgomery, Jr., J. E. Peralta, 
 F. Ogliaro, M. J. Bearpark, J. J. Heyd, E. N. Brothers, K. N. Kudin, 
 V. N. Staroverov, T. A. Keith, R. Kobayashi, J. Normand, 
 K. Raghavachari, A. P. Rendell, J. C. Burant, S. S. Iyengar, 
 J. Tomasi, M. Cossi, J. M. Millam, M. Klene, C. Adamo, R. Cammi, 
 J. W. Ochterski, R. L. Martin, K. Morokuma, O. Farkas, 
 J. B. Foresman, and D. J. Fox, Gaussian, Inc., Wallingford CT, 2016.
 
 ******************************************
 Gaussian 16:  EM64M-G16RevA.03 25-Dec-2016
                22-Feb-2024 
 ******************************************
 %nprocshared=10
 Will use up to   10 processors via shared memory.
 %mem=12GB
 %chk= 1.chk
 ---------------------
 # freq b3lyp/6-31g(d)
 ---------------------
 1/10=4,30=1,38=1/1,3;
 2/12=2,17=6,18=5,40=1/2;
 3/5=1,6=6,7=1,11=2,25=1,30=1,71=2,74=-5,140=1/1,2,3;
 4//1;
 5/5=2,38=5,98=1/2;
 8/6=4,10=90,11=11/1;
 11/6=1,8=1,9=11,15=111,16=1/1,2,10;
 10/6=1/2;
 6/7=2,8=2,9=2,10=2,28=1/1;
 7/8=1,10=1,25=1/1,2,3,16;
 1/10=4,30=1/3;
 99//99;
 ---------
 good luck
 ---------
 Symbolic Z-matrix:
 Charge =  0 Multiplicity = 1
 C                    -8.52401   0.63385   6.81993 
 C                    -8.4815    0.45227   5.291 
 C                    -9.86088  -0.02684   4.80335 
 C                    -7.26725  -0.4307    4.8835 
 C                    -7.48021  -1.976     4.86521 
 C                    -6.40697  -2.54959   3.88804 
 C                    -5.55334  -1.32579   3.50307 
 C                    -4.66001  -1.37461   2.25608 
 C                    -3.71102  -2.58531   2.28141 
 C                    -2.71277  -2.57481   1.11841 
 C                    -1.93673  -1.25181   1.06795 
 C                    -2.87199  -0.00506   0.9419 
 C                    -3.64037   0.01224  -0.3995 
 C                    -3.86075  -0.0382    2.16193 
 C                    -4.79003   1.19675   2.26062 
 C                    -5.73951   1.15912   3.47735 
 C                    -6.55725  -0.14251   3.52439 
 C                    -7.55338  -0.18288   2.34516 
 C                    -0.81765  -1.28248   0.00387 
 C                     0.        0.        0. 
 O                     1.21694   0.        0. 
 C                    -0.81713   1.28297   0.00387 
 C                    -1.96862   1.25428   1.03205 
 H                    -8.65432  -0.33073   7.32753 
 H                    -9.35868   1.27905   7.11966 
 H                    -7.59885   1.0859    7.19646 
 H                    -8.30894   1.44841   4.85577 
 H                    -9.89423  -0.20774   3.7257 
 H                    -10.62102   0.72876   5.03539 
 H                    -10.16288  -0.95283   5.30693 
 H                    -6.49384  -0.23082   5.64024 
 H                    -8.48495  -2.23524   4.51869 
 H                    -7.38207  -2.39974   5.87044 
 H                    -6.88214  -2.98998   3.00235 
 H                    -5.80866  -3.34229   4.3487 
 H                    -4.87199  -1.14665   4.35245 
 H                    -5.30073  -1.47339   1.36801 
 H                    -4.29237  -3.51568   2.27031 
 H                    -3.15301  -2.58031   3.23061 
 H                    -2.0056   -3.4082    1.22461 
 H                    -3.23755  -2.73987   0.1669 
 H                    -1.43272  -1.14735   2.04314 
 H                    -4.21251   0.9399   -0.50708 
 H                    -4.34515  -0.81926  -0.48842 
 H                    -2.96808  -0.04658  -1.26114 
 H                    -3.21908  -0.01367   3.05988 
 H                    -5.38374   1.29353   1.34385 
 H                    -4.18563   2.10858   2.32477 
 H                    -6.39377   2.04156   3.45183 
 H                    -5.14475   1.23812   4.39951 
 H                    -8.23903   0.67042   2.39678 
 H                    -7.05087  -0.12997   1.3752 
 H                    -8.15946  -1.09429   2.34324 
 H                    -1.25279  -1.42014  -0.99719 
 H                    -0.13718  -2.12266   0.17662 
 H                    -0.14111   2.12363   0.18733 
 H                    -1.2284    1.41544  -1.00767 
 H                    -2.56587   2.16381   0.90466 
 H                    -1.53756   1.30485   2.04209 
 

 GradGradGradGradGradGradGradGradGradGradGradGradGradGradGradGradGradGrad
 Berny optimization.
 Initialization pass.
 Trust Radius=3.00D-01 FncErr=1.00D-07 GrdErr=1.00D-07 EigMax=2.50D+02 EigMin=1.00D-04
 Number of steps in this run=      2 maximum allowed number of steps=      2.
 GradGradGradGradGradGradGradGradGradGradGradGradGradGradGradGradGradGrad

 Stoichiometry    C22H36O
 Framework group  C1[X(C22H36O)]
 Deg. of freedom   171
 Full point group                 C1      NOp   1
 Largest Abelian subgroup         C1      NOp   1
 Largest concise Abelian subgroup C1      NOp   1
                         Standard orientation:                         
 ---------------------------------------------------------------------
 Center     Atomic      Atomic             Coordinates (Angstroms)
 Number     Number       Type             X           Y           Z
 ---------------------------------------------------------------------
      1          6           0       -5.647514   -1.012043   -1.546010
      2          6           0       -4.776421   -0.882808   -0.282329
      3          6           0       -5.666916   -0.462218    0.900961
      4          6           0       -3.542196    0.021067   -0.564788
      5          6           0       -3.719322    1.557774   -0.362826
      6          6           0       -2.289648    2.128502   -0.105918
      7          6           0       -1.357470    0.917897   -0.306053
      8          6           0        0.072273    0.949627    0.250940
      9          6           0        0.845758    2.188132   -0.233662
     10          6           0        2.317708    2.166658    0.193067
     11          6           0        3.002486    0.866347   -0.248949
     12          6           0        2.295807   -0.411286    0.310750
     13          6           0        2.386709   -0.498264    1.851598
     14          6           0        0.800464   -0.364918   -0.167821
     15          6           0       -0.024251   -1.622724    0.201186
     16          6           0       -1.484926   -1.570829   -0.295884
     17          6           0       -2.202615   -0.293216    0.170797
     18          6           0       -2.391403   -0.323691    1.703092
     19          6           0        4.521210    0.893047    0.030909
     20          6           0        5.215087   -0.363930   -0.470956
     21          8           0        6.233681   -0.327779   -1.135863
     22          6           0        4.536402   -1.669691   -0.086101
     23          6           0        3.009857   -1.639315   -0.315528
     24          1           0       -6.039876   -0.034610   -1.855426
     25          1           0       -6.506434   -1.670886   -1.369980
     26          1           0       -5.076568   -1.422973   -2.386954
     27          1           0       -4.388121   -1.887986   -0.057948
     28          1           0       -5.106228   -0.320156    1.828657
     29          1           0       -6.425782   -1.231496    1.087849
     30          1           0       -6.200557    0.471422    0.686954
     31          1           0       -3.307743   -0.129195   -1.629320
     32          1           0       -4.372201    1.774788    0.487731
     33          1           0       -4.189633    2.019109   -1.237847
     34          1           0       -2.205298    2.523362    0.914454
     35          1           0       -2.045469    2.954232   -0.781996
     36          1           0       -1.250885    0.788862   -1.396808
     37          1           0        0.021322    0.998245    1.348201
     38          1           0        0.359887    3.099862    0.135585
     39          1           0        0.793495    2.232881   -1.332591
     40          1           0        2.846716    3.023895   -0.244218
     41          1           0        2.398129    2.282713    1.283048
     42          1           0        2.891372    0.811040   -1.344631
     43          1           0        1.972020   -1.445695    2.211969
     44          1           0        1.840670    0.308323    2.348873
     45          1           0        3.420538   -0.449632    2.207546
     46          1           0        0.846375   -0.338984   -1.270491
     47          1           0       -0.019020   -1.769079    1.287870
     48          1           0        0.451786   -2.513407   -0.224178
     49          1           0       -2.013512   -2.472672    0.042782
     50          1           0       -1.491216   -1.599857   -1.395640
     51          1           0       -2.988636   -1.194653    1.995720
     52          1           0       -1.439774   -0.395508    2.237298
     53          1           0       -2.902895    0.568689    2.077311
     54          1           0        4.703932    0.982653    1.112105
     55          1           0        4.991419    1.758597   -0.447133
     56          1           0        5.006698   -2.482975   -0.647151
     57          1           0        4.746390   -1.849578    0.978528
     58          1           0        2.584878   -2.570077    0.075952
     59          1           0        2.818298   -1.641729   -1.398047
 ---------------------------------------------------------------------
 Rotational constants (GHZ):           0.6897411           0.1215951           0.1137232
 Standard basis: 6-31G(d) (6D, 7F)
 There are   417 symmetry adapted cartesian basis functions of A   symmetry.
 There are   417 symmetry adapted basis functions of A   symmetry.
   417 basis functions,   788 primitive gaussians,   417 cartesian basis functions
    88 alpha electrons       88 beta electrons
       nuclear repulsion energy      2135.1608661329 Hartrees.
 NAtoms=   59 NActive=   59 NUniq=   59 SFac= 1.00D+00 NAtFMM=   60 NAOKFM=F Big=F
 Integral buffers will be    131072 words long.
 Raffenetti 2 integral format.
 Two-electron integral symmetry is turned on.
 One-electron integrals computed using PRISM.
 NBasis=   417 RedAO= T EigKep=  1.64D-03  NBF=   417
 NBsUse=   417 1.00D-06 EigRej= -1.00D+00 NBFU=   417
 ExpMin= 1.61D-01 ExpMax= 5.48D+03 ExpMxC= 8.25D+02 IAcc=3 IRadAn=         5 AccDes= 0.00D+00
 Harris functional with IExCor=  402 and IRadAn=       5 diagonalized for initial guess.
 HarFok:  IExCor=  402 AccDes= 0.00D+00 IRadAn=         5 IDoV= 1 UseB2=F ITyADJ=14
 ICtDFT=  3500011 ScaDFX=  1.000000  1.000000  1.000000  1.000000
 FoFCou: FMM=F IPFlag=           0 FMFlag=      100000 FMFlg1=           0
         NFxFlg=           0 DoJE=T BraDBF=F KetDBF=T FulRan=T
         wScrn=  0.000000 ICntrl=       500 IOpCl=  0 I1Cent=   200000004 NGrid=           0
         NMat0=    1 NMatS0=      1 NMatT0=    0 NMatD0=    1 NMtDS0=    0 NMtDT0=    0
 Petite list used in FoFCou.
 Requested convergence on RMS density matrix=1.00D-08 within 128 cycles.
 Requested convergence on MAX density matrix=1.00D-06.
 Requested convergence on             energy=1.00D-06.
 No special actions if energy rises.
 Integral accuracy reduced to 1.0D-05 until final iterations.
 Initial convergence to 1.0D-05 achieved.  Increase integral accuracy.
 SCF Done:  E(RB3LYP) =  -935.268783969     A.U. after   14 cycles
            NFock= 14  Conv=0.31D-08     -V/T= 2.0099
 DoSCS=F DFT=T ScalE2(SS,OS)=  1.000000  1.000000
 Range of M.O.s used for correlation:     1   417
 NBasis=   417 NAE=    88 NBE=    88 NFC=     0 NFV=     0
 NROrb=    417 NOA=    88 NOB=    88 NVA=   329 NVB=   329
 Symmetrizing basis deriv contribution to polar:
 IMax=3 JMax=2 DiffMx= 0.00D+00
 G2DrvN: will do    60 centers at a time, making    1 passes.
 Calling FoFCou, ICntrl=  3107 FMM=F I1Cent=   0 AccDes= 0.00D+00.
 End of G2Drv F.D. properties file   721 does not exist.
 End of G2Drv F.D. properties file   722 does not exist.
 End of G2Drv F.D. properties file   788 does not exist.
          IDoAtm=11111111111111111111111111111111111111111111111111
          IDoAtm=111111111
          Differentiating once with respect to electric field.
                with respect to dipole field.
          Differentiating once with respect to nuclear coordinates.
 CalDSu exits because no D1Ps are significant.
          There are   180 degrees of freedom in the 1st order CPHF.  IDoFFX=6 NUNeed=     3.
    177 vectors produced by pass  0 Test12= 2.90D-14 1.00D-09 XBig12= 1.55D+02 2.06D+00.
 AX will form   177 AO Fock derivatives at one time.
    177 vectors produced by pass  1 Test12= 2.90D-14 1.00D-09 XBig12= 1.26D+01 8.75D-01.
    177 vectors produced by pass  2 Test12= 2.90D-14 1.00D-09 XBig12= 1.14D-01 3.42D-02.
    177 vectors produced by pass  3 Test12= 2.90D-14 1.00D-09 XBig12= 3.83D-04 1.66D-03.
    177 vectors produced by pass  4 Test12= 2.90D-14 1.00D-09 XBig12= 3.94D-07 3.85D-05.
     73 vectors produced by pass  5 Test12= 2.90D-14 1.00D-09 XBig12= 2.35D-10 9.36D-07.
      3 vectors produced by pass  6 Test12= 2.90D-14 1.00D-09 XBig12= 1.33D-13 2.44D-08.
 InvSVY:  IOpt=1 It=  1 EMax= 1.95D-14
 Solved reduced A of dimension   961 with   180 vectors.
 Isotropic polarizability for W=    0.000000      221.34 Bohr**3.
 End of Minotr F.D. properties file   721 does not exist.
 End of Minotr F.D. properties file   722 does not exist.
 End of Minotr F.D. properties file   788 does not exist.

 **********************************************************************

            Population analysis using the SCF density.

 **********************************************************************

 Orbital symmetries:
       Occupied  (A) (A) (A) (A) (A) (A) (A) (A) (A) (A) (A) (A)
                 (A) (A) (A) (A) (A) (A) (A) (A) (A) (A) (A) (A)
                 (A) (A) (A) (A) (A) (A) (A) (A) (A) (A) (A) (A)
                 (A) (A) (A) (A) (A) (A) (A) (A) (A) (A) (A) (A)
                 (A) (A) (A) (A) (A) (A) (A) (A) (A) (A) (A) (A)
                 (A) (A) (A) (A) (A) (A) (A) (A) (A) (A) (A) (A)
                 (A) (A) (A) (A) (A) (A) (A) (A) (A) (A) (A) (A)
                 (A) (A) (A) (A)
       Virtual   (A) (A) (A) (A) (A) (A) (A) (A) (A) (A) (A) (A)
                 (A) (A) (A) (A) (A) (A) (A) (A) (A) (A) (A) (A)
                 (A) (A) (A) (A) (A) (A) (A) (A) (A) (A) (A) (A)
                 (A) (A) (A) (A) (A) (A) (A) (A) (A) (A) (A) (A)
                 (A) (A) (A) (A) (A) (A) (A) (A) (A) (A) (A) (A)
                 (A) (A) (A) (A) (A) (A) (A) (A) (A) (A) (A) (A)
                 (A) (A) (A) (A) (A) (A) (A) (A) (A) (A) (A) (A)
                 (A) (A) (A) (A) (A) (A) (A) (A) (A) (A) (A) (A)
                 (A) (A) (A) (A) (A) (A) (A) (A) (A) (A) (A) (A)
                 (A) (A) (A) (A) (A) (A) (A) (A) (A) (A) (A) (A)
                 (A) (A) (A) (A) (A) (A) (A) (A) (A) (A) (A) (A)
                 (A) (A) (A) (A) (A) (A) (A) (A) (A) (A) (A) (A)
                 (A) (A) (A) (A) (A) (A) (A) (A) (A) (A) (A) (A)
                 (A) (A) (A) (A) (A) (A) (A) (A) (A) (A) (A) (A)
                 (A) (A) (A) (A) (A) (A) (A) (A) (A) (A) (A) (A)
                 (A) (A) (A) (A) (A) (A) (A) (A) (A) (A) (A) (A)
                 (A) (A) (A) (A) (A) (A) (A) (A) (A) (A) (A) (A)
                 (A) (A) (A) (A) (A) (A) (A) (A) (A) (A) (A) (A)
                 (A) (A) (A) (A) (A) (A) (A) (A) (A) (A) (A) (A)
                 (A) (A) (A) (A) (A) (A) (A) (A) (A) (A) (A) (A)
                 (A) (A) (A) (A) (A) (A) (A) (A) (A) (A) (A) (A)
                 (A) (A) (A) (A) (A) (A) (A) (A) (A) (A) (A) (A)
                 (A) (A) (A) (A) (A) (A) (A) (A) (A) (A) (A) (A)
                 (A) (A) (A) (A) (A) (A) (A) (A) (A) (A) (A) (A)
                 (A) (A) (A) (A) (A) (A) (A) (A) (A) (A) (A) (A)
                 (A) (A) (A) (A) (A) (A) (A) (A) (A) (A) (A) (A)
                 (A) (A) (A) (A) (A) (A) (A) (A) (A) (A) (A) (A)
                 (A) (A) (A) (A) (A)
 The electronic state is 1-A.
 Alpha  occ. eigenvalues --  -19.12902 -10.26525 -10.20121 -10.19334 -10.18867
 Alpha  occ. eigenvalues --  -10.18781 -10.18764 -10.18611 -10.18611 -10.18537
 Alpha  occ. eigenvalues --  -10.18332 -10.18163 -10.17952 -10.17924 -10.17885
 Alpha  occ. eigenvalues --  -10.17846 -10.17735 -10.17729 -10.17597 -10.17498
 Alpha  occ. eigenvalues --  -10.17137 -10.17046 -10.16958  -1.02785  -0.86626
 Alpha  occ. eigenvalues --   -0.84728  -0.80355  -0.78895  -0.77764  -0.76075
 Alpha  occ. eigenvalues --   -0.74349  -0.72353  -0.70946  -0.68485  -0.67974
 Alpha  occ. eigenvalues --   -0.67270  -0.66708  -0.63297  -0.61153  -0.59306
 Alpha  occ. eigenvalues --   -0.58380  -0.56965  -0.53937  -0.53195  -0.52012
 Alpha  occ. eigenvalues --   -0.51493  -0.47811  -0.47551  -0.47023  -0.46179
 Alpha  occ. eigenvalues --   -0.45702  -0.45335  -0.43958  -0.43752  -0.43491
 Alpha  occ. eigenvalues --   -0.43047  -0.42170  -0.41061  -0.40783  -0.40594
 Alpha  occ. eigenvalues --   -0.40396  -0.38976  -0.38651  -0.38534  -0.38115
 Alpha  occ. eigenvalues --   -0.37963  -0.37264  -0.37114  -0.36459  -0.36290
 Alpha  occ. eigenvalues --   -0.35060  -0.34897  -0.34530  -0.34158  -0.33704
 Alpha  occ. eigenvalues --   -0.33509  -0.33249  -0.32461  -0.32113  -0.31214
 Alpha  occ. eigenvalues --   -0.30831  -0.30584  -0.30249  -0.29919  -0.29154
 Alpha  occ. eigenvalues --   -0.27797  -0.26712  -0.23110
 Alpha virt. eigenvalues --   -0.00853   0.07129   0.07425   0.08044   0.09411
 Alpha virt. eigenvalues --    0.09864   0.10213   0.10430   0.11474   0.12042
 Alpha virt. eigenvalues --    0.12486   0.12868   0.13800   0.14246   0.14311
 Alpha virt. eigenvalues --    0.14568   0.14920   0.15079   0.15736   0.16040
 Alpha virt. eigenvalues --    0.16554   0.16747   0.17238   0.17570   0.18019
 Alpha virt. eigenvalues --    0.18199   0.18426   0.19033   0.19162   0.19667
 Alpha virt. eigenvalues --    0.19904   0.20221   0.20810   0.21558   0.21983
 Alpha virt. eigenvalues --    0.22224   0.22614   0.22938   0.23234   0.23444
 Alpha virt. eigenvalues --    0.24137   0.24399   0.24932   0.25185   0.25509
 Alpha virt. eigenvalues --    0.25836   0.26089   0.26745   0.27073   0.27951
 Alpha virt. eigenvalues --    0.28378   0.28655   0.29272   0.29604   0.30601
 Alpha virt. eigenvalues --    0.30982   0.31866   0.32401   0.33454   0.35214
 Alpha virt. eigenvalues --    0.35700   0.37448   0.38754   0.48979   0.49717
 Alpha virt. eigenvalues --    0.50077   0.50644   0.50821   0.51616   0.52146
 Alpha virt. eigenvalues --    0.53185   0.53986   0.54588   0.55455   0.56178
 Alpha virt. eigenvalues --    0.57293   0.57915   0.58973   0.59282   0.60399
 Alpha virt. eigenvalues --    0.60777   0.60889   0.62612   0.62633   0.63329
 Alpha virt. eigenvalues --    0.64725   0.65620   0.65915   0.66752   0.67287
 Alpha virt. eigenvalues --    0.67924   0.68256   0.69530   0.69960   0.70448
 Alpha virt. eigenvalues --    0.70754   0.72452   0.73023   0.73553   0.73721
 Alpha virt. eigenvalues --    0.74742   0.75948   0.76546   0.76950   0.77813
 Alpha virt. eigenvalues --    0.78584   0.80546   0.81118   0.81876   0.82432
 Alpha virt. eigenvalues --    0.82722   0.83433   0.84346   0.84954   0.85199
 Alpha virt. eigenvalues --    0.85766   0.86338   0.86835   0.87045   0.87480
 Alpha virt. eigenvalues --    0.88386   0.88505   0.88789   0.89216   0.89353
 Alpha virt. eigenvalues --    0.90033   0.90547   0.90727   0.91358   0.91533
 Alpha virt. eigenvalues --    0.92350   0.92407   0.93106   0.93555   0.93820
 Alpha virt. eigenvalues --    0.94268   0.95206   0.95414   0.95779   0.96236
 Alpha virt. eigenvalues --    0.96985   0.97043   0.97815   0.98459   0.98774
 Alpha virt. eigenvalues --    0.99025   1.00347   1.00615   1.01011   1.01578
 Alpha virt. eigenvalues --    1.01769   1.02173   1.03404   1.04014   1.04757
 Alpha virt. eigenvalues --    1.05313   1.06393   1.07571   1.08169   1.10708
 Alpha virt. eigenvalues --    1.11418   1.13631   1.13887   1.16352   1.19094
 Alpha virt. eigenvalues --    1.19431   1.21526   1.22412   1.28695   1.28908
 Alpha virt. eigenvalues --    1.31562   1.32432   1.33447   1.35049   1.36810
 Alpha virt. eigenvalues --    1.39423   1.40696   1.43305   1.45270   1.47283
 Alpha virt. eigenvalues --    1.49741   1.51081   1.52481   1.52670   1.54644
 Alpha virt. eigenvalues --    1.56023   1.59492   1.60074   1.61908   1.62360
 Alpha virt. eigenvalues --    1.64300   1.65022   1.65647   1.68799   1.69661
 Alpha virt. eigenvalues --    1.70154   1.72433   1.73459   1.74835   1.75407
 Alpha virt. eigenvalues --    1.76310   1.76841   1.77565   1.78753   1.80476
 Alpha virt. eigenvalues --    1.80945   1.81530   1.82664   1.83185   1.85077
 Alpha virt. eigenvalues --    1.85760   1.86572   1.87026   1.87846   1.88890
 Alpha virt. eigenvalues --    1.90314   1.90865   1.91191   1.92431   1.93397
 Alpha virt. eigenvalues --    1.94492   1.95101   1.95845   1.96503   1.97662
 Alpha virt. eigenvalues --    1.98007   1.99185   1.99721   2.00370   2.01295
 Alpha virt. eigenvalues --    2.02039   2.02826   2.03249   2.03421   2.04783
 Alpha virt. eigenvalues --    2.05398   2.06102   2.06890   2.08211   2.09261
 Alpha virt. eigenvalues --    2.10405   2.11054   2.11947   2.12548   2.13749
 Alpha virt. eigenvalues --    2.14244   2.16254   2.17726   2.19083   2.19997
 Alpha virt. eigenvalues --    2.21683   2.22565   2.23057   2.25681   2.26016
 Alpha virt. eigenvalues --    2.27642   2.27927   2.29276   2.30143   2.30483
 Alpha virt. eigenvalues --    2.31928   2.33846   2.35211   2.36327   2.37897
 Alpha virt. eigenvalues --    2.38532   2.40057   2.40599   2.41306   2.43032
 Alpha virt. eigenvalues --    2.43831   2.45654   2.46328   2.47570   2.49023
 Alpha virt. eigenvalues --    2.50960   2.52392   2.53423   2.54786   2.55688
 Alpha virt. eigenvalues --    2.57166   2.58885   2.60093   2.61138   2.61766
 Alpha virt. eigenvalues --    2.63095   2.63979   2.66761   2.67744   2.71576
 Alpha virt. eigenvalues --    2.72235   2.75280   2.75755   2.76892   2.78140
 Alpha virt. eigenvalues --    2.81361   2.82798   2.84897   2.87255   2.90032
 Alpha virt. eigenvalues --    2.90529   2.91551   2.95924   2.99275   3.03684
 Alpha virt. eigenvalues --    3.04183   4.00848   4.10402   4.13746   4.20677
 Alpha virt. eigenvalues --    4.23356   4.23655   4.26180   4.28770   4.30082
 Alpha virt. eigenvalues --    4.31987   4.35267   4.39905   4.44963   4.46044
 Alpha virt. eigenvalues --    4.52887   4.56938   4.59894   4.64298   4.66819
 Alpha virt. eigenvalues --    4.71590   4.75928   4.78949   4.82826
          Condensed to atoms (all electrons):
 Mulliken charges:
               1
     1  C   -0.450424
     2  C   -0.077392
     3  C   -0.453982
     4  C   -0.079993
     5  C   -0.294922
     6  C   -0.290930
     7  C   -0.088334
     8  C   -0.100371
     9  C   -0.272388
    10  C   -0.268470
    11  C   -0.104752
    12  C    0.101318
    13  C   -0.484651
    14  C   -0.093920
    15  C   -0.292390
    16  C   -0.276007
    17  C    0.084267
    18  C   -0.478546
    19  C   -0.355793
    20  C    0.453381
    21  O   -0.451126
    22  C   -0.355555
    23  C   -0.289215
    24  H    0.141660
    25  H    0.138294
    26  H    0.139618
    27  H    0.123751
    28  H    0.146278
    29  H    0.137818
    30  H    0.142368
    31  H    0.112517
    32  H    0.139650
    33  H    0.134240
    34  H    0.131854
    35  H    0.134677
    36  H    0.109181
    37  H    0.117250
    38  H    0.136302
    39  H    0.125273
    40  H    0.132949
    41  H    0.130262
    42  H    0.123391
    43  H    0.148419
    44  H    0.151531
    45  H    0.142541
    46  H    0.107984
    47  H    0.136357
    48  H    0.135266
    49  H    0.126394
    50  H    0.122962
    51  H    0.146332
    52  H    0.144779
    53  H    0.146499
    54  H    0.153736
    55  H    0.159204
    56  H    0.162500
    57  H    0.158059
    58  H    0.142243
    59  H    0.138054
 Sum of Mulliken charges =  -0.00000
 Mulliken charges with hydrogens summed into heavy atoms:
               1
     1  C   -0.030851
     2  C    0.046359
     3  C   -0.027518
     4  C    0.032525
     5  C   -0.021032
     6  C   -0.024398
     7  C    0.020847
     8  C    0.016878
     9  C   -0.010812
    10  C   -0.005259
    11  C    0.018639
    12  C    0.101318
    13  C   -0.042161
    14  C    0.014064
    15  C   -0.020767
    16  C   -0.026650
    17  C    0.084267
    18  C   -0.040937
    19  C   -0.042853
    20  C    0.453381
    21  O   -0.451126
    22  C   -0.034995
    23  C   -0.008918
 APT charges:
               1
     1  C    0.072864
     2  C    0.136204
     3  C    0.043465
     4  C    0.075183
     5  C    0.062767
     6  C    0.080208
     7  C    0.072816
     8  C    0.048576
     9  C    0.097563
    10  C    0.103210
    11  C    0.101508
    12  C    0.070651
    13  C    0.001324
    14  C    0.073308
    15  C    0.071351
    16  C    0.104268
    17  C    0.044194
    18  C    0.019707
    19  C   -0.077433
    20  C    0.743905
    21  O   -0.676355
    22  C   -0.047268
    23  C    0.100296
    24  H   -0.021712
    25  H   -0.046105
    26  H   -0.028200
    27  H   -0.071283
    28  H   -0.011683
    29  H   -0.038636
    30  H   -0.018652
    31  H   -0.066434
    32  H   -0.036044
    33  H   -0.050487
    34  H   -0.043698
    35  H   -0.047759
    36  H   -0.060685
    37  H   -0.044470
    38  H   -0.052725
    39  H   -0.042377
    40  H   -0.065013
    41  H   -0.041667
    42  H   -0.057048
    43  H   -0.006805
    44  H   -0.004946
    45  H   -0.023145
    46  H   -0.057253
    47  H   -0.028399
    48  H   -0.051105
    49  H   -0.065553
    50  H   -0.045379
    51  H   -0.019740
    52  H   -0.021888
    53  H   -0.010210
    54  H    0.000509
    55  H   -0.030285
    56  H   -0.033506
    57  H   -0.002237
    58  H   -0.039031
    59  H   -0.038661
 Sum of APT charges =   0.00000
 APT charges with hydrogens summed into heavy atoms:
               1
     1  C   -0.023153
     2  C    0.064921
     3  C   -0.025506
     4  C    0.008749
     5  C   -0.023763
     6  C   -0.011250
     7  C    0.012132
     8  C    0.004106
     9  C    0.002461
    10  C   -0.003470
    11  C    0.044460
    12  C    0.070651
    13  C   -0.033572
    14  C    0.016055
    15  C   -0.008153
    16  C   -0.006663
    17  C    0.044194
    18  C   -0.032131
    19  C   -0.107209
    20  C    0.743905
    21  O   -0.676355
    22  C   -0.083011
    23  C    0.022604
 Electronic spatial extent (au):  <R**2>=           9821.7979
 Charge=             -0.0000 electrons
 Dipole moment (field-independent basis, Debye):
    X=             -2.9569    Y=             -0.0556    Z=              1.5790  Tot=              3.3525
 Quadrupole moment (field-independent basis, Debye-Ang):
   XX=           -174.6915   YY=           -142.2651   ZZ=           -145.3605
   XY=              0.6275   XZ=             10.6168   YZ=             -0.7647
 Traceless Quadrupole moment (field-independent basis, Debye-Ang):
   XX=            -20.5858   YY=             11.8406   ZZ=              8.7452
   XY=              0.6275   XZ=             10.6168   YZ=             -0.7647
 Octapole moment (field-independent basis, Debye-Ang**2):
  XXX=           -202.9978  YYY=             -4.6818  ZZZ=             -3.7895  XYY=             15.7494
  XXY=              5.8556  XXZ=             72.6503  XZZ=              1.4746  YZZ=              1.6239
  YYZ=             -1.4018  XYZ=             -2.4858
 Hexadecapole moment (field-independent basis, Debye-Ang**3):
 XXXX=         -12554.9498 YYYY=          -1660.7777 ZZZZ=           -862.6887 XXXY=             61.6653
 XXXZ=            443.5932 YYYX=            -11.3556 YYYZ=             -3.1816 ZZZX=            -12.2611
 ZZZY=              2.6548 XXYY=          -2025.8238 XXZZ=          -2024.2924 YYZZ=           -415.0791
 XXYZ=            -33.8658 YYXZ=            -15.5759 ZZXY=             -6.5664
 N-N= 2.135160866133D+03 E-N=-6.435264394026D+03  KE= 9.261132369857D+02
  Exact polarizability: 276.333   1.287 205.376  -4.178  -1.150 182.323
 Approx polarizability: 323.683   0.702 305.153 -11.508  -1.296 309.259
 Calling FoFJK, ICntrl=    100127 FMM=F ISym2X=0 I1Cent= 0 IOpClX= 0 NMat=1 NMatS=1 NMatT=0.
 Full mass-weighted force constant matrix:
 Low frequencies ---   -6.3572   -1.5511   -0.0013    0.0003    0.0008    3.7128
 Low frequencies ---   35.1864   49.0925   64.1830
 Diagonal vibrational polarizability:
       13.8839815       8.8812977      34.3002006
 Harmonic frequencies (cm**-1), IR intensities (KM/Mole), Raman scattering
 activities (A**4/AMU), depolarization ratios for plane and unpolarized
 incident light, reduced masses (AMU), force constants (mDyne/A),
 and normal coordinates:
                      1                      2                      3
                      A                      A                      A
 Frequencies --     35.1813                49.0905                64.1740
 Red. masses --      4.9357                 2.7180                 3.2264
 Frc consts  --      0.0036                 0.0039                 0.0078
 IR Inten    --      1.0978                 0.2933                 0.4955
  Atom  AN      X      Y      Z        X      Y      Z        X      Y      Z
     1   6    -0.12   0.06   0.14    -0.06   0.21  -0.07    -0.11   0.17   0.01
     2   6    -0.02   0.01   0.08     0.00  -0.02  -0.08    -0.04   0.02  -0.02
     3   6     0.06  -0.03   0.16     0.06  -0.19   0.02     0.03  -0.01   0.04
     4   6    -0.04   0.01   0.03     0.01  -0.01  -0.00     0.00  -0.05  -0.02
     5   6    -0.02   0.00   0.06    -0.01  -0.02   0.05     0.02  -0.03  -0.14
     6   6    -0.01  -0.00  -0.01    -0.01  -0.01   0.04     0.01  -0.03  -0.11
     7   6    -0.02   0.00  -0.07    -0.00  -0.00   0.01     0.00  -0.05  -0.02
     8   6    -0.01  -0.00  -0.10     0.00   0.01   0.00    -0.01  -0.03   0.01
     9   6    -0.01  -0.01  -0.11    -0.00  -0.00  -0.04    -0.01  -0.03   0.01
    10   6    -0.02   0.00  -0.08     0.01   0.01  -0.07    -0.03  -0.02   0.05
    11   6     0.01   0.00  -0.03     0.00  -0.00  -0.03    -0.01   0.00   0.02
    12   6    -0.02   0.00  -0.06     0.00   0.02   0.03     0.01  -0.03  -0.02
    13   6    -0.07  -0.00  -0.06    -0.00   0.09   0.04     0.06  -0.09  -0.02
    14   6    -0.00   0.00  -0.11     0.01   0.00   0.02    -0.00  -0.04   0.03
    15   6    -0.00  -0.01  -0.16     0.01   0.00   0.02    -0.00  -0.01   0.12
    16   6    -0.01   0.01  -0.12     0.02  -0.00   0.00    -0.01  -0.05   0.12
    17   6     0.00  -0.01  -0.05     0.01  -0.01   0.00    -0.02  -0.02   0.03
    18   6     0.09  -0.05  -0.05     0.01  -0.02   0.01    -0.04   0.07   0.03
    19   6    -0.01   0.01   0.05     0.00   0.00  -0.04    -0.01   0.02   0.01
    20   6     0.04   0.00   0.14    -0.01  -0.02  -0.01     0.02   0.05  -0.01
    21   8     0.14  -0.00   0.28    -0.05  -0.05  -0.06     0.07   0.09   0.07
    22   6    -0.00  -0.00   0.05     0.00   0.00   0.08     0.02   0.02  -0.11
    23   6     0.01   0.01  -0.04     0.00  -0.01   0.10     0.02   0.02  -0.09
    24   1    -0.13   0.08   0.21    -0.05   0.27   0.12    -0.06   0.22   0.11
    25   1    -0.11   0.06   0.18    -0.06   0.20  -0.14    -0.14   0.21  -0.00
    26   1    -0.18   0.09   0.08    -0.10   0.35  -0.16    -0.18   0.20  -0.05
    27   1    -0.02  -0.01   0.02    -0.01  -0.06  -0.26    -0.09  -0.03  -0.11
    28   1     0.13  -0.07   0.13     0.09  -0.37   0.03     0.07  -0.11   0.04
    29   1     0.07  -0.03   0.18     0.04  -0.19  -0.09    -0.01   0.03   0.01
    30   1     0.05  -0.02   0.23     0.09  -0.13   0.20     0.08   0.04   0.13
    31   1    -0.10   0.02   0.01     0.03   0.03  -0.00     0.03  -0.13  -0.01
    32   1     0.02  -0.01   0.10     0.00  -0.05   0.07    -0.02   0.04  -0.19
    33   1    -0.07   0.02   0.10    -0.03   0.00   0.07     0.07  -0.09  -0.20
    34   1     0.04  -0.01  -0.01     0.00  -0.02   0.04    -0.02   0.02  -0.13
    35   1    -0.05   0.01  -0.01    -0.02  -0.00   0.04     0.05  -0.07  -0.14
    36   1    -0.05   0.02  -0.07    -0.01   0.01   0.01     0.03  -0.11  -0.01
    37   1     0.01   0.00  -0.10     0.01   0.03  -0.00    -0.02  -0.02   0.01
    38   1    -0.01  -0.00  -0.14     0.00   0.01  -0.05    -0.03  -0.03   0.01
    39   1     0.02  -0.03  -0.11    -0.02  -0.03  -0.04     0.01  -0.03   0.01
    40   1    -0.01   0.00  -0.07    -0.00  -0.00  -0.11    -0.02  -0.00   0.08
    41   1    -0.05   0.02  -0.07     0.03   0.06  -0.07    -0.05  -0.05   0.05
    42   1     0.07  -0.01  -0.04    -0.01  -0.05  -0.02    -0.02   0.03   0.01
    43   1    -0.09   0.00  -0.07    -0.04   0.12   0.08     0.13  -0.13  -0.05
    44   1    -0.07   0.01  -0.07     0.02   0.13  -0.00     0.00  -0.15   0.02
    45   1    -0.08  -0.02  -0.02    -0.00   0.08   0.03     0.06  -0.03  -0.04
    46   1     0.03   0.03  -0.11     0.02  -0.01   0.02    -0.04  -0.08   0.03
    47   1     0.02  -0.08  -0.17     0.00   0.00   0.02    -0.00   0.07   0.13
    48   1    -0.01   0.01  -0.22     0.02   0.00   0.02    -0.01  -0.05   0.19
    49   1    -0.00  -0.00  -0.14     0.02  -0.01  -0.01    -0.00  -0.03   0.19
    50   1    -0.04   0.05  -0.13     0.03   0.00   0.00    -0.01  -0.13   0.12
    51   1     0.11  -0.06  -0.03     0.08  -0.07   0.01    -0.02   0.08   0.08
    52   1     0.11  -0.05  -0.10     0.02   0.04   0.00    -0.05   0.13   0.05
    53   1     0.10  -0.06   0.00    -0.05  -0.06   0.01    -0.07   0.08  -0.03
    54   1    -0.07   0.04   0.06     0.02   0.04  -0.05    -0.01   0.01   0.01
    55   1     0.02  -0.00   0.06     0.00  -0.01  -0.08    -0.03   0.04   0.03
    56   1     0.03   0.01   0.06    -0.00  -0.03   0.13     0.03   0.06  -0.17
    57   1    -0.06  -0.04   0.06     0.01   0.07   0.09     0.03  -0.06  -0.12
    58   1    -0.01   0.00  -0.07     0.01   0.01   0.15     0.03  -0.01  -0.14
    59   1     0.07   0.02  -0.05    -0.01  -0.08   0.10     0.01   0.08  -0.09
                      4                      5                      6
                      A                      A                      A
 Frequencies --     66.1710                98.5273               110.0985
 Red. masses --      4.6926                 3.1748                 3.0301
 Frc consts  --      0.0121                 0.0182                 0.0216
 IR Inten    --      1.8559                 0.0565                 0.4832
  Atom  AN      X      Y      Z        X      Y      Z        X      Y      Z
     1   6     0.11  -0.03  -0.12    -0.05   0.08  -0.01     0.06   0.04  -0.07
     2   6     0.01  -0.03  -0.06    -0.08   0.07   0.01    -0.02   0.03  -0.01
     3   6    -0.08  -0.08  -0.11    -0.08   0.20  -0.04    -0.09   0.03  -0.06
     4   6    -0.00   0.02   0.05    -0.01  -0.02  -0.00    -0.01   0.03   0.07
     5   6    -0.03   0.01   0.12     0.04  -0.01  -0.02     0.00   0.01   0.19
     6   6    -0.03   0.02   0.11     0.03  -0.06   0.11     0.05   0.00  -0.03
     7   6    -0.02   0.03   0.08    -0.00  -0.06   0.05     0.00  -0.04  -0.03
     8   6    -0.00   0.02   0.04     0.00  -0.07   0.04     0.01  -0.04  -0.07
     9   6    -0.02   0.01  -0.02    -0.04  -0.05   0.02     0.00  -0.06  -0.15
    10   6     0.01   0.01  -0.10    -0.02  -0.01  -0.07    -0.03  -0.02  -0.07
    11   6    -0.02  -0.00  -0.11    -0.02  -0.00  -0.06     0.01  -0.03   0.02
    12   6    -0.00   0.01  -0.06     0.02  -0.00   0.01     0.00  -0.04  -0.00
    13   6     0.07   0.03  -0.06     0.04   0.07   0.01    -0.03  -0.05  -0.00
    14   6    -0.03   0.02   0.02     0.02  -0.05   0.01     0.01  -0.06  -0.03
    15   6    -0.02   0.03   0.09     0.02  -0.06  -0.03    -0.01  -0.04   0.01
    16   6    -0.02   0.02   0.09     0.01  -0.05  -0.03    -0.03  -0.03   0.05
    17   6    -0.02   0.02   0.08    -0.01  -0.07   0.00    -0.00  -0.01   0.04
    18   6    -0.05   0.03   0.07    -0.04  -0.14  -0.00     0.03   0.04   0.04
    19   6    -0.01  -0.00  -0.15    -0.01   0.05  -0.09    -0.01   0.01   0.12
    20   6     0.03  -0.04  -0.00     0.03   0.05  -0.01     0.01   0.06   0.03
    21   8     0.18  -0.08   0.22     0.05   0.04   0.01    -0.04   0.13  -0.04
    22   6    -0.04  -0.03  -0.09     0.06   0.05   0.05     0.05   0.02   0.00
    23   6    -0.04   0.01  -0.09     0.06  -0.01   0.06     0.05  -0.02   0.00
    24   1     0.10  -0.04  -0.13     0.06   0.11  -0.08     0.10   0.05  -0.10
    25   1     0.12  -0.07  -0.20    -0.13   0.18   0.00     0.03   0.06  -0.13
    26   1     0.18   0.00  -0.09    -0.07  -0.02   0.03     0.11   0.03  -0.03
    27   1     0.03  -0.02  -0.05    -0.16   0.05   0.07    -0.04   0.02   0.01
    28   1    -0.14  -0.10  -0.06    -0.09   0.25  -0.04    -0.14  -0.01  -0.02
    29   1    -0.08  -0.10  -0.18    -0.12   0.25   0.00    -0.12   0.05  -0.12
    30   1    -0.08  -0.08  -0.11    -0.04   0.21  -0.12    -0.05   0.05  -0.07
    31   1     0.04   0.09   0.05    -0.02  -0.05  -0.00    -0.01   0.11   0.06
    32   1    -0.01  -0.04   0.15    -0.03   0.03  -0.09     0.16  -0.06   0.33
    33   1    -0.07   0.04   0.16     0.14   0.00  -0.07    -0.17   0.07   0.31
    34   1    -0.02   0.01   0.11    -0.02  -0.15   0.15     0.18   0.10  -0.08
    35   1    -0.05   0.03   0.11     0.08  -0.00   0.19    -0.01  -0.07  -0.15
    36   1    -0.05   0.04   0.08    -0.01  -0.02   0.05    -0.03  -0.08  -0.02
    37   1     0.04   0.04   0.04     0.02  -0.08   0.04     0.04   0.02  -0.07
    38   1     0.01   0.02  -0.01    -0.05  -0.06   0.05    -0.03  -0.04  -0.25
    39   1    -0.08  -0.00  -0.02    -0.11  -0.04   0.02     0.05  -0.16  -0.16
    40   1    -0.01  -0.00  -0.15    -0.07  -0.01  -0.13    -0.01  -0.04  -0.07
    41   1     0.07   0.03  -0.11     0.04   0.03  -0.08    -0.10   0.03  -0.07
    42   1    -0.05  -0.02  -0.10    -0.04  -0.04  -0.05     0.08  -0.05   0.01
    43   1     0.10   0.03  -0.03     0.01   0.10   0.06    -0.07  -0.04  -0.02
    44   1     0.09   0.03  -0.05     0.07   0.11  -0.02    -0.01  -0.04  -0.01
    45   1     0.09   0.04  -0.11     0.04   0.06  -0.01    -0.04  -0.09   0.02
    46   1    -0.09  -0.00   0.02     0.02  -0.02   0.01     0.02  -0.09  -0.03
    47   1    -0.01   0.08   0.09     0.02  -0.09  -0.03     0.01  -0.01   0.01
    48   1    -0.03   0.01   0.12     0.02  -0.05  -0.05    -0.03  -0.05   0.02
    49   1    -0.02   0.02   0.11     0.02  -0.07  -0.07    -0.03  -0.01   0.10
    50   1    -0.02  -0.00   0.10     0.02  -0.02  -0.03    -0.07  -0.06   0.05
    51   1    -0.04   0.02   0.06    -0.09  -0.13  -0.06    -0.01   0.08   0.07
    52   1    -0.06   0.05   0.09    -0.05  -0.22   0.01     0.03   0.01   0.03
    53   1    -0.08   0.02   0.06    -0.01  -0.14   0.04     0.08   0.08   0.03
    54   1     0.01   0.10  -0.16     0.01   0.13  -0.10    -0.08  -0.08   0.14
    55   1    -0.01  -0.04  -0.22    -0.05   0.04  -0.16    -0.01   0.05   0.21
    56   1    -0.05  -0.01  -0.12     0.08   0.03   0.09     0.07   0.05  -0.02
    57   1    -0.05  -0.09  -0.10     0.08   0.11   0.06     0.06   0.00  -0.00
    58   1    -0.06   0.01  -0.10     0.09  -0.00   0.12     0.07  -0.03  -0.00
    59   1    -0.05   0.04  -0.09     0.05  -0.07   0.06     0.05  -0.02  -0.00
                      7                      8                      9
                      A                      A                      A
 Frequencies --    141.1593               160.7283               183.1652
 Red. masses --      1.9728                 1.9310                 2.7289
 Frc consts  --      0.0232                 0.0294                 0.0539
 IR Inten    --      0.4290                 0.4207                 0.0286
  Atom  AN      X      Y      Z        X      Y      Z        X      Y      Z
     1   6    -0.00  -0.02   0.01     0.02   0.00  -0.01    -0.06  -0.08   0.04
     2   6     0.02  -0.00  -0.00     0.01  -0.00   0.00     0.01   0.03  -0.02
     3   6     0.03  -0.01   0.01    -0.00  -0.00  -0.00     0.04  -0.05   0.02
     4   6     0.01  -0.00  -0.02     0.01  -0.01   0.00    -0.04   0.09  -0.06
     5   6     0.01   0.01  -0.08     0.01   0.01  -0.06    -0.00   0.09   0.04
     6   6    -0.02  -0.00   0.12    -0.02  -0.01   0.13     0.02   0.04   0.05
     7   6    -0.01   0.03   0.04    -0.01   0.02   0.03    -0.00   0.03  -0.02
     8   6     0.01   0.02   0.00     0.01   0.01  -0.04    -0.00  -0.03  -0.01
     9   6     0.01  -0.02  -0.10     0.01  -0.00  -0.07     0.01  -0.05  -0.02
    10   6     0.01   0.01  -0.10    -0.00   0.00  -0.01    -0.01  -0.06   0.01
    11   6     0.02  -0.02   0.01     0.01   0.01  -0.01    -0.02  -0.06   0.00
    12   6    -0.00  -0.00   0.03     0.00  -0.00  -0.06     0.01  -0.06   0.04
    13   6     0.01   0.00   0.02    -0.03  -0.07  -0.06     0.02  -0.06   0.04
    14   6    -0.00   0.01   0.03     0.00  -0.00  -0.05    -0.01  -0.06   0.04
    15   6    -0.01   0.01   0.03     0.01   0.02   0.02    -0.07  -0.01   0.08
    16   6     0.01   0.02  -0.01     0.00   0.00   0.04    -0.03   0.04  -0.05
    17   6    -0.00   0.01   0.00    -0.00   0.01   0.03    -0.04   0.05  -0.08
    18   6    -0.03  -0.03  -0.00    -0.02   0.01   0.03    -0.08   0.04  -0.08
    19   6     0.00  -0.04   0.11     0.01   0.01   0.03    -0.01   0.02  -0.08
    20   6    -0.01   0.01   0.01     0.00  -0.01   0.06     0.04   0.04  -0.04
    21   8    -0.01   0.06   0.00    -0.06  -0.03  -0.03     0.06   0.06  -0.01
    22   6    -0.01  -0.03  -0.10     0.01   0.01   0.12     0.08   0.04   0.02
    23   6    -0.03  -0.02   0.01     0.04   0.03  -0.08     0.06  -0.05   0.06
    24   1    -0.03  -0.03   0.02     0.02   0.00  -0.01    -0.29  -0.15   0.12
    25   1     0.01  -0.03   0.03     0.01   0.00  -0.02     0.10  -0.27   0.08
    26   1    -0.01  -0.01   0.00     0.02   0.00  -0.00    -0.04   0.08  -0.03
    27   1     0.03   0.00  -0.00     0.00  -0.00   0.00     0.10   0.06  -0.03
    28   1     0.04   0.01  -0.00    -0.01  -0.01  -0.00     0.05  -0.05   0.01
    29   1     0.05  -0.02   0.03    -0.00  -0.01  -0.01     0.08  -0.09   0.02
    30   1     0.01  -0.02   0.01    -0.00  -0.01  -0.00    -0.01  -0.07   0.07
    31   1     0.02  -0.04  -0.02     0.03  -0.05   0.01    -0.07   0.14  -0.07
    32   1    -0.13   0.06  -0.20    -0.12   0.06  -0.17     0.01   0.05   0.06
    33   1     0.16  -0.01  -0.17     0.16  -0.02  -0.15    -0.00   0.15   0.08
    34   1    -0.11  -0.14   0.18    -0.09  -0.16   0.19     0.05  -0.02   0.07
    35   1     0.02   0.09   0.25     0.02   0.09   0.27     0.02   0.08   0.10
    36   1    -0.03   0.08   0.03    -0.07   0.06   0.02    -0.00   0.08  -0.03
    37   1     0.05   0.08   0.00     0.06   0.02  -0.04    -0.01  -0.01  -0.01
    38   1     0.02   0.02  -0.18    -0.00   0.01  -0.11     0.01  -0.04  -0.05
    39   1     0.01  -0.12  -0.11     0.04  -0.04  -0.07     0.04  -0.07  -0.02
    40   1     0.02  -0.03  -0.17     0.01   0.01   0.03     0.01  -0.06   0.04
    41   1     0.01   0.11  -0.11    -0.05  -0.02  -0.01    -0.03  -0.09   0.02
    42   1     0.09  -0.07   0.01     0.05   0.03  -0.02    -0.07  -0.07   0.01
    43   1    -0.25   0.13   0.06     0.26  -0.22  -0.14     0.16  -0.13   0.02
    44   1     0.25   0.17   0.02    -0.30  -0.27  -0.03    -0.11  -0.15   0.05
    45   1     0.03  -0.28  -0.00    -0.06   0.25  -0.01     0.01   0.10   0.04
    46   1    -0.00  -0.01   0.03    -0.03  -0.03  -0.05    -0.00  -0.11   0.04
    47   1    -0.05   0.03   0.03     0.02   0.08   0.03    -0.16   0.07   0.09
    48   1     0.00   0.01   0.06    -0.01  -0.01   0.06    -0.07  -0.06   0.18
    49   1    -0.00   0.01  -0.05     0.01   0.01   0.06    -0.09   0.04  -0.12
    50   1     0.05   0.05  -0.01    -0.01  -0.01   0.04     0.07   0.07  -0.06
    51   1     0.05  -0.08  -0.02     0.05  -0.03   0.03     0.01  -0.02  -0.09
    52   1    -0.03   0.06   0.01    -0.02   0.09   0.04    -0.10   0.16  -0.04
    53   1    -0.11  -0.08  -0.00    -0.09  -0.03   0.01    -0.20  -0.02  -0.11
    54   1    -0.06  -0.14   0.13    -0.02   0.03   0.03     0.04   0.09  -0.10
    55   1     0.03   0.00   0.22     0.02  -0.00   0.02    -0.09   0.03  -0.15
    56   1    -0.05   0.03  -0.22     0.07  -0.03   0.24     0.10   0.02   0.05
    57   1     0.07  -0.14  -0.14    -0.13   0.10   0.16     0.12   0.09   0.02
    58   1    -0.00  -0.01   0.06    -0.02   0.00  -0.20     0.12  -0.06   0.10
    59   1    -0.11  -0.04   0.03     0.18   0.11  -0.10     0.04  -0.10   0.06
                     10                     11                     12
                      A                      A                      A
 Frequencies --    193.6731               205.8692               225.0424
 Red. masses --      3.2608                 2.3988                 2.1690
 Frc consts  --      0.0721                 0.0599                 0.0647
 IR Inten    --      0.1072                 0.0796                 0.1588
  Atom  AN      X      Y      Z        X      Y      Z        X      Y      Z
     1   6     0.14   0.01  -0.02     0.05   0.03  -0.00     0.04   0.03  -0.02
     2   6     0.11   0.02  -0.01     0.06   0.01  -0.01    -0.03  -0.02   0.03
     3   6     0.13  -0.03   0.02     0.11   0.07   0.00    -0.07  -0.02   0.00
     4   6     0.07   0.05   0.01     0.05  -0.00  -0.03    -0.02  -0.03   0.04
     5   6     0.07   0.06  -0.08     0.03  -0.02   0.06    -0.04  -0.02  -0.05
     6   6     0.07   0.02   0.02     0.03  -0.01   0.01    -0.06  -0.00   0.04
     7   6     0.03  -0.01   0.03     0.02  -0.01  -0.02    -0.03   0.03  -0.02
     8   6    -0.01  -0.06   0.02    -0.01   0.02  -0.01    -0.01   0.03  -0.05
     9   6    -0.06  -0.02   0.06    -0.02  -0.01  -0.08     0.04  -0.00  -0.05
    10   6    -0.05  -0.03  -0.03    -0.06   0.02  -0.00     0.00  -0.03   0.07
    11   6    -0.09  -0.04  -0.05    -0.06   0.01   0.02     0.00  -0.02   0.05
    12   6    -0.06  -0.05  -0.02    -0.03   0.01   0.05    -0.01  -0.01   0.05
    13   6    -0.09  -0.01  -0.02     0.01  -0.02   0.04    -0.07   0.00   0.06
    14   6    -0.04  -0.06  -0.04    -0.02  -0.00   0.07     0.00   0.01  -0.02
    15   6    -0.03  -0.08  -0.09     0.00  -0.00   0.10     0.00  -0.00  -0.06
    16   6    -0.07  -0.01   0.04     0.06  -0.02  -0.04    -0.01   0.02  -0.01
    17   6     0.02   0.03   0.05     0.04  -0.03  -0.05     0.01   0.02   0.02
    18   6     0.07   0.07   0.06     0.06  -0.08  -0.05     0.08   0.05   0.03
    19   6    -0.11   0.02  -0.06    -0.06   0.02  -0.03     0.02  -0.01  -0.05
    20   6    -0.06   0.04   0.00    -0.07   0.00  -0.01     0.03   0.01  -0.08
    21   8    -0.03   0.08   0.04    -0.04  -0.01   0.04     0.08   0.01  -0.00
    22   6    -0.02   0.02   0.02    -0.09  -0.00  -0.05     0.03   0.01  -0.08
    23   6    -0.02  -0.05   0.03    -0.08   0.03  -0.02    -0.01  -0.03   0.09
    24   1     0.10  -0.00  -0.01     0.20   0.07  -0.09     0.28   0.09  -0.15
    25   1     0.16  -0.04  -0.06    -0.05   0.17   0.04    -0.12   0.23  -0.04
    26   1     0.18   0.06  -0.01     0.01  -0.12   0.04     0.03  -0.16   0.06
    27   1     0.15   0.03  -0.03     0.04   0.01  -0.00    -0.05  -0.03   0.03
    28   1     0.16   0.00  -0.01     0.16   0.19  -0.05    -0.09  -0.03   0.02
    29   1     0.17  -0.06   0.05     0.16   0.05   0.13    -0.07  -0.03  -0.02
    30   1     0.09  -0.05   0.04     0.04   0.02  -0.05    -0.06  -0.02  -0.01
    31   1     0.11   0.01   0.03     0.03   0.04  -0.04    -0.01  -0.07   0.05
    32   1    -0.01   0.14  -0.16     0.09  -0.08   0.12    -0.12   0.03  -0.12
    33   1     0.19   0.02  -0.16    -0.03   0.02   0.12     0.05  -0.07  -0.12
    34   1     0.03  -0.02   0.04     0.07  -0.01   0.00    -0.10  -0.09   0.08
    35   1     0.14   0.03   0.06     0.01  -0.02  -0.01    -0.07   0.06   0.12
    36   1     0.02  -0.02   0.03     0.03   0.01  -0.02    -0.07   0.04  -0.03
    37   1     0.01  -0.11   0.02    -0.02   0.09  -0.01    -0.00   0.05  -0.05
    38   1    -0.07  -0.06   0.16    -0.06   0.01  -0.17     0.03   0.02  -0.12
    39   1    -0.14   0.05   0.07     0.03  -0.10  -0.09     0.13  -0.04  -0.06
    40   1    -0.06  -0.04  -0.07    -0.03   0.02   0.02     0.05  -0.01   0.17
    41   1     0.02  -0.02  -0.04    -0.12   0.02   0.00    -0.09  -0.10   0.09
    42   1    -0.11  -0.05  -0.05    -0.09  -0.00   0.03    -0.05  -0.02   0.05
    43   1    -0.19   0.05   0.00     0.28  -0.16   0.01     0.13  -0.10   0.03
    44   1    -0.01   0.06  -0.05    -0.23  -0.20   0.08    -0.28  -0.13   0.05
    45   1    -0.09  -0.10  -0.01    -0.01   0.27   0.04    -0.10   0.23   0.11
    46   1    -0.04  -0.01  -0.04    -0.02  -0.05   0.07     0.05   0.01  -0.01
    47   1     0.05  -0.17  -0.10    -0.08   0.05   0.11     0.04  -0.06  -0.07
    48   1    -0.07  -0.04  -0.20     0.05  -0.01   0.18    -0.01   0.02  -0.13
    49   1    -0.09   0.02   0.10     0.02  -0.03  -0.12    -0.01   0.02  -0.00
    50   1    -0.16  -0.04   0.04     0.16   0.01  -0.05    -0.05   0.04  -0.01
    51   1     0.00   0.14   0.11     0.11  -0.13  -0.07     0.11   0.05   0.08
    52   1     0.09  -0.01   0.01     0.06  -0.04  -0.05     0.11   0.09  -0.01
    53   1     0.18   0.13   0.07     0.01  -0.12  -0.02     0.07   0.05   0.03
    54   1    -0.12   0.07  -0.06    -0.01   0.06  -0.04     0.10  -0.01  -0.07
    55   1    -0.14   0.03  -0.08    -0.07  -0.00  -0.08    -0.03   0.00  -0.08
    56   1     0.02   0.03   0.04    -0.10   0.02  -0.09    -0.03   0.01  -0.13
    57   1     0.00   0.06   0.02    -0.07  -0.04  -0.06     0.14  -0.00  -0.10
    58   1     0.02  -0.04   0.09    -0.08   0.02  -0.04     0.06  -0.01   0.21
    59   1    -0.03  -0.12   0.03    -0.11   0.07  -0.01    -0.12  -0.13   0.11
                     13                     14                     15
                      A                      A                      A
 Frequencies --    232.2957               245.0456               252.2868
 Red. masses --      1.1565                 1.1929                 2.3358
 Frc consts  --      0.0368                 0.0422                 0.0876
 IR Inten    --      0.0462                 0.0938                 0.0171
  Atom  AN      X      Y      Z        X      Y      Z        X      Y      Z
     1   6    -0.02   0.02  -0.01     0.05   0.00   0.00    -0.06  -0.01  -0.00
     2   6     0.01  -0.01  -0.02     0.00  -0.01   0.03    -0.00  -0.00  -0.04
     3   6     0.03  -0.02   0.00    -0.00  -0.00   0.02     0.03   0.05  -0.04
     4   6    -0.01  -0.00  -0.02    -0.00  -0.01   0.00     0.01  -0.02  -0.03
     5   6    -0.03  -0.01   0.02    -0.00  -0.00   0.01     0.03  -0.02   0.07
     6   6    -0.03   0.01   0.01    -0.00  -0.00   0.01     0.03  -0.06   0.11
     7   6    -0.01   0.01   0.00     0.00   0.01  -0.03     0.01  -0.03  -0.07
     8   6    -0.00  -0.00   0.01    -0.00  -0.01  -0.02     0.01  -0.03  -0.09
     9   6     0.00  -0.00   0.02    -0.00   0.01   0.02     0.01   0.01   0.02
    10   6     0.01  -0.01  -0.01    -0.01  -0.01   0.03    -0.01   0.00   0.11
    11   6     0.01  -0.01  -0.01    -0.02   0.00  -0.01     0.00   0.04   0.01
    12   6     0.01  -0.01  -0.01    -0.00  -0.01  -0.02    -0.01   0.03  -0.03
    13   6     0.01  -0.01  -0.01     0.00  -0.02  -0.02    -0.08   0.11  -0.03
    14   6    -0.00  -0.00  -0.00    -0.00  -0.01  -0.01     0.01  -0.02  -0.07
    15   6    -0.01   0.00   0.01    -0.02   0.01   0.04     0.03  -0.00   0.04
    16   6    -0.01   0.00   0.01     0.01   0.01  -0.03     0.01  -0.07   0.07
    17   6    -0.01   0.01  -0.01     0.01   0.00  -0.03     0.02  -0.03  -0.04
    18   6    -0.02   0.03  -0.01    -0.00   0.02  -0.03     0.03   0.09  -0.03
    19   6     0.01  -0.00   0.01    -0.01   0.01  -0.02     0.01  -0.01   0.00
    20   6     0.02   0.00   0.01    -0.00   0.00   0.01    -0.01  -0.01  -0.02
    21   8     0.01   0.01  -0.01    -0.01  -0.00   0.00     0.01  -0.02   0.01
    22   6     0.03   0.00   0.02     0.01   0.01   0.04    -0.02  -0.01  -0.04
    23   6     0.02  -0.01  -0.00     0.02  -0.00  -0.02    -0.02   0.01   0.01
    24   1     0.23   0.08  -0.14     0.33   0.06  -0.19    -0.23  -0.05   0.11
    25   1    -0.19   0.26   0.08    -0.14   0.26   0.04     0.05  -0.16   0.00
    26   1    -0.12  -0.24   0.05     0.00  -0.28   0.11    -0.06   0.15  -0.08
    27   1     0.02  -0.01  -0.04    -0.01  -0.01   0.04    -0.02  -0.00  -0.03
    28   1     0.11   0.41  -0.11    -0.03  -0.22   0.08     0.06   0.15  -0.07
    29   1     0.32  -0.23   0.31    -0.14   0.09  -0.12     0.07   0.03   0.06
    30   1    -0.31  -0.25  -0.16     0.16   0.11   0.12    -0.02   0.01  -0.10
    31   1    -0.00   0.02  -0.02    -0.03  -0.00  -0.00    -0.00   0.03  -0.04
    32   1    -0.02  -0.06   0.04     0.00  -0.00   0.01     0.02  -0.07   0.08
    33   1    -0.06   0.01   0.05    -0.01  -0.00   0.01     0.04   0.04   0.10
    34   1    -0.03   0.01   0.01     0.01  -0.03   0.02     0.07  -0.22   0.17
    35   1    -0.05   0.01   0.01    -0.01   0.02   0.02     0.01   0.05   0.24
    36   1    -0.01   0.02   0.00    -0.00   0.02  -0.03    -0.05   0.03  -0.08
    37   1    -0.00  -0.01   0.01    -0.01  -0.02  -0.02    -0.01  -0.07  -0.09
    38   1     0.01  -0.00   0.04    -0.01  -0.01   0.06    -0.03  -0.03   0.05
    39   1    -0.01   0.02   0.02     0.00   0.05   0.02     0.08   0.08   0.02
    40   1     0.00  -0.01  -0.02    -0.00   0.00   0.06     0.00   0.05   0.22
    41   1     0.03  -0.01  -0.01    -0.01  -0.04   0.03    -0.08  -0.10   0.12
    42   1     0.02  -0.01  -0.01    -0.03   0.02  -0.01    -0.01   0.11   0.01
    43   1    -0.07   0.02  -0.01    -0.23   0.09  -0.01    -0.22   0.19   0.03
    44   1     0.08   0.04  -0.01     0.21   0.12  -0.02     0.02   0.22  -0.10
    45   1     0.02  -0.10  -0.02     0.02  -0.27  -0.04    -0.08  -0.02  -0.00
    46   1    -0.01  -0.00  -0.00    -0.02  -0.05  -0.01     0.00  -0.08  -0.07
    47   1    -0.01   0.02   0.01    -0.08   0.08   0.05     0.04   0.10   0.06
    48   1    -0.01  -0.00   0.02    -0.01  -0.02   0.12     0.03  -0.04   0.12
    49   1    -0.01   0.01   0.03    -0.01   0.01  -0.06     0.03  -0.04   0.20
    50   1    -0.02  -0.02   0.02     0.05   0.03  -0.03    -0.02  -0.21   0.07
    51   1    -0.11   0.09  -0.01     0.22  -0.12   0.00     0.10   0.07   0.05
    52   1    -0.03  -0.07  -0.01     0.00   0.30  -0.00     0.04   0.21  -0.03
    53   1     0.07   0.09  -0.01    -0.25  -0.10  -0.08    -0.03   0.08  -0.10
    54   1    -0.01  -0.01   0.01    -0.01   0.03  -0.03     0.01  -0.04   0.00
    55   1     0.01   0.00   0.01    -0.02   0.00  -0.05     0.03  -0.00   0.03
    56   1     0.04  -0.01   0.04     0.03  -0.00   0.07    -0.05  -0.00  -0.07
    57   1     0.01   0.02   0.03    -0.02   0.04   0.05     0.01  -0.03  -0.05
    58   1     0.02  -0.01  -0.01     0.01  -0.01  -0.04    -0.02   0.03   0.05
    59   1     0.05  -0.01  -0.01     0.05   0.01  -0.02    -0.05  -0.03   0.01
                     16                     17                     18
                      A                      A                      A
 Frequencies --    259.2967               279.0492               283.2628
 Red. masses --      1.6806                 2.3334                 1.9304
 Frc consts  --      0.0666                 0.1071                 0.0913
 IR Inten    --      0.2026                 0.1571                 0.1290
  Atom  AN      X      Y      Z        X      Y      Z        X      Y      Z
     1   6     0.00  -0.01   0.01    -0.05   0.01  -0.02    -0.05  -0.03   0.00
     2   6     0.01  -0.00   0.01    -0.03  -0.03  -0.03    -0.03  -0.00  -0.01
     3   6     0.02  -0.01   0.02    -0.01   0.08  -0.05    -0.03  -0.04   0.00
     4   6     0.00   0.00  -0.02     0.00  -0.05  -0.00    -0.02   0.02  -0.02
     5   6     0.01   0.00   0.02    -0.06  -0.07   0.02     0.01   0.02   0.01
     6   6     0.02  -0.00  -0.01    -0.08  -0.01   0.01     0.02  -0.01   0.07
     7   6     0.01  -0.01  -0.00    -0.01   0.04  -0.01     0.01  -0.00  -0.03
     8   6     0.01  -0.01   0.01    -0.01   0.03   0.03    -0.00  -0.03   0.01
     9   6     0.00   0.03   0.09    -0.02   0.05   0.08    -0.02  -0.02   0.01
    10   6     0.05  -0.00  -0.07     0.03  -0.02  -0.08    -0.02   0.00  -0.01
    11   6     0.02  -0.02  -0.05    -0.02  -0.05  -0.04    -0.00   0.01  -0.00
    12   6    -0.01   0.00  -0.03    -0.00  -0.04  -0.00     0.02   0.00   0.01
    13   6    -0.08   0.08  -0.03     0.03  -0.08  -0.01     0.17   0.04   0.01
    14   6     0.00   0.00  -0.04    -0.00   0.01   0.02     0.01  -0.02   0.03
    15   6     0.00   0.02   0.02     0.01   0.01   0.02     0.01  -0.04  -0.03
    16   6     0.00  -0.01   0.02     0.04   0.02  -0.03    -0.01  -0.01  -0.01
    17   6    -0.00  -0.00  -0.01     0.03   0.00  -0.01     0.00   0.01  -0.05
    18   6    -0.08  -0.01  -0.02     0.17   0.08   0.01     0.05   0.11  -0.05
    19   6     0.00  -0.05   0.07    -0.04  -0.02   0.00    -0.02   0.01   0.03
    20   6     0.01  -0.00   0.00    -0.01   0.01   0.02    -0.04  -0.01   0.04
    21   8     0.00   0.05  -0.00    -0.03   0.05   0.01    -0.05   0.01   0.02
    22   6     0.01  -0.02  -0.05     0.02  -0.01   0.03    -0.02  -0.03  -0.01
    23   6    -0.01  -0.03   0.02     0.01  -0.05   0.02    -0.02  -0.00  -0.01
    24   1     0.15   0.01  -0.10    -0.20  -0.01   0.11     0.10  -0.02  -0.13
    25   1    -0.09   0.13   0.07     0.04  -0.13  -0.06    -0.14   0.12   0.09
    26   1    -0.04  -0.18   0.06    -0.04   0.18  -0.10    -0.11  -0.23   0.06
    27   1     0.01  -0.00   0.01    -0.08  -0.04  -0.01    -0.01   0.00  -0.01
    28   1     0.01  -0.11   0.04     0.02   0.15  -0.08    -0.06  -0.24   0.05
    29   1    -0.04   0.03  -0.05    -0.02   0.11   0.04    -0.14   0.02  -0.15
    30   1     0.09   0.04   0.07     0.00   0.06  -0.13     0.09   0.05   0.10
    31   1    -0.01   0.02  -0.02     0.02  -0.04   0.00    -0.05   0.03  -0.03
    32   1     0.04  -0.02   0.05    -0.05  -0.12   0.04    -0.02   0.03  -0.02
    33   1    -0.02   0.02   0.05    -0.10  -0.08   0.04     0.07   0.06  -0.00
    34   1     0.04   0.02  -0.02    -0.10  -0.01   0.02     0.02  -0.12   0.11
    35   1     0.02  -0.02  -0.03    -0.13   0.02   0.02     0.03   0.06   0.15
    36   1     0.02  -0.01   0.00     0.01   0.07  -0.01     0.02   0.06  -0.04
    37   1    -0.01  -0.08   0.01    -0.02   0.01   0.03    -0.03  -0.03   0.01
    38   1     0.05  -0.01   0.24     0.05   0.03   0.22    -0.03  -0.03   0.02
    39   1    -0.11   0.16   0.10    -0.13   0.17   0.09    -0.04  -0.02   0.01
    40   1     0.02  -0.03  -0.17     0.02  -0.06  -0.18    -0.04   0.01  -0.03
    41   1     0.17   0.05  -0.08     0.15   0.04  -0.09    -0.00   0.02  -0.01
    42   1     0.08  -0.04  -0.05    -0.01  -0.10  -0.04     0.01   0.00  -0.00
    43   1     0.21  -0.04  -0.02     0.09  -0.11  -0.04     0.31   0.00   0.07
    44   1    -0.38  -0.08  -0.09     0.00  -0.12   0.03     0.12  -0.01   0.04
    45   1    -0.12   0.43   0.05     0.04  -0.04  -0.02     0.19   0.17  -0.09
    46   1    -0.02   0.00  -0.04    -0.01   0.02   0.02     0.04  -0.01   0.03
    47   1     0.01   0.08   0.02    -0.02   0.02   0.02     0.04  -0.11  -0.04
    48   1     0.00  -0.01   0.06     0.04   0.02   0.04    -0.01  -0.02  -0.10
    49   1     0.01  -0.01   0.04     0.02   0.01  -0.08    -0.02   0.00   0.01
    50   1     0.00  -0.04   0.02     0.09   0.06  -0.03    -0.01  -0.04  -0.01
    51   1    -0.02  -0.06  -0.05     0.38  -0.02   0.15    -0.18   0.30   0.02
    52   1    -0.10   0.07   0.03     0.23   0.33  -0.08     0.06  -0.13  -0.09
    53   1    -0.17  -0.05  -0.06     0.02   0.01  -0.02     0.32   0.27  -0.06
    54   1    -0.09  -0.14   0.09    -0.09  -0.00   0.01    -0.03   0.03   0.03
    55   1     0.04  -0.01   0.18    -0.04  -0.01   0.02     0.01  -0.01   0.02
    56   1    -0.01  -0.00  -0.10     0.04  -0.00   0.03    -0.02   0.01  -0.05
    57   1     0.05  -0.06  -0.06     0.02  -0.01   0.03    -0.02  -0.09  -0.02
    58   1     0.01  -0.01   0.11     0.03  -0.05   0.05    -0.04   0.01  -0.02
    59   1    -0.06  -0.11   0.03     0.01  -0.10   0.02    -0.02   0.02  -0.01
                     19                     20                     21
                      A                      A                      A
 Frequencies --    291.4867               298.6748               310.3159
 Red. masses --      1.5883                 1.8007                 2.5807
 Frc consts  --      0.0795                 0.0946                 0.1464
 IR Inten    --      0.0456                 0.1721                 0.3007
  Atom  AN      X      Y      Z        X      Y      Z        X      Y      Z
     1   6    -0.03  -0.02  -0.00    -0.06  -0.05  -0.02     0.07   0.03  -0.02
     2   6     0.02  -0.02  -0.04     0.01  -0.00  -0.07     0.04  -0.01   0.00
     3   6     0.10   0.05  -0.01     0.11   0.05  -0.02     0.10   0.07   0.02
     4   6     0.02  -0.02  -0.04    -0.00   0.01  -0.03     0.00  -0.01   0.00
     5   6    -0.03  -0.04   0.03    -0.02  -0.01   0.03    -0.08  -0.03  -0.00
     6   6    -0.05  -0.00   0.03    -0.01   0.00  -0.00    -0.11   0.03  -0.02
     7   6    -0.01   0.02   0.02    -0.02  -0.01   0.05    -0.06   0.04   0.01
     8   6    -0.01   0.03   0.01    -0.01  -0.01   0.04    -0.03   0.01  -0.04
     9   6     0.01   0.02  -0.01    -0.01  -0.04  -0.03     0.01  -0.02  -0.03
    10   6     0.01   0.01  -0.02    -0.02   0.01  -0.00    -0.03  -0.09   0.10
    11   6     0.00  -0.01   0.01     0.02   0.02   0.03     0.00  -0.02  -0.05
    12   6    -0.01  -0.01   0.01     0.01   0.01   0.03     0.02  -0.02  -0.07
    13   6    -0.09  -0.07   0.01     0.05   0.01   0.03     0.13   0.11  -0.08
    14   6    -0.01   0.02   0.01     0.00   0.01   0.01    -0.02  -0.01  -0.04
    15   6     0.00   0.02   0.02     0.01  -0.04  -0.12    -0.02   0.02   0.01
    16   6     0.00  -0.01   0.03    -0.05  -0.01   0.03    -0.01   0.04   0.00
    17   6     0.00   0.00  -0.01    -0.03   0.00   0.04    -0.02   0.02   0.02
    18   6    -0.02   0.01  -0.01    -0.04   0.04   0.05    -0.03  -0.06   0.02
    19   6     0.01  -0.00  -0.03     0.03   0.01   0.01    -0.02  -0.03   0.03
    20   6     0.03   0.01  -0.02     0.01  -0.00  -0.00    -0.01  -0.01   0.03
    21   8     0.03  -0.01  -0.01     0.01  -0.03  -0.01    -0.03   0.05   0.01
    22   6     0.02   0.02   0.01    -0.00   0.00  -0.01     0.03  -0.04   0.02
    23   6     0.01   0.01   0.00    -0.00   0.02   0.00     0.02  -0.08   0.03
    24   1     0.02  -0.02  -0.04    -0.02  -0.05  -0.10     0.02   0.03   0.05
    25   1    -0.07   0.04   0.07    -0.08   0.02   0.08     0.11  -0.05  -0.10
    26   1    -0.09  -0.11  -0.00    -0.12  -0.16  -0.01     0.13   0.14  -0.03
    27   1     0.00  -0.03  -0.03     0.01  -0.00  -0.06     0.02  -0.02   0.01
    28   1     0.12  -0.22   0.02     0.18   0.00  -0.07     0.14   0.00  -0.00
    29   1    -0.12   0.24  -0.14     0.05   0.12   0.03     0.02   0.16   0.04
    30   1     0.36   0.23   0.10     0.17   0.10   0.01     0.20   0.13   0.03
    31   1     0.03   0.01  -0.04     0.05   0.04  -0.03     0.03  -0.00   0.01
    32   1    -0.00  -0.11   0.07     0.03  -0.05   0.07    -0.07  -0.06   0.01
    33   1    -0.08  -0.01   0.08    -0.07   0.03   0.08    -0.13  -0.06   0.01
    34   1    -0.06  -0.00   0.03    -0.01   0.06  -0.03    -0.13   0.07  -0.03
    35   1    -0.08   0.01   0.04    -0.01  -0.04  -0.06    -0.13   0.01  -0.05
    36   1    -0.01   0.05   0.01    -0.00  -0.04   0.05    -0.08   0.03   0.01
    37   1    -0.00   0.04   0.01     0.03   0.01   0.04    -0.00   0.01  -0.03
    38   1     0.03   0.03  -0.03    -0.03  -0.01  -0.11     0.01   0.00  -0.08
    39   1     0.00  -0.00  -0.01     0.00  -0.12  -0.03     0.10  -0.04  -0.03
    40   1     0.02  -0.01  -0.05    -0.04   0.02  -0.01     0.02  -0.01   0.31
    41   1     0.03   0.04  -0.03    -0.04   0.04  -0.00    -0.14  -0.28   0.13
    42   1    -0.01  -0.03   0.01     0.02   0.01   0.03     0.03   0.07  -0.05
    43   1    -0.18  -0.05  -0.05     0.12  -0.02   0.03     0.21   0.13   0.05
    44   1    -0.04  -0.05   0.02     0.01  -0.03   0.05     0.14   0.13  -0.10
    45   1    -0.10  -0.18   0.06     0.06   0.07  -0.00     0.16   0.19  -0.17
    46   1    -0.02   0.03   0.01     0.03   0.08   0.01    -0.04  -0.03  -0.04
    47   1     0.02   0.02   0.01     0.10  -0.20  -0.14    -0.01   0.06   0.02
    48   1     0.02   0.02   0.02    -0.03   0.03  -0.30    -0.03  -0.01   0.04
    49   1     0.01   0.00   0.08    -0.02   0.00   0.10    -0.02   0.03  -0.03
    50   1    -0.01  -0.06   0.04    -0.16  -0.03   0.04     0.01   0.06   0.00
    51   1    -0.32   0.21  -0.04     0.27  -0.15   0.12    -0.11  -0.03  -0.05
    52   1    -0.05  -0.35  -0.02    -0.01   0.43   0.04    -0.04  -0.18   0.02
    53   1     0.30   0.18   0.03    -0.36  -0.11  -0.02     0.04  -0.04   0.08
    54   1     0.03  -0.00  -0.03     0.06   0.01   0.00    -0.08  -0.04   0.04
    55   1    -0.01   0.01  -0.03     0.03   0.01  -0.01     0.01  -0.02   0.07
    56   1     0.02  -0.00   0.05    -0.02   0.01  -0.02     0.05  -0.02  -0.01
    57   1     0.01   0.07   0.02     0.00  -0.01  -0.01     0.05  -0.06   0.01
    58   1     0.03  -0.01  -0.01    -0.01   0.02  -0.02     0.03  -0.04   0.14
    59   1     0.02   0.01   0.00    -0.01   0.05   0.00     0.01  -0.21   0.03
                     22                     23                     24
                      A                      A                      A
 Frequencies --    323.3818               330.5571               360.4711
 Red. masses --      2.8090                 2.5693                 2.4652
 Frc consts  --      0.1731                 0.1654                 0.1887
 IR Inten    --      0.4223                 0.3751                 0.2419
  Atom  AN      X      Y      Z        X      Y      Z        X      Y      Z
     1   6     0.01  -0.02  -0.04     0.16   0.09   0.02    -0.06   0.01   0.06
     2   6    -0.02   0.01  -0.02     0.05  -0.02   0.09     0.03  -0.04   0.01
     3   6     0.03   0.01   0.01     0.01   0.04   0.06    -0.05  -0.01  -0.06
     4   6    -0.03   0.02   0.01     0.01  -0.05   0.00     0.06  -0.05  -0.01
     5   6    -0.04   0.03  -0.03    -0.05  -0.07   0.02     0.04  -0.07   0.01
     6   6    -0.04   0.02  -0.01    -0.06  -0.04   0.03     0.01   0.02   0.00
     7   6    -0.03   0.01   0.01    -0.02  -0.01  -0.04     0.04   0.03   0.09
     8   6    -0.04  -0.06   0.06    -0.04  -0.04   0.01     0.04  -0.01   0.09
     9   6    -0.01  -0.10   0.04    -0.05  -0.03   0.02     0.06  -0.08  -0.03
    10   6     0.01  -0.01   0.00    -0.02   0.03  -0.05     0.02  -0.06   0.04
    11   6     0.03   0.00   0.01     0.01   0.01   0.03    -0.01  -0.03  -0.03
    12   6    -0.01   0.02  -0.00     0.01   0.01   0.04    -0.01  -0.02  -0.03
    13   6    -0.07   0.14   0.01     0.02  -0.01   0.04    -0.07   0.07  -0.03
    14   6    -0.06  -0.07   0.07    -0.00  -0.02   0.02     0.00  -0.02   0.03
    15   6    -0.09  -0.08   0.09     0.00  -0.04  -0.05     0.04  -0.03  -0.02
    16   6    -0.05   0.01  -0.05    -0.00  -0.02  -0.05     0.08   0.07  -0.07
    17   6    -0.02   0.01  -0.01     0.00  -0.01  -0.06     0.05   0.01   0.03
    18   6     0.15  -0.01   0.02    -0.12   0.12  -0.08    -0.06   0.10   0.02
    19   6     0.06  -0.04   0.05     0.03  -0.00   0.02    -0.04   0.00  -0.03
    20   6     0.08  -0.01  -0.02     0.03  -0.01  -0.01    -0.03   0.02   0.01
    21   8     0.06  -0.03  -0.05     0.02  -0.04  -0.02    -0.03   0.04   0.02
    22   6     0.03   0.02  -0.01     0.01   0.01  -0.01    -0.03   0.01   0.00
    23   6     0.03   0.10  -0.10     0.01   0.05  -0.02    -0.02  -0.01  -0.05
    24   1     0.01  -0.03  -0.08     0.08   0.12   0.20    -0.04   0.04   0.14
    25   1     0.01  -0.02  -0.05     0.22  -0.05  -0.22    -0.08   0.06   0.14
    26   1     0.04  -0.03  -0.01     0.31   0.36  -0.01    -0.17   0.00  -0.01
    27   1    -0.01   0.01  -0.02     0.01  -0.03   0.11    -0.00  -0.05   0.01
    28   1     0.09  -0.03  -0.02    -0.02   0.12   0.06    -0.15   0.03  -0.00
    29   1     0.01   0.04   0.03     0.02   0.04   0.08    -0.07  -0.01  -0.13
    30   1     0.06   0.04   0.06    -0.00   0.02  -0.03    -0.03  -0.02  -0.16
    31   1    -0.01   0.02   0.01    -0.05  -0.04  -0.01     0.06  -0.07  -0.00
    32   1    -0.05   0.05  -0.04    -0.05  -0.10   0.02     0.05  -0.12   0.03
    33   1    -0.02   0.00  -0.05    -0.06  -0.07   0.03    -0.01  -0.06   0.04
    34   1    -0.06   0.03  -0.02    -0.06  -0.09   0.05    -0.03   0.13  -0.04
    35   1    -0.02   0.01  -0.02    -0.10   0.00   0.07    -0.01  -0.04  -0.08
    36   1    -0.00   0.02   0.01    -0.01   0.04  -0.04     0.08   0.04   0.09
    37   1    -0.07  -0.04   0.05    -0.07  -0.05   0.01     0.08   0.02   0.08
    38   1    -0.02  -0.08  -0.01    -0.05  -0.04   0.05     0.05  -0.02  -0.20
    39   1    -0.01  -0.15   0.03    -0.09  -0.02   0.03     0.13  -0.26  -0.04
    40   1    -0.06   0.00  -0.06    -0.07   0.01  -0.15     0.04  -0.04   0.11
    41   1     0.05   0.04  -0.01     0.03   0.13  -0.06    -0.02  -0.13   0.05
    42   1     0.06   0.02   0.01     0.02  -0.03   0.03    -0.03   0.00  -0.03
    43   1    -0.07   0.17   0.08     0.04  -0.03   0.03    -0.11   0.10   0.02
    44   1    -0.12   0.17  -0.12    -0.01  -0.03   0.05    -0.10   0.11  -0.12
    45   1    -0.09   0.21   0.07     0.02   0.01   0.04    -0.10   0.09   0.03
    46   1    -0.11  -0.10   0.07     0.03   0.01   0.02    -0.05   0.03   0.03
    47   1    -0.18  -0.06   0.09    -0.01  -0.09  -0.05    -0.00  -0.10  -0.03
    48   1    -0.09  -0.10   0.13     0.00  -0.02  -0.09     0.04  -0.01  -0.07
    49   1    -0.13   0.01  -0.18    -0.01  -0.02  -0.06     0.03   0.01  -0.29
    50   1     0.06   0.11  -0.06    -0.00  -0.00  -0.05     0.16   0.27  -0.08
    51   1     0.17   0.00   0.10    -0.17   0.17  -0.05    -0.12   0.15   0.04
    52   1     0.22  -0.04  -0.11    -0.18   0.17   0.03    -0.11   0.13   0.11
    53   1     0.23   0.00   0.10    -0.16   0.17  -0.24    -0.07   0.15  -0.12
    54   1     0.03  -0.13   0.06     0.05  -0.02   0.02    -0.05   0.04  -0.03
    55   1     0.06   0.01   0.13     0.03   0.01   0.02    -0.05  -0.00  -0.06
    56   1     0.01  -0.02   0.05    -0.02  -0.00  -0.02     0.01   0.00   0.05
    57   1    -0.06   0.05   0.02     0.00  -0.01  -0.01    -0.09   0.05   0.02
    58   1    -0.00   0.03  -0.29    -0.00   0.02  -0.09    -0.03  -0.02  -0.10
    59   1     0.12   0.28  -0.11     0.02   0.13  -0.02     0.00   0.04  -0.06
                     25                     26                     27
                      A                      A                      A
 Frequencies --    382.3646               402.5948               413.1450
 Red. masses --      2.5423                 2.9953                 2.5653
 Frc consts  --      0.2190                 0.2860                 0.2580
 IR Inten    --      0.1134                 2.3572                 0.1617
  Atom  AN      X      Y      Z        X      Y      Z        X      Y      Z
     1   6     0.02   0.02   0.02     0.02   0.00  -0.02    -0.01  -0.02  -0.08
     2   6     0.01   0.00   0.02    -0.02   0.00   0.01    -0.06  -0.03  -0.02
     3   6    -0.03  -0.00   0.01    -0.00   0.00   0.02     0.06   0.02   0.04
     4   6     0.00  -0.00  -0.02    -0.01  -0.00  -0.01    -0.03  -0.04   0.04
     5   6    -0.02  -0.01   0.00    -0.01  -0.01  -0.00     0.01  -0.04   0.01
     6   6    -0.03   0.00   0.00    -0.00  -0.01  -0.00     0.03  -0.07   0.00
     7   6     0.03   0.04  -0.04     0.01  -0.01   0.02     0.01  -0.06  -0.01
     8   6     0.02   0.07   0.01    -0.00  -0.03   0.06     0.07  -0.02  -0.10
     9   6     0.15   0.02   0.00     0.06  -0.09   0.03     0.10   0.04   0.01
    10   6     0.14  -0.06   0.00     0.07  -0.02  -0.00     0.11   0.01  -0.00
    11   6     0.00  -0.08  -0.01     0.10   0.03  -0.04     0.02  -0.02   0.03
    12   6    -0.04  -0.03   0.03    -0.02   0.03  -0.08     0.00  -0.02   0.04
    13   6     0.02   0.04   0.04     0.02  -0.07  -0.10     0.02   0.01   0.05
    14   6    -0.05   0.01   0.05    -0.04  -0.00   0.00     0.02  -0.03  -0.05
    15   6    -0.03  -0.05  -0.03    -0.03  -0.02   0.03    -0.09   0.03  -0.01
    16   6    -0.08  -0.09   0.08    -0.02  -0.03  -0.02    -0.06   0.05  -0.09
    17   6     0.02   0.00  -0.06    -0.01  -0.01  -0.02    -0.04  -0.02   0.07
    18   6     0.01  -0.06  -0.07     0.03   0.01  -0.02    -0.05   0.03   0.09
    19   6    -0.02  -0.01  -0.03     0.11   0.12   0.06     0.01   0.05  -0.03
    20   6    -0.02   0.03   0.01    -0.01   0.10  -0.02    -0.03   0.02   0.04
    21   8    -0.02   0.08   0.01     0.01  -0.08   0.01    -0.05   0.03   0.02
    22   6    -0.05   0.04   0.03    -0.12   0.16  -0.01    -0.04   0.01  -0.01
    23   6    -0.04   0.03  -0.06    -0.12  -0.04   0.07    -0.03   0.02  -0.02
    24   1     0.02   0.03   0.05     0.01  -0.00  -0.02    -0.02  -0.03  -0.10
    25   1     0.03   0.01  -0.01     0.02  -0.02  -0.06    -0.00  -0.05  -0.14
    26   1     0.04   0.05   0.01     0.06   0.02   0.00     0.06  -0.00  -0.04
    27   1     0.00   0.00   0.03    -0.02   0.00   0.01    -0.08  -0.04  -0.04
    28   1    -0.06   0.01   0.03     0.02  -0.00   0.01     0.19   0.03  -0.04
    29   1    -0.02  -0.01  -0.02     0.01  -0.00   0.04     0.04   0.07   0.18
    30   1    -0.04  -0.01  -0.01    -0.01   0.00   0.04     0.08   0.04   0.08
    31   1    -0.04   0.00  -0.03    -0.03  -0.00  -0.01     0.01  -0.05   0.06
    32   1    -0.02  -0.04   0.01    -0.00  -0.01  -0.00     0.01   0.02  -0.00
    33   1    -0.04  -0.01   0.01    -0.01  -0.00  -0.00     0.04  -0.04  -0.01
    34   1    -0.03  -0.05   0.02    -0.01   0.01  -0.01     0.05  -0.10   0.01
    35   1    -0.06   0.05   0.05     0.00  -0.02  -0.02     0.04  -0.05   0.03
    36   1     0.05   0.06  -0.04     0.05   0.01   0.02    -0.07  -0.12  -0.01
    37   1    -0.03   0.12   0.01     0.00  -0.04   0.06     0.08  -0.06  -0.09
    38   1     0.20   0.07  -0.05     0.07  -0.05  -0.06     0.10  -0.00   0.13
    39   1     0.19  -0.01  -0.00     0.07  -0.17   0.02     0.10   0.18   0.02
    40   1     0.20  -0.10  -0.02    -0.00   0.02   0.00     0.13  -0.04  -0.07
    41   1     0.19  -0.06  -0.00     0.10  -0.05  -0.00     0.16   0.07  -0.01
    42   1    -0.03  -0.10  -0.00     0.19   0.06  -0.05    -0.00  -0.05   0.03
    43   1     0.01   0.08   0.13     0.04  -0.11  -0.19     0.03   0.02   0.10
    44   1     0.05   0.09  -0.01     0.03  -0.13   0.01     0.03   0.03   0.03
    45   1     0.03   0.06  -0.00     0.03  -0.10  -0.13     0.03   0.04   0.02
    46   1    -0.04   0.03   0.05    -0.11   0.01  -0.00     0.10  -0.10  -0.05
    47   1     0.06  -0.19  -0.05    -0.07   0.01   0.03    -0.19   0.15   0.01
    48   1    -0.02   0.03  -0.17    -0.02  -0.04   0.07    -0.10  -0.04   0.14
    49   1    -0.08   0.01   0.34    -0.04  -0.02  -0.03    -0.06  -0.03  -0.30
    50   1    -0.20  -0.34   0.09     0.00  -0.03  -0.02    -0.00   0.28  -0.10
    51   1     0.08  -0.13  -0.14     0.04   0.03   0.02    -0.13   0.10   0.13
    52   1     0.01  -0.02  -0.07     0.04   0.03  -0.05    -0.06  -0.03   0.11
    53   1    -0.07  -0.13  -0.01     0.04   0.03  -0.04     0.03   0.09   0.04
    54   1    -0.01   0.08  -0.04     0.07   0.05   0.07     0.08   0.22  -0.06
    55   1    -0.08  -0.01  -0.10     0.09   0.16   0.11    -0.04  -0.02  -0.20
    56   1    -0.01   0.00   0.11    -0.06   0.14   0.08    -0.03   0.05  -0.08
    57   1    -0.14   0.10   0.05    -0.11   0.26   0.01    -0.04  -0.08  -0.03
    58   1    -0.04  -0.03  -0.21     0.00   0.04   0.42    -0.05  -0.01  -0.10
    59   1     0.01   0.17  -0.07    -0.26  -0.38   0.10    -0.02   0.11  -0.02
                     28                     29                     30
                      A                      A                      A
 Frequencies --    424.6450               430.0397               444.5854
 Red. masses --      2.5359                 2.6803                 3.0100
 Frc consts  --      0.2694                 0.2920                 0.3505
 IR Inten    --      0.3991                 1.2688                 1.5785
  Atom  AN      X      Y      Z        X      Y      Z        X      Y      Z
     1   6     0.02  -0.04  -0.14     0.00  -0.00  -0.01     0.01  -0.00  -0.03
     2   6    -0.14   0.07  -0.01    -0.01   0.03  -0.00    -0.04   0.01   0.01
[...]
 000083,0.00000023,0.00000019,0.00000016,0.00000076,0.00000043,-0.00000
 268,-0.00000029,-0.00000126,0.00000244,-0.00000185,-0.00000076,-0.0000
 0015,0.00000104,-0.00000037,-0.00000004,0.00000016,-0.00000144,0.00000
 321,-0.00000011,-0.00000106,0.00000150,0.00000152,-0.00000392,0.000000
 52,0.00000010,0.00000079,-0.00000029,0.00000146,-0.00000053,0.00000194
 ,0.00000329,-0.00000634,-0.00004434,-0.00005070,0.00002118,0.00000041,
 0.00000547,-0.00000104,-0.00000276,0.00000408,-0.00000937,0.00000116,0
 .00000694,-0.00001153,-0.00000336,-0.00002248,-0.00003355,-0.00009147,
 0.00007629,-0.00003719,-0.00021979,0.00010524,0.00001443,0.00004367,0.
 00014481,-0.00005485,-0.00104339,-0.00104931,-0.00009700,-0.00000726,0
 .00003386,-0.00023762,-0.00005796,-0.00000079,-0.00001035,0.00004816,-
 0.00002141,0.00003593,0.00000608,-0.00000404,-0.00000401,0.00000509,0.
 00000364,-0.00001974,0.00000239,-0.00000260,-0.00000082,-0.00000175,-0
 .00000007,-0.00000626,0.00000148,0.00000269,-0.00000204,0.00035983,0.0
 0037295,0.00007819,-0.00009684,-0.00009795,0.00022590,-0.00742016,0.00
 347260,-0.01787132,0.09244874,0.00000251,-0.00000142,0.00000206,-0.000
 00480,0.00000543,0.00000018,0.00000063,-0.00000149,-0.00000066,0.00000
 028,-0.00000067,0.00000461,0.00000130,0.00000340,-0.00000095,0.0000056
 8,-0.00001167,-0.00000426,-0.00001231,0.00001965,0.00000453,0.00002319
 ,-0.00004665,-0.00000091,0.00000049,-0.00001442,0.00001800,0.00006068,
 0.00002750,0.00000175,0.00038182,0.00015896,-0.00015170,0.00047289,-0.
 00008841,0.00062202,-0.00072115,0.00023860,0.00051327,-0.00014214,0.00
 005309,-0.00004263,0.00001307,0.00005472,0.00002010,-0.00001244,-0.000
 01482,0.00000296,-0.00000635,0.00000056,0.00000052,-0.00000557,-0.0000
 0098,0.00001049,-0.00145675,-0.00047287,-0.00360381,0.01136115,0.00043
 124,0.02969110,0.00232967,-0.00245447,-0.00364181,0.01209845,-0.054935
 17,0.03359915,-0.00058515,0.00035148,-0.00097931,-0.00000055,0.0000010
 3,-0.00000026,0.00000347,-0.00000233,-0.00000295,-0.00000082,0.0000007
 3,0.00000083,-0.00000034,0.00000057,0.00000056,-0.00000345,0.00000023,
 -0.00000122,0.00000394,-0.00000251,-0.00000134,-0.00000010,0.00000116,
 -0.00000012,0.00000078,0.00000004,0.00000053,0.00000417,0.00000034,-0.
 00000060,0.00000159,0.00000172,-0.00000505,0.00000054,0.00000003,0.000
 00051,-0.00000062,0.00000195,-0.00000167,0.00000397,-0.00000034,-0.000
 00438,-0.00002377,-0.00000593,-0.00000224,0.00000173,0.00001045,-0.000
 00092,-0.00000788,0.00000128,-0.00000670,-0.00001712,0.00000796,-0.000
 01690,0.00000238,-0.00003108,-0.00000559,0.00002327,0.00010515,-0.0000
 8340,0.00010702,-0.00007636,-0.00005097,0.00023023,-0.00003495,-0.0001
 5101,-0.00081460,-0.00063959,-0.00038923,0.00002139,-0.00001798,-0.000
 05363,-0.00001010,0.00001413,0.00000073,-0.00001665,-0.00001208,-0.000
 01878,0.00001625,-0.00000642,-0.00000779,0.00000135,0.00000252,-0.0000
 0306,0.00000566,-0.00000475,-0.00000313,-0.00000474,0.00000270,-0.0000
 0809,0.00000253,0.00000313,-0.00000075,-0.00041891,-0.00151345,0.00004
 433,0.00010134,0.00036702,-0.00040730,-0.00938451,0.00435003,-0.023943
 16,-0.01365100,0.05287526,-0.00000061,-0.00000155,0.00000003,-0.000003
 82,0.00000171,-0.00000066,-0.00000051,-0.00000110,-0.00000281,0.000002
 55,0.00000805,0.00000682,0.00000157,0.00000332,-0.00000541,0.00000271,
 -0.00000390,-0.00000994,0.00002329,0.00001547,0.00001710,-0.00000647,-
 0.00005128,0.00002852,0.00002098,-0.00000730,-0.00001094,-0.00007353,0
 .00000446,-0.00001718,0.00031021,0.00004375,-0.00013189,-0.00104437,-0
 .00064507,-0.00020795,-0.00014740,-0.00056255,-0.00038740,0.00008942,0
 .00010539,-0.00016881,-0.00009700,-0.00004232,-0.00002139,0.00001437,0
 .00002313,0.00002749,-0.00000469,-0.00001716,-0.00001302,0.00000943,0.
 00000849,-0.00001492,-0.00062402,0.00005747,-0.00052068,-0.00109099,0.
 00029440,0.00070860,0.00078677,0.00067603,-0.00064413,-0.09045953,0.02
 723050,-0.25523742,-0.00720520,0.00244431,-0.02308402,-0.00000015,0.00
 000095,-0.00000013,0.00000210,-0.00000148,-0.00000146,0.00000155,0.000
 00125,0.00000227,-0.00000153,0.00000141,-0.00000050,-0.00000057,0.0000
 0110,0.00000190,0.00000250,-0.00000128,-0.00000066,0.00000047,0.000000
 89,0.00000043,0.00000180,-0.00000096,0.00000671,0.00000404,0.00000167,
 0.00000005,0.00000077,0.00000191,-0.00000133,0.00000344,0.00000282,0.0
 0000230,0.00000020,0.00000200,-0.00000118,-0.00000171,-0.00000325,0.00
 002224,0.00007828,0.00005838,0.00004543,-0.00000254,0.00001225,0.00000
 224,-0.00000023,-0.00000888,0.00001882,0.00001586,0.00002646,0.0000134
 7,0.00003862,0.00005480,0.00003404,0.00003204,-0.00014287,0.00015890,0
 .00012987,0.00002576,-0.00004251,-0.00018214,-0.00001563,0.00049604,-0
 .00054921,0.00012539,0.00097245,0.00005398,-0.00003584,0.00027110,0.00
 009211,-0.00000918,0.00003241,-0.00005519,0.00009401,0.00000134,0.0000
 1105,-0.00000423,-0.00000539,-0.00000694,-0.00000199,0.00002516,0.0000
 0135,-0.00000294,0.00000062,-0.00000361,-0.00000149,-0.00000092,0.0000
 0434,0.00000372,0.00000310,0.00010382,-0.00002658,0.00039772,0.0000210
 7,0.00018850,0.00016826,-0.00219155,0.00036356,-0.00505446,0.09788856,
 -0.03006686,0.28271116,0.00000195,0.00000038,0.00000122,-0.00000134,0.
 00000513,0.00000012,0.00000092,-0.00000055,-0.00000014,-0.00000519,-0.
 00001056,-0.00000256,0.00000239,0.00000271,0.00000258,0.00000938,-0.00
 001225,-0.00001128,0.00000673,0.00006686,0.00000799,-0.00000002,-0.000
 03516,-0.00013544,0.00010823,0.00013017,-0.00007892,0.00107000,-0.0009
 0664,0.00010946,-0.00237972,-0.00242545,-0.00030203,0.01118450,-0.0156
 7730,0.00175868,0.00108135,-0.00045107,0.00045034,0.00066260,0.0005588
 2,0.00001151,-0.00102392,0.00033269,0.00129085,-0.00011208,-0.00021676
 ,-0.00003503,-0.00003531,-0.00000366,0.00004475,0.00000120,0.00000317,
 0.00001763,-0.00003132,0.00001488,-0.00059332,-0.00101394,-0.00489679,
 0.00383782,-0.00197958,0.00187591,-0.00079754,-0.01555127,0.02161311,0
 .00033347,-0.12621393,0.11919176,-0.02136115,-0.00000100,-0.00000144,0
 .00000046,0.00000191,-0.00000057,-0.00000127,-0.00000151,0.00000097,-0
 .00000087,0.00000008,-0.00000268,0.00000177,-0.00000143,0.00000038,-0.
 00000102,0.00000193,-0.00000092,-0.00000081,-0.00000078,-0.00000082,0.
 00000064,0.00000067,0.00000078,-0.00000007,0.00000207,-0.00000046,-0.0
 0000114,0.00000127,-0.00000277,-0.00000187,0.00000013,-0.00000056,0.00
 000026,0.00000032,-0.00000135,-0.00000090,0.00000033,-0.00000008,0.000
 00086,0.00000654,0.00001114,0.00000078,-0.00000326,0.00001517,-0.00000
 076,-0.00000613,-0.00000324,0.00001672,-0.00016742,-0.00044494,0.00006
 767,0.00003082,0.00010935,-0.00002606,-0.00000531,-0.00003340,0.000215
 38,0.00002529,0.00012432,-0.00003824,0.00011564,0.00006953,0.00019989,
 -0.00008148,0.00000059,-0.00009749,-0.00006757,-0.00003580,0.00010871,
 -0.00010373,0.00005216,-0.00007315,-0.00193014,-0.00071383,0.00134260,
 0.00002965,-0.00000757,-0.00002250,0.00001616,0.00000987,-0.00003465,0
 .00000318,-0.00000183,-0.00000154,-0.00000125,0.00000047,-0.00000958,-
 0.00000002,-0.00000038,-0.00000414,-0.00001360,-0.00003938,-0.00000185
 ,0.00007018,0.00007796,-0.00007699,0.00017486,-0.00025050,-0.00061126,
 0.00167762,-0.00046236,-0.00036945,0.14184727,-0.00000074,-0.00000084,
 0.00000308,-0.00001286,-0.00000324,0.00001302,-0.00000365,0.00000082,-
 0.00000014,0.00000033,0.00011565,0.00006480,0.00002357,-0.00000908,-0.
 00005416,-0.00002450,0.00001953,0.00002793,0.00003211,-0.00005244,-0.0
 0006758,-0.00017565,0.00006963,0.00009604,0.00023448,0.00008631,-0.000
 23193,0.00190277,-0.00076768,0.00013334,-0.00558202,-0.00375928,-0.000
 51724,0.01514962,-0.02255946,0.00371148,0.00152621,0.00070068,0.000925
 44,0.00096271,-0.00010897,-0.00058753,0.00013267,-0.00075332,-0.000717
 91,-0.00000222,0.00068732,0.00026139,0.00009511,-0.00018152,-0.0002012
 5,-0.00000919,0.00007161,0.00000781,-0.00038024,0.00059003,0.00022924,
 -0.00047926,0.00076336,0.00030843,0.00003582,0.00002247,-0.00012992,-0
 .00045089,0.00157154,0.00005619,0.11757341,-0.22636157,0.02702994,0.00
 000276,0.00000598,-0.00000568,0.00000303,-0.00000245,-0.00000282,0.000
 00089,-0.00000086,0.00000460,-0.00001084,0.00002003,-0.00000038,-0.000
 00515,-0.00000319,-0.00000069,0.00000293,-0.00000087,-0.00000072,0.000
 00576,0.00000707,-0.00000469,-0.00000118,-0.00000533,0.00000282,-0.000
 00642,0.00001177,0.00000835,-0.00000030,0.00002865,-0.00000156,0.00001
 184,0.00000160,0.00000681,-0.00000034,0.00003516,-0.00002539,-0.000003
 46,-0.00001108,-0.00000748,-0.00002007,-0.00002381,-0.00002227,-0.0001
 1486,0.00003071,0.00006527,-0.00000593,0.00002287,0.00003080,-0.000349
 75,-0.00068176,0.00003286,-0.00009997,-0.00007407,-0.00009302,-0.00012
 846,0.00037230,0.00008213,-0.00090779,0.00050411,-0.00080083,-0.000211
 31,0.00048373,0.00019221,-0.00010477,-0.00003539,-0.00006036,-0.000092
 72,0.00000024,-0.00005135,-0.00018153,-0.00000889,0.00002796,0.0004939
 3,0.00144170,0.00031613,-0.00002941,-0.00000540,0.00004336,0.00001198,
 -0.00000133,-0.00008951,-0.00002285,0.00000320,0.00000002,-0.00000330,
 -0.00003879,-0.00002488,0.00003876,0.00001954,0.00000085,0.00001057,-0
 .00002083,-0.00009012,0.00011793,-0.00000014,-0.00007509,0.00035332,0.
 00035370,-0.00035377,-0.00002314,0.00026877,-0.00035196,-0.12826407,0.
 24540911,-0.00000183,0.00000153,-0.00000213,0.00001061,-0.00000003,-0.
 00000315,0.00000218,0.00000022,0.00000394,-0.00001526,-0.00005832,-0.0
 0004443,-0.00000750,0.00000582,0.00002533,0.00001454,-0.00001375,0.000
 00094,-0.00003690,0.00004667,-0.00000608,0.00024362,-0.00009818,0.0000
 3564,-0.00010892,-0.00010753,-0.00002496,0.00007480,-0.00011100,0.0006
 7400,-0.00025727,-0.00025150,-0.00033716,0.00085178,-0.00309183,-0.000
 83690,0.00067082,-0.00085694,0.00022665,-0.00050186,0.00057924,-0.0001
 0473,0.00087823,0.00087394,0.00004069,-0.00009337,-0.00030760,-0.00020
 265,-0.00003265,0.00012981,0.00012357,-0.00000412,-0.00003936,0.000014
 11,-0.00026653,0.00006062,0.00026816,0.00215261,0.00337336,-0.00339165
 ,0.00213620,-0.00177469,0.00083828,0.01550672,-0.02142098,-0.00013610,
 -0.02072439,0.02741057,-0.05304246,-0.00000128,-0.00000365,0.00000250,
 -0.00000285,0.00000264,0.00000337,-0.00000114,0.00000030,-0.00000386,0
 .00000634,-0.00000954,0.00000088,0.00000297,0.00000004,-0.00000121,-0.
 00000374,0.00000180,0.00000088,-0.00000290,-0.00000363,0.00000101,0.00
 000109,0.00000437,-0.00000425,-0.00000067,-0.00000542,-0.00000295,0.00
 000002,-0.00001557,0.00000150,-0.00000332,-0.00000234,-0.00000387,-0.0
 0000208,-0.00001432,0.00000470,0.00000190,0.00000344,0.00000229,-0.000
 00601,0.00002179,-0.00000451,0.00000907,-0.00002003,0.00001797,-0.0000
 0189,-0.00001826,0.00000886,0.00000340,-0.00003152,-0.00000247,0.00008
 342,0.00013865,-0.00000962,0.00035195,-0.00023027,0.00042693,-0.000314
 68,-0.00003396,0.00013279,0.00007688,0.00019953,-0.00000259,0.00001674
 ,-0.00012463,-0.00002345,0.00006406,0.00004673,0.00008903,-0.00014056,
 -0.00011744,-0.00002981,0.00124110,-0.00031190,-0.00089573,0.00000407,
 0.00001069,0.00000187,0.00001253,0.00001606,0.00000731,0.00000695,0.00
 000180,0.00000130,0.00000906,0.00001560,0.00001120,-0.00002119,-0.0000
 1123,-0.00000465,0.00002681,0.00000720,0.00003188,-0.00003107,-0.00007
 835,0.00005864,-0.00057511,0.00038757,0.00060707,-0.00090228,-0.000488
 45,0.00134753,0.01658830,-0.02946863,0.05762720,-0.00000215,-0.0000025
 6,-0.00000056,-0.00000395,0.00000088,0.00000012,-0.00000129,-0.0000017
 5,-0.00000416,-0.00000218,0.00001350,0.00001350,0.00000115,0.00000120,
 -0.00001040,-0.00000269,0.00000593,0.00000257,-0.00000557,-0.00002141,
 0.00000689,0.00015050,-0.00001852,0.00029811,0.00004129,0.00001536,-0.
 00006160,0.00001067,-0.00003886,0.00015628,0.00004058,0.00117806,0.000
 03362,-0.00968754,-0.00072813,-0.01742447,-0.00234051,-0.00419383,0.00
 072045,-0.00003431,0.00011248,-0.00211564,-0.00022290,-0.00013241,0.00
 012987,0.00000734,0.00007331,0.00005487,0.00000124,-0.00003305,-0.0000
 1135,0.00001979,0.00002338,-0.00003255,0.00002146,0.00004950,0.0002004
 8,0.00180138,-0.00081967,0.00054429,-0.00028630,-0.00022922,-0.0003684
 3,0.00844524,0.00083487,0.02542255,-0.08819098,-0.00169169,-0.09255545
 ,0.00000044,0.00000195,-0.00000045,0.00000237,-0.00000149,-0.00000135,
 0.00000250,0.00000153,0.00000389,-0.00000288,0.00000341,-0.00000147,0.
 00000013,0.00000132,0.00000320,0.00000269,-0.00000088,-0.00000035,0.00
 000118,0.00000160,0.00000036,0.00000239,-0.00000182,0.00001216,0.00000
 391,0.00000365,0.00000128,0.00000084,0.00000433,-0.00000092,0.00000829
 ,0.00000648,0.00000199,0.00000105,0.00000548,-0.00000472,-0.00000310,-
 0.00001331,0.00005383,0.00018006,0.00018612,-0.00000189,-0.00001603,0.
 00001668,0.00001127,0.00000353,-0.00002754,0.00003706,-0.00000328,-0.0
 0004405,0.00005573,0.00004604,0.00015618,0.00007065,0.00063559,-0.0000
 8682,0.00035925,0.00034085,-0.00007501,0.00042921,-0.00053766,-0.00034
 755,-0.00146887,0.00012316,-0.00002944,-0.00011433,0.00003099,-0.00044
 632,0.00105980,0.00035734,-0.00001231,0.00005911,-0.00012056,0.0003158
 7,-0.00017051,0.00001041,-0.00000087,0.00000833,-0.00002713,-0.0000064
 6,0.00008784,-0.00000082,-0.00000307,0.00000348,-0.00000339,-0.0000067
 6,-0.00000104,0.00000932,0.00000591,0.00000728,-0.00007177,0.00002358,
 0.00001928,0.00005720,0.00004020,-0.00002071,0.00132606,-0.00003671,-0
 .00075728,-0.00365476,0.00048076,0.00437386,-0.00740292,-0.00101368,-0
 .01698741,0.09893770,0.00000381,0.00000027,0.00000108,-0.00000214,0.00
 000342,-0.00000136,0.00000094,-0.00000129,-0.00000244,0.00000875,-0.00
 000499,-0.00000045,-0.00000121,0.00000738,0.00000215,0.00000379,-0.000
 00958,-0.00001960,0.00002145,0.00004215,0.00005599,0.00026671,-0.00011
 078,-0.00001499,-0.00002602,0.00001328,-0.00002599,-0.00002087,0.00011
 547,0.00025098,-0.00093318,0.00114425,-0.00138355,-0.01191689,-0.00248
 336,-0.02453443,-0.00237604,-0.00441327,0.00096992,0.00032220,0.000984
 16,-0.00140406,-0.00001679,0.00021436,0.00016834,-0.00002878,0.0000060
 2,-0.00000729,-0.00001327,0.00002300,0.00000126,0.00001049,-0.00000733
 ,-0.00001292,0.00020500,-0.00014291,0.00013386,-0.00031228,-0.00023959
 ,-0.00066027,-0.00015261,0.00014083,0.00015086,-0.00040596,-0.00004261
 ,0.00000908,-0.00106723,-0.05189291,-0.00882093,-0.00000118,-0.0000009
 6,0.00000059,0.00000110,-0.00000076,-0.00000118,-0.00000139,0.00000058
 ,-0.00000077,0.00000145,-0.00000297,0.00000086,-0.00000041,0.00000024,
 -0.00000008,0.00000124,-0.00000072,0.00000033,-0.00000109,-0.00000048,
 0.00000093,-0.00000134,0.00000065,0.00000240,0.00000411,-0.00000112,-0
 .00000225,0.00000203,-0.00000252,-0.00000219,0.00000086,0.00000055,-0.
 00000055,0.00000158,-0.00000326,0.00000245,-0.00000940,-0.00000292,0.0
 0002896,0.00012729,0.00011298,-0.00000764,0.00001661,0.00000321,-0.000
 00040,-0.00000267,-0.00002698,0.00003758,0.00002659,0.00000369,0.00002
 657,0.00005636,0.00016173,0.00002287,0.00033233,-0.00053974,0.00057789
 ,-0.00023436,0.00022559,0.00001757,-0.00099558,0.00006982,-0.00144543,
 0.00021312,0.00001974,0.00005120,0.00006631,-0.00002000,0.00078624,0.0
 0001425,-0.00014510,-0.00002580,-0.00007767,-0.00013957,0.00010828,-0.
 00000146,-0.00000343,0.00000889,0.00000004,0.00001663,-0.00001268,0.00
 000124,-0.00000222,0.00000650,0.00000171,-0.00000217,-0.00000168,-0.00
 000385,0.00000096,-0.00000137,-0.00005314,0.00007445,0.00013668,0.0000
 4514,-0.00001071,-0.00002988,0.00019198,0.00019338,0.00046892,-0.00043
 013,0.00102994,0.00012437,0.01063683,0.00175239,0.02578087,0.00650166,
 0.05389312,-0.00000465,-0.00000159,-0.00000194,-0.00000003,-0.00000174
 ,-0.00000091,-0.00000111,-0.00000063,-0.00000155,-0.00000685,0.0000008
 2,-0.00000015,-0.00000468,-0.00000416,-0.00000361,-0.00001566,0.000015
 50,0.00001078,-0.00000869,-0.00008077,-0.00001027,0.00005237,-0.000114
 05,0.00041186,-0.00003058,-0.00000007,-0.00005626,0.00018208,-0.000173
 01,0.00037499,-0.00002111,0.00065398,-0.00048593,-0.00221177,-0.000055
 12,-0.00370108,-0.00030290,-0.00135904,0.00106243,0.00136907,0.0007792
 3,0.00032105,-0.00028294,-0.00005012,0.00022472,-0.00001932,0.00001857
 ,-0.00002581,-0.00000092,-0.00001122,0.00001069,0.00001177,0.00000895,
 -0.00001673,0.00008927,-0.00034859,-0.00028019,-0.00183953,0.00164149,
 -0.00050351,0.00118229,-0.00042603,0.00034173,-0.00610942,-0.00109675,
 -0.02084289,-0.09269355,-0.00854782,-0.25906260,0.00000016,0.00000075,
 0.00000019,0.00000061,-0.00000037,0.00000051,0.00000330,0.00000160,0.0
 0000269,-0.00000114,0.00000122,-0.00000129,0.00000135,0.00000133,0.000
 00319,0.00000064,-0.00000011,-0.00000041,0.00000055,0.00000051,0.00000
 021,0.00000368,-0.00000005,0.00000786,0.00000102,0.00000243,0.00000244
 ,-0.00000132,-0.00000004,0.00000239,0.00000156,0.00000099,0.00000184,0
 .00000092,-0.00000138,-0.00000075,0.00000267,-0.00000451,0.00001917,0.
 00015885,0.00015078,0.00005277,0.00000044,0.00000258,0.00001443,-0.000
 00173,-0.00002192,0.00004356,-0.00002103,-0.00005228,0.00000619,0.0001
 2710,0.00018292,0.00006424,0.00043001,-0.00044098,0.00064427,0.0001673
 4,0.00010663,0.00008034,-0.00010764,0.00013302,-0.00034834,0.00009966,
 0.00014306,0.00010881,-0.00008341,0.00002766,0.00076298,0.00012971,0.0
 0004709,0.00002098,-0.00018569,0.00009337,-0.00009889,-0.00000900,0.00
 000226,0.00000830,-0.00000729,-0.00001049,0.00004783,0.00000014,-0.000
 00127,-0.00000036,-0.00000541,-0.00000021,0.00000284,0.00000300,0.0000
 0171,0.00000414,-0.00002977,0.00005963,0.00014698,-0.00000573,-0.00011
 359,-0.00000299,-0.00002587,0.00038415,0.00084920,0.00386317,-0.000386
 62,-0.00193717,-0.00171742,0.00035657,-0.00351664,0.09787345,0.0084857
 3,0.28524365\\0.00001754,-0.00001453,-0.00002003,-0.00003784,0.0000477
 7,0.00002230,-0.00004510,0.00000961,-0.00000703,0.00003095,-0.00002199
 ,0.00002467,-0.00000408,0.00000098,-0.00002925,-0.00002564,-0.00002140
 ,0.00000451,-0.00001700,0.00002368,0.00004131,0.00008615,-0.00001756,-
 0.00004859,0.00001392,-0.00001736,-0.00000306,0.00000999,-0.00002780,-
 0.00002219,0.00001601,0.00001080,0.00003141,-0.00000788,-0.00001981,-0
 .00002905,0.00000403,0.00000836,-0.00002210,-0.00001371,0.00002991,0.0
 0000564,-0.00003197,-0.00001015,-0.00000891,-0.00000432,-0.00000251,0.
 00000683,-0.00000114,-0.00004963,0.00004319,0.00001429,0.00000805,-0.0
 0001817,-0.00005239,-0.00002502,0.00001234,0.00001688,-0.00000218,-0.0
 0002309,-0.00003090,0.00003192,0.00003267,-0.00001831,0.00002099,0.000
 00231,0.00001306,-0.00000046,0.00001279,0.00000330,-0.00000626,-0.0000
 0654,0.00000059,0.00000586,-0.00000747,0.00000294,0.00000029,0.0000072
 2,-0.00001005,-0.00001971,-0.00000826,-0.00001783,0.00002087,0.0000410
 2,0.00003319,-0.00003189,-0.00001396,0.00002445,0.00004726,-0.00002110
 ,0.00000516,-0.00000976,-0.00000492,0.00001381,-0.00001390,-0.00001103
 ,0.00000823,0.00000931,-0.00001020,0.00000410,0.00000685,0.00001742,0.
 00000110,0.00000862,0.00000214,-0.00002125,-0.00000411,0.00000248,-0.0
 0000087,0.00001894,-0.00000819,-0.00000727,0.00000915,0.00000434,0.000
 00705,0.00000189,-0.00000460,-0.00000256,0.00000474,0.00000315,0.00000
 906,-0.00001689,0.00001793,0.00000175,-0.00000583,-0.00000827,-0.00000
 939,0.00000669,0.00002595,0.00000563,0.00001525,0.00000577,0.00000248,
 -0.00000279,-0.00001618,0.00000612,0.00000876,-0.00000461,-0.00000797,
 0.00000156,-0.00000358,0.00001015,0.00001832,0.00000193,0.00001254,-0.
 00000213,-0.00001173,-0.00000252,-0.00000437,0.00000967,-0.00001609,0.
 00000148,0.00001342,0.00000831,0.00000017,-0.00001072,0.00001261,-0.00
 000890,-0.00000009,0.00001090,0.00000898,-0.00001616,-0.00000113,-0.00
 000248,0.00000300,-0.00000084,-0.00000143,0.00000199,0.00000251,-0.000
 00998,0.00000738,-0.00002992,-0.00001479,0.00000834,0.00000913,-0.0000
 0149,-0.00001401\\\@


 MAN IS THE MEASURE OF ALL THINGS.
  -- PROTAGORAS (5TH CENTURY B.C.)
 Job cpu time:       0 days  0 hours 18 minutes 18.2 seconds.
 Elapsed time:       0 days  2 hours 19 minutes 59.4 seconds.
 File lengths (MBytes):  RWF=   1168 Int=      0 D2E=      0 Chk=     16 Scr=      1
 Normal termination of Gaussian 16 at Thu Feb 22 19:29:18 2024.
