 Entering Gaussian System, Link 0=g16
 Input=/Volumes/SSD-PMU3/b3lyp_6-31gd_freq/BITOYSGQNJZELQ-CCIBANHTSA-N_calculating/gaussianinput0.gjf
 Output=/Volumes/SSD-PMU3/b3lyp_6-31gd_freq/BITOYSGQNJZELQ-CCIBANHTSA-N_calculating/gaussianinput0.log
 Initial command:
 /Applications/g16/l1.exe "/Users/macmini_m1_2022/PycharmProjects/sphere_model/sphere_model_lib/Gau-65444.inp" -scrdir="/Users/macmini_m1_2022/PycharmProjects/sphere_model/sphere_model_lib/"
 Entering Link 1 = /Applications/g16/l1.exe PID=     65445.
  
 Copyright (c) 1988,1990,1992,1993,1995,1998,2003,2009,2016,
            Gaussian, Inc.  All Rights Reserved.
  
 This is part of the Gaussian(R) 16 program.  It is based on
 the Gaussian(R) 09 system (copyright 2009, Gaussian, Inc.),
 the Gaussian(R) 03 system (copyright 2003, Gaussian, Inc.),
 the Gaussian(R) 98 system (copyright 1998, Gaussian, Inc.),
 the Gaussian(R) 94 system (copyright 1995, Gaussian, Inc.),
 the Gaussian 92(TM) system (copyright 1992, Gaussian, Inc.),
 the Gaussian 90(TM) system (copyright 1990, Gaussian, Inc.),
 the Gaussian 88(TM) system (copyright 1988, Gaussian, Inc.),
 the Gaussian 86(TM) system (copyright 1986, Carnegie Mellon
 University), and the Gaussian 82(TM) system (copyright 1983,
 Carnegie Mellon University). Gaussian is a federally registered
 trademark of Gaussian, Inc.
  
 This software contains proprietary and confidential information,
 including trade secrets, belonging to Gaussian, Inc.
  
 This software is provided under written license and may be
 used, copied, transmitted, or stored only in accord with that
 written license.
  
 The following legend is applicable only to US Government
 contracts under FAR:
  
                    RESTRICTED RIGHTS LEGEND
  
 Use, reproduction and disclosure by the US Government is
 subject to restrictions as set forth in subparagraphs (a)
 and (c) of the Commercial Computer Software - Restricted
 Rights clause in FAR 52.227-19.
  
 Gaussian, Inc.
 340 Quinnipiac St., Bldg. 40, Wallingford CT 06492
  
  
 ---------------------------------------------------------------
 Warning -- This program may not be used in any manner that
 competes with the business of Gaussian, Inc. or will provide
 assistance to any competitor of Gaussian, Inc.  The licensee
 of this program is prohibited from giving any competitor of
 Gaussian, Inc. access to this program.  By using this program,
 the user acknowledges that Gaussian, Inc. is engaged in the
 business of creating and licensing software in the field of
 computational chemistry and represents and warrants to the
 licensee that it is not a competitor of Gaussian, Inc. and that
 it will not use this program in any manner prohibited above.
 ---------------------------------------------------------------
  

 Cite this work as:
 Gaussian 16, Revision A.03,
 M. J. Frisch, G. W. Trucks, H. B. Schlegel, G. E. Scuseria, 
 M. A. Robb, J. R. Cheeseman, G. Scalmani, V. Barone, 
 G. A. Petersson, H. Nakatsuji, X. Li, M. Caricato, A. V. Marenich, 
 J. Bloino, B. G. Janesko, R. Gomperts, B. Mennucci, H. P. Hratchian, 
 J. V. Ortiz, A. F. Izmaylov, J. L. Sonnenberg, D. Williams-Young, 
 F. Ding, F. Lipparini, F. Egidi, J. Goings, B. Peng, A. Petrone, 
 T. Henderson, D. Ranasinghe, V. G. Zakrzewski, J. Gao, N. Rega, 
 G. Zheng, W. Liang, M. Hada, M. Ehara, K. Toyota, R. Fukuda, 
 J. Hasegawa, M. Ishida, T. Nakajima, Y. Honda, O. Kitao, H. Nakai, 
 T. Vreven, K. Throssell, J. A. Montgomery, Jr., J. E. Peralta, 
 F. Ogliaro, M. J. Bearpark, J. J. Heyd, E. N. Brothers, K. N. Kudin, 
 V. N. Staroverov, T. A. Keith, R. Kobayashi, J. Normand, 
 K. Raghavachari, A. P. Rendell, J. C. Burant, S. S. Iyengar, 
 J. Tomasi, M. Cossi, J. M. Millam, M. Klene, C. Adamo, R. Cammi, 
 J. W. Ochterski, R. L. Martin, K. Morokuma, O. Farkas, 
 J. B. Foresman, and D. J. Fox, Gaussian, Inc., Wallingford CT, 2016.
 
 ******************************************
 Gaussian 16:  EM64M-G16RevA.03 25-Dec-2016
                22-Feb-2024 
 ******************************************
 %nprocshared=10
 Will use up to   10 processors via shared memory.
 %mem=12GB
 %chk= 0.chk
 ---------------------
 # freq b3lyp/6-31g(d)
 ---------------------
 1/10=4,30=1,38=1/1,3;
 2/12=2,17=6,18=5,40=1/2;
 3/5=1,6=6,7=1,11=2,25=1,30=1,71=2,74=-5,140=1/1,2,3;
 4//1;
 5/5=2,38=5,98=1/2;
 8/6=4,10=90,11=11/1;
 11/6=1,8=1,9=11,15=111,16=1/1,2,10;
 10/6=1/2;
 6/7=2,8=2,9=2,10=2,28=1/1;
 7/8=1,10=1,25=1/1,2,3,16;
 1/10=4,30=1/3;
 99//99;
 ---------
 good luck
 ---------
 Symbolic Z-matrix:
 Charge =  0 Multiplicity = 1
 C                    -9.18264  -0.21482   6.56133 
 C                    -8.65211   0.25453   5.19311 
 C                    -8.56778   1.78972   5.18879 
 C                    -7.31472  -0.44972   4.86044 
 C                    -7.45023  -2.00936   4.85893 
 C                    -6.41063  -2.55882   3.84364 
 C                    -5.57203  -1.32462   3.47739 
 C                    -4.67207  -1.37139   2.234 
 C                    -3.72528  -2.58412   2.26285 
 C                    -2.72084  -2.57351   1.10508 
 C                    -1.94297  -1.25155   1.05957 
 C                    -2.87659  -0.0046    0.92714 
 C                    -3.6354    0.01398  -0.41964 
 C                    -3.87362  -0.03764   2.13974 
 C                    -4.81611   1.18442   2.22438 
 C                    -5.76462   1.15368   3.44166 
 C                    -6.58973  -0.14723   3.50461 
 C                    -7.59868  -0.20515   2.33593 
 C                    -0.81716  -1.28294   0.00299 
 C                     0.        0.        0. 
 O                     1.21694   0.        0. 
 C                    -0.8166    1.28347   0.00299 
 C                    -1.97332   1.25406   1.0249 
 H                    -9.34491  -1.29662   6.59571 
 H                    -10.13733   0.27151   6.79401 
 H                    -8.47691   0.04302   7.36229 
 H                    -9.39126  -0.0451    4.4352 
 H                    -7.78026   2.14475   5.86603 
 H                    -9.5151    2.22582   5.52832 
 H                    -8.36046   2.19495   4.19449 
 H                    -6.60468  -0.17254   5.65638 
 H                    -8.46727  -2.30387   4.57262 
 H                    -7.2842   -2.41612   5.8615 
 H                    -5.8034   -3.36519   4.26738 
 H                    -6.90605  -2.97171   2.95578 
 H                    -4.89764  -1.14528   4.3328 
 H                    -5.31022  -1.4698    1.34378 
 H                    -3.1723   -2.5814    3.21501 
 H                    -4.30716  -3.51389   2.24666 
 H                    -2.01551  -3.40808   1.21437 
 H                    -3.24088  -2.73712   0.15071 
 H                    -1.44552  -1.14731   2.03817 
 H                    -2.95771  -0.05158  -1.27654 
 H                    -4.34501  -0.81321  -0.5111 
 H                    -4.20087   0.94497  -0.53345 
 H                    -3.23922  -0.00474   3.04258 
 H                    -4.22598   2.10653   2.27585 
 H                    -5.41316   1.26012   1.30737 
 H                    -5.17001   1.23956   4.36323 
 H                    -6.40685   2.04041   3.40444 
 H                    -7.1081   -0.18167   1.35867 
 H                    -8.21395  -1.11049   2.36643 
 H                    -8.28028   0.652     2.37391 
 H                    -0.13685  -2.12216   0.18117 
 H                    -1.24569  -1.42325  -1.00062 
 H                    -1.22234   1.41818  -1.01055 
 H                    -0.14055   2.12313   0.19096 
 H                    -2.5694    2.16425   0.89638 
 H                    -1.54774   1.30217   2.03737 
 

 GradGradGradGradGradGradGradGradGradGradGradGradGradGradGradGradGradGrad
 Berny optimization.
 Initialization pass.
 Trust Radius=3.00D-01 FncErr=1.00D-07 GrdErr=1.00D-07 EigMax=2.50D+02 EigMin=1.00D-04
 Number of steps in this run=      2 maximum allowed number of steps=      2.
 GradGradGradGradGradGradGradGradGradGradGradGradGradGradGradGradGradGrad

 Stoichiometry    C22H36O
 Framework group  C1[X(C22H36O)]
 Deg. of freedom   171
 Full point group                 C1      NOp   1
 Largest Abelian subgroup         C1      NOp   1
 Largest concise Abelian subgroup C1      NOp   1
                         Standard orientation:                         
 ---------------------------------------------------------------------
 Center     Atomic      Atomic             Coordinates (Angstroms)
 Number     Number       Type             X           Y           Z
 ---------------------------------------------------------------------
      1          6           0       -6.091241   -0.053915   -0.876719
      2          6           0       -4.894630   -0.593818   -0.070247
      3          6           0       -4.833271   -2.121981   -0.228089
      4          6           0       -3.592047    0.133710   -0.481598
      5          6           0       -3.692585    1.684054   -0.288785
      6          6           0       -2.260522    2.201473    0.019384
      7          6           0       -1.368594    0.976166   -0.233031
      8          6           0        0.070041    0.972262    0.304058
      9          6           0        0.850854    2.216974   -0.153093
     10          6           0        2.328552    2.165224    0.250865
     11          6           0        2.991487    0.871504   -0.240599
     12          6           0        2.278808   -0.413724    0.292632
     13          6           0        2.393798   -0.548331    1.828408
     14          6           0        0.777041   -0.335721   -0.159235
     15          6           0       -0.063180   -1.582061    0.200682
     16          6           0       -1.527176   -1.504318   -0.282086
     17          6           0       -2.239240   -0.232106    0.219471
     18          6           0       -2.430598   -0.287472    1.751615
     19          6           0        4.514399    0.872632    0.015391
     20          6           0        5.186742   -0.377970   -0.530166
     21          8           0        6.199515   -0.334916   -1.203504
     22          6           0        4.496107   -1.686505   -0.176761
     23          6           0        2.967134   -1.630400   -0.382341
     24          1           0       -6.237444    1.021367   -0.734597
     25          1           0       -7.018310   -0.557229   -0.577882
     26          1           0       -5.949839   -0.232995   -1.950967
     27          1           0       -5.087404   -0.371402    0.989898
     28          1           0       -4.555924   -2.403276   -1.252214
     29          1           0       -5.813069   -2.567871   -0.018211
     30          1           0       -4.112470   -2.584606    0.451801
     31          1           0       -3.444415   -0.064831   -1.555515
     32          1           0       -4.378118    1.922784    0.533493
     33          1           0       -4.107245    2.161961   -1.181987
     34          1           0       -1.984190    3.055123   -0.607869
     35          1           0       -2.177591    2.536850    1.060954
     36          1           0       -1.282880    0.877863   -1.329241
     37          1           0        0.033202    0.988835    1.403043
     38          1           0        0.783177    2.296916   -1.249192
     39          1           0        0.382367    3.122460    0.251806
     40          1           0        2.861059    3.029633   -0.167677
     41          1           0        2.426036    2.246747    1.342600
     42          1           0        2.862195    0.849994   -1.335498
     43          1           0        3.433326   -0.515757    2.169238
     44          1           0        1.859993    0.245358    2.358744
     45          1           0        1.979490   -1.504233    2.166107
     46          1           0        0.804242   -0.286264   -1.261724
     47          1           0        0.392676   -2.477282   -0.237469
     48          1           0       -0.052238   -1.739426    1.286143
     49          1           0       -1.543853   -1.507853   -1.382062
     50          1           0       -2.047505   -2.413724    0.037852
     51          1           0       -1.480719   -0.358278    2.289177
     52          1           0       -2.952938    0.595566    2.134415
     53          1           0       -3.025166   -1.163796    2.033170
     54          1           0        4.987924    1.745356   -0.446110
     55          1           0        4.715175    0.930887    1.095605
     56          1           0        4.719349   -1.902342    0.878511
     57          1           0        4.948392   -2.487420   -0.769537
     58          1           0        2.535662   -2.567621   -0.013942
     59          1           0        2.759666   -1.596231   -1.461376
 ---------------------------------------------------------------------
 Rotational constants (GHZ):           0.6722991           0.1241648           0.1136396
 Standard basis: 6-31G(d) (6D, 7F)
 There are   417 symmetry adapted cartesian basis functions of A   symmetry.
 There are   417 symmetry adapted basis functions of A   symmetry.
   417 basis functions,   788 primitive gaussians,   417 cartesian basis functions
    88 alpha electrons       88 beta electrons
       nuclear repulsion energy      2137.5213131849 Hartrees.
 NAtoms=   59 NActive=   59 NUniq=   59 SFac= 1.00D+00 NAtFMM=   60 NAOKFM=F Big=F
 Integral buffers will be    131072 words long.
 Raffenetti 2 integral format.
 Two-electron integral symmetry is turned on.
 One-electron integrals computed using PRISM.
 NBasis=   417 RedAO= T EigKep=  1.67D-03  NBF=   417
 NBsUse=   417 1.00D-06 EigRej= -1.00D+00 NBFU=   417
 ExpMin= 1.61D-01 ExpMax= 5.48D+03 ExpMxC= 8.25D+02 IAcc=3 IRadAn=         5 AccDes= 0.00D+00
 Harris functional with IExCor=  402 and IRadAn=       5 diagonalized for initial guess.
 HarFok:  IExCor=  402 AccDes= 0.00D+00 IRadAn=         5 IDoV= 1 UseB2=F ITyADJ=14
 ICtDFT=  3500011 ScaDFX=  1.000000  1.000000  1.000000  1.000000
 FoFCou: FMM=F IPFlag=           0 FMFlag=      100000 FMFlg1=           0
         NFxFlg=           0 DoJE=T BraDBF=F KetDBF=T FulRan=T
         wScrn=  0.000000 ICntrl=       500 IOpCl=  0 I1Cent=   200000004 NGrid=           0
         NMat0=    1 NMatS0=      1 NMatT0=    0 NMatD0=    1 NMtDS0=    0 NMtDT0=    0
 Petite list used in FoFCou.
 Requested convergence on RMS density matrix=1.00D-08 within 128 cycles.
 Requested convergence on MAX density matrix=1.00D-06.
 Requested convergence on             energy=1.00D-06.
 No special actions if energy rises.
 Integral accuracy reduced to 1.0D-05 until final iterations.
 Initial convergence to 1.0D-05 achieved.  Increase integral accuracy.
 SCF Done:  E(RB3LYP) =  -935.271825192     A.U. after   14 cycles
            NFock= 14  Conv=0.30D-08     -V/T= 2.0099
 DoSCS=F DFT=T ScalE2(SS,OS)=  1.000000  1.000000
 Range of M.O.s used for correlation:     1   417
 NBasis=   417 NAE=    88 NBE=    88 NFC=     0 NFV=     0
 NROrb=    417 NOA=    88 NOB=    88 NVA=   329 NVB=   329
 Symmetrizing basis deriv contribution to polar:
 IMax=3 JMax=2 DiffMx= 0.00D+00
 G2DrvN: will do    60 centers at a time, making    1 passes.
 Calling FoFCou, ICntrl=  3107 FMM=F I1Cent=   0 AccDes= 0.00D+00.
 End of G2Drv F.D. properties file   721 does not exist.
 End of G2Drv F.D. properties file   722 does not exist.
 End of G2Drv F.D. properties file   788 does not exist.
          IDoAtm=11111111111111111111111111111111111111111111111111
          IDoAtm=111111111
          Differentiating once with respect to electric field.
                with respect to dipole field.
          Differentiating once with respect to nuclear coordinates.
 CalDSu exits because no D1Ps are significant.
          There are   180 degrees of freedom in the 1st order CPHF.  IDoFFX=6 NUNeed=     3.
    177 vectors produced by pass  0 Test12= 2.90D-14 1.00D-09 XBig12= 1.55D+02 2.39D+00.
 AX will form   177 AO Fock derivatives at one time.
    177 vectors produced by pass  1 Test12= 2.90D-14 1.00D-09 XBig12= 1.23D+01 7.36D-01.
    177 vectors produced by pass  2 Test12= 2.90D-14 1.00D-09 XBig12= 1.14D-01 3.14D-02.
    177 vectors produced by pass  3 Test12= 2.90D-14 1.00D-09 XBig12= 3.78D-04 1.45D-03.
    177 vectors produced by pass  4 Test12= 2.90D-14 1.00D-09 XBig12= 3.93D-07 3.92D-05.
     73 vectors produced by pass  5 Test12= 2.90D-14 1.00D-09 XBig12= 2.37D-10 1.05D-06.
      3 vectors produced by pass  6 Test12= 2.90D-14 1.00D-09 XBig12= 1.36D-13 2.23D-08.
 InvSVY:  IOpt=1 It=  1 EMax= 7.11D-15
 Solved reduced A of dimension   961 with   180 vectors.
 Isotropic polarizability for W=    0.000000      221.57 Bohr**3.
 End of Minotr F.D. properties file   721 does not exist.
 End of Minotr F.D. properties file   722 does not exist.
 End of Minotr F.D. properties file   788 does not exist.

 **********************************************************************

            Population analysis using the SCF density.

 **********************************************************************

 Orbital symmetries:
       Occupied  (A) (A) (A) (A) (A) (A) (A) (A) (A) (A) (A) (A)
                 (A) (A) (A) (A) (A) (A) (A) (A) (A) (A) (A) (A)
                 (A) (A) (A) (A) (A) (A) (A) (A) (A) (A) (A) (A)
                 (A) (A) (A) (A) (A) (A) (A) (A) (A) (A) (A) (A)
                 (A) (A) (A) (A) (A) (A) (A) (A) (A) (A) (A) (A)
                 (A) (A) (A) (A) (A) (A) (A) (A) (A) (A) (A) (A)
                 (A) (A) (A) (A) (A) (A) (A) (A) (A) (A) (A) (A)
                 (A) (A) (A) (A)
       Virtual   (A) (A) (A) (A) (A) (A) (A) (A) (A) (A) (A) (A)
                 (A) (A) (A) (A) (A) (A) (A) (A) (A) (A) (A) (A)
                 (A) (A) (A) (A) (A) (A) (A) (A) (A) (A) (A) (A)
                 (A) (A) (A) (A) (A) (A) (A) (A) (A) (A) (A) (A)
                 (A) (A) (A) (A) (A) (A) (A) (A) (A) (A) (A) (A)
                 (A) (A) (A) (A) (A) (A) (A) (A) (A) (A) (A) (A)
                 (A) (A) (A) (A) (A) (A) (A) (A) (A) (A) (A) (A)
                 (A) (A) (A) (A) (A) (A) (A) (A) (A) (A) (A) (A)
                 (A) (A) (A) (A) (A) (A) (A) (A) (A) (A) (A) (A)
                 (A) (A) (A) (A) (A) (A) (A) (A) (A) (A) (A) (A)
                 (A) (A) (A) (A) (A) (A) (A) (A) (A) (A) (A) (A)
                 (A) (A) (A) (A) (A) (A) (A) (A) (A) (A) (A) (A)
                 (A) (A) (A) (A) (A) (A) (A) (A) (A) (A) (A) (A)
                 (A) (A) (A) (A) (A) (A) (A) (A) (A) (A) (A) (A)
                 (A) (A) (A) (A) (A) (A) (A) (A) (A) (A) (A) (A)
                 (A) (A) (A) (A) (A) (A) (A) (A) (A) (A) (A) (A)
                 (A) (A) (A) (A) (A) (A) (A) (A) (A) (A) (A) (A)
                 (A) (A) (A) (A) (A) (A) (A) (A) (A) (A) (A) (A)
                 (A) (A) (A) (A) (A) (A) (A) (A) (A) (A) (A) (A)
                 (A) (A) (A) (A) (A) (A) (A) (A) (A) (A) (A) (A)
                 (A) (A) (A) (A) (A) (A) (A) (A) (A) (A) (A) (A)
                 (A) (A) (A) (A) (A) (A) (A) (A) (A) (A) (A) (A)
                 (A) (A) (A) (A) (A) (A) (A) (A) (A) (A) (A) (A)
                 (A) (A) (A) (A) (A) (A) (A) (A) (A) (A) (A) (A)
                 (A) (A) (A) (A) (A) (A) (A) (A) (A) (A) (A) (A)
                 (A) (A) (A) (A) (A) (A) (A) (A) (A) (A) (A) (A)
                 (A) (A) (A) (A) (A) (A) (A) (A) (A) (A) (A) (A)
                 (A) (A) (A) (A) (A)
 The electronic state is 1-A.
 Alpha  occ. eigenvalues --  -19.12888 -10.26517 -10.20084 -10.19312 -10.18842
 Alpha  occ. eigenvalues --  -10.18800 -10.18766 -10.18679 -10.18552 -10.18527
 Alpha  occ. eigenvalues --  -10.18305 -10.18154 -10.18051 -10.17918 -10.17858
 Alpha  occ. eigenvalues --  -10.17829 -10.17764 -10.17620 -10.17548 -10.17500
 Alpha  occ. eigenvalues --  -10.17163 -10.17023 -10.16994  -1.02774  -0.86595
 Alpha  occ. eigenvalues --   -0.84706  -0.80446  -0.78881  -0.77842  -0.76060
 Alpha  occ. eigenvalues --   -0.74346  -0.72395  -0.70942  -0.68475  -0.67910
 Alpha  occ. eigenvalues --   -0.67188  -0.66735  -0.63284  -0.61159  -0.58814
 Alpha  occ. eigenvalues --   -0.58546  -0.56630  -0.54072  -0.53806  -0.52370
 Alpha  occ. eigenvalues --   -0.51534  -0.48098  -0.47526  -0.46867  -0.46099
 Alpha  occ. eigenvalues --   -0.45831  -0.44926  -0.43993  -0.43605  -0.43392
 Alpha  occ. eigenvalues --   -0.42727  -0.42068  -0.40925  -0.40706  -0.40585
 Alpha  occ. eigenvalues --   -0.40434  -0.39429  -0.38659  -0.38520  -0.38400
 Alpha  occ. eigenvalues --   -0.37618  -0.37309  -0.37059  -0.36792  -0.36424
 Alpha  occ. eigenvalues --   -0.35011  -0.34751  -0.34330  -0.34132  -0.33959
 Alpha  occ. eigenvalues --   -0.33376  -0.33125  -0.32377  -0.32005  -0.31289
 Alpha  occ. eigenvalues --   -0.31009  -0.30545  -0.30318  -0.30077  -0.29335
 Alpha  occ. eigenvalues --   -0.27797  -0.26614  -0.23099
 Alpha virt. eigenvalues --   -0.00845   0.07059   0.07431   0.08074   0.09471
 Alpha virt. eigenvalues --    0.09682   0.10454   0.10752   0.11442   0.12083
 Alpha virt. eigenvalues --    0.12435   0.12814   0.13623   0.13972   0.14365
 Alpha virt. eigenvalues --    0.14811   0.14997   0.15400   0.15925   0.16063
 Alpha virt. eigenvalues --    0.16330   0.16730   0.17243   0.17794   0.17903
 Alpha virt. eigenvalues --    0.18171   0.18669   0.18983   0.19421   0.19694
 Alpha virt. eigenvalues --    0.19971   0.20450   0.20850   0.21551   0.22160
 Alpha virt. eigenvalues --    0.22282   0.22542   0.22730   0.22956   0.23644
 Alpha virt. eigenvalues --    0.24141   0.24354   0.24580   0.24777   0.25396
 Alpha virt. eigenvalues --    0.25849   0.26347   0.26916   0.27354   0.27685
 Alpha virt. eigenvalues --    0.28439   0.28854   0.29405   0.29763   0.30501
 Alpha virt. eigenvalues --    0.31168   0.31335   0.32796   0.33707   0.35066
 Alpha virt. eigenvalues --    0.35577   0.37922   0.38903   0.48672   0.49704
 Alpha virt. eigenvalues --    0.50135   0.50788   0.50999   0.51324   0.51825
 Alpha virt. eigenvalues --    0.53185   0.53519   0.54810   0.55101   0.56120
 Alpha virt. eigenvalues --    0.57366   0.57526   0.58295   0.59449   0.60267
 Alpha virt. eigenvalues --    0.60920   0.61473   0.62765   0.63336   0.63851
 Alpha virt. eigenvalues --    0.65300   0.65479   0.65662   0.66676   0.67771
 Alpha virt. eigenvalues --    0.67994   0.68598   0.69943   0.70116   0.70372
 Alpha virt. eigenvalues --    0.70878   0.72394   0.72806   0.73277   0.74710
 Alpha virt. eigenvalues --    0.74924   0.75674   0.76533   0.77414   0.78033
 Alpha virt. eigenvalues --    0.78703   0.80646   0.81176   0.81990   0.82213
 Alpha virt. eigenvalues --    0.82681   0.83516   0.84848   0.85031   0.85515
 Alpha virt. eigenvalues --    0.86293   0.86358   0.87099   0.87633   0.87936
 Alpha virt. eigenvalues --    0.88162   0.88501   0.88893   0.89108   0.89472
 Alpha virt. eigenvalues --    0.89847   0.90496   0.90952   0.91395   0.91568
 Alpha virt. eigenvalues --    0.92113   0.93175   0.93238   0.93589   0.93752
 Alpha virt. eigenvalues --    0.94434   0.95085   0.95259   0.95912   0.96091
 Alpha virt. eigenvalues --    0.96810   0.97367   0.97602   0.97999   0.98085
 Alpha virt. eigenvalues --    0.98773   1.00156   1.00458   1.00839   1.01846
 Alpha virt. eigenvalues --    1.02079   1.02742   1.03123   1.03698   1.04790
 Alpha virt. eigenvalues --    1.05985   1.06227   1.08925   1.09791   1.10837
 Alpha virt. eigenvalues --    1.11627   1.13171   1.13885   1.16750   1.19391
 Alpha virt. eigenvalues --    1.20229   1.22559   1.24584   1.28687   1.30014
 Alpha virt. eigenvalues --    1.31024   1.32485   1.33814   1.35394   1.36940
 Alpha virt. eigenvalues --    1.38949   1.40595   1.42878   1.44585   1.47435
 Alpha virt. eigenvalues --    1.50126   1.50518   1.51730   1.52700   1.54280
 Alpha virt. eigenvalues --    1.55019   1.57236   1.60094   1.61944   1.63218
 Alpha virt. eigenvalues --    1.64557   1.65555   1.67165   1.68977   1.69345
 Alpha virt. eigenvalues --    1.70307   1.71759   1.73657   1.74352   1.75476
 Alpha virt. eigenvalues --    1.76601   1.76892   1.77518   1.78645   1.78884
 Alpha virt. eigenvalues --    1.80631   1.81355   1.82164   1.83278   1.84870
 Alpha virt. eigenvalues --    1.85779   1.87247   1.88207   1.88977   1.89731
 Alpha virt. eigenvalues --    1.90379   1.90828   1.91648   1.92915   1.94096
 Alpha virt. eigenvalues --    1.94550   1.94787   1.96285   1.97061   1.97748
 Alpha virt. eigenvalues --    1.98182   1.99308   2.00147   2.00887   2.01670
 Alpha virt. eigenvalues --    2.02007   2.02672   2.02931   2.03451   2.04630
 Alpha virt. eigenvalues --    2.05246   2.05953   2.06352   2.08384   2.08414
 Alpha virt. eigenvalues --    2.09674   2.10956   2.12059   2.12195   2.13576
 Alpha virt. eigenvalues --    2.14416   2.16312   2.17330   2.18044   2.18810
 Alpha virt. eigenvalues --    2.20161   2.21815   2.22940   2.24752   2.26543
 Alpha virt. eigenvalues --    2.27347   2.28449   2.28701   2.30010   2.31113
 Alpha virt. eigenvalues --    2.32836   2.33820   2.35387   2.36359   2.37971
 Alpha virt. eigenvalues --    2.38539   2.40250   2.40991   2.42791   2.43139
 Alpha virt. eigenvalues --    2.44533   2.45209   2.46537   2.48137   2.49081
 Alpha virt. eigenvalues --    2.51751   2.52471   2.53527   2.55587   2.56154
 Alpha virt. eigenvalues --    2.57189   2.58774   2.59622   2.61190   2.61576
 Alpha virt. eigenvalues --    2.63185   2.63693   2.66624   2.67031   2.72491
 Alpha virt. eigenvalues --    2.73726   2.74894   2.75687   2.77204   2.78459
 Alpha virt. eigenvalues --    2.81483   2.85065   2.85084   2.87411   2.90326
 Alpha virt. eigenvalues --    2.90732   2.91564   2.95910   2.99285   3.03629
 Alpha virt. eigenvalues --    3.04045   4.00803   4.10914   4.14898   4.21805
 Alpha virt. eigenvalues --    4.23334   4.23992   4.27043   4.28913   4.29754
 Alpha virt. eigenvalues --    4.30667   4.35099   4.39159   4.44676   4.47033
 Alpha virt. eigenvalues --    4.52396   4.56380   4.59974   4.64344   4.66745
 Alpha virt. eigenvalues --    4.70676   4.76018   4.79035   4.82813
          Condensed to atoms (all electrons):
 Mulliken charges:
               1
     1  C   -0.448587
     2  C   -0.080072
     3  C   -0.450338
     4  C   -0.073128
     5  C   -0.295713
     6  C   -0.291179
     7  C   -0.091268
     8  C   -0.098537
     9  C   -0.272809
    10  C   -0.268784
    11  C   -0.104441
    12  C    0.101507
    13  C   -0.484838
    14  C   -0.093419
    15  C   -0.292251
    16  C   -0.279023
    17  C    0.093247
    18  C   -0.482572
    19  C   -0.356053
    20  C    0.453519
    21  O   -0.451258
    22  C   -0.355661
    23  C   -0.288904
    24  H    0.147453
    25  H    0.138351
    26  H    0.137227
    27  H    0.119784
    28  H    0.138555
    29  H    0.137572
    30  H    0.147177
    31  H    0.107714
    32  H    0.133930
    33  H    0.138496
    34  H    0.134662
    35  H    0.131616
    36  H    0.109552
    37  H    0.116819
    38  H    0.125309
    39  H    0.136427
    40  H    0.132875
    41  H    0.130257
    42  H    0.123212
    43  H    0.142433
    44  H    0.151290
    45  H    0.148635
    46  H    0.107433
    47  H    0.134598
    48  H    0.135510
    49  H    0.122804
    50  H    0.130551
    51  H    0.145177
    52  H    0.145402
    53  H    0.145964
    54  H    0.159212
    55  H    0.153867
    56  H    0.158176
    57  H    0.162518
    58  H    0.142067
    59  H    0.137934
 Sum of Mulliken charges =  -0.00000
 Mulliken charges with hydrogens summed into heavy atoms:
               1
     1  C   -0.025557
     2  C    0.039712
     3  C   -0.027034
     4  C    0.034586
     5  C   -0.023287
     6  C   -0.024900
     7  C    0.018284
     8  C    0.018282
     9  C   -0.011073
    10  C   -0.005652
    11  C    0.018771
    12  C    0.101507
    13  C   -0.042480
    14  C    0.014014
    15  C   -0.022144
    16  C   -0.025667
    17  C    0.093247
    18  C   -0.046028
    19  C   -0.042973
    20  C    0.453519
    21  O   -0.451258
    22  C   -0.034967
    23  C   -0.008902
 APT charges:
               1
     1  C    0.061510
     2  C    0.132844
     3  C    0.047618
     4  C    0.077021
     5  C    0.072590
     6  C    0.072231
     7  C    0.077225
     8  C    0.047062
     9  C    0.097013
    10  C    0.103838
    11  C    0.100819
    12  C    0.070361
    13  C    0.001631
    14  C    0.072366
    15  C    0.069502
    16  C    0.103951
    17  C    0.048333
    18  C    0.021961
    19  C   -0.076662
    20  C    0.744009
    21  O   -0.676879
    22  C   -0.046843
    23  C    0.099955
    24  H   -0.014238
    25  H   -0.047261
    26  H   -0.024279
    27  H   -0.066919
    28  H   -0.016094
    29  H   -0.046606
    30  H   -0.017900
    31  H   -0.066333
    32  H   -0.048066
    33  H   -0.049287
    34  H   -0.046239
    35  H   -0.043084
    36  H   -0.061366
    37  H   -0.044755
    38  H   -0.042505
    39  H   -0.052388
    40  H   -0.065084
    41  H   -0.041750
    42  H   -0.057147
    43  H   -0.023229
    44  H   -0.005096
    45  H   -0.006841
    46  H   -0.057483
    47  H   -0.051065
    48  H   -0.029055
    49  H   -0.045243
    50  H   -0.057480
    51  H   -0.018556
    52  H   -0.011979
    53  H   -0.020617
    54  H   -0.030427
    55  H    0.000406
    56  H   -0.002310
    57  H   -0.033545
    58  H   -0.038995
    59  H   -0.038637
 Sum of APT charges =   0.00000
 APT charges with hydrogens summed into heavy atoms:
               1
     1  C   -0.024268
     2  C    0.065925
     3  C   -0.032983
     4  C    0.010688
     5  C   -0.024763
     6  C   -0.017092
     7  C    0.015859
     8  C    0.002307
     9  C    0.002119
    10  C   -0.002996
    11  C    0.043672
    12  C    0.070361
    13  C   -0.033535
    14  C    0.014883
    15  C   -0.010617
    16  C    0.001228
    17  C    0.048333
    18  C   -0.029191
    19  C   -0.106683
    20  C    0.744009
    21  O   -0.676879
    22  C   -0.082698
    23  C    0.022322
 Electronic spatial extent (au):  <R**2>=           9754.1525
 Charge=             -0.0000 electrons
 Dipole moment (field-independent basis, Debye):
    X=             -3.0086    Y=              0.0171    Z=              1.6427  Tot=              3.4279
 Quadrupole moment (field-independent basis, Debye-Ang):
   XX=           -173.9256   YY=           -142.7240   ZZ=           -145.2469
   XY=              0.3221   XZ=             10.5673   YZ=             -0.7255
 Traceless Quadrupole moment (field-independent basis, Debye-Ang):
   XX=            -19.9601   YY=             11.2414   ZZ=              8.7186
   XY=              0.3221   XZ=             10.5673   YZ=             -0.7255
 Octapole moment (field-independent basis, Debye-Ang**2):
  XXX=           -202.1366  YYY=             -2.4383  ZZZ=             -4.6021  XYY=             18.4314
  XXY=              6.0818  XXZ=             77.2993  XZZ=             -2.6606  YZZ=              1.1094
  YYZ=             -1.3976  XYZ=             -3.3350
 Hexadecapole moment (field-independent basis, Debye-Ang**3):
 XXXX=         -12348.7401 YYYY=          -1832.2907 ZZZZ=           -749.5614 XXXY=             65.2772
 XXXZ=            426.8837 YYYX=            -24.1845 YYYZ=             -4.4556 ZZZX=             -6.3396
 ZZZY=              4.5799 XXYY=          -2044.8167 XXZZ=          -1975.5826 YYZZ=           -423.8690
 XXYZ=            -27.4897 YYXZ=            -17.3984 ZZXY=             -2.3737
 N-N= 2.137521313185D+03 E-N=-6.439997499421D+03  KE= 9.261191546138D+02
  Exact polarizability: 276.637   0.755 208.924  -3.325  -0.972 179.134
 Approx polarizability: 323.819   0.839 304.409 -11.700  -0.694 310.638
 Calling FoFJK, ICntrl=    100127 FMM=F ISym2X=0 I1Cent= 0 IOpClX= 0 NMat=1 NMatS=1 NMatT=0.
 Full mass-weighted force constant matrix:
 Low frequencies ---   -3.8501   -0.0010    0.0006    0.0010    0.1054    2.6281
 Low frequencies ---   35.8877   54.2364   66.6903
 Diagonal vibrational polarizability:
       14.1583264       8.4903365      33.7924688
 Harmonic frequencies (cm**-1), IR intensities (KM/Mole), Raman scattering
 activities (A**4/AMU), depolarization ratios for plane and unpolarized
 incident light, reduced masses (AMU), force constants (mDyne/A),
 and normal coordinates:
                      1                      2                      3
                      A                      A                      A
 Frequencies --     35.8829                54.2336                66.6896
 Red. masses --      5.0749                 3.0396                 4.6415
 Frc consts  --      0.0038                 0.0053                 0.0122
 IR Inten    --      1.1442                 0.5500                 1.9661
  Atom  AN      X      Y      Z        X      Y      Z        X      Y      Z
     1   6    -0.07   0.02   0.22     0.01  -0.04  -0.07     0.03  -0.00  -0.11
     2   6    -0.01   0.00   0.11    -0.02   0.04   0.03    -0.01  -0.03  -0.07
     3   6    -0.02   0.00   0.07    -0.03   0.02   0.21     0.01  -0.02  -0.15
     4   6    -0.04   0.01   0.04    -0.00  -0.01  -0.02    -0.00   0.00   0.04
     5   6    -0.03   0.00   0.07     0.02   0.01  -0.13    -0.02  -0.00   0.08
     6   6    -0.01  -0.00  -0.00     0.01   0.00  -0.09    -0.02   0.00   0.09
     7   6    -0.02   0.01  -0.07     0.00  -0.01  -0.02    -0.02   0.00   0.08
     8   6    -0.01   0.00  -0.10    -0.00  -0.01   0.01    -0.01   0.01   0.04
     9   6    -0.00  -0.00  -0.11     0.00  -0.00   0.05    -0.03   0.00  -0.02
    10   6    -0.01   0.01  -0.07    -0.01  -0.02   0.10    -0.01   0.01  -0.10
    11   6     0.01   0.00  -0.03    -0.00   0.00   0.04    -0.02   0.00  -0.11
    12   6    -0.02   0.00  -0.07     0.00  -0.03  -0.04     0.00   0.01  -0.06
    13   6    -0.07  -0.01  -0.06     0.02  -0.13  -0.05     0.09   0.02  -0.06
    14   6    -0.00   0.01  -0.12    -0.01  -0.01  -0.00    -0.03   0.00   0.04
    15   6    -0.00  -0.01  -0.17    -0.01  -0.00   0.03    -0.01   0.02   0.13
    16   6    -0.01   0.01  -0.13    -0.02  -0.01   0.05    -0.02  -0.01   0.13
    17   6     0.01  -0.01  -0.05    -0.01   0.01   0.01    -0.03   0.01   0.09
    18   6     0.09  -0.05  -0.04    -0.02   0.07   0.01    -0.07   0.03   0.08
    19   6    -0.01   0.01   0.05    -0.01  -0.00   0.05    -0.02   0.01  -0.15
    20   6     0.05  -0.00   0.14     0.02   0.03   0.00     0.03  -0.02  -0.01
    21   8     0.15  -0.01   0.29     0.06   0.08   0.08     0.19  -0.06   0.22
    22   6    -0.00  -0.00   0.04    -0.00   0.00  -0.13    -0.04  -0.02  -0.11
    23   6     0.01   0.01  -0.05    -0.00   0.02  -0.13    -0.03   0.02  -0.09
    24   1    -0.06   0.02   0.25     0.03  -0.02  -0.21    -0.00  -0.01  -0.06
    25   1    -0.05   0.02   0.27    -0.01   0.01  -0.02     0.02  -0.04  -0.20
    26   1    -0.15   0.05   0.20     0.03  -0.18  -0.04     0.10   0.07  -0.11
    27   1     0.07  -0.03   0.13    -0.04   0.17  -0.00    -0.08  -0.09  -0.07
    28   1    -0.10   0.03   0.04    -0.02  -0.10   0.25     0.10   0.04  -0.14
    29   1    -0.01   0.00   0.13    -0.03   0.06   0.25     0.00  -0.04  -0.24
    30   1     0.03  -0.01   0.00    -0.04   0.10   0.27    -0.03  -0.05  -0.11
    31   1    -0.11   0.03   0.02    -0.00  -0.09  -0.01     0.06   0.04   0.04
    32   1     0.02  -0.01   0.11    -0.02   0.07  -0.18    -0.02  -0.04   0.10
    33   1    -0.08   0.02   0.10     0.07  -0.05  -0.18    -0.04   0.02   0.10
    34   1    -0.04   0.01  -0.01     0.04  -0.02  -0.10    -0.03   0.00   0.08
    35   1     0.05  -0.01  -0.01    -0.03   0.03  -0.09    -0.02   0.00   0.09
    36   1    -0.06   0.03  -0.07     0.02  -0.05  -0.02    -0.04   0.00   0.08
    37   1     0.01   0.00  -0.10    -0.02  -0.03   0.01     0.03   0.03   0.04
    38   1     0.02  -0.02  -0.11     0.03   0.03   0.05    -0.09  -0.01  -0.01
    39   1    -0.01   0.00  -0.13    -0.01  -0.01   0.07    -0.00   0.01  -0.01
    40   1    -0.01   0.00  -0.07     0.00   0.00   0.16    -0.03   0.00  -0.14
    41   1    -0.05   0.02  -0.07    -0.05  -0.08   0.10     0.05   0.03  -0.10
    42   1     0.07  -0.00  -0.04     0.00   0.06   0.04    -0.06  -0.02  -0.10
    43   1    -0.08  -0.02  -0.03     0.02  -0.09  -0.05     0.10   0.05  -0.11
    44   1    -0.07  -0.00  -0.08    -0.03  -0.20   0.01     0.10   0.01  -0.04
    45   1    -0.08  -0.01  -0.08     0.08  -0.18  -0.11     0.13   0.01  -0.03
    46   1     0.03   0.03  -0.11    -0.03  -0.02  -0.01    -0.09  -0.03   0.03
    47   1    -0.01   0.01  -0.23    -0.02  -0.02   0.06    -0.02  -0.01   0.18
    48   1     0.02  -0.07  -0.18    -0.00   0.03   0.04    -0.00   0.10   0.14
    49   1    -0.05   0.06  -0.13    -0.03  -0.05   0.05    -0.02  -0.05   0.13
    50   1    -0.01  -0.00  -0.15    -0.02   0.00   0.08    -0.01   0.00   0.17
    51   1     0.12  -0.06  -0.09    -0.03   0.05   0.02    -0.08   0.06   0.11
    52   1     0.11  -0.06   0.01     0.00   0.10  -0.03    -0.10   0.03   0.05
    53   1     0.11  -0.06  -0.03    -0.05   0.10   0.03    -0.06   0.02   0.08
    54   1     0.02  -0.00   0.07    -0.01   0.02   0.10    -0.02  -0.02  -0.22
    55   1    -0.07   0.04   0.06    -0.02  -0.05   0.06     0.00   0.12  -0.16
    56   1    -0.07  -0.04   0.05    -0.01  -0.09  -0.15    -0.03  -0.08  -0.12
    57   1     0.03   0.01   0.04     0.00   0.06  -0.20    -0.04   0.01  -0.15
    58   1    -0.01   0.01  -0.09    -0.00  -0.01  -0.21    -0.04   0.01  -0.11
    59   1     0.07   0.03  -0.06     0.00   0.11  -0.13    -0.05   0.05  -0.09
                      4                      5                      6
                      A                      A                      A
 Frequencies --     79.3286               104.1203               114.9860
 Red. masses --      2.9149                 3.2130                 3.0756
 Frc consts  --      0.0108                 0.0205                 0.0240
 IR Inten    --      0.1292                 0.0247                 0.5130
  Atom  AN      X      Y      Z        X      Y      Z        X      Y      Z
     1   6    -0.06   0.14   0.17    -0.00  -0.14   0.08     0.05   0.01  -0.14
     2   6    -0.01  -0.00   0.01     0.06  -0.09   0.01    -0.02   0.02  -0.02
     3   6    -0.08   0.02  -0.17     0.17  -0.08  -0.09     0.00   0.02  -0.00
     4   6    -0.00  -0.03  -0.01     0.00   0.01   0.01    -0.01   0.03   0.07
     5   6     0.02  -0.02  -0.06    -0.05   0.00   0.04    -0.00   0.02   0.17
     6   6     0.03  -0.02  -0.12    -0.03   0.06  -0.09     0.04   0.01   0.02
     7   6     0.01  -0.05  -0.04    -0.00   0.06  -0.05    -0.00  -0.02  -0.01
     8   6     0.00  -0.03  -0.02    -0.00   0.07  -0.03     0.01  -0.02  -0.08
     9   6    -0.01  -0.03  -0.02     0.04   0.05  -0.01     0.00  -0.06  -0.17
    10   6    -0.02  -0.02   0.02     0.02   0.01   0.06    -0.03  -0.01  -0.08
    11   6    -0.00  -0.00   0.02     0.02   0.01   0.05     0.01  -0.03   0.02
    12   6     0.02  -0.02   0.01    -0.02   0.01  -0.01    -0.00  -0.04  -0.01
    13   6     0.03  -0.05   0.01    -0.03  -0.06  -0.01    -0.04  -0.06  -0.01
    14   6     0.01  -0.04   0.03    -0.02   0.05  -0.00    -0.00  -0.05  -0.04
    15   6     0.00  -0.02   0.10    -0.01   0.06   0.03    -0.02  -0.03   0.00
    16   6    -0.00  -0.05   0.09    -0.00   0.05   0.03    -0.04  -0.02   0.05
    17   6    -0.01  -0.02   0.01     0.01   0.06   0.00    -0.00   0.00   0.05
    18   6    -0.02   0.05   0.01     0.04   0.12   0.01     0.04   0.04   0.06
    19   6    -0.00   0.02   0.03     0.01  -0.06   0.08    -0.01  -0.01   0.14
    20   6     0.02   0.05  -0.00    -0.03  -0.06   0.01     0.00   0.05   0.04
    21   8     0.01   0.09  -0.01    -0.05  -0.06  -0.01    -0.05   0.12  -0.04
    22   6     0.04   0.03  -0.03    -0.07  -0.05  -0.05     0.04   0.02  -0.00
    23   6     0.04   0.00  -0.02    -0.06   0.01  -0.06     0.03  -0.02  -0.01
    24   1    -0.03   0.12   0.34    -0.08  -0.16   0.15     0.03   0.01  -0.14
    25   1    -0.04   0.11   0.17     0.04  -0.22   0.08     0.02   0.00  -0.25
    26   1    -0.15   0.29   0.14    -0.03  -0.06   0.06     0.17   0.03  -0.12
    27   1     0.08  -0.11   0.05     0.07  -0.18   0.03    -0.12   0.03  -0.04
    28   1    -0.19   0.13  -0.23     0.26   0.00  -0.09     0.12   0.01   0.03
    29   1    -0.08   0.02  -0.13     0.19  -0.16  -0.19    -0.02   0.02  -0.10
    30   1    -0.03  -0.09  -0.29     0.15  -0.08  -0.07    -0.07   0.03   0.08
    31   1    -0.00  -0.06  -0.01     0.01   0.04   0.01     0.01   0.11   0.06
    32   1     0.05   0.01  -0.04     0.03  -0.04   0.12     0.10  -0.05   0.28
    33   1    -0.01  -0.05  -0.06    -0.17  -0.00   0.09    -0.12   0.07   0.26
    34   1     0.04  -0.08  -0.19    -0.09   0.01  -0.19    -0.01  -0.03  -0.05
    35   1     0.05   0.06  -0.15     0.02   0.16  -0.13     0.14   0.06  -0.01
    36   1     0.03  -0.12  -0.03     0.01   0.02  -0.04    -0.06  -0.05  -0.01
    37   1    -0.02  -0.01  -0.02    -0.02   0.08  -0.03     0.06   0.04  -0.08
    38   1     0.02  -0.05  -0.02     0.10   0.04  -0.02     0.05  -0.17  -0.18
    39   1    -0.03  -0.03  -0.05     0.05   0.06  -0.04    -0.03  -0.02  -0.28
    40   1    -0.02  -0.01   0.04     0.06   0.01   0.11    -0.00  -0.03  -0.09
    41   1    -0.05  -0.03   0.03    -0.03  -0.03   0.07    -0.10   0.04  -0.08
    42   1     0.00  -0.00   0.02     0.04   0.04   0.04     0.10  -0.06   0.01
    43   1     0.03  -0.00   0.01    -0.04  -0.04   0.00    -0.05  -0.12   0.01
    44   1    -0.01  -0.08   0.02    -0.07  -0.10   0.02    -0.01  -0.03  -0.01
    45   1     0.08  -0.07  -0.01    -0.00  -0.09  -0.06    -0.10  -0.04  -0.02
    46   1    -0.00  -0.09   0.02    -0.02   0.03  -0.00     0.01  -0.08  -0.04
    47   1     0.00  -0.05   0.15    -0.01   0.05   0.05    -0.04  -0.04   0.01
    48   1     0.00   0.04   0.10    -0.01   0.09   0.03     0.01  -0.01   0.01
    49   1    -0.00  -0.13   0.09    -0.01   0.02   0.03    -0.08  -0.05   0.06
    50   1     0.00  -0.03   0.16     0.00   0.06   0.06    -0.03  -0.00   0.10
    51   1    -0.03   0.06   0.03     0.04   0.14  -0.00     0.05  -0.01   0.03
    52   1    -0.01   0.08  -0.03     0.04   0.14  -0.02     0.10   0.08   0.06
    53   1    -0.04   0.07   0.04     0.04   0.13   0.05    -0.00   0.08   0.09
    54   1    -0.02   0.04   0.05     0.05  -0.05   0.13     0.00   0.04   0.24
    55   1    -0.01  -0.00   0.03    -0.00  -0.12   0.08    -0.09  -0.10   0.16
    56   1     0.05   0.01  -0.04    -0.09  -0.11  -0.05     0.04  -0.01  -0.01
    57   1     0.05   0.05  -0.05    -0.09  -0.04  -0.08     0.06   0.05  -0.03
    58   1     0.06  -0.01  -0.03    -0.10   0.01  -0.11     0.05  -0.03  -0.02
    59   1     0.03   0.02  -0.02    -0.05   0.08  -0.06     0.04  -0.02  -0.01
                      7                      8                      9
                      A                      A                      A
 Frequencies --    141.9048               161.6723               181.2250
 Red. masses --      1.8619                 1.7933                 2.8074
 Frc consts  --      0.0221                 0.0276                 0.0543
 IR Inten    --      0.3586                 0.4411                 0.1274
  Atom  AN      X      Y      Z        X      Y      Z        X      Y      Z
     1   6     0.02   0.01  -0.04    -0.00   0.00   0.02    -0.06  -0.07   0.06
     2   6    -0.01   0.00  -0.00     0.01  -0.00  -0.00     0.02   0.03  -0.00
     3   6    -0.01   0.00   0.00    -0.01  -0.00  -0.01     0.16   0.04   0.00
     4   6    -0.01   0.01   0.03     0.01  -0.01  -0.01    -0.02   0.09  -0.04
     5   6    -0.00  -0.00   0.07     0.01  -0.00  -0.06     0.01   0.09   0.03
     6   6     0.03   0.00  -0.08    -0.03  -0.02   0.12     0.03   0.03   0.04
     7   6     0.00  -0.02  -0.03    -0.01   0.02   0.03    -0.00   0.01  -0.02
     8   6    -0.01  -0.03  -0.01     0.01   0.02  -0.04    -0.01  -0.05  -0.01
     9   6    -0.01   0.01   0.08     0.02   0.00  -0.08    -0.01  -0.05  -0.00
    10   6    -0.02  -0.01   0.08     0.00   0.01  -0.02    -0.03  -0.06   0.00
    11   6    -0.02   0.02  -0.02     0.02   0.01  -0.00    -0.04  -0.06  -0.01
    12   6    -0.00   0.00  -0.04     0.01   0.00  -0.05    -0.00  -0.07   0.03
    13   6    -0.02  -0.01  -0.03    -0.01  -0.06  -0.05     0.00  -0.06   0.03
    14   6     0.00  -0.01  -0.05     0.00   0.01  -0.03    -0.01  -0.07   0.03
    15   6     0.01  -0.02  -0.04     0.01   0.03   0.05    -0.07  -0.03   0.05
    16   6    -0.02  -0.02   0.03     0.02   0.01   0.03    -0.04   0.03  -0.05
    17   6    -0.00  -0.00   0.02     0.00   0.00   0.01    -0.03   0.04  -0.06
    18   6     0.03   0.03   0.02    -0.04  -0.01   0.01    -0.08   0.03  -0.06
    19   6    -0.01   0.04  -0.09     0.02   0.00   0.04    -0.04   0.03  -0.09
    20   6     0.01  -0.00   0.01     0.00  -0.01   0.05     0.02   0.05  -0.04
    21   8    -0.00  -0.05  -0.01    -0.05  -0.03  -0.03     0.05   0.07   0.00
    22   6     0.02   0.03   0.12     0.01   0.00   0.10     0.07   0.03   0.02
    23   6     0.04   0.02  -0.02     0.03   0.03  -0.07     0.05  -0.06   0.06
    24   1    -0.00   0.01  -0.02     0.02   0.01  -0.00    -0.04  -0.05  -0.06
    25   1     0.01  -0.01  -0.10    -0.00   0.02   0.04    -0.03  -0.03   0.24
    26   1     0.07   0.04  -0.04    -0.03  -0.02   0.02    -0.19  -0.21   0.07
    27   1    -0.05   0.00  -0.01     0.02  -0.01   0.00     0.05   0.02   0.00
    28   1     0.03   0.00   0.01    -0.03   0.00  -0.02     0.35   0.06   0.05
    29   1    -0.02   0.01  -0.03    -0.00   0.00   0.01     0.16  -0.04  -0.16
    30   1    -0.04   0.01   0.03     0.01  -0.01  -0.03     0.07   0.09   0.12
    31   1    -0.00   0.04   0.03     0.01  -0.04  -0.01    -0.05   0.13  -0.05
    32   1     0.09  -0.04   0.16    -0.11   0.04  -0.16     0.02   0.07   0.05
    33   1    -0.12   0.01   0.14     0.15  -0.02  -0.13     0.02   0.14   0.05
    34   1    -0.00  -0.06  -0.18     0.00   0.08   0.26     0.05   0.05   0.07
    35   1     0.10   0.10  -0.12    -0.11  -0.16   0.17     0.05  -0.01   0.05
    36   1     0.01  -0.07  -0.03    -0.06   0.07   0.02    -0.00   0.05  -0.02
    37   1    -0.04  -0.08  -0.01     0.06   0.04  -0.03    -0.02  -0.04  -0.01
    38   1    -0.01   0.09   0.08     0.05  -0.05  -0.08    -0.01  -0.05  -0.01
    39   1    -0.03  -0.03   0.15     0.01   0.02  -0.13    -0.02  -0.05  -0.01
    40   1    -0.02   0.02   0.15     0.02   0.01   0.02    -0.02  -0.06   0.02
    41   1    -0.02  -0.10   0.09    -0.05  -0.01  -0.01    -0.03  -0.08   0.01
    42   1    -0.07   0.07  -0.01     0.05   0.03  -0.01    -0.10  -0.08  -0.01
    43   1    -0.05   0.30   0.01    -0.04   0.23   0.01    -0.00   0.06   0.04
    44   1    -0.29  -0.20  -0.03    -0.28  -0.25  -0.02    -0.10  -0.12   0.03
    45   1     0.26  -0.15  -0.08     0.25  -0.21  -0.13     0.11  -0.11   0.02
    46   1    -0.00   0.00  -0.05    -0.03  -0.03  -0.03    -0.01  -0.11   0.03
    47   1    -0.01  -0.01  -0.08     0.01  -0.00   0.13    -0.07  -0.07   0.12
    48   1     0.06  -0.04  -0.05    -0.01   0.12   0.07    -0.14   0.03   0.06
    49   1    -0.08  -0.06   0.03     0.04  -0.00   0.03     0.04   0.06  -0.05
    50   1    -0.00  -0.01   0.08     0.02   0.01   0.03    -0.08   0.03  -0.11
    51   1     0.04  -0.11  -0.01    -0.04   0.19   0.04    -0.09   0.16  -0.02
    52   1     0.18   0.11   0.03    -0.22  -0.11  -0.02    -0.20  -0.02  -0.10
    53   1    -0.09   0.12   0.04     0.13  -0.12   0.00     0.02  -0.03  -0.06
    54   1    -0.04   0.01  -0.19     0.03  -0.01   0.03    -0.11   0.03  -0.15
    55   1     0.04   0.14  -0.11    -0.01   0.01   0.04     0.01   0.10  -0.10
    56   1    -0.08   0.15   0.17    -0.12   0.07   0.13     0.11   0.09   0.02
    57   1     0.07  -0.03   0.25     0.06  -0.03   0.18     0.09   0.02   0.05
    58   1     0.00   0.01  -0.08    -0.03   0.01  -0.19     0.11  -0.07   0.10
    59   1     0.13   0.04  -0.04     0.15   0.11  -0.09     0.03  -0.11   0.06
                     10                     11                     12
                      A                      A                      A
 Frequencies --    192.5813               208.2093               225.7114
 Red. masses --      2.3036                 2.8548                 2.1285
 Frc consts  --      0.0503                 0.0729                 0.0639
 IR Inten    --      0.0548                 0.1385                 0.1745
  Atom  AN      X      Y      Z        X      Y      Z        X      Y      Z
     1   6    -0.05  -0.01  -0.04     0.12   0.08   0.00     0.02   0.00  -0.02
     2   6    -0.06  -0.01  -0.02     0.08   0.02   0.02    -0.02  -0.03   0.02
     3   6    -0.12  -0.02   0.04     0.05   0.02   0.03    -0.03  -0.03  -0.02
     4   6    -0.04  -0.01  -0.02     0.07  -0.01   0.00    -0.01  -0.02   0.04
     5   6    -0.06  -0.03   0.13     0.07  -0.01   0.01    -0.04  -0.01  -0.07
     6   6    -0.04   0.01  -0.03     0.06  -0.02  -0.02    -0.07   0.01   0.05
     7   6    -0.01   0.02  -0.05     0.04  -0.02  -0.03    -0.03   0.04   0.00
     8   6    -0.00   0.04  -0.03    -0.01   0.00  -0.01    -0.00   0.02  -0.04
     9   6     0.04   0.01  -0.04    -0.04  -0.00  -0.06     0.04  -0.00  -0.03
    10   6     0.03  -0.00   0.05    -0.07   0.02   0.01     0.01  -0.04   0.05
    11   6     0.04   0.01   0.04    -0.08   0.01   0.02     0.00  -0.04   0.03
    12   6     0.03   0.01   0.05    -0.05   0.01   0.05    -0.01  -0.02   0.04
    13   6     0.06  -0.01   0.04    -0.03  -0.01   0.05    -0.08  -0.01   0.05
    14   6     0.02   0.02   0.05    -0.02  -0.01   0.06    -0.00   0.01  -0.03
    15   6    -0.00   0.04   0.08     0.00  -0.02   0.06    -0.01  -0.00  -0.07
    16   6     0.04   0.02  -0.06     0.05  -0.03  -0.05    -0.03   0.03   0.01
    17   6    -0.01  -0.00  -0.07     0.06  -0.03  -0.03    -0.00   0.03   0.04
    18   6    -0.02  -0.03  -0.07     0.12  -0.07  -0.03     0.07   0.07   0.05
    19   6     0.06  -0.01  -0.02    -0.09   0.02  -0.05     0.02  -0.01  -0.05
    20   6     0.04  -0.01  -0.03    -0.10   0.01  -0.02     0.04   0.01  -0.07
    21   8     0.05  -0.03  -0.02    -0.04   0.00   0.06     0.08   0.03  -0.00
    22   6     0.02  -0.00  -0.03    -0.11   0.00  -0.07     0.04   0.01  -0.06
    23   6     0.01   0.02   0.01    -0.10   0.01   0.01     0.01  -0.05   0.09
    24   1    -0.04  -0.01  -0.06     0.11   0.07   0.10    -0.12  -0.04   0.18
    25   1    -0.06  -0.00  -0.03     0.10   0.05  -0.11     0.03  -0.16  -0.26
    26   1    -0.04  -0.04  -0.03     0.20   0.20  -0.01     0.18   0.24  -0.04
    27   1    -0.05   0.02  -0.03     0.09   0.03   0.02    -0.05  -0.05   0.02
    28   1    -0.30  -0.08   0.01     0.07   0.00   0.04    -0.09  -0.01  -0.04
    29   1    -0.11   0.03   0.23     0.04   0.04   0.02    -0.03  -0.03   0.02
    30   1    -0.03  -0.01  -0.05     0.04   0.02   0.05    -0.00  -0.05  -0.07
    31   1    -0.07   0.08  -0.04     0.05  -0.00  -0.00    -0.00  -0.08   0.05
    32   1     0.06  -0.15   0.27     0.08  -0.02   0.03    -0.13   0.06  -0.17
    33   1    -0.23   0.05   0.25     0.05  -0.01   0.02     0.08  -0.07  -0.16
    34   1    -0.11  -0.02  -0.10     0.06  -0.02  -0.02    -0.06   0.07   0.15
    35   1     0.05   0.06  -0.05     0.09  -0.03  -0.02    -0.13  -0.08   0.09
    36   1    -0.00   0.03  -0.05     0.04  -0.02  -0.03    -0.07   0.06  -0.00
    37   1    -0.03   0.08  -0.03    -0.02   0.07  -0.01     0.01   0.04  -0.04
    38   1     0.12  -0.04  -0.05     0.01  -0.06  -0.07     0.10  -0.02  -0.04
    39   1     0.04   0.04  -0.11    -0.08   0.00  -0.12     0.04   0.02  -0.07
    40   1     0.05   0.01   0.11    -0.04   0.01   0.04     0.05  -0.03   0.12
    41   1    -0.04  -0.04   0.06    -0.12   0.01   0.02    -0.05  -0.09   0.06
    42   1     0.01   0.01   0.05    -0.13  -0.00   0.03    -0.03  -0.03   0.03
    43   1     0.05   0.12   0.04    -0.04   0.26   0.06    -0.10   0.19   0.11
    44   1    -0.05  -0.09   0.06    -0.26  -0.17   0.06    -0.27  -0.12   0.03
    45   1     0.18  -0.07   0.02     0.22  -0.13   0.01     0.09  -0.09   0.02
    46   1     0.03  -0.03   0.05    -0.02  -0.05   0.05     0.04   0.02  -0.02
    47   1     0.04   0.01   0.19     0.05  -0.02   0.11    -0.03   0.03  -0.15
    48   1    -0.09   0.13   0.10    -0.06   0.01   0.07     0.04  -0.07  -0.08
    49   1     0.14   0.05  -0.06     0.14   0.02  -0.05    -0.09   0.04   0.01
    50   1     0.02   0.00  -0.13     0.01  -0.03  -0.12    -0.02   0.04   0.03
    51   1    -0.02   0.17  -0.04     0.14   0.10  -0.05     0.09   0.11   0.00
    52   1    -0.21  -0.13  -0.09    -0.03  -0.16  -0.01     0.06   0.06   0.05
    53   1     0.15  -0.14  -0.08     0.28  -0.17  -0.02     0.10   0.06   0.10
    54   1     0.04  -0.01  -0.04    -0.11   0.00  -0.10    -0.03   0.01  -0.06
    55   1     0.11  -0.00  -0.03    -0.03   0.07  -0.06     0.08  -0.02  -0.06
    56   1     0.05  -0.02  -0.04    -0.07  -0.04  -0.09     0.15   0.01  -0.08
    57   1    -0.01  -0.01  -0.05    -0.12   0.03  -0.12     0.00   0.01  -0.10
    58   1     0.02   0.01   0.01    -0.09   0.02   0.02     0.08  -0.04   0.21
    59   1    -0.01   0.03   0.02    -0.16   0.03   0.02    -0.09  -0.16   0.11
                     13                     14                     15
                      A                      A                      A
 Frequencies --    230.6005               238.0993               253.2885
 Red. masses --      1.2024                 1.2813                 1.5112
 Frc consts  --      0.0377                 0.0428                 0.0571
 IR Inten    --      0.0564                 0.0121                 0.1318
  Atom  AN      X      Y      Z        X      Y      Z        X      Y      Z
     1   6     0.03   0.02  -0.01     0.00  -0.01   0.00    -0.01   0.04  -0.00
     2   6     0.01  -0.01   0.01     0.01   0.01   0.00    -0.04   0.01   0.03
     3   6     0.00  -0.01   0.02     0.04   0.01   0.04     0.01   0.01  -0.00
     4   6     0.00  -0.01   0.01    -0.01   0.02  -0.01    -0.03  -0.01   0.04
     5   6     0.00  -0.01   0.01    -0.01   0.02  -0.02    -0.03  -0.00  -0.04
     6   6     0.01  -0.00  -0.01    -0.01   0.02  -0.02    -0.03   0.00  -0.05
     7   6     0.00  -0.00  -0.02    -0.01   0.01   0.02    -0.02  -0.00   0.01
     8   6     0.00  -0.02  -0.02    -0.00   0.00   0.04    -0.01   0.02   0.00
     9   6    -0.01   0.01   0.06    -0.01  -0.01  -0.01     0.00  -0.02  -0.06
    10   6    -0.00  -0.01   0.02    -0.00  -0.00  -0.05    -0.02   0.01   0.04
    11   6    -0.01  -0.00  -0.02    -0.00  -0.01  -0.01     0.01   0.02   0.04
    12   6    -0.01  -0.01  -0.03     0.01  -0.01   0.00     0.02   0.01   0.03
    13   6    -0.02   0.00  -0.04     0.05  -0.05  -0.00     0.07  -0.04   0.02
    14   6    -0.00  -0.02  -0.03    -0.00  -0.00   0.03     0.00   0.01   0.03
    15   6    -0.01  -0.00   0.01    -0.01   0.00   0.02    -0.01  -0.00  -0.01
    16   6    -0.01  -0.00   0.00     0.00   0.03  -0.03    -0.01   0.02  -0.03
    17   6     0.00   0.00  -0.00    -0.01   0.01  -0.01    -0.02  -0.01   0.02
    18   6     0.00   0.04   0.00    -0.05  -0.04  -0.01     0.03  -0.06   0.02
    19   6    -0.02   0.00  -0.01    -0.00   0.00   0.00     0.03   0.02  -0.03
    20   6    -0.00   0.00   0.01     0.00   0.00   0.02     0.02  -0.00  -0.00
    21   8    -0.01   0.01   0.00    -0.01   0.01  -0.00     0.01  -0.04  -0.01
    22   6     0.01   0.00   0.04     0.01   0.00   0.03     0.01   0.01   0.03
    23   6     0.02  -0.01  -0.01     0.01  -0.00  -0.02     0.02   0.03  -0.02
    24   1    -0.06  -0.02   0.15    -0.26  -0.09   0.35    -0.05   0.02   0.08
    25   1     0.04  -0.10  -0.18     0.07  -0.32  -0.32    -0.02  -0.01  -0.09
    26   1     0.15   0.20  -0.02     0.21   0.40  -0.04     0.05   0.13  -0.01
    27   1     0.00  -0.01   0.01     0.01   0.01   0.00    -0.07  -0.01   0.03
    28   1    -0.04  -0.02   0.01    -0.15  -0.02  -0.01     0.46   0.05   0.11
    29   1     0.01  -0.00   0.06     0.10  -0.03   0.26    -0.08  -0.01  -0.44
    30   1     0.03  -0.00  -0.00     0.20   0.06  -0.09    -0.28  -0.01   0.30
    31   1    -0.00  -0.00   0.01    -0.01   0.01  -0.01    -0.04  -0.05   0.04
    32   1     0.02  -0.01   0.03    -0.00   0.01  -0.01    -0.04   0.05  -0.07
    33   1    -0.02  -0.01   0.02    -0.03   0.01  -0.01    -0.01  -0.05  -0.08
    34   1    -0.00  -0.00  -0.01    -0.00  -0.00  -0.05    -0.02  -0.02  -0.07
    35   1     0.02  -0.01  -0.01    -0.02   0.07  -0.03    -0.05   0.04  -0.05
    36   1    -0.00  -0.01  -0.02     0.02   0.01   0.03    -0.02  -0.03   0.01
    37   1    -0.00  -0.06  -0.02     0.00   0.02   0.04     0.00   0.06   0.01
    38   1    -0.03   0.10   0.06    -0.04  -0.04  -0.01     0.07  -0.11  -0.07
    39   1    -0.00  -0.02   0.13     0.00   0.00  -0.02    -0.02   0.02  -0.16
    40   1    -0.00  -0.00   0.04    -0.01  -0.02  -0.09    -0.01   0.02   0.08
    41   1     0.02  -0.04   0.02     0.03   0.04  -0.05    -0.09  -0.01   0.04
    42   1    -0.02   0.02  -0.02     0.01  -0.04  -0.01    -0.01   0.03   0.04
    43   1    -0.01  -0.26  -0.05     0.05  -0.04  -0.02     0.10  -0.19  -0.04
    44   1     0.20   0.15  -0.05     0.04  -0.06   0.03     0.21   0.02   0.06
    45   1    -0.26   0.12  -0.00     0.06  -0.06  -0.02    -0.04   0.01   0.02
    46   1    -0.02  -0.03  -0.04    -0.01   0.01   0.03     0.02   0.02   0.03
    47   1    -0.01  -0.02   0.05    -0.01   0.00   0.03    -0.01   0.01  -0.05
    48   1    -0.03   0.05   0.01    -0.04   0.00   0.02    -0.02  -0.05  -0.02
    49   1    -0.01  -0.01   0.00     0.05   0.07  -0.03     0.01   0.07  -0.03
    50   1    -0.01   0.01   0.01    -0.00   0.01  -0.09    -0.02   0.00  -0.08
    51   1     0.02   0.48   0.03    -0.07  -0.22  -0.00     0.04  -0.02  -0.00
    52   1    -0.37  -0.14  -0.08     0.10   0.04   0.02    -0.02  -0.10   0.06
    53   1     0.36  -0.18   0.06    -0.20   0.05  -0.07     0.09  -0.11   0.01
    54   1    -0.01   0.00  -0.01    -0.01   0.00  -0.01     0.01   0.00  -0.08
    55   1    -0.03   0.01  -0.01    -0.02   0.02   0.01     0.08   0.07  -0.04
    56   1    -0.01   0.03   0.05    -0.02   0.02   0.04    -0.02   0.03   0.04
    57   1     0.04  -0.01   0.07     0.03  -0.00   0.05     0.01  -0.01   0.06
    58   1     0.01  -0.01  -0.01     0.00  -0.01  -0.06    -0.01   0.02  -0.09
    59   1     0.05  -0.02  -0.02     0.05   0.03  -0.02     0.05   0.10  -0.03
                     16                     17                     18
                      A                      A                      A
 Frequencies --    256.5046               262.6143               276.0956
 Red. masses --      1.6169                 2.0532                 1.8145
 Frc consts  --      0.0627                 0.0834                 0.0815
 IR Inten    --      0.0727                 0.0615                 0.2583
  Atom  AN      X      Y      Z        X      Y      Z        X      Y      Z
     1   6    -0.02   0.02   0.01    -0.01   0.02   0.02    -0.04  -0.05  -0.02
     2   6    -0.02   0.02   0.01    -0.00   0.02  -0.00    -0.01   0.04  -0.01
     3   6     0.04   0.02   0.02     0.05   0.02   0.04     0.06   0.05  -0.03
     4   6    -0.02   0.00   0.01    -0.01   0.01  -0.03    -0.01   0.04   0.02
     5   6     0.00   0.00   0.00     0.02   0.00   0.03     0.03   0.04  -0.02
     6   6     0.02  -0.01  -0.06     0.03  -0.05   0.09     0.05   0.01  -0.04
     7   6    -0.00  -0.03   0.01    -0.00  -0.03  -0.06    -0.00  -0.04   0.04
     8   6     0.00  -0.01   0.02    -0.00  -0.03  -0.09     0.00  -0.02   0.00
     9   6     0.00   0.01   0.05     0.01  -0.02  -0.04    -0.01  -0.04  -0.07
    10   6     0.04   0.01  -0.05    -0.02   0.00   0.12    -0.04   0.01   0.05
    11   6     0.04  -0.00  -0.02     0.02   0.05   0.03     0.01   0.03   0.04
    12   6     0.01   0.02  -0.02    -0.00   0.04  -0.02     0.01   0.02   0.02
    13   6    -0.04   0.09  -0.00    -0.04   0.10  -0.01     0.02   0.02   0.02
    14   6     0.01   0.01  -0.02     0.01  -0.02  -0.05     0.01   0.00  -0.01
    15   6     0.01   0.01  -0.02     0.01  -0.00   0.04     0.02  -0.02  -0.09
    16   6    -0.01  -0.02   0.01     0.00  -0.06   0.04    -0.03  -0.01   0.03
    17   6    -0.02  -0.02   0.02    -0.01  -0.03  -0.05    -0.03  -0.01   0.07
    18   6    -0.09  -0.07   0.01    -0.07   0.01  -0.05    -0.05  -0.05   0.07
    19   6     0.03  -0.04   0.07     0.03   0.00  -0.00     0.02   0.02  -0.01
    20   6     0.02  -0.01  -0.00     0.01  -0.01  -0.02    -0.00  -0.00  -0.01
    21   8     0.02   0.01  -0.01     0.02  -0.05  -0.00     0.01  -0.04  -0.00
    22   6     0.00  -0.02  -0.05    -0.02  -0.00  -0.03    -0.02   0.01  -0.02
    23   6    -0.01  -0.00   0.01    -0.01   0.03  -0.00    -0.01   0.04  -0.00
    24   1    -0.09  -0.01   0.13    -0.13  -0.02   0.20    -0.07  -0.05  -0.11
    25   1     0.00  -0.07  -0.09     0.02  -0.13  -0.12    -0.02  -0.06   0.05
    26   1     0.04   0.16  -0.01     0.06   0.22  -0.01    -0.06  -0.15  -0.01
    27   1    -0.03   0.02   0.01     0.01   0.03  -0.01    -0.03   0.02  -0.00
    28   1     0.27   0.02   0.09     0.14  -0.01   0.07    -0.26   0.09  -0.13
    29   1     0.00  -0.01  -0.19     0.05  -0.01  -0.02     0.16  -0.03   0.29
    30   1    -0.10   0.04   0.19     0.02   0.07   0.10     0.31   0.09  -0.28
    31   1    -0.02  -0.00   0.01    -0.04   0.03  -0.04     0.03   0.02   0.03
    32   1     0.04   0.01   0.03    -0.00  -0.01   0.01     0.04   0.09  -0.02
    33   1    -0.04  -0.00   0.02     0.07   0.05   0.03     0.04   0.03  -0.03
    34   1     0.03  -0.05  -0.12     0.03   0.03   0.20     0.09  -0.05  -0.10
    35   1     0.03   0.06  -0.08     0.04  -0.20   0.13     0.06   0.07  -0.06
    36   1     0.01  -0.07   0.02    -0.06   0.01  -0.06    -0.01  -0.10   0.04
    37   1    -0.01  -0.05   0.01    -0.02  -0.04  -0.09     0.04   0.01   0.00
    38   1    -0.06   0.07   0.06     0.13  -0.04  -0.05     0.08  -0.16  -0.08
    39   1     0.03  -0.01   0.12    -0.04  -0.02  -0.10    -0.05  -0.01  -0.20
    40   1     0.00   0.00  -0.12    -0.00   0.06   0.26    -0.03   0.04   0.11
    41   1     0.11   0.06  -0.06    -0.14  -0.10   0.14    -0.13  -0.01   0.06
    42   1     0.09  -0.01  -0.02     0.00   0.12   0.03    -0.01   0.05   0.05
    43   1    -0.07   0.41   0.06    -0.04  -0.03  -0.01     0.02  -0.00   0.01
    44   1    -0.32  -0.06  -0.06     0.07   0.21  -0.06     0.04   0.02   0.03
    45   1     0.23  -0.03  -0.01    -0.18   0.18   0.05     0.00   0.02   0.03
    46   1     0.00   0.03  -0.02     0.01  -0.08  -0.05     0.04   0.05  -0.00
    47   1     0.00   0.01  -0.03     0.02  -0.04   0.13    -0.02   0.02  -0.21
    48   1     0.04   0.01  -0.02     0.01   0.10   0.06     0.09  -0.14  -0.10
    49   1    -0.03  -0.03   0.01    -0.01  -0.17   0.04    -0.12  -0.02   0.03
    50   1     0.01  -0.02   0.03     0.03  -0.05   0.14     0.02  -0.02   0.08
    51   1    -0.11   0.10   0.06    -0.10  -0.21  -0.02    -0.04   0.15   0.08
    52   1    -0.27  -0.16  -0.02     0.12   0.12  -0.06    -0.24  -0.16   0.06
    53   1     0.05  -0.18  -0.04    -0.27   0.14  -0.08     0.13  -0.18   0.05
    54   1     0.08  -0.01   0.16     0.04  -0.00   0.00     0.01   0.01  -0.06
    55   1    -0.02  -0.13   0.08     0.06  -0.02  -0.01     0.08   0.04  -0.03
    56   1     0.04  -0.07  -0.07    -0.00  -0.02  -0.04    -0.01  -0.00  -0.02
    57   1    -0.03  -0.00  -0.11    -0.04  -0.00  -0.05    -0.04   0.01  -0.03
    58   1     0.00   0.01   0.07    -0.02   0.04  -0.00    -0.03   0.03  -0.02
    59   1    -0.05  -0.04   0.02    -0.02   0.03  -0.00    -0.02   0.07   0.00
                     19                     20                     21
                      A                      A                      A
 Frequencies --    286.5388               302.3866               313.0215
 Red. masses --      2.5685                 2.4582                 2.5481
 Frc consts  --      0.1242                 0.1324                 0.1471
 IR Inten    --      0.1785                 0.0719                 0.4417
  Atom  AN      X      Y      Z        X      Y      Z        X      Y      Z
     1   6    -0.09  -0.04  -0.02    -0.09  -0.06  -0.04     0.10   0.04   0.01
     2   6    -0.06   0.01  -0.01    -0.07   0.05   0.02     0.05  -0.02   0.03
     3   6    -0.01   0.02  -0.02     0.02   0.06  -0.05     0.01  -0.02   0.00
     4   6    -0.04   0.02  -0.00    -0.04   0.03   0.06     0.02  -0.01   0.02
     5   6    -0.01   0.02  -0.00     0.00   0.05  -0.05    -0.03  -0.01  -0.01
     6   6     0.00  -0.02   0.06     0.01   0.01  -0.03    -0.04   0.05  -0.04
     7   6    -0.00  -0.01  -0.04    -0.01  -0.00  -0.02    -0.02   0.04   0.02
     8   6    -0.01  -0.05  -0.00    -0.00   0.00  -0.03    -0.00   0.03  -0.04
     9   6    -0.03  -0.03   0.03     0.01   0.02   0.04     0.03   0.00  -0.04
    10   6    -0.03  -0.01   0.00     0.02  -0.02   0.02    -0.03  -0.09   0.10
    11   6     0.00   0.01  -0.01     0.00  -0.01  -0.03    -0.02  -0.02  -0.05
    12   6     0.03   0.00  -0.00    -0.01  -0.00  -0.04     0.01  -0.03  -0.08
    13   6     0.23   0.09  -0.00    -0.06   0.05  -0.04     0.12   0.09  -0.08
    14   6     0.02  -0.03   0.02    -0.01  -0.02  -0.01    -0.00   0.01  -0.05
    15   6     0.01  -0.05  -0.04    -0.02   0.04   0.14    -0.01   0.04  -0.00
    16   6    -0.01  -0.01  -0.01     0.02   0.00  -0.00     0.01   0.06  -0.01
    17   6    -0.00   0.01  -0.04    -0.00  -0.01   0.02    -0.00   0.03   0.04
    18   6     0.11   0.11  -0.02     0.17  -0.14   0.04    -0.08  -0.08   0.03
    19   6    -0.02  -0.00   0.06    -0.01  -0.03   0.01    -0.05  -0.01   0.01
    20   6    -0.04  -0.01   0.06     0.01  -0.00  -0.00    -0.04  -0.00   0.04
    21   8    -0.07   0.01   0.02     0.01   0.02  -0.00    -0.05   0.06   0.03
    22   6    -0.02  -0.05  -0.01     0.02  -0.01   0.00     0.02  -0.04   0.02
    23   6    -0.01  -0.01  -0.01     0.02  -0.01  -0.01     0.00  -0.10   0.04
    24   1    -0.20  -0.06   0.05    -0.19  -0.06  -0.10     0.22   0.06  -0.07
    25   1    -0.04  -0.16  -0.08    -0.06  -0.13  -0.05     0.04   0.17   0.05
    26   1    -0.04   0.05  -0.03    -0.05  -0.10  -0.03     0.08  -0.06   0.03
    27   1    -0.07   0.01  -0.01    -0.12   0.02   0.02     0.04  -0.03   0.03
    28   1     0.02   0.03  -0.01    -0.05   0.15  -0.09    -0.05  -0.01  -0.02
    29   1     0.00  -0.02  -0.04     0.08  -0.03   0.02     0.01   0.00   0.04
    30   1    -0.01   0.04  -0.00     0.13   0.09  -0.14     0.03  -0.06  -0.04
    31   1    -0.05   0.02  -0.01    -0.04  -0.01   0.07     0.03  -0.02   0.03
    32   1    -0.04   0.05  -0.04    -0.02   0.14  -0.09    -0.03  -0.01  -0.01
    33   1     0.06   0.03  -0.03     0.06  -0.01  -0.10    -0.05  -0.04  -0.02
    34   1     0.01   0.04   0.15     0.04   0.01  -0.03    -0.06   0.01  -0.10
    35   1    -0.00  -0.13   0.09     0.00   0.00  -0.03    -0.06   0.12  -0.06
    36   1     0.00   0.04  -0.04    -0.03  -0.03  -0.02    -0.06   0.00   0.02
    37   1    -0.04  -0.05  -0.00    -0.02  -0.01  -0.03     0.03   0.02  -0.04
    38   1    -0.05   0.00   0.03     0.01   0.11   0.04     0.13  -0.03  -0.05
    39   1    -0.04  -0.05   0.07     0.03  -0.00   0.11     0.02   0.02  -0.10
    40   1    -0.05   0.01   0.01     0.03  -0.01   0.06     0.05  -0.02   0.34
    41   1    -0.01  -0.02   0.00     0.03  -0.08   0.03    -0.15  -0.30   0.13
    42   1     0.04   0.02  -0.02     0.01   0.02  -0.03    -0.00   0.07  -0.05
    43   1     0.26   0.31  -0.13    -0.08   0.02   0.01     0.15   0.16  -0.17
    44   1     0.14   0.02   0.02    -0.05   0.10  -0.10     0.13   0.10  -0.09
    45   1     0.45   0.03   0.10    -0.12   0.09  -0.01     0.19   0.09   0.03
    46   1     0.04  -0.02   0.02    -0.07  -0.10  -0.01    -0.02  -0.01  -0.05
    47   1    -0.01  -0.03  -0.12     0.00  -0.04   0.33    -0.02   0.01   0.04
    48   1     0.05  -0.13  -0.05    -0.11   0.21   0.16    -0.00   0.09   0.01
    49   1    -0.02  -0.03  -0.01     0.13   0.04  -0.00     0.02   0.12  -0.01
    50   1    -0.02  -0.00   0.00     0.01  -0.01  -0.07    -0.00   0.04  -0.07
    51   1     0.16   0.23  -0.10     0.23  -0.23  -0.08    -0.12  -0.17   0.08
    52   1     0.08   0.11  -0.06     0.25  -0.15   0.20    -0.07  -0.09   0.07
    53   1     0.20   0.10   0.11     0.17  -0.14   0.02    -0.14  -0.08  -0.09
    54   1     0.03  -0.02   0.07     0.01  -0.01   0.07    -0.02  -0.02   0.02
    55   1    -0.06   0.01   0.07    -0.05  -0.07   0.02    -0.09   0.00   0.02
    56   1    -0.01  -0.13  -0.03     0.01   0.01   0.01     0.04  -0.06   0.01
    57   1    -0.02   0.01  -0.08     0.03  -0.02   0.02     0.05  -0.01  -0.01
    58   1    -0.04   0.00   0.01     0.02  -0.01  -0.01     0.02  -0.06   0.18
    59   1    -0.02  -0.01  -0.00     0.03  -0.03  -0.02    -0.02  -0.26   0.04
                     22                     23                     24
                      A                      A                      A
 Frequencies --    327.8398               349.1135               365.0378
 Red. masses --      2.6511                 2.6704                 2.3562
 Frc consts  --      0.1679                 0.1918                 0.1850
 IR Inten    --      0.7597                 0.0751                 0.0290
  Atom  AN      X      Y      Z        X      Y      Z        X      Y      Z
     1   6     0.09   0.01   0.01     0.06   0.14  -0.01     0.09  -0.02  -0.01
     2   6     0.04  -0.04   0.03     0.01   0.05  -0.00    -0.03  -0.03   0.13
     3   6    -0.01  -0.04  -0.01     0.17   0.08   0.02    -0.01  -0.02  -0.04
     4   6     0.01   0.00   0.02    -0.03  -0.02  -0.02    -0.05   0.00   0.11
     5   6    -0.02   0.01  -0.01    -0.12  -0.06   0.00     0.03   0.04  -0.01
     6   6    -0.02   0.03  -0.01    -0.15  -0.03  -0.00     0.06  -0.04  -0.00
     7   6    -0.01   0.02   0.03    -0.08  -0.00  -0.03    -0.01  -0.05  -0.06
     8   6    -0.03  -0.07   0.07    -0.08   0.00  -0.01    -0.00  -0.04  -0.09
     9   6    -0.00  -0.13   0.01    -0.09   0.01   0.03    -0.07   0.04   0.03
    10   6    -0.00  -0.03   0.02    -0.05   0.00  -0.02    -0.04   0.07  -0.03
    11   6     0.02   0.00   0.01     0.01   0.00   0.01     0.00   0.04   0.03
    12   6    -0.01   0.01  -0.01     0.01   0.01   0.01     0.02   0.02   0.03
    13   6    -0.05   0.16   0.00     0.03  -0.03   0.01     0.04  -0.05   0.03
    14   6    -0.05  -0.08   0.06    -0.01   0.01   0.00     0.04  -0.02  -0.05
    15   6    -0.09  -0.09   0.03     0.02  -0.00   0.00    -0.03   0.04   0.01
    16   6    -0.04   0.05  -0.08     0.01  -0.04   0.03    -0.00   0.05  -0.08
    17   6    -0.01   0.03   0.00    -0.03  -0.03  -0.02    -0.03  -0.01   0.01
    18   6     0.02   0.06   0.01     0.05   0.00  -0.01    -0.07   0.03   0.01
    19   6     0.04  -0.03   0.03     0.03  -0.03   0.03     0.02   0.01   0.02
    20   6     0.06  -0.01  -0.01     0.05  -0.02  -0.01     0.01  -0.02   0.00
    21   8     0.05  -0.02  -0.04     0.04  -0.04  -0.03     0.00  -0.05  -0.01
    22   6     0.01   0.02  -0.01     0.05  -0.02  -0.00     0.02  -0.02  -0.02
    23   6     0.02   0.09  -0.09     0.04   0.00   0.02     0.02   0.01   0.04
    24   1     0.17   0.03  -0.04     0.25   0.17  -0.12     0.15  -0.00  -0.13
    25   1     0.04   0.10   0.01    -0.02   0.33   0.06     0.01   0.06  -0.10
    26   1     0.10  -0.05   0.02     0.00   0.01  -0.00     0.23  -0.13   0.03
    27   1     0.05  -0.05   0.03     0.02   0.06  -0.00    -0.10  -0.09   0.13
    28   1    -0.10  -0.03  -0.04     0.05   0.11  -0.02    -0.07   0.15  -0.10
    29   1    -0.02   0.01   0.05     0.29  -0.10   0.20     0.00  -0.06  -0.06
    30   1     0.01  -0.09  -0.07     0.37   0.23  -0.10     0.03  -0.12  -0.15
    31   1     0.01  -0.00   0.02    -0.03  -0.02  -0.02    -0.13  -0.04   0.11
    32   1    -0.03   0.02  -0.03    -0.11  -0.12   0.02    -0.01   0.20  -0.08
    33   1    -0.01  -0.01  -0.03    -0.15  -0.06   0.02     0.14  -0.03  -0.09
    34   1    -0.02   0.00  -0.05    -0.17  -0.00   0.01     0.08  -0.00   0.05
    35   1    -0.04   0.09  -0.03    -0.15  -0.04   0.00     0.10  -0.11   0.02
    36   1     0.02   0.03   0.03    -0.08   0.02  -0.03    -0.07  -0.07  -0.07
    37   1    -0.04  -0.05   0.06    -0.10  -0.01  -0.01    -0.03  -0.10  -0.09
    38   1     0.03  -0.24  -0.00    -0.13   0.07   0.03    -0.13   0.20   0.04
    39   1    -0.03  -0.09  -0.10    -0.06  -0.01   0.09    -0.09  -0.04   0.18
    40   1    -0.06  -0.00   0.01    -0.09   0.01  -0.06    -0.08   0.06  -0.10
    41   1    -0.00  -0.01   0.02    -0.03   0.04  -0.03    -0.01   0.14  -0.04
    42   1     0.04   0.03   0.00     0.04  -0.02   0.01     0.01   0.02   0.03
    43   1    -0.07   0.24   0.06     0.03  -0.03  -0.01     0.04  -0.04   0.01
    44   1    -0.11   0.20  -0.13     0.03  -0.05   0.04     0.03  -0.09   0.08
    45   1    -0.04   0.19   0.11     0.04  -0.04  -0.01     0.06  -0.08  -0.02
    46   1    -0.10  -0.08   0.06    -0.00   0.01   0.00     0.09  -0.08  -0.05
    47   1    -0.11  -0.10   0.03     0.03   0.01  -0.01    -0.03  -0.03   0.16
    48   1    -0.17  -0.12   0.03     0.05  -0.01   0.00    -0.12   0.18   0.03
    49   1     0.07   0.22  -0.09    -0.02  -0.12   0.03     0.07   0.19  -0.08
    50   1    -0.14   0.04  -0.27     0.05  -0.04   0.10     0.00  -0.01  -0.23
    51   1     0.03   0.06  -0.01     0.08   0.03  -0.07    -0.11  -0.02   0.08
    52   1     0.04   0.08  -0.02     0.06  -0.00   0.01    -0.04   0.08  -0.06
    53   1     0.01   0.08   0.05     0.09  -0.01   0.05    -0.16   0.09  -0.01
    54   1     0.04   0.01   0.10     0.05  -0.00   0.09     0.04  -0.00   0.01
    55   1     0.02  -0.10   0.04     0.02  -0.09   0.04     0.04   0.00   0.01
    56   1    -0.07   0.05   0.02     0.06  -0.02  -0.00     0.07  -0.09  -0.05
    57   1     0.01  -0.02   0.04     0.02  -0.02  -0.01    -0.02   0.01  -0.10
    58   1    -0.02   0.03  -0.28     0.04   0.00   0.02     0.00   0.03   0.07
    59   1     0.10   0.27  -0.10     0.04  -0.00   0.01    -0.01  -0.01   0.04
                     25                     26                     27
                      A                      A                      A
 Frequencies --    381.0745               400.9111               404.2262
 Red. masses --      2.3940                 2.5501                 3.4180
 Frc consts  --      0.2048                 0.2415                 0.3291
 IR Inten    --      0.0920                 1.0210                 1.5944
  Atom  AN      X      Y      Z        X      Y      Z        X      Y      Z
     1   6    -0.09   0.03  -0.01    -0.03   0.03  -0.02     0.01   0.03  -0.02
     2   6    -0.04   0.02  -0.05    -0.07   0.02   0.05    -0.06   0.00   0.06
     3   6     0.02   0.03   0.01     0.05   0.04  -0.01     0.06   0.03  -0.01
     4   6     0.02  -0.04  -0.01    -0.03  -0.04   0.05    -0.05  -0.03   0.05
     5   6     0.01  -0.06   0.01    -0.01  -0.06   0.01    -0.02  -0.04   0.00
     6   6     0.00  -0.02   0.00    -0.02  -0.06  -0.00    -0.02  -0.06  -0.01
     7   6     0.00  -0.03   0.09     0.01  -0.02  -0.02     0.01  -0.03  -0.02
     8   6     0.01  -0.04   0.05     0.03   0.04  -0.03     0.02  -0.02   0.03
     9   6    -0.06  -0.05  -0.02     0.09   0.04  -0.01     0.14  -0.07   0.03
    10   6    -0.07  -0.01   0.02     0.08  -0.06  -0.00     0.14  -0.07  -0.01
    11   6     0.00   0.03  -0.02    -0.04  -0.09   0.01     0.10  -0.03  -0.04
    12   6     0.03   0.01  -0.05     0.00  -0.04   0.07    -0.02   0.01  -0.04
    13   6    -0.07  -0.01  -0.05    -0.03   0.06   0.09     0.02  -0.04  -0.05
    14   6     0.05   0.01  -0.02     0.04   0.02   0.02    -0.03   0.00   0.01
    15   6     0.09   0.03   0.01     0.04   0.02  -0.03    -0.03  -0.02   0.01
    16   6     0.14   0.07  -0.09     0.05  -0.00  -0.03    -0.02  -0.03  -0.05
    17   6     0.02  -0.03   0.05     0.01  -0.04   0.02    -0.02  -0.04  -0.02
    18   6    -0.01   0.10   0.06    -0.06   0.04   0.01    -0.01   0.04  -0.02
    19   6    -0.00   0.01   0.00    -0.07  -0.04  -0.07     0.09   0.12   0.03
    20   6    -0.02  -0.01  -0.00    -0.03  -0.03   0.03    -0.03   0.12   0.01
    21   8    -0.01  -0.03   0.01    -0.05   0.10   0.02    -0.02  -0.02   0.02
    22   6     0.00  -0.02  -0.02     0.01  -0.06   0.01    -0.15   0.17   0.00
    23   6     0.01  -0.04   0.02     0.02   0.04  -0.09    -0.14  -0.02   0.02
    24   1    -0.11   0.02   0.03     0.02   0.05  -0.08     0.08   0.05  -0.09
    25   1    -0.06   0.00   0.04    -0.06   0.09  -0.04    -0.05   0.11  -0.06
    26   1    -0.16   0.06  -0.03     0.02  -0.02  -0.01     0.07  -0.03   0.00
    27   1    -0.04   0.04  -0.06    -0.11   0.01   0.04    -0.09  -0.01   0.06
    28   1     0.09  -0.01   0.04     0.06   0.14  -0.03     0.03   0.13  -0.05
    29   1     0.04  -0.03  -0.01     0.12  -0.10  -0.00     0.12  -0.11   0.02
    30   1     0.02   0.12   0.07     0.14   0.10  -0.06     0.16   0.07  -0.09
    31   1     0.06  -0.05  -0.00    -0.07  -0.08   0.05    -0.10  -0.06   0.04
    32   1     0.02  -0.10   0.02    -0.02  -0.02  -0.01    -0.03   0.01  -0.02
    33   1    -0.02  -0.05   0.03     0.00  -0.08  -0.01     0.00  -0.06  -0.02
    34   1     0.01  -0.08  -0.08    -0.04  -0.03   0.03    -0.02  -0.04   0.01
    35   1    -0.02   0.09  -0.03    -0.01  -0.09   0.01    -0.01  -0.07  -0.00
    36   1     0.01  -0.04   0.09    -0.01  -0.04  -0.02     0.03  -0.03  -0.01
    37   1     0.07  -0.04   0.05     0.01   0.06  -0.03    -0.01  -0.02   0.03
    38   1    -0.05  -0.13  -0.02     0.11   0.08  -0.00     0.16  -0.11   0.02
    39   1    -0.09  -0.03  -0.08     0.12   0.05   0.02     0.18  -0.03  -0.03
    40   1    -0.09   0.04   0.09     0.15  -0.11  -0.02     0.11  -0.06  -0.02
    41   1    -0.12  -0.06   0.03     0.10  -0.05  -0.00     0.21  -0.10  -0.02
    42   1     0.02   0.06  -0.02    -0.11  -0.13   0.02     0.16  -0.03  -0.04
    43   1    -0.09  -0.04   0.03    -0.04   0.08   0.12     0.03  -0.06  -0.08
    44   1    -0.10  -0.03  -0.06    -0.02   0.14  -0.02     0.04  -0.06   0.00
    45   1    -0.10  -0.02  -0.11    -0.07   0.11   0.19     0.02  -0.05  -0.08
    46   1    -0.00   0.03  -0.02     0.09   0.02   0.02    -0.06   0.01   0.01
    47   1     0.10   0.00   0.07     0.06   0.04  -0.06    -0.00  -0.02   0.05
    48   1     0.02   0.08   0.02     0.04  -0.03  -0.04    -0.08   0.01   0.02
    49   1     0.28   0.36  -0.09     0.06   0.08  -0.03     0.02   0.01  -0.05
    50   1     0.13  -0.03  -0.39     0.09  -0.05  -0.11    -0.01  -0.06  -0.10
    51   1    -0.02   0.15   0.09    -0.10   0.05   0.08    -0.02   0.07   0.00
    52   1     0.02   0.18  -0.08    -0.07   0.08  -0.08    -0.00   0.08  -0.09
    53   1    -0.06   0.17   0.18    -0.11   0.08   0.03    -0.04   0.07   0.04
    54   1     0.03   0.01   0.03    -0.12  -0.09  -0.21     0.03   0.14  -0.01
    55   1    -0.02  -0.01   0.01    -0.02   0.12  -0.09     0.08   0.15   0.03
    56   1     0.04  -0.04  -0.03    -0.07  -0.10   0.02    -0.19   0.27   0.03
    57   1     0.01   0.00  -0.04     0.01  -0.05  -0.00    -0.07   0.14   0.11
    58   1     0.02   0.00   0.14    -0.05  -0.04  -0.38    -0.03   0.00   0.23
    59   1    -0.03  -0.15   0.03     0.12   0.33  -0.10    -0.25  -0.21   0.04
                     28                     29                     30
                      A                      A                      A
 Frequencies --    426.2880               429.8637               448.1237
 Red. masses --      2.4911                 2.6971                 3.0088
 Frc consts  --      0.2667                 0.2936                 0.3560
 IR Inten    --      0.3057                 1.0437                 1.5396
  Atom  AN      X      Y      Z        X      Y      Z        X      Y      Z
     1   6     0.05  -0.08   0.00     0.02  -0.03   0.01     0.02  -0.01  -0.00
     2   6    -0.00   0.05   0.14     0.02   0.02   0.03    -0.02   0.03   0.07
[...]
 0,0.00000701,-0.00000872,0.00000431,0.00000115,0.00000164,0.00000174,-
 0.00001747,0.00000168,0.00000745,-0.00000611,-0.00000247,0.00001452,0.
 00000101,-0.00000877,0.00000517,-0.00000236,-0.00000064,-0.00000472,0.
 00000444,0.00000392,0.00000773,0.00000972,0.00000239,-0.00002322,0.000
 01510,-0.00000248,0.00001032,0.00001477,-0.00003760,-0.00000623,-0.000
 00070,-0.00011179,0.00002112,-0.00001109,0.00001887,0.00000587,0.00006
 862,-0.00005488,-0.00000310,-0.00000711,0.00012307,0.00008561,-0.00006
 761,-0.00002874,-0.00000845,-0.00001461,0.00003140,-0.00002054,0.00003
 490,0.00000648,0.00008061,0.00002334,0.00003046,-0.00000967,-0.0000024
 2,0.00001622,-0.00000700,0.00000146,-0.00001136,0.00001557,-0.00004103
 ,0.00001803,0.00002326,0.00001028,-0.00000281,0.00001764,-0.00000441,-
 0.00000709,0.00000219,-0.00001328,0.00001025,0.00000084,0.00056629,0.0
 0089031,-0.00011134,-0.00010082,-0.00011194,0.00002666,-0.00732969,-0.
 00925898,-0.00222508,0.16214321,-0.00000407,0.00000186,-0.00000216,0.0
 0000611,-0.00000423,0.00000380,-0.00000412,0.00000011,-0.00000209,-0.0
 0000896,0.00000288,-0.00000706,0.00000266,-0.00000048,-0.00000379,0.00
 000180,0.00000743,0.00000423,-0.00000650,0.00001968,-0.00003675,0.0000
 2513,0.00000430,0.00002572,-0.00000571,-0.00005219,-0.00007391,-0.0001
 1333,0.00010742,0.00018296,0.00050893,0.00022977,-0.00046197,0.0006644
 7,0.00075557,-0.00010440,0.00008320,0.00023593,-0.00002442,0.00002686,
 0.00011501,-0.00009644,-0.00002445,-0.00001403,0.00004818,-0.00001073,
 0.00000704,-0.00001974,0.00000119,-0.00000777,0.00001735,0.00000091,0.
 00000376,-0.00000067,0.00500581,-0.00317056,0.00082016,-0.02201907,-0.
 02682240,-0.00630954,-0.00002241,0.00597940,0.00117429,-0.12453157,-0.
 20477056,-0.03851052,0.00128843,0.00178553,0.00098884,0.00000171,0.000
 00037,-0.00000104,-0.00000335,0.00000147,0.00000259,0.00000145,-0.0000
 0008,0.00000088,-0.00000008,0.00000085,0.00000019,0.00000170,-0.000000
 32,0.00000011,-0.00000354,0.00000200,0.00000232,0.00000221,-0.00000266
 ,0.00000143,0.00000107,0.00000099,0.00000148,-0.00000513,0.00000051,0.
 00000162,-0.00000123,-0.00000097,0.00000454,-0.00000075,0.00000382,-0.
 00000547,0.00000247,-0.00000018,0.00000126,0.00000134,-0.00000060,0.00
 000207,-0.00000365,0.00000006,-0.00000875,-0.00000015,0.00000605,0.000
 01148,-0.00003897,-0.00001119,0.00003174,0.00001162,0.00008507,-0.0000
 3294,0.00000073,-0.00000643,-0.00001328,-0.00003640,-0.00000626,0.0001
 3324,0.00002780,-0.00010662,-0.00000288,0.00003020,-0.00000512,-0.0000
 3154,-0.00006862,0.00000937,0.00000745,-0.00000773,-0.00001682,0.00000
 186,-0.00000055,-0.00000168,-0.00001113,-0.00000263,0.00000562,-0.0000
 0080,0.00000197,-0.00000274,0.00000624,-0.00000934,0.00000652,0.000006
 61,0.00000193,-0.00000214,0.00000531,0.00000056,-0.00000186,0.00000018
 ,-0.00000457,0.00000410,-0.00000015,-0.00087849,-0.00151419,0.00006980
 ,0.00009170,0.00036465,-0.00019515,0.00350539,0.00439174,0.00039946,0.
 13680908,0.22183955,0.00000518,-0.00000194,0.00000258,-0.00000713,0.00
 000438,-0.00000464,0.00000553,-0.00000052,0.00000307,0.00000864,0.0000
 0155,0.00001075,0.00000830,0.00001983,-0.00000238,0.00003034,-0.000041
 96,-0.00005384,0.00006494,0.00019328,0.00007562,0.00018157,-0.00019053
 ,-0.00044605,0.00002457,-0.00008181,0.00000859,-0.00013788,0.00002399,
 0.00003533,0.00017958,-0.00058393,-0.00005787,0.00268844,-0.00159072,-
 0.00345984,-0.00002038,-0.00029768,-0.00056814,0.00057674,0.00119082,0
 .00055130,-0.00007237,0.00013080,-0.00002153,0.00002355,-0.00003729,0.
 00003340,-0.00002573,0.00001052,-0.00000425,0.00000167,-0.00000437,-0.
 00000300,0.00007407,-0.00003368,0.00126426,-0.00094122,0.00305057,-0.0
 0051438,0.00099453,-0.00020158,-0.00110332,-0.03003907,-0.03889214,-0.
 05836225,0.01457527,0.01928952,0.00394829,-0.00000172,-0.00000020,0.00
 000100,0.00000311,-0.00000154,-0.00000286,-0.00000153,-0.00000015,-0.0
 0000102,0.00000058,-0.00000074,-0.00000016,-0.00000173,0.00000039,0.00
 000013,0.00000355,-0.00000175,-0.00000273,-0.00000275,0.00000300,-0.00
 000248,-0.00000145,-0.00000155,-0.00000107,0.00000927,-0.00000152,-0.0
 0000556,0.00000455,0.00000066,-0.00000763,-0.00000080,0.00000707,-0.00
 000383,0.00000151,0.00000026,0.00000364,-0.00000895,-0.00000228,-0.000
 00009,0.00002135,0.00000906,0.00003732,-0.00000991,0.00000198,-0.00000
 341,-0.00001945,0.00002338,0.00000742,0.00000933,0.00006428,0.00000802
 ,0.00001234,0.00000741,0.00001107,-0.00004008,0.00001550,-0.00002784,-
 0.00011097,0.00017015,0.00049547,-0.00006698,0.00004539,0.00031400,0.0
 0000871,0.00001719,0.00003857,-0.00006562,0.00000635,-0.00002033,-0.00
 000979,-0.00003088,0.00001391,0.00002433,-0.00002336,0.00000992,-0.000
 00338,0.00000599,-0.00000709,0.00001995,-0.00000817,-0.00001648,-0.000
 00392,0.00000079,-0.00000647,0.00000100,0.00000314,-0.00000057,0.00000
 504,-0.00000387,0.00000146,-0.00009993,-0.00004006,0.00031524,0.000230
 05,0.00039714,0.00015372,-0.01791404,-0.02396424,-0.00520796,0.0311802
 6,0.04122886,0.06112841,0.00000129,-0.00000147,0.00000055,-0.00000243,
 0.00000446,0.00000025,0.00000426,-0.00000186,0.00000080,-0.00000487,-0
 .00000876,-0.00000019,0.00000256,0.00000302,0.00000192,0.00001024,-0.0
 0001209,-0.00001263,0.00000674,0.00006699,0.00000950,0.00000482,-0.000
 03405,-0.00013756,0.00010844,0.00013201,-0.00007768,0.00106947,-0.0009
 0763,0.00011225,-0.00237820,-0.00242693,-0.00032058,0.01116661,-0.0156
 6492,0.00174462,0.00108158,-0.00044679,0.00046339,0.00069023,0.0005482
 1,0.00000730,-0.00103010,0.00030205,0.00117041,-0.00009796,-0.00019272
 ,-0.00002475,-0.00003257,-0.00000654,0.00003874,0.00000130,0.00000374,
 0.00001565,-0.00003102,0.00001488,-0.00059174,-0.00103937,-0.00492385,
 0.00383767,-0.00199799,0.00189334,-0.00079998,-0.01560400,0.02175206,0
 .00026629,-0.12583973,0.11897205,-0.02140870,-0.00000124,-0.00000174,0
 .00000092,0.00000166,-0.00000037,-0.00000094,-0.00000057,0.00000072,-0
 .00000040,-0.00000035,-0.00000184,-0.00000039,-0.00000145,0.00000090,-
 0.00000207,0.00000177,-0.00000071,-0.00000167,-0.00000038,0.00000199,0
 .00000126,0.00000045,0.00000046,-0.00000058,0.00000281,-0.00000061,-0.
 00000137,0.00000102,-0.00000229,-0.00000179,0.00000031,-0.00000126,-0.
 00000099,0.00000014,-0.00000048,0.00000033,0.00000024,-0.00000031,0.00
 000058,0.00000694,0.00001223,0.00000130,-0.00000654,-0.00000291,0.0000
 1642,-0.00000336,0.00001521,-0.00000072,-0.00016825,-0.00044600,0.0000
 6635,0.00003096,0.00010924,-0.00002550,-0.00000866,-0.00003210,0.00021
 356,-0.00008063,-0.00000133,-0.00009725,0.00011250,0.00006946,0.000201
 08,0.00002476,0.00011463,0.00000725,-0.00006863,-0.00003197,0.00010904
 ,-0.00200398,-0.00073051,0.00137980,-0.00009931,0.00003119,-0.00007131
 ,0.00001436,0.00000918,-0.00003326,0.00002706,-0.00000866,-0.00002106,
 -0.00000111,0.00000021,-0.00000877,0.00000025,-0.00000040,-0.00000360,
 0.00000323,-0.00000175,-0.00000106,0.00007078,0.00007837,-0.00007626,-
 0.00001348,-0.00003918,-0.00000198,0.00168243,-0.00046056,-0.00037100,
 0.00017944,-0.00025182,-0.00061325,0.14150413,0.00000149,-0.00000242,0
 .00000477,-0.00000976,0.00000276,-0.00000040,-0.00000139,-0.00000945,0
 .00001352,-0.00000691,0.00011120,0.00006994,0.00002418,-0.00000978,-0.
 00005440,-0.00002605,0.00001828,0.00003034,0.00003410,-0.00005121,-0.0
 0006612,-0.00017241,0.00007166,0.00009401,0.00023444,0.00008562,-0.000
 23079,0.00190234,-0.00077123,0.00014328,-0.00558065,-0.00375745,-0.000
 56404,0.01507457,-0.02250657,0.00372223,0.00151639,0.00068678,0.000949
 06,0.00100547,-0.00009580,-0.00060930,0.00014739,-0.00079235,-0.000700
 80,-0.00001188,0.00068670,0.00026293,0.00009393,-0.00017743,-0.0001992
 6,-0.00001003,0.00007175,0.00000440,-0.00038290,0.00059023,0.00023029,
 -0.00048854,0.00076792,0.00031142,0.00003854,0.00002266,-0.00013014,-0
 .00046792,0.00158928,0.00005175,0.11739468,-0.22654303,0.02723815,0.00
 000264,0.00000871,-0.00000334,0.00000298,-0.00000049,-0.00000314,-0.00
 000131,-0.00000149,-0.00000099,0.00000122,0.00000191,0.00000163,-0.000
 00088,0.00000243,0.00001057,0.00001092,0.00000500,-0.00000700,-0.00001
 107,0.00001018,-0.00001718,-0.00000174,-0.00000392,0.00000317,-0.00000
 757,0.00001312,0.00000818,-0.00000042,0.00002664,-0.00000211,-0.000000
 73,0.00003820,-0.00002580,0.00001136,0.00000031,0.00000602,-0.00000376
 ,-0.00001061,-0.00000695,-0.00002019,-0.00002321,-0.00002340,-0.000006
 42,0.00002341,0.00003063,-0.00011499,0.00003118,0.00006426,-0.00035107
 ,-0.00068218,0.00003140,-0.00009940,-0.00007342,-0.00009348,-0.0001307
 6,0.00037352,0.00008031,-0.00010557,-0.00003008,-0.00005632,-0.0002122
 3,0.00048453,0.00018866,-0.00090767,0.00050111,-0.00081241,-0.00009593
 ,-0.00000441,-0.00004683,0.00039238,0.00143226,0.00037499,-0.00015308,
 -0.00000263,0.00003137,0.00001134,-0.00000290,-0.00008803,-0.00003426,
 -0.00000442,0.00004635,-0.00000322,-0.00003858,-0.00002182,0.00003850,
 0.00001839,0.00000046,-0.00002227,0.00000321,0.00000023,0.00011899,-0.
 00000030,-0.00007492,0.00001064,-0.00002098,-0.00009021,-0.00002090,0.
 00027155,-0.00035020,0.00035658,0.00035231,-0.00035229,-0.12799185,0.2
 4562693,-0.00000394,0.00000240,-0.00000345,0.00000954,-0.00000273,0.00
 000649,-0.00000204,0.00000483,-0.00000455,-0.00000934,-0.00005520,-0.0
 0004670,-0.00000754,0.00000680,0.00002339,0.00001564,-0.00001405,0.000
 00039,-0.00003681,0.00004773,-0.00000581,0.00023729,-0.00009940,0.0000
 3100,-0.00010768,-0.00010592,-0.00002555,0.00007885,-0.00011627,0.0006
 7608,-0.00027615,-0.00025827,-0.00034191,0.00092622,-0.00322575,-0.000
 82353,0.00068626,-0.00087425,0.00023438,-0.00050684,0.00057798,-0.0000
 8911,0.00083325,0.00088108,0.00006028,-0.00008859,-0.00030491,-0.00019
 601,-0.00003259,0.00012483,0.00011997,-0.00000270,-0.00003812,0.000015
 36,-0.00026485,0.00006085,0.00025834,0.00216437,0.00335116,-0.00334710
 ,0.00212638,-0.00176956,0.00082821,0.01538906,-0.02132372,-0.00007299,
 -0.02081371,0.02768360,-0.05321213,-0.00000026,-0.00000417,0.00000103,
 -0.00000335,0.00000124,0.00000349,0.00000089,0.00000086,-0.00000018,-0
 .00000318,-0.00000267,-0.00000183,0.00000016,-0.00000093,-0.00000921,-
 0.00000843,-0.00000182,0.00000550,0.00000937,-0.00000533,0.00001034,0.
 00000136,0.00000359,-0.00000363,-0.00000051,-0.00000571,-0.00000269,0.
 00000020,-0.00001425,0.00000180,-0.00000196,-0.00001477,0.00000444,-0.
 00000338,-0.00000167,-0.00000369,0.00000179,0.00000339,0.00000199,-0.0
 0000579,0.00002018,-0.00000374,-0.00000165,-0.00001845,0.00000913,0.00
 000874,-0.00001995,0.00001824,0.00000242,-0.00003418,-0.00000174,0.000
 08398,0.00013959,-0.00000905,0.00035103,-0.00023040,0.00043468,0.00001
 081,-0.00012479,-0.00002242,0.00007566,0.00020072,-0.00000029,-0.00031
 493,-0.00003166,0.00011372,0.00005577,0.00004731,0.00008742,0.00126002
 ,-0.00031329,-0.00083647,-0.00013311,-0.00012543,-0.00003181,0.0000126
 2,0.00001652,0.00000447,0.00000873,0.00000965,-0.00000077,0.00000846,0
 .00001446,0.00000892,-0.00002060,-0.00001044,-0.00000465,0.00000659,0.
 00000188,0.00000126,-0.00003057,-0.00007851,0.00005825,0.00002638,0.00
 000642,0.00003277,-0.00089628,-0.00049273,0.00133929,-0.00057406,0.000
 38676,0.00060052,0.01676621,-0.02974151,0.05765933,0.00000088,-0.00000
 150,0.00000007,-0.00000511,0.00000129,-0.00000205,-0.00000085,-0.00000
 220,-0.00000343,-0.00000445,0.00001053,0.00001174,0.00000049,0.0000008
 1,-0.00000903,-0.00000242,0.00000563,0.00000319,-0.00000692,-0.0000206
 1,0.00000554,0.00015131,-0.00001784,0.00030159,0.00004059,0.00001416,-
 0.00006104,0.00000826,-0.00003624,0.00015573,0.00004756,0.00118203,0.0
 0003436,-0.00957088,-0.00067562,-0.01749752,-0.00235411,-0.00416960,0.
 00069028,-0.00004663,0.00010119,-0.00214091,-0.00021110,-0.00010756,0.
 00015812,-0.00000035,0.00006174,0.00004449,-0.00000014,-0.00002977,-0.
 00000633,0.00001865,0.00002082,-0.00003125,0.00002163,0.00005125,0.000
 19993,0.00179379,-0.00081900,0.00056325,-0.00029095,-0.00022530,-0.000
 36769,0.00837524,0.00075990,0.02556251,-0.08723408,-0.00143618,-0.0916
 0366,-0.00000028,0.00000203,-0.00000021,0.00000223,-0.00000098,-0.0000
 0144,0.00000011,0.00000005,0.00000223,0.00000568,0.00000238,0.00000194
 ,0.00000077,0.00000135,0.00000733,0.00000492,0.00000054,-0.00000216,-0
 .00000528,0.00000135,-0.00000330,0.00000129,-0.00000038,0.00001156,0.0
 0000417,0.00000326,0.00000097,0.00000055,0.00000355,-0.00000077,0.0000
 0077,0.00000568,-0.00000464,0.00000846,0.00000634,0.00000182,-0.000003
 25,-0.00001348,0.00005413,0.00017979,0.00018609,-0.00000068,0.00000316
 ,-0.00002749,0.00003682,-0.00001571,0.00001647,0.00001102,-0.00000336,
 -0.00004362,0.00005562,0.00004554,0.00015531,0.00007047,0.00063038,-0.
 00008033,0.00035646,0.00011993,-0.00003621,-0.00012045,-0.00052465,-0.
 00035276,-0.00147020,0.00033843,-0.00008219,0.00043429,0.00000882,-0.0
 0045072,0.00106470,-0.00009948,0.00028894,-0.00017846,0.00035429,-0.00
 000693,0.00005643,-0.00002672,-0.00000536,0.00008850,0.00000860,0.0000
 0011,0.00000971,-0.00000289,-0.00000511,-0.00000044,0.00000867,0.00000
 569,0.00000731,-0.00000053,-0.00000309,0.00000285,0.00005777,0.0000407
 3,-0.00002061,-0.00007119,0.00002379,0.00001912,-0.00369846,0.00047956
 ,0.00436740,0.00133114,-0.00004052,-0.00075777,-0.00729658,-0.00096931
 ,-0.01700723,0.09790250,0.00000270,-0.00000061,0.00000088,-0.00000358,
 0.00000258,-0.00000322,0.00000372,0.00000064,0.00000227,0.00000894,-0.
 00000402,0.00000111,-0.00000150,0.00000740,0.00000278,0.00000441,-0.00
 000928,-0.00002055,0.00002078,0.00004167,0.00005618,0.00026250,-0.0001
 1000,-0.00001516,-0.00002552,0.00001341,-0.00002547,-0.00002334,0.0001
 1796,0.00024804,-0.00093392,0.00112957,-0.00139557,-0.01176761,-0.0024
 4474,-0.02457474,-0.00239068,-0.00440174,0.00095460,0.00033693,0.00097
 670,-0.00140430,-0.00002815,0.00019787,0.00014593,-0.00002390,0.000013
 17,-0.00000182,-0.00001145,0.00002145,-0.00000163,0.00001000,-0.000008
 23,-0.00001278,0.00020424,-0.00014253,0.00014038,-0.00028801,-0.000249
 05,-0.00068384,-0.00015614,0.00014054,0.00014859,-0.00041534,-0.000022
 96,0.00005377,-0.00079637,-0.05185045,-0.00827617,-0.00000141,-0.00000
 151,0.00000069,0.00000130,-0.00000061,-0.00000099,-0.00000069,0.000000
 52,-0.00000027,0.00000082,-0.00000118,-0.00000024,-0.00000111,0.000000
 50,-0.00000251,0.00000011,-0.00000160,-0.00000054,0.00000006,-0.000000
 04,0.00000121,-0.00000118,0.00000007,0.00000124,0.00000485,-0.00000137
 ,-0.00000253,0.00000168,-0.00000226,-0.00000205,0.00000141,-0.00000378
 ,0.00000262,0.00000107,0.00000065,-0.00000046,-0.00000957,-0.00000305,
 0.00002845,0.00012702,0.00011134,-0.00000609,-0.00000294,-0.00002689,0
 .00003743,0.00001664,0.00000342,-0.00000048,0.00002685,0.00000438,0.00
 002664,0.00005607,0.00016018,0.00002315,0.00032121,-0.00053749,0.00057
 405,0.00020983,0.00002246,0.00005016,-0.00098169,0.00006917,-0.0014515
 8,-0.00023261,0.00022823,0.00001597,0.00005997,-0.00001003,0.00078174,
 -0.00007276,-0.00013092,0.00011201,0.00001745,-0.00014580,-0.00001873,
 -0.00000065,0.00001655,-0.00001303,-0.00000169,-0.00000347,0.00000916,
 0.00000154,-0.00000140,-0.00000183,-0.00000388,0.00000097,-0.00000101,
 0.00000156,-0.00000217,0.00000623,0.00004524,-0.00001103,-0.00002968,-
 0.00005416,0.00007427,0.00013585,-0.00043549,0.00103053,0.00012609,0.0
 0018946,0.00019134,0.00046748,0.01049965,0.00168662,0.02586696,0.00622
 733,0.05386404,-0.00000239,-0.00000016,-0.00000198,-0.00000043,-0.0000
 0171,0.00000059,-0.00000387,-0.00000036,-0.00000562,-0.00000735,-0.000
 00058,-0.00000322,-0.00000510,-0.00000464,-0.00000338,-0.00001624,0.00
 001541,0.00001146,-0.00000883,-0.00008035,-0.00001206,0.00005345,-0.00
 011631,0.00042340,-0.00003051,-0.00000043,-0.00005676,0.00018060,-0.00
 017322,0.00037968,-0.00001783,0.00067321,-0.00048553,-0.00226757,-0.00
 006844,-0.00388734,-0.00033358,-0.00139113,0.00106515,0.00137324,0.000
 80755,0.00030150,-0.00028331,-0.00004365,0.00021486,-0.00001960,0.0000
 1379,-0.00003143,-0.00000159,-0.00000975,0.00001390,0.00001179,0.00000
 720,-0.00001631,0.00009088,-0.00034977,-0.00027887,-0.00180969,0.00162
 599,-0.00051830,0.00117475,-0.00042743,0.00033862,-0.00598094,-0.00102
 923,-0.02071849,-0.09177236,-0.00804951,-0.26009137,0.00000010,0.00000
 119,-0.00000031,0.00000048,-0.00000047,0.00000030,0.00000122,0.0000004
 1,0.00000261,0.00000408,0.00000232,0.00000192,0.00000199,0.00000061,0.
 00000518,0.00000163,0.00000052,-0.00000009,-0.00000213,-0.00000119,0.0
 0000010,0.00000261,0.00000121,0.00000838,0.00000088,0.00000213,0.00000
 242,-0.00000114,-0.00000043,0.00000252,0.00000089,-0.00000130,-0.00000
 087,0.00000169,0.00000092,0.00000185,0.00000262,-0.00000456,0.00002002
 ,0.00016185,0.00015401,0.00005366,-0.00000209,-0.00002243,0.00004377,0
 .00000048,0.00000246,0.00001434,-0.00002106,-0.00005254,0.00000642,0.0
 0012798,0.00018520,0.00006540,0.00042131,-0.00044241,0.00066118,0.0000
 9759,0.00014100,0.00010432,-0.00010817,0.00012928,-0.00036331,0.000170
 90,0.00010585,0.00008731,-0.00007935,0.00004733,0.00078798,-0.00018451
 ,0.00007810,-0.00010460,0.00012693,0.00004205,0.00002060,-0.00000705,-
 0.00000968,0.00004968,-0.00000879,0.00000245,0.00000845,-0.00000497,0.
 00000096,0.00000316,0.00000249,0.00000177,0.00000442,0.00000023,-0.000
 00145,-0.00000083,-0.00000537,-0.00011386,-0.00000319,-0.00003167,0.00
 005940,0.00014705,0.00385175,-0.00038338,-0.00189113,-0.00002239,0.000
 38358,0.00084607,-0.00172440,0.00036888,-0.00354949,0.09689984,0.00792
 560,0.28632619\\-0.00001621,-0.00001597,0.00006636,0.00001495,-0.00002
 655,-0.00004921,-0.00003399,0.00004746,0.00000677,0.00001182,-0.000007
 64,0.00006522,0.00000112,0.00003196,-0.00000599,-0.00004345,0.00000751
 ,0.00001042,-0.00002933,0.00000350,0.00006143,0.00006139,-0.00001575,-
 0.00003849,0.00003314,-0.00000954,-0.00000495,0.00001121,-0.00004766,-
 0.00001442,0.00004079,-0.00000678,-0.00001482,-0.00002686,-0.00001584,
 0.00000225,0.00002373,0.00002749,-0.00001249,0.00002498,0.00004116,0.0
 0000317,-0.00004090,-0.00001722,-0.00000538,0.00002999,-0.00000124,-0.
 00000046,0.00000843,-0.00003594,-0.00005582,-0.00000634,0.00001374,-0.
 00003037,-0.00007732,-0.00000359,0.00011104,0.00002614,-0.00001557,-0.
 00010672,-0.00004090,0.00003877,0.00002754,-0.00007734,-0.00000251,0.0
 0012686,0.00002506,0.00001118,-0.00002751,0.00000341,0.00004937,0.0000
 0899,0.00004482,-0.00001871,-0.00000420,-0.00002047,-0.00000555,-0.000
 03059,0.00001334,-0.00001073,0.00000182,0.00000508,-0.00001280,-0.0000
 0436,0.00001310,-0.00001156,-0.00000713,0.00000765,-0.00002570,0.00001
 375,-0.00000846,-0.00000657,-0.00000351,0.00000036,0.00000595,-0.00002
 027,0.00000595,0.00000473,-0.00000378,0.00000549,0.00000674,0.00000022
 ,0.00000222,0.00000055,0.00000627,-0.00001094,-0.00001051,0.00000125,0
 .00000920,0.00001233,-0.00002534,0.00000572,0.00000011,-0.00000884,-0.
 00001683,0.00001482,0.00000833,-0.00000662,0.00000074,0.00000376,0.000
 00267,-0.00000540,0.00002208,-0.00000691,-0.00000374,0.00000413,0.0000
 0232,-0.00000963,-0.00000606,0.00000616,0.00002782,0.00000024,-0.00000
 338,0.00000438,0.00003083,0.00000798,0.00001276,-0.00000723,-0.0000025
 7,0.00001698,0.00000254,-0.00000283,0.00000143,-0.00001080,-0.00001088
 ,-0.00000502,0.00000713,-0.00000003,-0.00000034,-0.00000283,0.00000378
 ,-0.00000433,-0.00000350,0.00000984,-0.00000996,0.00000433,-0.00000517
 ,-0.00000313,-0.00000550,0.00000442,-0.00000218,-0.00000970,0.00001158
 ,0.00000683,-0.00003651,0.00002158,-0.00000325,-0.00002427,0.00000327,
 -0.00000586,-0.00000829,-0.00001415,-0.00000969,-0.00000443,-0.0000008
 1,-0.00000184,-0.00000296\\\@


 WHEN YOU REACH FOR THE STARS, YOU MAY NOT QUITE GET ONE,
 BUT YOU WON'T COME UP WITH A HANDFUL OF MUD, EITHER.

                                         -- LEO BURNETT (AD AGENCY HEAD)
 Job cpu time:       0 days  0 hours 18 minutes 21.8 seconds.
 Elapsed time:       0 days  0 hours 20 minutes 47.4 seconds.
 File lengths (MBytes):  RWF=   1168 Int=      0 D2E=      0 Chk=     16 Scr=      1
 Normal termination of Gaussian 16 at Thu Feb 22 17:09:14 2024.
