 Entering Gaussian System, Link 0=g16
 Input=/Volumes/SSD-PMU3/b3lyp_6-31gd_freq/AILVYPLQKCQNJC-KNVOCYPGSA-N_calculating/gaussianinput0.gjf
 Output=/Volumes/SSD-PMU3/b3lyp_6-31gd_freq/AILVYPLQKCQNJC-KNVOCYPGSA-N_calculating/gaussianinput0.log
 Initial command:
 /Applications/g16/l1.exe "/Users/macmini_m1_2022/PycharmProjects/sphere_model/sphere_model_lib/Gau-52141.inp" -scrdir="/Users/macmini_m1_2022/PycharmProjects/sphere_model/sphere_model_lib/"
 Entering Link 1 = /Applications/g16/l1.exe PID=     52142.
  
 Copyright (c) 1988,1990,1992,1993,1995,1998,2003,2009,2016,
            Gaussian, Inc.  All Rights Reserved.
  
 This is part of the Gaussian(R) 16 program.  It is based on
 the Gaussian(R) 09 system (copyright 2009, Gaussian, Inc.),
 the Gaussian(R) 03 system (copyright 2003, Gaussian, Inc.),
 the Gaussian(R) 98 system (copyright 1998, Gaussian, Inc.),
 the Gaussian(R) 94 system (copyright 1995, Gaussian, Inc.),
 the Gaussian 92(TM) system (copyright 1992, Gaussian, Inc.),
 the Gaussian 90(TM) system (copyright 1990, Gaussian, Inc.),
 the Gaussian 88(TM) system (copyright 1988, Gaussian, Inc.),
 the Gaussian 86(TM) system (copyright 1986, Carnegie Mellon
 University), and the Gaussian 82(TM) system (copyright 1983,
 Carnegie Mellon University). Gaussian is a federally registered
 trademark of Gaussian, Inc.
  
 This software contains proprietary and confidential information,
 including trade secrets, belonging to Gaussian, Inc.
  
 This software is provided under written license and may be
 used, copied, transmitted, or stored only in accord with that
 written license.
  
 The following legend is applicable only to US Government
 contracts under FAR:
  
                    RESTRICTED RIGHTS LEGEND
  
 Use, reproduction and disclosure by the US Government is
 subject to restrictions as set forth in subparagraphs (a)
 and (c) of the Commercial Computer Software - Restricted
 Rights clause in FAR 52.227-19.
  
 Gaussian, Inc.
 340 Quinnipiac St., Bldg. 40, Wallingford CT 06492
  
  
 ---------------------------------------------------------------
 Warning -- This program may not be used in any manner that
 competes with the business of Gaussian, Inc. or will provide
 assistance to any competitor of Gaussian, Inc.  The licensee
 of this program is prohibited from giving any competitor of
 Gaussian, Inc. access to this program.  By using this program,
 the user acknowledges that Gaussian, Inc. is engaged in the
 business of creating and licensing software in the field of
 computational chemistry and represents and warrants to the
 licensee that it is not a competitor of Gaussian, Inc. and that
 it will not use this program in any manner prohibited above.
 ---------------------------------------------------------------
  

 Cite this work as:
 Gaussian 16, Revision A.03,
 M. J. Frisch, G. W. Trucks, H. B. Schlegel, G. E. Scuseria, 
 M. A. Robb, J. R. Cheeseman, G. Scalmani, V. Barone, 
 G. A. Petersson, H. Nakatsuji, X. Li, M. Caricato, A. V. Marenich, 
 J. Bloino, B. G. Janesko, R. Gomperts, B. Mennucci, H. P. Hratchian, 
 J. V. Ortiz, A. F. Izmaylov, J. L. Sonnenberg, D. Williams-Young, 
 F. Ding, F. Lipparini, F. Egidi, J. Goings, B. Peng, A. Petrone, 
 T. Henderson, D. Ranasinghe, V. G. Zakrzewski, J. Gao, N. Rega, 
 G. Zheng, W. Liang, M. Hada, M. Ehara, K. Toyota, R. Fukuda, 
 J. Hasegawa, M. Ishida, T. Nakajima, Y. Honda, O. Kitao, H. Nakai, 
 T. Vreven, K. Throssell, J. A. Montgomery, Jr., J. E. Peralta, 
 F. Ogliaro, M. J. Bearpark, J. J. Heyd, E. N. Brothers, K. N. Kudin, 
 V. N. Staroverov, T. A. Keith, R. Kobayashi, J. Normand, 
 K. Raghavachari, A. P. Rendell, J. C. Burant, S. S. Iyengar, 
 J. Tomasi, M. Cossi, J. M. Millam, M. Klene, C. Adamo, R. Cammi, 
 J. W. Ochterski, R. L. Martin, K. Morokuma, O. Farkas, 
 J. B. Foresman, and D. J. Fox, Gaussian, Inc., Wallingford CT, 2016.
 
 ******************************************
 Gaussian 16:  EM64M-G16RevA.03 25-Dec-2016
                21-Feb-2024 
 ******************************************
 %nprocshared=8
 Will use up to    8 processors via shared memory.
 %mem=4GB
 %chk= 0.chk
 ---------------------
 # freq b3lyp/6-31g(d)
 ---------------------
 1/10=4,30=1,38=1/1,3;
 2/12=2,17=6,18=5,40=1/2;
 3/5=1,6=6,7=1,11=2,25=1,30=1,71=2,74=-5,140=1/1,2,3;
 4//1;
 5/5=2,38=5,98=1/2;
 8/6=4,10=90,11=11/1;
 11/6=1,8=1,9=11,15=111,16=1/1,2,10;
 10/6=1/2;
 6/7=2,8=2,9=2,10=2,28=1/1;
 7/8=1,10=1,25=1/1,2,3,16;
 1/10=4,30=1/3;
 99//99;
 ---------
 good luck
 ---------
 Symbolic Z-matrix:
 Charge =  0 Multiplicity = 1
 O                     1.21773   0.        0. 
 C                     0.        0.        0. 
 C                    -0.81586  -1.29658  -0.01253 
 C                     0.07489  -2.53906  -0.01189 
 C                    -1.80405  -1.26701  -1.20468 
 C                    -2.66879   0.       -1.2112 
 C                    -1.80405   1.26701  -1.20468 
 C                    -0.81586   1.29658  -0.01253 
 C                     0.07489   2.53906  -0.01189 
 H                    -1.42322  -1.28519   0.90791 
 H                     0.75154  -2.54018   0.84744 
 H                    -0.53529  -3.44863   0.02316 
 H                     0.69519  -2.57422  -0.91364 
 H                    -2.43421  -2.16477  -1.17168 
 H                    -1.22907  -1.32407  -2.14059 
 H                    -3.32441   0.       -0.32806 
 H                    -3.32826   0.       -2.08808 
 H                    -2.43421   2.16477  -1.17168 
 H                    -1.22907   1.32407  -2.14059 
 H                    -1.42322   1.28519   0.90791 
 H                     0.69519   2.57422  -0.91364 
 H                    -0.53529   3.44863   0.02316 
 H                     0.75153   2.54018   0.84744 
 

 GradGradGradGradGradGradGradGradGradGradGradGradGradGradGradGradGradGrad
 Berny optimization.
 Initialization pass.
 Trust Radius=3.00D-01 FncErr=1.00D-07 GrdErr=1.00D-07 EigMax=2.50D+02 EigMin=1.00D-04
 Number of steps in this run=      2 maximum allowed number of steps=      2.
 GradGradGradGradGradGradGradGradGradGradGradGradGradGradGradGradGradGrad

                          Input orientation:                          
 ---------------------------------------------------------------------
 Center     Atomic      Atomic             Coordinates (Angstroms)
 Number     Number       Type             X           Y           Z
 ---------------------------------------------------------------------
      1          8           0        1.217733    0.000000    0.000000
      2          6           0        0.000000    0.000000    0.000000
      3          6           0       -0.815857   -1.296584   -0.012529
      4          6           0        0.074893   -2.539064   -0.011893
      5          6           0       -1.804046   -1.267010   -1.204682
      6          6           0       -2.668785    0.000000   -1.211197
      7          6           0       -1.804046    1.267010   -1.204682
      8          6           0       -0.815857    1.296584   -0.012529
      9          6           0        0.074892    2.539064   -0.011892
     10          1           0       -1.423216   -1.285192    0.907907
     11          1           0        0.751535   -2.540180    0.847439
     12          1           0       -0.535288   -3.448633    0.023164
     13          1           0        0.695189   -2.574219   -0.913641
     14          1           0       -2.434209   -2.164769   -1.171675
     15          1           0       -1.229065   -1.324065   -2.140590
     16          1           0       -3.324407    0.000000   -0.328058
     17          1           0       -3.328263    0.000000   -2.088076
     18          1           0       -2.434209    2.164768   -1.171675
     19          1           0       -1.229065    1.324065   -2.140590
     20          1           0       -1.423216    1.285192    0.907907
     21          1           0        0.695188    2.574219   -0.913641
     22          1           0       -0.535289    3.448633    0.023164
     23          1           0        0.751534    2.540180    0.847440
 ---------------------------------------------------------------------
                    Distance matrix (angstroms):
                    1          2          3          4          5
     1  O    0.000000
     2  C    1.217733   0.000000
     3  C    2.411799   1.531963   0.000000
     4  C    2.784434   2.540196   1.528788   0.000000
     5  C    3.491092   2.512201   1.548748   2.563451   0.000000
     6  C    4.070875   2.930770   2.559546   3.925932   1.533992
     7  C    3.491092   2.512201   2.994956   4.409009   2.534020
     8  C    2.411799   1.531963   2.593168   3.937719   2.994956
     9  C    2.784434   2.540196   3.937719   5.078128   4.409008
    10  H    3.074187   2.121687   1.102822   2.159296   2.146717
    11  H    2.718089   2.781272   2.177796   1.093754   3.516128
    12  H    3.868680   3.490006   2.170555   1.095840   2.806569
    13  H    2.781078   2.818622   2.174308   1.095058   2.835432
    14  H    4.404058   3.461852   2.171734   2.789406   1.097345
    15  H    3.510284   2.801049   2.167981   2.776307   1.099901
    16  H    4.553972   3.340554   2.841393   4.254650   2.164551
    17  H    5.002613   3.929045   3.507308   4.726400   2.170008
    18  H    4.404058   3.461852   3.992949   5.455889   3.489312
    19  H    3.510284   2.801049   3.401057   4.599502   2.814284
    20  H    3.074187   2.121687   2.807428   4.208954   3.334936
    21  H    2.781078   2.818622   4.251867   5.229109   4.591940
    22  H    3.868681   3.490006   4.753638   6.018809   5.035339
    23  H    2.718089   2.781272   4.232850   5.195673   5.023633
                    6          7          8          9         10
     6  C    0.000000
     7  C    1.533992   0.000000
     8  C    2.559546   1.548748   0.000000
     9  C    3.925932   2.563450   1.528787   0.000000
    10  H    2.773763   3.334936   2.807428   4.208954   0.000000
    11  H    4.731711   5.023633   4.232850   5.195673   2.511612
    12  H    4.238930   5.035339   4.753638   6.018809   2.500333
    13  H    4.246347   4.591941   4.251868   5.229109   3.076893
    14  H    2.177800   3.489313   3.992950   5.455889   2.473949
    15  H    2.165575   2.814284   3.401057   4.599503   3.054921
    16  H    1.099898   2.164551   2.841393   4.254649   2.606502
    17  H    1.097191   2.170008   3.507308   4.726399   3.775823
    18  H    2.177799   1.097344   2.171733   2.789405   4.153191
    19  H    2.165575   1.099901   2.167981   2.776307   4.017369
    20  H    2.773763   2.146717   1.102822   2.159295   2.570384
    21  H    4.246346   2.835431   2.174307   1.095059   4.764528
    22  H    4.238929   2.806569   2.170555   1.095840   4.896967
    23  H    4.731710   3.516128   2.177795   1.093754   4.400757
                   11         12         13         14         15
    11  H    0.000000
    12  H    1.777816   0.000000
    13  H    1.762310   1.776591   0.000000
    14  H    3.790346   2.584927   3.166601   0.000000
    15  H    3.785503   3.110779   2.602123   1.760100   0.000000
    16  H    4.944453   4.449226   4.809019   2.488045   3.070648
    17  H    5.631564   4.914378   4.918746   2.515024   2.482446
    18  H    6.030118   6.045148   5.684867   4.329537   3.816166
    19  H    5.271004   5.286001   4.517165   3.816167   2.648130
    20  H    4.400758   4.896967   4.764528   4.153191   4.017369
    21  H    5.409404   6.218233   5.148438   5.684867   4.517164
    22  H    6.180714   6.897266   6.218233   6.045148   5.286001
    23  H    5.080360   6.180714   5.409405   6.030118   5.271004
                   16         17         18         19         20
    16  H    0.000000
    17  H    1.760022   0.000000
    18  H    2.488044   2.515024   0.000000
    19  H    3.070648   2.482446   1.760099   0.000000
    20  H    2.606502   3.775823   2.473949   3.054921   0.000000
    21  H    4.809018   4.918746   3.166600   2.602122   3.076892
    22  H    4.449225   4.914378   2.584927   3.110779   2.500332
    23  H    4.944452   5.631564   3.790345   3.785503   2.511611
                   21         22         23
    21  H    0.000000
    22  H    1.776591   0.000000
    23  H    1.762311   1.777816   0.000000
 Stoichiometry    C8H14O
 Framework group  C1[X(C8H14O)]
 Deg. of freedom    63
 Full point group                 C1      NOp   1
 Largest Abelian subgroup         C1      NOp   1
 Largest concise Abelian subgroup C1      NOp   1
                         Standard orientation:                         
 ---------------------------------------------------------------------
 Center     Atomic      Atomic             Coordinates (Angstroms)
 Number     Number       Type             X           Y           Z
 ---------------------------------------------------------------------
      1          8           0       -0.000000   -1.958315   -0.417156
      2          6           0       -0.000000   -0.846756    0.080148
      3          6           0       -1.296584   -0.096917    0.401895
      4          6           0       -2.539064   -0.910262    0.038707
      5          6           0       -1.267010    1.291969   -0.282752
      6          6           0        0.000000    2.083971    0.064447
      7          6           0        1.267010    1.291968   -0.282753
      8          6           0        1.296584   -0.096918    0.401895
      9          6           0        2.539064   -0.910263    0.038707
     10          1           0       -1.285192    0.081594    1.490114
     11          1           0       -2.540180   -1.878846    0.546783
     12          1           0       -3.448633   -0.367599    0.319896
     13          1           0       -2.574219   -1.108214   -1.037737
     14          1           0       -2.164769    1.853708    0.004726
     15          1           0       -1.324065    1.149331   -1.371872
     16          1           0        0.000001    2.321769    1.138331
     17          1           0        0.000001    3.044054   -0.466656
     18          1           0        2.164768    1.853707    0.004725
     19          1           0        1.324065    1.149331   -1.371872
     20          1           0        1.285192    0.081593    1.490114
     21          1           0        2.574219   -1.108214   -1.037738
     22          1           0        3.448633   -0.367600    0.319895
     23          1           0        2.540180   -1.878846    0.546784
 ---------------------------------------------------------------------
 Rotational constants (GHZ):           2.1252228           1.5707557           0.9783856
 Standard basis: 6-31G(d) (6D, 7F)
 There are   163 symmetry adapted cartesian basis functions of A   symmetry.
 There are   163 symmetry adapted basis functions of A   symmetry.
   163 basis functions,   308 primitive gaussians,   163 cartesian basis functions
    35 alpha electrons       35 beta electrons
       nuclear repulsion energy       477.2603080079 Hartrees.
 NAtoms=   23 NActive=   23 NUniq=   23 SFac= 1.00D+00 NAtFMM=   60 NAOKFM=F Big=F
 Integral buffers will be    131072 words long.
 Raffenetti 2 integral format.
 Two-electron integral symmetry is turned on.
 One-electron integrals computed using PRISM.
 NBasis=   163 RedAO= T EigKep=  2.86D-03  NBF=   163
 NBsUse=   163 1.00D-06 EigRej= -1.00D+00 NBFU=   163
 ExpMin= 1.61D-01 ExpMax= 5.48D+03 ExpMxC= 8.25D+02 IAcc=3 IRadAn=         5 AccDes= 0.00D+00
 Harris functional with IExCor=  402 and IRadAn=       5 diagonalized for initial guess.
 HarFok:  IExCor=  402 AccDes= 0.00D+00 IRadAn=         5 IDoV= 1 UseB2=F ITyADJ=14
 ICtDFT=  3500011 ScaDFX=  1.000000  1.000000  1.000000  1.000000
 FoFCou: FMM=F IPFlag=           0 FMFlag=      100000 FMFlg1=           0
         NFxFlg=           0 DoJE=T BraDBF=F KetDBF=T FulRan=T
         wScrn=  0.000000 ICntrl=       500 IOpCl=  0 I1Cent=   200000004 NGrid=           0
         NMat0=    1 NMatS0=      1 NMatT0=    0 NMatD0=    1 NMtDS0=    0 NMtDT0=    0
 Petite list used in FoFCou.
 Requested convergence on RMS density matrix=1.00D-08 within 128 cycles.
 Requested convergence on MAX density matrix=1.00D-06.
 Requested convergence on             energy=1.00D-06.
 No special actions if energy rises.
 Integral accuracy reduced to 1.0D-05 until final iterations.
 Initial convergence to 1.0D-05 achieved.  Increase integral accuracy.
 SCF Done:  E(RB3LYP) =  -388.522571830     A.U. after   13 cycles
            NFock= 13  Conv=0.75D-08     -V/T= 2.0098
 DoSCS=F DFT=T ScalE2(SS,OS)=  1.000000  1.000000
 Range of M.O.s used for correlation:     1   163
 NBasis=   163 NAE=    35 NBE=    35 NFC=     0 NFV=     0
 NROrb=    163 NOA=    35 NOB=    35 NVA=   128 NVB=   128
 Symmetrizing basis deriv contribution to polar:
 IMax=3 JMax=2 DiffMx= 0.00D+00
 G2DrvN: will do    24 centers at a time, making    1 passes.
 Calling FoFCou, ICntrl=  3107 FMM=F I1Cent=   0 AccDes= 0.00D+00.
 End of G2Drv F.D. properties file   721 does not exist.
 End of G2Drv F.D. properties file   722 does not exist.
 End of G2Drv F.D. properties file   788 does not exist.
          IDoAtm=11111111111111111111111
          Differentiating once with respect to electric field.
                with respect to dipole field.
          Differentiating once with respect to nuclear coordinates.
 Keep R1 ints in memory in canonical form, NReq=97235269.
          There are    72 degrees of freedom in the 1st order CPHF.  IDoFFX=6 NUNeed=     3.
     69 vectors produced by pass  0 Test12= 6.22D-15 1.39D-09 XBig12= 6.17D+01 2.84D+00.
 AX will form    69 AO Fock derivatives at one time.
     69 vectors produced by pass  1 Test12= 6.22D-15 1.39D-09 XBig12= 1.18D+01 9.95D-01.
     69 vectors produced by pass  2 Test12= 6.22D-15 1.39D-09 XBig12= 6.02D-02 2.90D-02.
     69 vectors produced by pass  3 Test12= 6.22D-15 1.39D-09 XBig12= 1.19D-04 2.25D-03.
     69 vectors produced by pass  4 Test12= 6.22D-15 1.39D-09 XBig12= 1.24D-07 5.30D-05.
     32 vectors produced by pass  5 Test12= 6.22D-15 1.39D-09 XBig12= 1.01D-10 1.85D-06.
      3 vectors produced by pass  6 Test12= 6.22D-15 1.39D-09 XBig12= 7.93D-14 4.94D-08.
 InvSVY:  IOpt=1 It=  1 EMax= 7.11D-15
 Solved reduced A of dimension   380 with    72 vectors.
 Isotropic polarizability for W=    0.000000       82.70 Bohr**3.
 End of Minotr F.D. properties file   721 does not exist.
 End of Minotr F.D. properties file   722 does not exist.
 End of Minotr F.D. properties file   788 does not exist.

 **********************************************************************

            Population analysis using the SCF density.

 **********************************************************************

 Orbital symmetries:
       Occupied  (A) (A) (A) (A) (A) (A) (A) (A) (A) (A) (A) (A)
                 (A) (A) (A) (A) (A) (A) (A) (A) (A) (A) (A) (A)
                 (A) (A) (A) (A) (A) (A) (A) (A) (A) (A) (A)
       Virtual   (A) (A) (A) (A) (A) (A) (A) (A) (A) (A) (A) (A)
                 (A) (A) (A) (A) (A) (A) (A) (A) (A) (A) (A) (A)
                 (A) (A) (A) (A) (A) (A) (A) (A) (A) (A) (A) (A)
                 (A) (A) (A) (A) (A) (A) (A) (A) (A) (A) (A) (A)
                 (A) (A) (A) (A) (A) (A) (A) (A) (A) (A) (A) (A)
                 (A) (A) (A) (A) (A) (A) (A) (A) (A) (A) (A) (A)
                 (A) (A) (A) (A) (A) (A) (A) (A) (A) (A) (A) (A)
                 (A) (A) (A) (A) (A) (A) (A) (A) (A) (A) (A) (A)
                 (A) (A) (A) (A) (A) (A) (A) (A) (A) (A) (A) (A)
                 (A) (A) (A) (A) (A) (A) (A) (A) (A) (A) (A) (A)
                 (A) (A) (A) (A) (A) (A) (A) (A)
 The electronic state is 1-A.
 Alpha  occ. eigenvalues --  -19.13362 -10.26394 -10.19551 -10.19550 -10.19124
 Alpha  occ. eigenvalues --  -10.19124 -10.18944 -10.17173 -10.17173  -1.03213
 Alpha  occ. eigenvalues --   -0.83536  -0.78251  -0.74410  -0.67779  -0.66427
 Alpha  occ. eigenvalues --   -0.58952  -0.58528  -0.52363  -0.47750  -0.46337
 Alpha  occ. eigenvalues --   -0.44564  -0.43612  -0.42762  -0.40636  -0.38909
 Alpha  occ. eigenvalues --   -0.38898  -0.37243  -0.36740  -0.35680  -0.35022
 Alpha  occ. eigenvalues --   -0.33371  -0.32990  -0.32516  -0.31180  -0.23412
 Alpha virt. eigenvalues --   -0.01093   0.08929   0.10382   0.11251   0.11516
 Alpha virt. eigenvalues --    0.14709   0.15559   0.15946   0.16365   0.17126
 Alpha virt. eigenvalues --    0.17288   0.18057   0.18679   0.18842   0.20163
 Alpha virt. eigenvalues --    0.21525   0.22174   0.24059   0.25794   0.26373
 Alpha virt. eigenvalues --    0.27535   0.28362   0.33456   0.36548   0.49669
 Alpha virt. eigenvalues --    0.50307   0.51333   0.53212   0.55307   0.55624
 Alpha virt. eigenvalues --    0.56598   0.60251   0.62153   0.64848   0.65315
 Alpha virt. eigenvalues --    0.65704   0.68005   0.68530   0.69470   0.73164
 Alpha virt. eigenvalues --    0.76799   0.77488   0.78822   0.82986   0.83774
 Alpha virt. eigenvalues --    0.84436   0.85589   0.86623   0.88018   0.89887
 Alpha virt. eigenvalues --    0.90063   0.90616   0.91240   0.91572   0.93001
 Alpha virt. eigenvalues --    0.94275   0.94529   0.94881   0.97870   0.98034
 Alpha virt. eigenvalues --    1.01452   1.03462   1.06765   1.08059   1.14661
 Alpha virt. eigenvalues --    1.17042   1.20774   1.32391   1.33853   1.40276
 Alpha virt. eigenvalues --    1.44088   1.48090   1.49478   1.52026   1.65083
 Alpha virt. eigenvalues --    1.67685   1.68820   1.69213   1.71920   1.77111
 Alpha virt. eigenvalues --    1.78664   1.80391   1.82107   1.86778   1.87324
 Alpha virt. eigenvalues --    1.89705   1.92331   1.94370   1.94674   1.95322
 Alpha virt. eigenvalues --    1.99080   2.02188   2.04637   2.05306   2.09425
 Alpha virt. eigenvalues --    2.10870   2.13041   2.20841   2.21169   2.21462
 Alpha virt. eigenvalues --    2.29152   2.30549   2.31865   2.37682   2.38641
 Alpha virt. eigenvalues --    2.40058   2.42160   2.46054   2.50956   2.52419
 Alpha virt. eigenvalues --    2.60049   2.60357   2.67083   2.68966   2.75015
 Alpha virt. eigenvalues --    2.78868   2.85280   2.99644   3.05235   4.01384
 Alpha virt. eigenvalues --    4.12522   4.23176   4.24182   4.34753   4.40493
 Alpha virt. eigenvalues --    4.53396   4.63599   4.64162
          Condensed to atoms (all electrons):
               1          2          3          4          5          6
     1  O    8.015040   0.586648  -0.089509   0.005618   0.000235   0.000213
     2  C    0.586648   4.551510   0.317752  -0.030671  -0.028461  -0.011424
     3  C   -0.089509   0.317752   5.211339   0.346483   0.359074  -0.038352
     4  C    0.005618  -0.030671   0.346483   5.080113  -0.043751   0.004114
     5  C    0.000235  -0.028461   0.359074  -0.043751   5.038823   0.370754
     6  C    0.000213  -0.011424  -0.038352   0.004114   0.370754   5.012333
     7  C    0.000235  -0.028461  -0.006164   0.000065  -0.044299   0.370754
     8  C   -0.089509   0.317752  -0.136506   0.006416  -0.006164  -0.038352
     9  C    0.005618  -0.030671   0.006416  -0.000159   0.000065   0.004114
    10  H    0.001419  -0.039591   0.358314  -0.039407  -0.044031  -0.002162
    11  H    0.004143  -0.003404  -0.027310   0.372680   0.004335  -0.000159
    12  H    0.000492   0.004685  -0.030614   0.363554  -0.003550   0.000028
    13  H    0.003722  -0.005903  -0.033489   0.378769  -0.005263   0.000076
    14  H   -0.000064   0.003777  -0.032225  -0.002983   0.367914  -0.030179
    15  H    0.000537  -0.005313  -0.042967  -0.003397   0.371053  -0.038597
    16  H   -0.000008  -0.002222  -0.004173   0.000028  -0.040890   0.372770
    17  H    0.000002   0.000303   0.004362  -0.000142  -0.030640   0.365148
    18  H   -0.000064   0.003777  -0.000245   0.000010   0.004799  -0.030179
    19  H    0.000537  -0.005313   0.000051  -0.000043  -0.004823  -0.038597
    20  H    0.001419  -0.039591   0.002223  -0.000108  -0.001367  -0.002162
    21  H    0.003722  -0.005903   0.000246  -0.000003  -0.000039   0.000076
    22  H    0.000492   0.004685  -0.000067   0.000001  -0.000006   0.000028
    23  H    0.004143  -0.003404   0.000201  -0.000005  -0.000003  -0.000159
               7          8          9         10         11         12
     1  O    0.000235  -0.089509   0.005618   0.001419   0.004143   0.000492
     2  C   -0.028461   0.317752  -0.030671  -0.039591  -0.003404   0.004685
     3  C   -0.006164  -0.136506   0.006416   0.358314  -0.027310  -0.030614
     4  C    0.000065   0.006416  -0.000159  -0.039407   0.372680   0.363554
     5  C   -0.044299  -0.006164   0.000065  -0.044031   0.004335  -0.003550
     6  C    0.370754  -0.038352   0.004114  -0.002162  -0.000159   0.000028
     7  C    5.038823   0.359074  -0.043751  -0.001367  -0.000003  -0.000006
     8  C    0.359074   5.211339   0.346483   0.002223   0.000201  -0.000067
     9  C   -0.043751   0.346483   5.080114  -0.000108  -0.000005   0.000001
    10  H   -0.001367   0.002223  -0.000108   0.618271  -0.002544  -0.003261
    11  H   -0.000003   0.000201  -0.000005  -0.002544   0.551962  -0.030203
    12  H   -0.000006  -0.000067   0.000001  -0.003261  -0.030203   0.592014
    13  H   -0.000039   0.000246  -0.000003   0.005325  -0.027658  -0.031422
    14  H    0.004799  -0.000245   0.000010  -0.006584  -0.000077   0.003588
    15  H   -0.004823   0.000051  -0.000043   0.006468  -0.000021  -0.000214
    16  H   -0.040890  -0.004173   0.000028   0.005063   0.000002  -0.000004
    17  H   -0.030640   0.004362  -0.000142  -0.000026   0.000002  -0.000002
    18  H    0.367914  -0.032225  -0.002983  -0.000027  -0.000000  -0.000000
    19  H    0.371053  -0.042967  -0.003397   0.000121  -0.000000  -0.000000
    20  H   -0.044031   0.358314  -0.039407   0.002314  -0.000018  -0.000004
    21  H   -0.005263  -0.033489   0.378769  -0.000003  -0.000000  -0.000000
    22  H   -0.003550  -0.030614   0.363554  -0.000004  -0.000000  -0.000000
    23  H    0.004335  -0.027310   0.372680  -0.000018  -0.000000  -0.000000
              13         14         15         16         17         18
     1  O    0.003722  -0.000064   0.000537  -0.000008   0.000002  -0.000064
     2  C   -0.005903   0.003777  -0.005313  -0.002222   0.000303   0.003777
     3  C   -0.033489  -0.032225  -0.042967  -0.004173   0.004362  -0.000245
     4  C    0.378769  -0.002983  -0.003397   0.000028  -0.000142   0.000010
     5  C   -0.005263   0.367914   0.371053  -0.040890  -0.030640   0.004799
     6  C    0.000076  -0.030179  -0.038597   0.372770   0.365148  -0.030179
     7  C   -0.000039   0.004799  -0.004823  -0.040890  -0.030640   0.367914
     8  C    0.000246  -0.000245   0.000051  -0.004173   0.004362  -0.032225
     9  C   -0.000003   0.000010  -0.000043   0.000028  -0.000142  -0.002983
    10  H    0.005325  -0.006584   0.006468   0.005063  -0.000026  -0.000027
    11  H   -0.027658  -0.000077  -0.000021   0.000002   0.000002  -0.000000
    12  H   -0.031422   0.003588  -0.000214  -0.000004  -0.000002  -0.000000
    13  H    0.556364  -0.000437   0.005185   0.000006   0.000000   0.000000
    14  H   -0.000437   0.595762  -0.036855  -0.004155  -0.002260  -0.000183
    15  H    0.005185  -0.036855   0.602523   0.005791  -0.004196  -0.000024
    16  H    0.000006  -0.004155   0.005791   0.610486  -0.036470  -0.004155
    17  H    0.000000  -0.002260  -0.004196  -0.036470   0.597376  -0.002260
    18  H    0.000000  -0.000183  -0.000024  -0.004155  -0.002260   0.595762
    19  H   -0.000007  -0.000024   0.004515   0.005791  -0.004196  -0.036855
    20  H   -0.000003  -0.000027   0.000121   0.005063  -0.000026  -0.006584
    21  H   -0.000002   0.000000  -0.000007   0.000006   0.000000  -0.000437
    22  H   -0.000000  -0.000000  -0.000000  -0.000004  -0.000002   0.003588
    23  H   -0.000000  -0.000000  -0.000000   0.000002   0.000002  -0.000077
              19         20         21         22         23
     1  O    0.000537   0.001419   0.003722   0.000492   0.004143
     2  C   -0.005313  -0.039591  -0.005903   0.004685  -0.003404
     3  C    0.000051   0.002223   0.000246  -0.000067   0.000201
     4  C   -0.000043  -0.000108  -0.000003   0.000001  -0.000005
     5  C   -0.004823  -0.001367  -0.000039  -0.000006  -0.000003
     6  C   -0.038597  -0.002162   0.000076   0.000028  -0.000159
     7  C    0.371053  -0.044031  -0.005263  -0.003550   0.004335
     8  C   -0.042967   0.358314  -0.033489  -0.030614  -0.027310
     9  C   -0.003397  -0.039407   0.378769   0.363554   0.372680
    10  H    0.000121   0.002314  -0.000003  -0.000004  -0.000018
    11  H   -0.000000  -0.000018  -0.000000  -0.000000  -0.000000
    12  H   -0.000000  -0.000004  -0.000000  -0.000000  -0.000000
    13  H   -0.000007  -0.000003  -0.000002  -0.000000  -0.000000
    14  H   -0.000024  -0.000027   0.000000  -0.000000  -0.000000
    15  H    0.004515   0.000121  -0.000007  -0.000000  -0.000000
    16  H    0.005791   0.005063   0.000006  -0.000004   0.000002
    17  H   -0.004196  -0.000026   0.000000  -0.000002   0.000002
    18  H   -0.036855  -0.006584  -0.000437   0.003588  -0.000077
    19  H    0.602523   0.006468   0.005185  -0.000214  -0.000021
    20  H    0.006468   0.618271   0.005325  -0.003261  -0.002544
    21  H    0.005185   0.005325   0.556364  -0.031422  -0.027658
    22  H   -0.000214  -0.003261  -0.031422   0.592014  -0.030203
    23  H   -0.000021  -0.002544  -0.027658  -0.030203   0.551962
 Mulliken charges:
               1
     1  O   -0.455079
     2  C    0.449442
     3  C   -0.164840
     4  C   -0.437183
     5  C   -0.263764
     6  C   -0.270087
     7  C   -0.263764
     8  C   -0.164840
     9  C   -0.437183
    10  H    0.139616
    11  H    0.158079
    12  H    0.134985
    13  H    0.154532
    14  H    0.140449
    15  H    0.140212
    16  H    0.132111
    17  H    0.139445
    18  H    0.140449
    19  H    0.140212
    20  H    0.139616
    21  H    0.154531
    22  H    0.134985
    23  H    0.158079
 Sum of Mulliken charges =  -0.00000
 Mulliken charges with hydrogens summed into heavy atoms:
               1
     1  O   -0.455079
     2  C    0.449442
     3  C   -0.025225
     4  C    0.010412
     5  C    0.016897
     6  C    0.001469
     7  C    0.016897
     8  C   -0.025225
     9  C    0.010412
 APT charges:
               1
     1  O   -0.620207
     2  C    0.664040
     3  C   -0.031506
     4  C    0.067828
     5  C    0.126002
     6  C    0.110656
     7  C    0.126002
     8  C   -0.031506
     9  C    0.067828
    10  H   -0.042507
    11  H   -0.011410
    12  H   -0.030913
    13  H   -0.008518
    14  H   -0.052138
    15  H   -0.039347
    16  H   -0.050361
    17  H   -0.059112
    18  H   -0.052138
    19  H   -0.039347
    20  H   -0.042507
    21  H   -0.008518
    22  H   -0.030913
    23  H   -0.011410
 Sum of APT charges =   0.00000
 APT charges with hydrogens summed into heavy atoms:
               1
     1  O   -0.620207
     2  C    0.664040
     3  C   -0.074013
     4  C    0.016988
     5  C    0.034517
     6  C    0.001183
     7  C    0.034517
     8  C   -0.074014
     9  C    0.016988
 Electronic spatial extent (au):  <R**2>=           1288.5143
 Charge=             -0.0000 electrons
 Dipole moment (field-independent basis, Debye):
    X=              0.0000    Y=              2.6076    Z=              0.9764  Tot=              2.7844
 Quadrupole moment (field-independent basis, Debye-Ang):
   XX=            -55.0300   YY=            -61.5646   ZZ=            -55.1289
   XY=              0.0000   XZ=              0.0000   YZ=             -2.0093
 Traceless Quadrupole moment (field-independent basis, Debye-Ang):
   XX=              2.2112   YY=             -4.3235   ZZ=              2.1123
   XY=              0.0000   XZ=              0.0000   YZ=             -2.0093
 Octapole moment (field-independent basis, Debye-Ang**2):
  XXX=              0.0000  YYY=              6.4363  ZZZ=             -1.8408  XYY=              0.0000
  XXY=             -1.4103  XXZ=              0.7297  XZZ=             -0.0000  YZZ=             -2.3039
  YYZ=              3.7943  XYZ=             -0.0000
 Hexadecapole moment (field-independent basis, Debye-Ang**3):
 XXXX=           -957.4838 YYYY=           -662.4319 ZZZZ=           -128.9315 XXXY=              0.0000
 XXXZ=              0.0000 YYYX=              0.0000 YYYZ=             -9.8629 ZZZX=              0.0000
 ZZZY=              4.0380 XXYY=           -263.2946 XXZZ=           -181.0429 YYZZ=           -128.6380
 XXYZ=              2.4776 YYXZ=              0.0000 ZZXY=              0.0000
 N-N= 4.772603080079D+02 E-N=-1.855918281544D+03  KE= 3.847614102207D+02
  Exact polarizability:  90.886  -0.000  87.705  -0.000   1.793  69.520
 Approx polarizability: 110.963   0.000 125.910   0.000   8.075 110.492
 Calling FoFJK, ICntrl=    100127 FMM=F ISym2X=0 I1Cent= 0 IOpClX= 0 NMat=1 NMatS=1 NMatT=0.
 Full mass-weighted force constant matrix:
 Low frequencies ---   -0.0010   -0.0009   -0.0007    5.1813    8.0259   18.2687
 Low frequencies ---   77.3217  128.2329  194.4968
 Diagonal vibrational polarizability:
        5.9656116       2.9049820       8.1842110
 Harmonic frequencies (cm**-1), IR intensities (KM/Mole), Raman scattering
 activities (A**4/AMU), depolarization ratios for plane and unpolarized
 incident light, reduced masses (AMU), force constants (mDyne/A),
 and normal coordinates:
                      1                      2                      3
                      A                      A                      A
 Frequencies --     77.3210               128.2297               194.4968
 Red. masses --      5.0251                 2.1636                 1.1524
 Frc consts  --      0.0177                 0.0210                 0.0257
 IR Inten    --      1.6905                 0.0207                 0.1402
  Atom  AN      X      Y      Z        X      Y      Z        X      Y      Z
     1   8     0.00  -0.16   0.37    -0.02   0.00   0.00     0.00  -0.05   0.02
     2   6     0.00  -0.02   0.07    -0.01   0.00   0.00     0.00  -0.02  -0.04
     3   6    -0.02   0.01  -0.07     0.00   0.02  -0.02     0.01  -0.00  -0.03
     4   6     0.01   0.03  -0.23    -0.02  -0.00   0.11    -0.03   0.03   0.03
     5   6     0.01   0.05   0.03     0.04  -0.06  -0.18     0.00   0.00  -0.01
     6   6     0.00   0.02   0.12    -0.04   0.00  -0.00    -0.00   0.01  -0.01
     7   6    -0.01   0.05   0.03     0.04   0.06   0.18    -0.00   0.00  -0.01
     8   6     0.02   0.01  -0.07     0.00  -0.02   0.02    -0.01  -0.00  -0.03
     9   6    -0.01   0.03  -0.23    -0.02   0.00  -0.11     0.03   0.03   0.03
    10   1    -0.13  -0.06  -0.06     0.03   0.16  -0.05     0.05  -0.02  -0.02
    11   1    -0.03  -0.00  -0.30    -0.02   0.07   0.25     0.16  -0.12  -0.25
    12   1    -0.01   0.01  -0.29     0.00   0.05   0.07     0.01  -0.10   0.41
    13   1     0.11   0.10  -0.25    -0.05  -0.16   0.14    -0.29   0.35  -0.02
    14   1     0.00   0.03   0.03    -0.03  -0.06  -0.39     0.00  -0.00   0.00
    15   1     0.05   0.13   0.01     0.24  -0.16  -0.18    -0.01   0.02  -0.01
    16   1     0.00  -0.09   0.15    -0.22   0.00  -0.00    -0.00   0.00  -0.01
    17   1    -0.00   0.08   0.22     0.01  -0.00  -0.00    -0.00   0.01  -0.01
    18   1    -0.00   0.03   0.03    -0.03   0.06   0.39    -0.00  -0.00   0.00
    19   1    -0.05   0.13   0.01     0.24   0.16   0.18     0.01   0.02  -0.01
    20   1     0.13  -0.06  -0.06     0.03  -0.16   0.05    -0.05  -0.02  -0.02
    21   1    -0.11   0.10  -0.25    -0.05   0.16  -0.14     0.29   0.35  -0.02
    22   1     0.01   0.01  -0.29     0.00  -0.05  -0.07    -0.01  -0.10   0.41
    23   1     0.03  -0.00  -0.30    -0.02  -0.07  -0.25    -0.16  -0.12  -0.25
                      4                      5                      6
                      A                      A                      A
 Frequencies --    204.0650               238.2311               275.4872
 Red. masses --      1.0336                 2.2351                 2.3751
 Frc consts  --      0.0254                 0.0747                 0.1062
 IR Inten    --      0.0530                 0.3704                 0.2579
  Atom  AN      X      Y      Z        X      Y      Z        X      Y      Z
     1   8    -0.01  -0.00   0.00    -0.00   0.13   0.00    -0.00   0.01  -0.05
     2   6    -0.00  -0.00  -0.00     0.00   0.08   0.10    -0.00  -0.06   0.09
     3   6     0.00   0.00   0.01    -0.02   0.02   0.07    -0.01  -0.05   0.10
     4   6     0.01  -0.01  -0.00     0.10  -0.11  -0.07    -0.07   0.13  -0.07
     5   6    -0.01   0.01   0.03    -0.02  -0.01   0.01     0.01  -0.08   0.05
     6   6     0.01   0.00  -0.00     0.00   0.01  -0.08    -0.00  -0.02  -0.12
     7   6    -0.01  -0.01  -0.03     0.02  -0.01   0.01    -0.01  -0.08   0.05
     8   6     0.00  -0.00  -0.01     0.02   0.02   0.07     0.01  -0.05   0.10
     9   6     0.01   0.01   0.00    -0.10  -0.11  -0.07     0.07   0.13  -0.07
    10   1    -0.00  -0.00   0.01    -0.12   0.03   0.07    -0.07  -0.06   0.11
    11   1    -0.19   0.15   0.30     0.30  -0.22  -0.29    -0.27   0.06  -0.19
    12   1    -0.01   0.15  -0.37     0.00  -0.34   0.06    -0.02   0.23  -0.10
    13   1     0.23  -0.35   0.05     0.13   0.12  -0.11     0.00   0.27  -0.10
    14   1     0.00   0.01   0.06    -0.01   0.03  -0.00     0.01  -0.06   0.04
    15   1    -0.04   0.03   0.02    -0.05  -0.08   0.02    -0.05  -0.17   0.06
    16   1     0.03  -0.00  -0.00     0.00   0.15  -0.11    -0.00   0.24  -0.17
    17   1     0.00   0.00   0.00    -0.00  -0.05  -0.19    -0.00  -0.14  -0.34
    18   1     0.00  -0.01  -0.06     0.01   0.03  -0.00    -0.01  -0.06   0.04
    19   1    -0.04  -0.03  -0.02     0.05  -0.08   0.02     0.05  -0.17   0.06
    20   1    -0.00   0.00  -0.01     0.12   0.03   0.07     0.07  -0.06   0.11
    21   1     0.23   0.35  -0.05    -0.13   0.12  -0.11    -0.00   0.27  -0.10
    22   1    -0.01  -0.15   0.37    -0.00  -0.34   0.06     0.02   0.23  -0.10
    23   1    -0.19  -0.15  -0.30    -0.30  -0.22  -0.29     0.27   0.06  -0.19
                      7                      8                      9
                      A                      A                      A
 Frequencies --    310.7462               319.7636               365.7449
 Red. masses --      1.8677                 3.3585                 2.9454
 Frc consts  --      0.1063                 0.2023                 0.2321
 IR Inten    --      0.1778                 8.7095                 0.7285
  Atom  AN      X      Y      Z        X      Y      Z        X      Y      Z
     1   8     0.00   0.08  -0.02     0.28  -0.00  -0.00    -0.14   0.00   0.00
     2   6     0.00   0.02   0.09     0.06  -0.00  -0.00    -0.04   0.00   0.00
     3   6    -0.03   0.02   0.03     0.01  -0.08   0.00    -0.01  -0.08   0.17
     4   6    -0.02   0.03  -0.01    -0.14   0.14   0.01    -0.00  -0.00  -0.05
     5   6     0.06  -0.06  -0.10    -0.00  -0.08   0.02     0.10  -0.16   0.05
     6   6    -0.00  -0.08   0.12    -0.05  -0.00   0.00     0.02  -0.00   0.00
     7   6    -0.06  -0.06  -0.10    -0.00   0.08  -0.02     0.10   0.16  -0.05
     8   6     0.03   0.02   0.03     0.01   0.08  -0.00    -0.01   0.08  -0.17
     9   6     0.02   0.03  -0.01    -0.14  -0.14  -0.01    -0.00   0.00   0.05
    10   1    -0.10   0.12   0.02     0.04  -0.10   0.01    -0.06  -0.11   0.17
    11   1    -0.02  -0.01  -0.08    -0.38   0.14   0.03    -0.13  -0.06  -0.16
    12   1    -0.02   0.01   0.03    -0.01   0.36   0.00    -0.02   0.02  -0.14
    13   1    -0.03   0.10  -0.02    -0.19   0.15   0.01     0.16   0.12  -0.08
    14   1    -0.02  -0.05  -0.35    -0.03  -0.12   0.02     0.04  -0.13  -0.19
    15   1     0.32  -0.15  -0.10    -0.00  -0.09   0.02     0.25  -0.35   0.06
    16   1    -0.00  -0.37   0.19    -0.05  -0.00   0.00     0.04  -0.00   0.00
    17   1     0.00   0.05   0.37    -0.14  -0.00   0.00    -0.16   0.00   0.00
    18   1     0.02  -0.05  -0.35    -0.03   0.12  -0.02     0.04   0.13   0.19
    19   1    -0.32  -0.15  -0.10    -0.00   0.09  -0.02     0.25   0.35  -0.06
    20   1     0.10   0.12   0.02     0.04   0.10  -0.01    -0.06   0.11  -0.17
    21   1     0.03   0.10  -0.02    -0.19  -0.15  -0.01     0.16  -0.12   0.08
    22   1     0.02   0.01   0.03    -0.01  -0.36  -0.00    -0.02  -0.02   0.14
    23   1     0.02  -0.01  -0.08    -0.38  -0.14  -0.03    -0.13   0.06   0.16
                     10                     11                     12
                      A                      A                      A
 Frequencies --    402.7336               418.5357               538.2340
 Red. masses --      3.5380                 3.3900                 2.3557
 Frc consts  --      0.3381                 0.3499                 0.4021
 IR Inten    --      3.8785                 0.6491                 0.2141
  Atom  AN      X      Y      Z        X      Y      Z        X      Y      Z
     1   8     0.09  -0.00  -0.00    -0.00  -0.11  -0.05    -0.00  -0.01  -0.03
     2   6    -0.09  -0.00   0.00    -0.00  -0.11  -0.02     0.00  -0.04   0.05
     3   6    -0.12  -0.07  -0.04     0.15  -0.01   0.04    -0.07  -0.03  -0.01
     4   6    -0.14  -0.15   0.03     0.18   0.05   0.01    -0.13  -0.09  -0.01
     5   6     0.13   0.02   0.03     0.14  -0.01  -0.00     0.06   0.05   0.01
     6   6     0.21   0.00  -0.00    -0.00   0.16   0.03    -0.00   0.21   0.04
     7   6     0.13  -0.02  -0.03    -0.14  -0.01  -0.00    -0.06   0.05   0.01
     8   6    -0.12   0.07   0.04    -0.15  -0.01   0.04     0.07  -0.03  -0.01
     9   6    -0.14   0.15  -0.03    -0.18   0.05   0.01     0.13  -0.09  -0.01
    10   1    -0.15  -0.10  -0.03     0.21  -0.01   0.04    -0.16  -0.05   0.00
    11   1    -0.01  -0.11   0.11     0.17   0.04  -0.02    -0.07  -0.06   0.04
    12   1    -0.17  -0.22   0.07     0.16   0.03  -0.03    -0.14  -0.12   0.02
    13   1    -0.21  -0.25   0.05     0.25   0.07   0.00    -0.17  -0.14   0.00
    14   1     0.20   0.13   0.03    -0.00  -0.14  -0.19    -0.04   0.01  -0.24
    15   1     0.14   0.07   0.03     0.34  -0.09  -0.00     0.32   0.00   0.01
    16   1     0.29   0.00  -0.00    -0.00   0.28   0.00    -0.00   0.50  -0.03
    17   1     0.14   0.00  -0.00    -0.00   0.09  -0.10    -0.00   0.05  -0.25
    18   1     0.20  -0.13  -0.03     0.00  -0.14  -0.19     0.04   0.01  -0.24
    19   1     0.14  -0.07  -0.03    -0.34  -0.09  -0.00    -0.32   0.00   0.01
    20   1    -0.15   0.10   0.03    -0.21  -0.01   0.04     0.16  -0.05   0.00
    21   1    -0.21   0.25  -0.05    -0.25   0.07   0.00     0.17  -0.14   0.00
    22   1    -0.17   0.22  -0.07    -0.16   0.03  -0.03     0.14  -0.12   0.02
    23   1    -0.01   0.11  -0.11    -0.17   0.04  -0.02     0.07  -0.06   0.04
                     13                     14                     15
                      A                      A                      A
 Frequencies --    593.8294               674.2234               763.2512
 Red. masses --      3.1438                 3.0424                 2.4774
 Frc consts  --      0.6532                 0.8149                 0.8503
 IR Inten    --      1.9629                 1.3508                 3.1269
  Atom  AN      X      Y      Z        X      Y      Z        X      Y      Z
     1   8     0.20  -0.00  -0.00     0.00   0.11   0.12    -0.00   0.12   0.01
     2   6    -0.06  -0.00   0.00    -0.00   0.23  -0.21     0.00   0.01   0.21
     3   6    -0.11   0.13   0.17     0.02  -0.02  -0.05     0.08  -0.07  -0.12
     4   6     0.02   0.02   0.01     0.00  -0.00  -0.01     0.03  -0.01  -0.02
     5   6    -0.04   0.08  -0.02     0.04  -0.11   0.08     0.07  -0.03  -0.00
     6   6     0.00   0.00   0.00     0.00  -0.06   0.05    -0.00   0.02   0.01
     7   6    -0.04  -0.08   0.02    -0.04  -0.11   0.08    -0.07  -0.03  -0.00
     8   6    -0.11  -0.13  -0.17    -0.02  -0.02  -0.05    -0.08  -0.07  -0.12
     9   6     0.02  -0.02  -0.01    -0.00  -0.00  -0.01    -0.03  -0.01  -0.02
    10   1    -0.10   0.16   0.16     0.15  -0.22  -0.01    -0.15   0.05  -0.14
    11   1     0.13  -0.03  -0.09    -0.05   0.03   0.04    -0.03   0.06   0.11
    12   1    -0.16  -0.20  -0.15     0.07   0.09   0.03     0.20   0.18   0.18
    13   1     0.31   0.09  -0.01    -0.08  -0.03   0.00    -0.29  -0.10   0.01
    14   1    -0.05   0.18  -0.25    -0.03  -0.09  -0.18     0.07  -0.18   0.28
    15   1     0.11  -0.12  -0.00     0.27  -0.20   0.07    -0.09   0.21  -0.02
    16   1    -0.00   0.00   0.00    -0.00   0.35  -0.05     0.00   0.08  -0.01
    17   1     0.12   0.00  -0.00    -0.00  -0.27  -0.34    -0.00  -0.02  -0.06
    18   1    -0.05  -0.18   0.25     0.03  -0.09  -0.18    -0.07  -0.18   0.28
    19   1     0.11   0.12   0.00    -0.27  -0.20   0.07     0.09   0.21  -0.02
    20   1    -0.10  -0.16  -0.16    -0.15  -0.22  -0.01     0.15   0.05  -0.14
    21   1     0.31  -0.09   0.01     0.08  -0.03   0.00     0.29  -0.10   0.01
    22   1    -0.16   0.20   0.15    -0.07   0.09   0.03    -0.20   0.18   0.18
    23   1     0.13   0.03   0.09     0.05   0.03   0.04     0.03   0.06   0.11
                     16                     17                     18
                      A                      A                      A
 Frequencies --    844.3258               860.0935               871.2131
 Red. masses --      2.0950                 1.8829                 1.5740
 Frc consts  --      0.8799                 0.8207                 0.7039
 IR Inten    --      0.0470                 0.0666                10.0235
  Atom  AN      X      Y      Z        X      Y      Z        X      Y      Z
     1   8    -0.00   0.05   0.04    -0.02  -0.00  -0.00     0.03   0.00  -0.00
     2   6     0.00   0.07  -0.04     0.06  -0.00   0.00    -0.10  -0.00   0.00
     3   6     0.07  -0.10   0.05     0.05  -0.06   0.08    -0.04   0.02  -0.01
     4   6    -0.02  -0.06   0.01    -0.05  -0.07   0.02     0.02   0.04   0.02
     5   6    -0.06   0.01  -0.05    -0.02   0.05  -0.11     0.06  -0.10  -0.04
     6   6     0.00   0.18  -0.04     0.06  -0.00   0.00     0.00   0.00   0.00
     7   6     0.06   0.01  -0.05    -0.02  -0.05   0.11     0.06   0.10   0.04
     8   6    -0.07  -0.10   0.05     0.05   0.06  -0.08    -0.04  -0.02   0.01
     9   6     0.02  -0.06   0.01    -0.05   0.07  -0.02     0.02  -0.04  -0.02
    10   1     0.15  -0.12   0.05     0.12   0.12   0.05    -0.00   0.18  -0.04
    11   1    -0.31  -0.12  -0.10    -0.34  -0.17  -0.18     0.16   0.03  -0.01
    12   1     0.10   0.15  -0.02    -0.01   0.06  -0.10    -0.08  -0.10  -0.05
    13   1    -0.01   0.11  -0.03     0.10   0.16  -0.03     0.14   0.03   0.01
    14   1    -0.15  -0.13  -0.03     0.08   0.08   0.15     0.21  -0.08   0.39
    15   1    -0.12  -0.10  -0.03    -0.27   0.11  -0.10    -0.35   0.09  -0.04
    16   1    -0.00  -0.26   0.06    -0.18   0.00  -0.00    -0.24   0.00   0.00
    17   1     0.00   0.40   0.36     0.33  -0.00  -0.00    -0.17   0.00   0.00
    18   1     0.15  -0.13  -0.03     0.08  -0.08  -0.15     0.21   0.08  -0.39
    19   1     0.12  -0.10  -0.03    -0.27  -0.11   0.10    -0.35  -0.09   0.04
    20   1    -0.15  -0.12   0.05     0.12  -0.12  -0.05    -0.00  -0.18   0.04
    21   1     0.01   0.11  -0.03     0.10  -0.16   0.03     0.14  -0.03  -0.01
    22   1    -0.10   0.15  -0.02    -0.01  -0.06   0.10    -0.08   0.10   0.05
    23   1     0.31  -0.12  -0.10    -0.34   0.17   0.18     0.16  -0.03   0.01
                     19                     20                     21
                      A                      A                      A
 Frequencies --    915.1722               965.4160               994.5343
 Red. masses --      2.6112                 1.2790                 2.5077
 Frc consts  --      1.2885                 0.7023                 1.4614
 IR Inten    --      0.0095                 9.4441                16.7209
  Atom  AN      X      Y      Z        X      Y      Z        X      Y      Z
     1   8     0.00   0.02   0.03     0.00   0.01   0.00    -0.03   0.00   0.00
     2   6    -0.00   0.05  -0.06    -0.00   0.01   0.01     0.18   0.00  -0.00
     3   6     0.04   0.00   0.05     0.02  -0.02  -0.00     0.08   0.12  -0.00
     4   6    -0.08  -0.04  -0.00    -0.01  -0.04   0.05    -0.15  -0.02  -0.01
     5   6     0.22   0.03   0.01    -0.01   0.02  -0.05     0.05  -0.01   0.05
     6   6    -0.00  -0.04  -0.12    -0.00  -0.06   0.08    -0.09   0.00   0.00
     7   6    -0.22   0.03   0.01     0.01   0.02  -0.05     0.05   0.01  -0.05
     8   6    -0.04   0.00   0.05    -0.02  -0.02  -0.00     0.08  -0.12   0.00
     9   6     0.08  -0.04  -0.00     0.01  -0.04   0.05    -0.15   0.02   0.01
    10   1     0.16  -0.03   0.05     0.16   0.24  -0.05     0.21   0.22  -0.02
    11   1    -0.04  -0.08  -0.07    -0.25  -0.15  -0.17     0.07  -0.06  -0.08
    12   1    -0.16  -0.13  -0.08    -0.01   0.05  -0.12    -0.37  -0.31  -0.16
    13   1     0.05  -0.02  -0.01     0.19   0.20  -0.01     0.07  -0.08  -0.01
    14   1     0.38   0.17   0.25     0.03   0.02   0.05     0.02  -0.05   0.03
    15   1    -0.07   0.07   0.02     0.04   0.27  -0.08     0.09   0.04   0.04
    16   1    -0.00  -0.37  -0.04     0.00   0.30  -0.00    -0.03   0.00   0.00
    17   1    -0.00   0.12   0.17    -0.00  -0.24  -0.25    -0.30   0.00   0.00
    18   1    -0.38   0.17   0.25    -0.03   0.02   0.05     0.02   0.05  -0.03
    19   1     0.07   0.07   0.02    -0.04   0.27  -0.08     0.09  -0.04  -0.04
    20   1    -0.16  -0.03   0.05    -0.16   0.24  -0.05     0.21  -0.22   0.02
    21   1    -0.05  -0.02  -0.01    -0.19   0.20  -0.01     0.07   0.08   0.01
    22   1     0.16  -0.13  -0.08     0.01   0.05  -0.12    -0.37   0.31   0.16
    23   1     0.04  -0.08  -0.07     0.25  -0.15  -0.17     0.07   0.06   0.08
                     22                     23                     24
                      A                      A                      A
 Frequencies --    997.2118              1014.8537              1066.0785
 Red. masses --      1.5893                 1.4439                 1.4240
 Frc consts  --      0.9312                 0.8762                 0.9535
 IR Inten    --      1.7953                 8.2032                 1.3303
  Atom  AN      X      Y      Z        X      Y      Z        X      Y      Z
     1   8    -0.00  -0.01  -0.01    -0.01   0.00   0.00    -0.01   0.00   0.00
     2   6     0.00  -0.01   0.01     0.13   0.00  -0.00     0.00   0.00   0.00
     3   6    -0.01  -0.04   0.03    -0.00   0.04   0.07     0.02  -0.01  -0.02
     4   6     0.06  -0.03  -0.01    -0.00  -0.00  -0.06    -0.04   0.05  -0.01
     5   6    -0.00   0.11   0.01     0.00  -0.02  -0.02    -0.07  -0.04  -0.02
     6   6    -0.00  -0.10  -0.04     0.01  -0.00   0.00     0.12  -0.00   0.00
     7   6     0.00   0.11   0.01     0.00   0.02   0.02    -0.07   0.04   0.02
     8   6     0.01  -0.04   0.03    -0.00  -0.04  -0.07     0.02   0.01   0.02
     9   6    -0.06  -0.03  -0.01    -0.00   0.00   0.06    -0.04  -0.05   0.01
    10   1    -0.10  -0.21   0.06    -0.38  -0.03   0.08     0.18  -0.19   0.01
    11   1    -0.18  -0.01   0.04     0.09   0.11   0.16     0.23   0.06   0.02
    12   1     0.26   0.23   0.12     0.07   0.02   0.15    -0.18  -0.18  -0.04
    13   1    -0.17   0.02  -0.01    -0.31  -0.19  -0.01     0.07  -0.09   0.02
    14   1     0.09   0.37  -0.20     0.11   0.11   0.07    -0.13  -0.14  -0.03
    15   1     0.15  -0.02   0.01    -0.20  -0.14   0.01    -0.15  -0.26   0.01
    16   1    -0.00  -0.05  -0.05    -0.24   0.00   0.00     0.09   0.00  -0.00
    17   1    -0.00  -0.11  -0.05     0.11  -0.00  -0.00     0.54  -0.00  -0.00
    18   1    -0.09   0.37  -0.20     0.11  -0.11  -0.07    -0.13   0.14   0.03
    19   1    -0.15  -0.02   0.01    -0.20   0.14  -0.01    -0.15   0.26  -0.01
    20   1     0.10  -0.21   0.06    -0.38   0.03  -0.08     0.18   0.19  -0.01
    21   1     0.17   0.02  -0.01    -0.31   0.19   0.01     0.07   0.09  -0.02
    22   1    -0.26   0.23   0.12     0.07  -0.02  -0.15    -0.18   0.18   0.04
    23   1     0.18  -0.01   0.04     0.09  -0.11  -0.16     0.23  -0.06  -0.02
                     25                     26                     27
                      A                      A                      A
 Frequencies --   1090.2560              1130.2079              1153.4191
 Red. masses --      1.4061                 2.5515                 1.5811
 Frc consts  --      0.9848                 1.9203                 1.2393
 IR Inten    --      3.2994                 0.8415                12.8067
  Atom  AN      X      Y      Z        X      Y      Z        X      Y      Z
     1   8    -0.00   0.00  -0.00     0.00   0.03  -0.01    -0.01   0.00   0.00
     2   6     0.06  -0.00   0.00    -0.00  -0.05   0.12     0.09  -0.00   0.00
     3   6    -0.02   0.04  -0.01     0.17   0.06  -0.04    -0.05   0.05  -0.07
     4   6     0.01  -0.02   0.01    -0.09  -0.02  -0.03     0.02  -0.02   0.04
     5   6    -0.06  -0.08   0.00    -0.07   0.06   0.06    -0.04  -0.06   0.02
     6   6     0.10   0.00  -0.00    -0.00  -0.09  -0.04     0.08  -0.00  -0.00
     7   6    -0.06   0.08  -0.00     0.07   0.06   0.06    -0.04   0.06  -0.02
     8   6    -0.02  -0.04   0.01    -0.17   0.06  -0.04    -0.05  -0.05   0.07
     9   6     0.01   0.02  -0.01     0.09  -0.02  -0.03     0.02   0.02  -0.04
    10   1    -0.25   0.41  -0.07     0.44  -0.05  -0.02     0.10  -0.11  -0.04
    11   1    -0.10  -0.03  -0.03     0.03  -0.02  -0.03    -0.14  -0.08  -0.08
    12   1     0.05   0.07  -0.00    -0.17  -0.16  -0.05     0.05   0.09  -0.07
    13   1    -0.00   0.07  -0.01    -0.07  -0.13  -0.02     0.10   0.15   0.00
    14   1    -0.14  -0.22   0.02    -0.17   0.02  -0.21     0.21   0.43  -0.12
    15   1     0.05   0.11  -0.03     0.16  -0.19   0.08    -0.13  -0.28   0.05
    16   1     0.52  -0.00  -0.00     0.00  -0.08  -0.04    -0.05  -0.00  -0.00
    17   1     0.05   0.00   0.00     0.00  -0.08  -0.01    -0.25   0.00   0.00
    18   1    -0.14   0.22  -0.02     0.17   0.02  -0.21     0.21  -0.43   0.12
    19   1     0.05  -0.11   0.03    -0.16  -0.19   0.08    -0.13   0.28  -0.05
    20   1    -0.25  -0.41   0.07    -0.44  -0.05  -0.02     0.10   0.11   0.04
    21   1    -0.00  -0.07   0.01     0.07  -0.13  -0.02     0.10  -0.15  -0.00
    22   1     0.05  -0.07   0.00     0.17  -0.16  -0.05     0.05  -0.09   0.07
    23   1    -0.10   0.03   0.03    -0.03  -0.02  -0.03    -0.14   0.08   0.08
                     28                     29                     30
                      A                      A                      A
 Frequencies --   1154.1131              1156.3910              1187.7281
 Red. masses --      2.0777                 2.2564                 2.3108
 Frc consts  --      1.6306                 1.7778                 1.9206
 IR Inten    --      1.5686                24.7203                 0.0916
  Atom  AN      X      Y      Z        X      Y      Z        X      Y      Z
     1   8     0.00  -0.06  -0.02    -0.04  -0.00  -0.00    -0.00   0.01   0.02
     2   6    -0.00   0.00  -0.07     0.19   0.00  -0.00     0.00   0.03  -0.04
     3   6     0.05   0.14   0.08    -0.07  -0.14  -0.01     0.06  -0.08   0.13
     4   6    -0.00  -0.09  -0.07     0.00   0.09   0.06    -0.03   0.05  -0.07
     5   6     0.01  -0.04   0.00    -0.00   0.02  -0.03    -0.02   0.04  -0.12
     6   6     0.00   0.00   0.03    -0.02  -0.00   0.00     0.00  -0.04   0.10
     7   6    -0.01  -0.04   0.00    -0.00  -0.02   0.03     0.02   0.04  -0.12
     8   6    -0.05   0.14   0.08    -0.07   0.14   0.01    -0.06  -0.08   0.13
     9   6     0.00  -0.09  -0.07     0.00  -0.09  -0.06     0.03   0.05  -0.07
    10   1    -0.08   0.38   0.04    -0.30  -0.10  -0.01     0.06  -0.17   0.14
    11   1    -0.22  -0.01   0.08     0.24   0.04  -0.03     0.25   0.15   0.13
    12   1     0.19   0.15   0.12    -0.18  -0.15  -0.07    -0.10  -0.16   0.12
    13   1    -0.37  -0.08  -0.06     0.28   0.03   0.06    -0.16  -0.26  -0.00
    14   1    -0.01  -0.10   0.09     0.07   0.14  -0.03     0.01  -0.02   0.09
    15   1    -0.08  -0.07   0.02     0.10   0.29  -0.07    -0.12   0.19  -0.13
    16   1    -0.00   0.05   0.02     0.09   0.00   0.00     0.00   0.27   0.03
    17   1     0.00  -0.03  -0.02    -0.12  -0.00  -0.00    -0.00  -0.18  -0.17
    18   1     0.01  -0.10   0.09     0.07  -0.14   0.03    -0.01  -0.02   0.09
    19   1     0.08  -0.07   0.02     0.10  -0.29   0.07     0.12   0.19  -0.13
    20   1     0.08   0.38   0.04    -0.30   0.10   0.01    -0.06  -0.17   0.14
    21   1     0.37  -0.08  -0.06     0.28  -0.03  -0.06     0.16  -0.26  -0.00
    22   1    -0.19   0.15   0.12    -0.18   0.15   0.07     0.10  -0.16   0.12
    23   1     0.22  -0.01   0.08     0.24  -0.04   0.03    -0.25   0.15   0.13
                     31                     32                     33
                      A                      A                      A
 Frequencies --   1256.9666              1281.0062              1331.9416
 Red. masses --      1.3611                 1.4017                 1.2645
 Frc consts  --      1.2670                 1.3552                 1.3217
 IR Inten    --      3.6354                 0.1327                 0.6853
  Atom  AN      X      Y      Z        X      Y      Z        X      Y      Z
     1   8    -0.00   0.00  -0.00    -0.00   0.01  -0.01     0.00   0.00   0.00
     2   6     0.03  -0.00   0.00     0.00  -0.03   0.05     0.01   0.00  -0.00
     3   6    -0.02   0.03  -0.06    -0.01   0.06  -0.03     0.00   0.08   0.01
     4   6     0.00  -0.02   0.06     0.00  -0.02   0.01     0.00  -0.02   0.03
     5   6     0.05   0.02   0.06     0.01  -0.04  -0.05     0.01  -0.01  -0.06
     6   6    -0.04   0.00   0.00     0.00   0.05   0.11     0.01   0.00  -0.00
     7   6     0.05  -0.02  -0.06    -0.01  -0.04  -0.05     0.01   0.01   0.06
     8   6    -0.02  -0.03   0.06     0.01   0.06  -0.03     0.00  -0.08  -0.01
     9   6     0.00   0.02  -0.06    -0.00  -0.02   0.01     0.00   0.02  -0.03
    10   1    -0.30  -0.03  -0.05     0.18  -0.30   0.03    -0.12  -0.54   0.11
    11   1    -0.10  -0.09  -0.09    -0.06  -0.03  -0.02    -0.09  -0.04  -0.03
    12   1    -0.01   0.04  -0.09     0.02   0.04  -0.03    -0.02  -0.00  -0.06
    13   1     0.13   0.14   0.02    -0.01   0.04  -0.00     0.01   0.07   0.01
    14   1    -0.10  -0.23   0.04     0.22   0.26   0.04    -0.07  -0.21   0.08
    15   1     0.01  -0.16   0.08    -0.32  -0.32   0.00    -0.05   0.14  -0.08
    16   1    -0.46   0.00   0.00     0.00   0.21   0.07     0.27   0.00   0.00
    17   1     0.49  -0.00  -0.00    -0.00  -0.04  -0.05    -0.22   0.00   0.00
    18   1    -0.10   0.23  -0.04    -0.22   0.26   0.04    -0.07   0.21  -0.08
    19   1     0.01   0.16  -0.08     0.32  -0.32   0.00    -0.05  -0.14   0.08
    20   1    -0.30   0.03   0.05    -0.18  -0.30   0.03    -0.12   0.54  -0.11
    21   1     0.13  -0.14  -0.02     0.01   0.04  -0.00     0.01  -0.07  -0.01
    22   1    -0.01  -0.04   0.09    -0.02   0.04  -0.03    -0.02   0.00   0.06
    23   1    -0.10   0.09   0.09     0.06  -0.03  -0.02    -0.09   0.04   0.03
                     34                     35                     36
                      A                      A                      A
 Frequencies --   1336.0001              1358.4572              1363.4221
 Red. masses --      1.2655                 1.4177                 1.3374
 Frc consts  --      1.3309                 1.5414                 1.4648
 IR Inten    --      0.4976                 1.6977                 6.5976
  Atom  AN      X      Y      Z        X      Y      Z        X      Y      Z
     1   8    -0.00   0.01   0.00    -0.01   0.00   0.00    -0.00  -0.01   0.00
     2   6     0.00   0.00   0.00     0.06  -0.00   0.00     0.00   0.03  -0.04
     3   6    -0.02  -0.07   0.00    -0.08   0.04   0.02     0.07  -0.05  -0.02
     4   6    -0.00   0.02  -0.04     0.01  -0.02  -0.02    -0.02   0.02   0.03
     5   6    -0.03  -0.04   0.03    -0.00  -0.08   0.02     0.01   0.05  -0.00
     6   6     0.00   0.04  -0.00    -0.06   0.00  -0.00    -0.00  -0.02   0.04
     7   6     0.03  -0.04   0.03    -0.00   0.08  -0.02    -0.01   0.05  -0.00
     8   6     0.02  -0.07   0.00    -0.08  -0.04  -0.02    -0.07  -0.05  -0.02
     9   6     0.00   0.02  -0.04     0.01   0.02   0.02     0.02   0.02   0.03
    10   1     0.27   0.44  -0.08     0.31  -0.10   0.04    -0.44   0.23  -0.07
    11   1     0.11   0.06   0.06    -0.01   0.04   0.08     0.02  -0.05  -0.10
    12   1     0.04   0.01   0.08     0.07   0.06   0.04    -0.08  -0.05  -0.05
    13   1    -0.02  -0.08  -0.02    -0.05   0.05  -0.03     0.07  -0.04   0.03
    14   1     0.18   0.36  -0.08     0.09   0.06   0.03     0.02   0.07  -0.01
    15   1     0.01  -0.04   0.03     0.19   0.36  -0.05    -0.16  -0.40   0.07
    16   1    -0.00   0.04   0.01    -0.09  -0.00  -0.00    -0.00   0.10   0.02
    17   1    -0.00   0.09   0.08     0.57   0.00   0.00     0.00  -0.05  -0.01
    18   1    -0.18   0.36  -0.08     0.09  -0.06  -0.03    -0.02   0.07  -0.01
    19   1    -0.01  -0.04   0.03     0.19  -0.36   0.05     0.16  -0.40   0.07
    20   1    -0.27   0.44  -0.08     0.31   0.10  -0.04     0.44   0.23  -0.07
    21   1     0.02  -0.08  -0.02    -0.05  -0.05   0.03    -0.07  -0.04   0.03
    22   1    -0.04   0.01   0.08     0.07  -0.06  -0.04     0.08  -0.05  -0.05
    23   1    -0.11   0.06   0.06    -0.01  -0.04  -0.08    -0.02  -0.05  -0.10
                     37                     38                     39
                      A                      A                      A
 Frequencies --   1395.4293              1402.3822              1406.8403
 Red. masses --      1.4129                 1.5941                 1.8896
 Frc consts  --      1.6210                 1.8472                 2.2034
 IR Inten    --      3.6772                 0.6122                 7.4918
  Atom  AN      X      Y      Z        X      Y      Z        X      Y      Z
     1   8     0.00   0.00   0.00    -0.00  -0.01  -0.00     0.02  -0.00  -0.00
     2   6    -0.02  -0.00   0.00     0.00   0.00  -0.01    -0.12   0.00  -0.00
     3   6     0.02  -0.00  -0.01     0.10   0.03   0.00     0.14   0.02  -0.01
     4   6    -0.00  -0.00   0.01    -0.02   0.00   0.02    -0.03  -0.00   0.02
     5   6     0.04  -0.00  -0.02    -0.06  -0.10   0.01    -0.07  -0.07   0.02
     6   6    -0.18  -0.00   0.00    -0.00   0.05  -0.01     0.01   0.00  -0.00
     7   6     0.04   0.00   0.02     0.06  -0.10   0.01    -0.07   0.07  -0.02
     8   6     0.02   0.00   0.01    -0.10   0.03   0.00     0.14  -0.02   0.01
     9   6    -0.00   0.00  -0.01     0.02   0.00   0.02    -0.03   0.00  -0.02
    10   1    -0.08   0.02  -0.02    -0.34  -0.15   0.04    -0.39  -0.09   0.01
    11   1     0.01  -0.03  -0.04     0.01  -0.04  -0.06     0.04  -0.05  -0.07
    12   1    -0.00   0.02  -0.02    -0.06  -0.03  -0.06    -0.05  -0.01  -0.05
    13   1     0.02  -0.00   0.01     0.03  -0.01   0.02     0.07  -0.02   0.02
    14   1     0.16   0.17   0.02     0.20   0.35  -0.06     0.17   0.31  -0.02
    15   1    -0.17  -0.20   0.02     0.16   0.34  -0.06     0.24   0.24  -0.04
    16   1     0.74   0.00  -0.00     0.00  -0.05   0.01    -0.18  -0.00   0.00
    17   1     0.38  -0.00  -0.00    -0.00   0.08   0.03     0.20   0.00   0.00
    18   1     0.16  -0.17  -0.02    -0.20   0.35  -0.06     0.17  -0.31   0.02
    19   1    -0.17   0.20  -0.02    -0.16   0.34  -0.06     0.24  -0.24   0.04
    20   1    -0.08  -0.02   0.02     0.34  -0.15   0.04    -0.39   0.09  -0.01
    21   1     0.02   0.00  -0.01    -0.03  -0.01   0.02     0.07   0.02  -0.02
    22   1    -0.00  -0.02   0.02     0.06  -0.03  -0.06    -0.05   0.01   0.05
    23   1     0.01   0.03   0.04    -0.01  -0.04  -0.06     0.04   0.05   0.07
                     40                     41                     42
                      A                      A                      A
 Frequencies --   1440.2113              1441.2617              1515.4377
 Red. masses --      1.2300                 1.2488                 1.0829
 Frc consts  --      1.5032                 1.5284                 1.4653
 IR Inten    --      3.3960                 5.0486                 0.8553
  Atom  AN      X      Y      Z        X      Y      Z        X      Y      Z
     1   8     0.00  -0.00  -0.00     0.00   0.01   0.01     0.00  -0.00  -0.00
     2   6     0.00   0.00   0.00     0.00  -0.01  -0.00    -0.01   0.00   0.00
     3   6     0.01   0.01   0.00    -0.02  -0.01  -0.00     0.01   0.01  -0.00
     4   6    -0.08  -0.05  -0.02     0.09   0.05   0.02    -0.01   0.02  -0.01
     5   6     0.00   0.01  -0.00    -0.00  -0.01   0.00     0.04  -0.02   0.03
     6   6     0.01  -0.00   0.00     0.00   0.01  -0.01     0.00  -0.00  -0.00
     7   6     0.00  -0.01   0.00     0.00  -0.01   0.00     0.04   0.02  -0.03
     8   6     0.01  -0.01  -0.00     0.02  -0.01  -0.00     0.01  -0.01   0.00
     9   6    -0.08   0.05   0.02    -0.09   0.05   0.02    -0.01  -0.02   0.01
    10   1    -0.01  -0.02   0.01     0.04   0.02  -0.01    -0.02  -0.01   0.00
    11   1     0.36   0.06   0.16    -0.36  -0.05  -0.16    -0.12  -0.04  -0.09
    12   1     0.20   0.32   0.15    -0.20  -0.33  -0.14     0.03  -0.04   0.21
    13   1     0.35   0.18  -0.07    -0.35  -0.18   0.07     0.15  -0.17   0.02
    14   1    -0.03  -0.03  -0.01     0.02   0.02   0.01    -0.10   0.01  -0.41
    15   1    -0.04  -0.02  -0.00     0.02   0.01   0.00    -0.37   0.24   0.01
    16   1     0.02   0.00   0.00     0.00  -0.00  -0.00    -0.03   0.00  -0.00
    17   1    -0.06  -0.00  -0.00    -0.00   0.02   0.02     0.03   0.00   0.00
    18   1    -0.03   0.03   0.01    -0.02   0.02   0.01    -0.10  -0.01   0.41
    19   1    -0.04   0.02   0.00    -0.02   0.01   0.00    -0.37  -0.24  -0.01
    20   1    -0.01   0.02  -0.01    -0.04   0.02  -0.01    -0.02   0.01  -0.00
    21   1     0.35  -0.18   0.07     0.35  -0.18   0.07     0.15   0.17  -0.02
    22   1     0.20  -0.32  -0.15     0.20  -0.33  -0.14     0.03   0.04  -0.21
    23   1     0.36  -0.06  -0.16     0.36  -0.05  -0.16    -0.12   0.04   0.09
                     43                     44                     45
                      A                      A                      A
 Frequencies --   1516.7014              1521.8922              1522.2241
 Red. masses --      1.0747                 1.0511                 1.0444
 Frc consts  --      1.4566                 1.4344                 1.4259
 IR Inten    --      4.3352                11.8364                 0.5876
  Atom  AN      X      Y      Z        X      Y      Z        X      Y      Z
     1   8    -0.00   0.00   0.00    -0.00   0.00   0.00     0.00   0.00   0.00
     2   6    -0.00   0.00  -0.00     0.00  -0.00   0.00     0.00  -0.00  -0.00
     3   6    -0.00  -0.00   0.00     0.00   0.01  -0.01    -0.00  -0.00   0.01
     4   6     0.00  -0.02   0.01     0.00   0.01  -0.03    -0.00  -0.01   0.03
     5   6    -0.02   0.00  -0.02     0.00  -0.00   0.00     0.01  -0.01   0.01
     6   6     0.00  -0.06  -0.03    -0.00  -0.03  -0.01     0.01  -0.00  -0.00
     7   6     0.02   0.00  -0.02    -0.00  -0.00   0.00     0.01   0.01  -0.01
     8   6     0.00  -0.00   0.00    -0.00   0.01  -0.01    -0.00   0.00  -0.01
     9   6    -0.00  -0.02   0.01    -0.00   0.01  -0.03    -0.00   0.01  -0.03
    10   1     0.00  -0.01   0.00    -0.04  -0.03  -0.01     0.03   0.02   0.01
    11   1     0.13   0.02   0.07    -0.30   0.08   0.13     0.31  -0.12  -0.19
    12   1    -0.03   0.05  -0.22    -0.01  -0.22   0.39     0.03   0.26  -0.38
    13   1    -0.16   0.15  -0.02     0.29  -0.01  -0.02    -0.29  -0.05   0.04
    14   1     0.06  -0.01   0.21     0.01  -0.00  -0.00    -0.05  -0.01  -0.14
    15   1     0.20  -0.09  -0.01    -0.00  -0.00  -0.00    -0.12   0.10  -0.00
    16   1     0.00   0.51  -0.14     0.00   0.31  -0.08    -0.02   0.00  -0.00
    17   1    -0.00   0.24   0.47     0.00   0.14   0.28    -0.01   0.00   0.00
    18   1    -0.06  -0.01   0.21    -0.01  -0.00  -0.00    -0.05   0.01   0.14
    19   1    -0.20  -0.09  -0.01     0.00  -0.00  -0.00    -0.12  -0.10   0.00
    20   1    -0.00  -0.01   0.00     0.04  -0.03  -0.01     0.03  -0.02  -0.01
    21   1     0.16   0.15  -0.02    -0.29  -0.01  -0.02    -0.29   0.05  -0.04
    22   1     0.03   0.05  -0.22     0.01  -0.22   0.39     0.03  -0.26   0.38
    23   1    -0.13   0.02   0.07     0.30   0.08   0.13     0.31   0.12   0.19
                     46                     47                     48
                      A                      A                      A
 Frequencies --   1525.1003              1525.5165              1533.1058
 Red. masses --      1.0559                 1.0583                 1.0893
 Frc consts  --      1.4470                 1.4510                 1.5084
 IR Inten    --      3.2808                 8.3298                 3.0321
  Atom  AN      X      Y      Z        X      Y      Z        X      Y      Z
     1   8     0.00   0.01   0.00    -0.00   0.00   0.00    -0.00  -0.01  -0.00
     2   6    -0.00  -0.00  -0.00     0.01  -0.00  -0.00     0.00   0.01   0.00
     3   6     0.02  -0.02  -0.01    -0.02   0.02   0.00    -0.01   0.00  -0.00
     4   6     0.02  -0.03  -0.01    -0.02   0.03   0.01    -0.00   0.01  -0.01
     5   6    -0.01   0.01  -0.00    -0.01   0.01  -0.01    -0.04   0.01  -0.03
     6   6     0.00   0.03   0.01    -0.00   0.00   0.00    -0.00   0.04   0.01
     7   6     0.01   0.01  -0.00    -0.01  -0.01   0.01     0.04   0.01  -0.03
     8   6    -0.02  -0.02  -0.01    -0.02  -0.02  -0.00     0.01   0.00  -0.00
     9   6    -0.02  -0.03  -0.01    -0.02  -0.03  -0.01     0.00   0.01  -0.01
    10   1    -0.04   0.02  -0.01     0.04  -0.02   0.01     0.02  -0.01  -0.00
    11   1    -0.07   0.19   0.39     0.01  -0.17  -0.35    -0.05  -0.02  -0.05
    12   1    -0.13  -0.20  -0.09     0.13   0.16   0.18     0.03  -0.01   0.12
    13   1    -0.07   0.42  -0.08     0.14  -0.42   0.08     0.09  -0.09   0.01
    14   1     0.02   0.03   0.01     0.03  -0.03   0.18     0.12   0.01   0.43
    15   1     0.01  -0.04   0.00     0.16  -0.08  -0.00     0.39  -0.22  -0.01
    16   1     0.00  -0.21   0.06    -0.00  -0.00   0.00     0.00  -0.24   0.06
    17   1     0.00  -0.10  -0.20     0.00  -0.00  -0.00    -0.00  -0.09  -0.22
    18   1    -0.02   0.03   0.01     0.03   0.03  -0.18    -0.12   0.01   0.43
    19   1    -0.01  -0.04   0.00     0.16   0.08   0.00    -0.39  -0.22  -0.01
    20   1     0.04   0.02  -0.01     0.04   0.02  -0.01    -0.02  -0.01  -0.00
    21   1     0.07   0.42  -0.08     0.14   0.42  -0.08    -0.09  -0.09   0.01
    22   1     0.13  -0.20  -0.09     0.13  -0.16  -0.18    -0.03  -0.01   0.12
    23   1     0.07   0.19   0.39     0.01   0.17   0.35     0.05  -0.02  -0.05
                     49                     50                     51
                      A                      A                      A
 Frequencies --   1803.2120              2988.6564              2999.4965
 Red. masses --     11.6589                 1.0808                 1.0814
 Frc consts  --     22.3357                 5.6881                 5.7325
 IR Inten    --    139.9647                 3.4173                18.9508
  Atom  AN      X      Y      Z        X      Y      Z        X      Y      Z
     1   8    -0.00  -0.47  -0.21    -0.00   0.00  -0.00     0.00   0.00   0.00
     2   6     0.00   0.71   0.32     0.00  -0.00  -0.00    -0.00  -0.00  -0.00
     3   6    -0.00  -0.03  -0.02     0.00   0.01   0.06    -0.00  -0.01  -0.06
     4   6     0.00   0.01   0.00     0.00  -0.00  -0.00    -0.00   0.00   0.00
     5   6     0.01  -0.02   0.00     0.00  -0.00  -0.01     0.00   0.00   0.01
     6   6    -0.00   0.00  -0.00     0.00   0.00   0.00    -0.00   0.00   0.00
     7   6    -0.01  -0.02   0.00     0.00   0.00   0.01    -0.00   0.00   0.01
     8   6     0.00  -0.03  -0.02     0.00  -0.01  -0.06     0.00  -0.01  -0.06
     9   6    -0.00   0.01   0.00     0.00   0.00   0.00     0.00   0.00   0.00
    10   1     0.15  -0.10   0.01     0.00  -0.12  -0.69     0.00   0.12   0.68
    11   1    -0.05   0.03   0.02     0.00  -0.02   0.01    -0.00   0.02  -0.01
    12   1    -0.08  -0.10  -0.04    -0.02   0.01   0.01     0.02  -0.02  -0.01
    13   1    -0.05   0.03   0.02     0.00   0.00   0.03     0.00  -0.01  -0.03
    14   1     0.02   0.01  -0.04    -0.01   0.00   0.00     0.00   0.00   0.00
    15   1    -0.02   0.06  -0.00     0.01   0.01   0.10    -0.01  -0.02  -0.13
    16   1    -0.00  -0.00  -0.00    -0.00  -0.00  -0.00     0.00  -0.01  -0.05
    17   1     0.00   0.01   0.02    -0.00  -0.00   0.00     0.00  -0.03   0.02
    18   1    -0.02   0.01  -0.04    -0.01  -0.00  -0.00    -0.00   0.00   0.00
    19   1     0.02   0.06  -0.00     0.01  -0.01  -0.10     0.01  -0.02  -0.13
    20   1    -0.15  -0.10   0.01     0.00   0.12   0.69    -0.00   0.12   0.68
    21   1     0.05   0.03   0.02     0.00  -0.00  -0.03    -0.00  -0.01  -0.03
    22   1     0.08  -0.10  -0.04    -0.02  -0.01  -0.01    -0.02  -0.02  -0.01
    23   1     0.05   0.03   0.02     0.00   0.02  -0.01     0.00   0.02  -0.01
                     52                     53                     54
                      A                      A                      A
 Frequencies --   3023.8144              3026.9817              3031.3296
 Red. masses --      1.0705                 1.0633                 1.0602
 Frc consts  --      5.7670                 5.7404                 5.7399
 IR Inten    --     13.6155                24.5049                41.6417
  Atom  AN      X      Y      Z        X      Y      Z        X      Y      Z
     1   8     0.00  -0.00  -0.00    -0.00   0.00   0.00     0.00   0.00   0.00
     2   6    -0.00   0.00   0.00     0.00  -0.00  -0.00    -0.00  -0.00  -0.00
     3   6     0.00   0.00   0.00    -0.00  -0.00  -0.01    -0.00  -0.00  -0.01
     4   6    -0.00  -0.00  -0.00     0.00   0.00   0.00     0.00   0.00   0.00
     5   6     0.01   0.00   0.03    -0.02   0.01  -0.04    -0.03   0.01  -0.03
     6   6    -0.00  -0.03  -0.05     0.00  -0.00  -0.00    -0.00  -0.03  -0.02
     7   6    -0.01   0.00   0.03    -0.02  -0.01   0.04     0.03   0.01  -0.03
     8   6    -0.00   0.00   0.00    -0.00   0.00   0.01     0.00  -0.00  -0.01
     9   6     0.00  -0.00  -0.00     0.00  -0.00  -0.00    -0.00   0.00   0.00
    10   1    -0.00  -0.01  -0.04     0.00   0.01   0.08     0.00   0.02   0.10
    11   1    -0.00   0.01  -0.01     0.00  -0.01   0.01     0.00  -0.01   0.01
    12   1     0.01  -0.01  -0.00    -0.02   0.01   0.01    -0.02   0.01   0.01
    13   1    -0.00   0.00   0.02     0.00  -0.00  -0.03     0.00  -0.01  -0.04
    14   1    -0.06   0.03   0.03     0.26  -0.17  -0.10     0.29  -0.18  -0.11
    15   1    -0.02  -0.05  -0.39     0.02   0.08   0.61     0.01   0.06   0.44
    16   1     0.00   0.16   0.78     0.00   0.00   0.00    -0.00   0.08   0.40
    17   1     0.00   0.18  -0.12    -0.01   0.00  -0.00     0.00   0.33  -0.19
    18   1     0.06   0.03   0.03     0.26   0.17   0.10    -0.29  -0.18  -0.11
    19   1     0.02  -0.05  -0.39     0.02  -0.08  -0.61    -0.01   0.06   0.44
    20   1     0.00  -0.01  -0.04     0.00  -0.01  -0.08    -0.00   0.02   0.10
    21   1     0.00   0.00   0.02     0.00   0.00   0.03    -0.00  -0.01  -0.04
    22   1    -0.01  -0.01  -0.00    -0.02  -0.01  -0.01     0.02   0.01   0.01
    23   1     0.00   0.01  -0.01     0.00   0.01  -0.01    -0.00  -0.01   0.01
                     55                     56                     57
                      A                      A                      A
 Frequencies --   3057.5651              3058.0540              3072.7812
 Red. masses --      1.0369                 1.0373                 1.1004
 Frc consts  --      5.7113                 5.7152                 6.1217
 IR Inten    --     47.1185                 6.2710                37.7999
  Atom  AN      X      Y      Z        X      Y      Z        X      Y      Z
     1   8     0.00  -0.00  -0.00     0.00   0.00   0.00     0.00   0.00   0.00
     2   6     0.00   0.00   0.00     0.00  -0.00  -0.00     0.00  -0.00  -0.00
     3   6     0.00   0.00   0.00     0.00   0.00  -0.00    -0.00   0.00   0.00
     4   6    -0.03  -0.01  -0.01    -0.03  -0.01  -0.01    -0.00  -0.00  -0.00
     5   6     0.00  -0.00  -0.01     0.00  -0.00  -0.01    -0.04   0.03   0.04
     6   6     0.00   0.00  -0.00     0.00  -0.01   0.00    -0.00   0.00  -0.00
     7   6     0.00   0.00   0.01    -0.00  -0.00  -0.01    -0.04  -0.03  -0.04
     8   6     0.00  -0.00  -0.00    -0.00   0.00  -0.00    -0.00  -0.00  -0.00
     9   6    -0.03   0.01   0.01     0.03  -0.01  -0.01    -0.00   0.00   0.00
    10   1    -0.00  -0.00  -0.00    -0.00  -0.00   0.00     0.00  -0.01  -0.05
    11   1    -0.01   0.29  -0.16    -0.01   0.29  -0.16     0.00   0.02  -0.01
    12   1     0.39  -0.24  -0.13     0.40  -0.24  -0.13     0.01  -0.00  -0.00
    13   1     0.00   0.07   0.39     0.00   0.07   0.39     0.00   0.01   0.05
    14   1    -0.02   0.01   0.01    -0.02   0.01   0.01     0.51  -0.32  -0.17
    15   1     0.00   0.01   0.06     0.00   0.01   0.06    -0.02  -0.04  -0.30
    16   1     0.00   0.00   0.00     0.00  -0.00  -0.01    -0.00   0.00   0.00
    17   1    -0.00  -0.00   0.00    -0.00   0.07  -0.04    -0.00  -0.00   0.00
    18   1    -0.02  -0.01  -0.01     0.02   0.01   0.01     0.51   0.32   0.17
    19   1     0.00  -0.01  -0.06    -0.00   0.01   0.06    -0.02   0.04   0.30
    20   1    -0.00   0.00   0.00     0.00  -0.00   0.00     0.00   0.01   0.05
    21   1     0.00  -0.07  -0.39    -0.00   0.07   0.38     0.00  -0.01  -0.05
    22   1     0.40   0.25   0.13    -0.39  -0.24  -0.13     0.01   0.00   0.00
    23   1    -0.01  -0.29   0.16     0.01   0.29  -0.15     0.00  -0.02   0.01
                     58                     59                     60
                      A                      A                      A
 Frequencies --   3074.0201              3079.8063              3123.6041
 Red. masses --      1.0922                 1.1047                 1.1023
 Frc consts  --      6.0811                 6.1735                 6.3367
 IR Inten    --     46.5580                53.3919                15.0126
  Atom  AN      X      Y      Z        X      Y      Z        X      Y      Z
     1   8     0.00  -0.00  -0.00    -0.00  -0.00  -0.00    -0.00   0.00   0.00
     2   6     0.00   0.00   0.00    -0.00  -0.00   0.00     0.00  -0.00  -0.00
     3   6     0.00  -0.00  -0.00    -0.00   0.00   0.01    -0.00   0.00   0.00
     4   6     0.00   0.00   0.00     0.00  -0.00  -0.00    -0.03   0.04   0.04
     5   6     0.03  -0.02  -0.02    -0.02   0.02   0.04    -0.00   0.00   0.00
     6   6    -0.00  -0.05   0.04     0.00  -0.03   0.06     0.00   0.00  -0.00
     7   6    -0.03  -0.02  -0.02     0.02   0.02   0.04    -0.00  -0.00  -0.00
     8   6    -0.00  -0.00  -0.00     0.00   0.00   0.01    -0.00  -0.00  -0.00
     9   6    -0.00   0.00   0.00    -0.00  -0.00  -0.00    -0.03  -0.04  -0.04
    10   1    -0.00   0.01   0.04     0.00  -0.01  -0.06    -0.00  -0.01  -0.04
    11   1    -0.00  -0.03   0.02     0.00  -0.00  -0.00    -0.01  -0.11   0.07
    12   1    -0.02   0.01   0.01    -0.02   0.01   0.00     0.40  -0.24  -0.12
    13   1    -0.00  -0.01  -0.06    -0.00   0.00   0.03    -0.02  -0.08  -0.48
    14   1    -0.39   0.25   0.13     0.29  -0.18  -0.10     0.02  -0.02  -0.01
    15   1     0.01   0.01   0.13    -0.02  -0.04  -0.32    -0.00  -0.00  -0.02
    16   1    -0.00  -0.03  -0.11     0.00  -0.10  -0.41    -0.00   0.00   0.00
    17   1    -0.00   0.59  -0.33     0.00   0.51  -0.28     0.00  -0.00   0.00
[...]
 76,0.00020721,0.00129712,0.00070277,0.00036878,0.00034528,0.00021229,0
 .00002222,-0.00004922,0.00098580,-0.00030346,-0.00009469,0.00001342,-0
 .00003709,0.14664384,-0.00016645,0.00038215,-0.00015469,0.00098023,0.0
 0038851,-0.00003593,0.00037209,0.00030493,0.00001541,0.00045667,0.0006
 9121,0.00026628,-0.12159584,-0.21924406,0.00862162,-0.01667017,-0.0219
 2641,0.00138869,0.00571142,-0.00343855,-0.00007863,0.00019171,0.000605
 00,0.00027235,-0.00004034,0.00007301,-0.00012278,0.00006955,0.00010168
 ,-0.00041859,-0.00000493,0.00017455,-0.00013247,-0.00023396,0.00045992
 ,0.00004803,0.00004546,-0.00000612,-0.00003730,0.13112880,0.23912863,-
 0.00255017,-0.00192522,0.00115068,-0.00132417,0.00419760,-0.00467146,-
 0.01831897,-0.02338403,-0.00256029,0.00091497,-0.00089354,0.00080988,0
 .00870296,0.00922068,-0.04951722,0.00045128,-0.00088868,-0.00087760,-0
 .00014738,-0.00006916,0.00039998,0.00022242,0.00012544,0.00047619,0.00
 016232,-0.00007671,0.00009948,0.00089980,-0.00025361,0.00154427,0.0003
 3350,-0.00015272,-0.00007526,0.00001351,0.00058041,0.00014812,-0.00002
 272,0.00020020,-0.00002232,-0.00525934,-0.01010773,0.05290401,0.000062
 49,0.00027120,0.00029701,0.00163821,0.00052076,-0.00046581,0.01002626,
 -0.00068938,-0.01947394,0.00147224,-0.00057965,-0.00016700,-0.11905063
 ,0.00347824,0.11246656,-0.01215187,0.00157066,0.01713674,0.00041739,-0
 .00121452,-0.00026449,-0.00000131,0.00002596,-0.00018105,0.00007692,-0
 .00003359,0.00005879,-0.00227226,0.00004489,-0.00427380,0.00014386,-0.
 00022814,0.00013426,-0.00006781,0.00010445,0.00005620,-0.00009347,-0.0
 0000995,0.00039133,-0.01032350,0.00095754,0.01642249,0.13062570,0.0001
 1203,0.00015933,0.00021146,0.00047975,-0.00019022,-0.00084148,0.000169
 90,-0.00035080,-0.00045642,-0.00058877,0.00016685,0.00074389,0.0030866
 2,-0.05229527,-0.00891580,0.01586323,-0.00235651,-0.02445071,0.0006101
 9,0.00178156,-0.00112589,-0.00020408,-0.00013365,0.00009996,-0.0000298
 3,-0.00000081,-0.00003252,0.00038308,0.00073714,-0.00003843,0.00004365
 ,-0.00007899,-0.00015891,-0.00006768,0.00000822,0.00010336,0.00025511,
 0.00018716,0.00001370,-0.01414741,0.00176654,0.02370796,-0.00803682,0.
 05396310,-0.00153888,-0.00033685,0.00042775,0.00271945,0.00188660,-0.0
 0055336,0.01113358,-0.00190584,-0.02402723,0.00144420,-0.00072519,0.00
 084151,0.11262369,-0.00875787,-0.22865635,-0.00028787,0.00011260,0.000
 89010,-0.00022863,0.00021948,-0.00007176,-0.00002501,-0.00037876,-0.00
 031298,0.00008954,-0.00003839,-0.00003450,-0.00392980,-0.00045588,-0.0
 0346688,-0.00022826,-0.00012360,0.00050975,-0.00008363,0.00008179,-0.0
 0000978,-0.00098982,0.00067767,0.00043375,0.00089902,0.00055799,-0.000
 87699,-0.12096503,0.00985744,0.25200997,0.00023478,0.,0.00008300,-0.00
 039217,0.,-0.00005010,0.00045689,-0.00067848,0.00137686,0.00010754,0.0
 0015281,-0.00030631,-0.01198100,0.00086950,0.01584088,-0.13719596,0.,0
 .11650823,-0.01198100,-0.00086950,0.01584088,0.00045689,0.00067848,0.0
 0137686,0.00010754,-0.00015281,-0.00030631,-0.00014624,0.00018743,-0.0
 0094613,0.00000002,0.00001600,-0.00008553,-0.00000541,-0.00001608,0.00
 003622,0.00019625,-0.00014565,-0.00008568,0.00089211,-0.00009586,-0.00
 047877,-0.00136298,0.00332161,-0.00028807,0.14821619,0.,0.00021651,0.,
 0.,-0.00061877,0.,-0.00085939,0.00099512,-0.00094582,-0.00007034,-0.00
 010497,0.00005033,0.01814714,-0.00148512,-0.02463781,0.,-0.04823293,0.
 ,-0.01814714,-0.00148512,0.02463781,0.00085939,0.00099512,0.00094583,0
 .00007034,-0.00010497,-0.00005033,-0.00006282,0.00008867,0.00075166,-0
 .00004211,-0.00000334,0.00011976,0.00000283,-0.00001695,-0.00003030,-0
 .00019438,0.00007550,0.00009717,-0.00079715,0.00108242,-0.00014077,0.0
 0397983,-0.00452215,0.00050265,0.,0.05683118,0.00011329,0.,-0.00013058
 ,-0.00030127,0.,0.00017890,-0.00032503,0.00018917,0.00075664,-0.000085
 33,0.00006223,0.00035189,-0.00033152,-0.00063275,-0.00063219,0.1171979
 5,0.,-0.21399205,-0.00033152,0.00063275,-0.00063219,-0.00032503,-0.000
 18917,0.00075664,-0.00008533,-0.00006223,0.00035189,0.00032636,0.00000
 135,0.00053340,0.00006584,-0.00005136,0.00000863,-0.00000109,-0.000015
 29,-0.00003003,-0.00010455,0.00010596,-0.00010238,-0.00001229,-0.00058
 882,0.00023551,-0.00041930,-0.00026771,0.00142908,-0.13105403,0.,0.230
 65907,-0.00047095,0.,0.00004491,0.00116343,0.,0.00035908,-0.00109246,0
 .00337616,0.00154179,-0.00043073,-0.00037738,-0.00114860,-0.01182492,0
 .00013140,-0.01531896,-0.13948380,0.,-0.12184710,-0.01182492,-0.000131
 40,-0.01531896,-0.00109245,-0.00337617,0.00154179,-0.00043073,0.000377
 38,-0.00114860,0.00021962,0.00000429,-0.00018887,-0.00028319,0.0003487
 2,0.00000504,0.00004490,0.00003951,0.00000751,-0.00001844,-0.00004341,
 0.00005080,0.00073690,0.00001042,0.00027236,0.00023963,-0.00067974,0.0
 0023814,0.01282277,0.,0.01581785,0.15078592,0.,0.00082753,0.,0.,-0.002
 34303,0.,0.00294423,-0.00455588,-0.00162684,0.00113770,0.00063493,0.00
 146243,0.01706947,0.00012556,0.02437691,0.,-0.04773759,0.,-0.01706947,
 0.00012556,-0.02437691,-0.00294423,-0.00455588,0.00162684,-0.00113770,
 0.00063493,-0.00146243,-0.00040826,-0.00000646,-0.00028139,0.00042748,
 -0.00055780,0.00003420,-0.00009972,0.00004036,0.00000428,0.00003352,-0
 .00001753,-0.00007594,-0.00086390,0.00078159,0.00019267,-0.00057561,0.
 00114234,-0.00045395,0.,-0.00041433,0.,0.,0.05449322,-0.00007377,0.,-0
 .00008025,0.00026645,0.,0.00014128,0.00037769,0.00055112,0.00112510,-0
 .00012357,-0.00032289,0.00007822,0.00164942,-0.00006842,0.00074067,-0.
 12273742,0.,-0.21838867,0.00164943,0.00006842,0.00074067,0.00037769,-0
 .00055112,0.00112510,-0.00012357,0.00032289,0.00007822,0.00011144,-0.0
 0008908,0.00047846,-0.00002984,0.00004212,0.00000410,0.00002542,0.0000
 1255,-0.00000643,-0.00006892,0.00008241,-0.00000120,-0.00003153,0.0005
 0531,-0.00001321,-0.00018414,0.00034958,0.00081499,-0.01561406,0.,-0.0
 2181646,0.13470685,0.,0.23370271,-0.00161555,0.00136700,0.00069408,-0.
 00015608,-0.00414860,-0.00381021,-0.00014000,-0.00000225,0.00059114,0.
 00018125,0.00009576,0.00020721,-0.00251672,-0.00264213,-0.00000130,0.0
 1288966,-0.01767024,-0.00079329,-0.13553992,0.12246914,0.00868288,-0.0
 1378801,0.01769472,-0.00183057,0.00047237,0.00129441,0.00077452,-0.000
 03131,-0.00002931,0.00000678,0.00004199,-0.00007409,0.00003065,-0.0000
 0458,0.00012552,-0.00002270,-0.00002599,-0.00003076,-0.00003469,0.0007
 6325,-0.00114056,0.00005722,0.00002129,-0.00007311,-0.00019798,0.00089
 211,0.00079715,-0.00001229,0.00073690,0.00086390,-0.00003153,0.1466443
 7,0.00016645,0.00038215,0.00015469,-0.00098022,0.00038850,0.00003593,-
 0.00019171,0.00060500,-0.00027235,0.00004034,0.00007301,0.00012278,-0.
 00571142,-0.00343855,0.00007863,0.01667018,-0.02192644,-0.00138869,0.1
 2159674,-0.21924498,-0.00862167,-0.00037212,0.00030496,-0.00001541,-0.
 00045667,0.00069121,-0.00026628,0.00002001,-0.00001236,0.00006214,0.00
 008003,-0.00004751,0.00003618,-0.00003606,0.00005546,-0.00003220,-0.00
 001012,-0.00000738,-0.00001825,0.00114055,-0.00164791,0.00005716,-0.00
 007807,0.00033470,-0.00010628,0.00009586,0.00108242,0.00058882,-0.0000
 1042,0.00078159,-0.00050531,-0.13112966,0.23912955,-0.00255017,0.00192
 522,0.00115068,-0.00132418,-0.00419760,-0.00467146,0.00022242,-0.00012
 544,0.00047619,0.00016232,0.00007671,0.00009948,-0.00014738,0.00006916
 ,0.00039998,0.00045128,0.00088868,-0.00087760,0.00870300,-0.00922073,-
 0.04951705,-0.01831899,0.02338405,-0.00256029,0.00091497,0.00089354,0.
 00080989,-0.00003375,-0.00002088,0.00000412,0.00001852,-0.00005240,0.0
 0003761,-0.00000475,0.00007318,0.00000185,-0.00003634,-0.00000810,-0.0
 0001557,0.00005722,-0.00005716,0.00056337,-0.00029499,0.00039816,0.000
 25486,-0.00047877,0.00014077,0.00023551,0.00027236,-0.00019267,-0.0000
 1321,-0.00525938,0.01010778,0.05290384,0.00006249,-0.00027120,0.000297
 01,0.00163821,-0.00052076,-0.00046581,-0.00000131,-0.00002596,-0.00018
 105,0.00007692,0.00003359,0.00005879,0.00041739,0.00121452,-0.00026449
 ,-0.01215187,-0.00157066,0.01713674,-0.11905063,-0.00347822,0.11246654
 ,0.01002626,0.00068938,-0.01947394,0.00147224,0.00057965,-0.00016700,-
 0.00012379,-0.00000728,-0.00003311,0.00002318,-0.00003177,0.00000700,-
 0.00001233,0.00002131,0.00000121,0.00000903,0.00000621,0.00000142,0.00
 002129,0.00007807,-0.00029499,0.00070376,-0.00048066,-0.00025037,-0.00
 136298,-0.00397982,-0.00041930,0.00023963,0.00057561,-0.00018414,-0.01
 032350,-0.00095756,0.01642251,0.13062570,-0.00011203,0.00015933,-0.000
 21146,-0.00047975,-0.00019022,0.00084148,0.00020408,-0.00013365,-0.000
 09996,0.00002983,-0.00000081,0.00003252,-0.00061019,0.00178156,0.00112
 589,-0.01586323,-0.00235651,0.02445071,-0.00308661,-0.05229529,0.00891
 581,-0.00016990,-0.00035080,0.00045642,0.00058878,0.00016685,-0.000743
 90,-0.00003275,0.00009650,-0.00020546,0.00001191,-0.00001699,-0.000006
 01,0.00000695,0.00000907,0.00000045,0.00003095,-0.00003134,-0.00000709
 ,0.00007311,0.00033470,-0.00039816,0.00048066,-0.00037579,-0.00058425,
 -0.00332161,-0.00452215,0.00026771,0.00067974,0.00114234,-0.00034958,0
 .01414740,0.00176657,-0.02370798,0.00803681,0.05396309,-0.00153888,0.0
 0033685,0.00042775,0.00271945,-0.00188660,-0.00055336,-0.00002501,0.00
 037876,-0.00031298,0.00008954,0.00003839,-0.00003450,-0.00022863,-0.00
 021948,-0.00007176,-0.00028787,-0.00011260,0.00089010,0.11262369,0.008
 75786,-0.22865634,0.01113358,0.00190584,-0.02402724,0.00144421,0.00072
 519,0.00084151,-0.00005947,-0.00005486,0.00016935,-0.00000349,-0.00000
 282,0.00001194,-0.00002269,0.00003988,0.00001086,-0.00004862,0.0000471
 6,0.00002113,-0.00019798,0.00010628,0.00025486,-0.00025037,0.00058425,
 0.00018478,-0.00028807,-0.00050265,0.00142908,0.00023814,0.00045395,0.
 00081499,0.00089902,-0.00055798,-0.00087699,-0.12096503,-0.00985744,0.
 25200997,-0.00145100,0.00400211,-0.00243216,-0.01377433,-0.00072251,0.
 01740178,0.00003956,-0.00038129,-0.00080308,0.00002121,0.00013186,-0.0
 0051104,-0.00006080,-0.00034307,-0.00004284,0.00129301,0.00036730,-0.0
 0012537,0.00996906,-0.00110875,-0.02080839,-0.11947789,0.00010997,0.11
 810727,-0.01130406,-0.00082275,0.01572895,0.00087970,0.00028235,-0.000
 48506,-0.00003023,-0.00000036,0.00006677,0.00001057,0.00001595,0.00000
 210,0.00005679,-0.00017908,-0.00004486,-0.00003131,-0.00002001,-0.0000
 3375,-0.00012379,0.00003275,-0.00005947,-0.00014624,0.00006282,0.00032
 636,0.00021962,0.00040826,0.00011144,0.00129712,-0.00006954,0.00089981
 ,-0.00227226,-0.00038308,-0.00392980,0.13533151,0.00326536,-0.00374385
 ,0.00346010,0.01526718,0.00365084,-0.02593635,-0.00155119,-0.00050407,
 0.00272392,0.00013268,0.00013769,0.00035489,0.00049911,0.00021364,0.00
 024025,0.00040226,0.00017936,-0.00098361,-0.00108858,0.00056963,0.0009
 9595,0.00202993,-0.05083439,-0.00535358,-0.01704240,-0.00132904,0.0237
 4433,-0.00028235,-0.00183941,-0.00008234,-0.00003176,0.00003088,-0.000
 08423,-0.00004588,0.00002121,0.00001080,-0.00002647,0.00011188,0.00002
 323,0.00002931,-0.00001236,0.00002088,0.00000728,0.00009650,0.00005486
 ,-0.00018743,0.00008867,-0.00000135,-0.00000429,-0.00000646,0.00008908
 ,-0.00070277,0.00010168,0.00025361,-0.00004490,0.00073714,0.00045588,0
 .00136113,0.05492517,-0.00046236,-0.00051666,-0.00082418,0.00047770,0.
 00079056,0.00019758,0.00095736,0.00018791,-0.00066374,-0.00019620,-0.0
 0025230,0.00027065,-0.00047441,-0.00016400,-0.00014520,0.00164264,0.00
 058027,0.00078721,0.01269592,-0.00096669,-0.02763578,0.11403685,-0.001
 13020,-0.21131700,-0.00040725,0.00009732,0.00079574,-0.00048506,0.0000
 8234,0.00070814,0.00002301,0.00003872,-0.00002771,0.00002569,-0.000044
 42,-0.00000978,-0.00007988,0.00013021,0.00003606,0.00000678,-0.0000621
 4,0.00000412,-0.00003311,0.00020546,0.00016935,-0.00094613,-0.00075166
 ,0.00053340,-0.00018887,0.00028139,0.00047846,0.00036878,0.00041859,0.
 00154427,-0.00427380,0.00003843,-0.00346688,-0.12241541,0.00033243,0.2
 3665780,0.00086946,0.00009862,-0.00007975,-0.00066085,0.00132723,-0.00
 040475,-0.00007628,-0.00017590,0.00010787,-0.00003962,-0.00000460,-0.0
 0006403,0.00008624,0.00001220,0.00013166,0.00012059,-0.00013315,-0.000
 33291,0.00056710,0.00086777,0.00170223,-0.01205283,-0.00144329,0.01608
 668,-0.13246477,-0.00314702,0.12341094,0.00005679,0.00002647,-0.000079
 88,0.00000029,0.00001083,-0.00000565,0.00000745,-0.00003037,0.00000294
 ,0.00003100,-0.00002078,-0.00000645,-0.00002599,0.00001012,-0.00003634
 ,0.00000903,-0.00003095,-0.00004862,0.00019625,0.00019438,-0.00010455,
 -0.00001844,-0.00003352,-0.00006892,-0.00009469,-0.00004546,-0.0000227
 2,-0.00009347,-0.00025511,-0.00098982,-0.00155987,-0.00347979,-0.00042
 675,0.14242896,0.00139889,0.00004098,-0.00049648,-0.00208937,0.0012627
 5,0.00100586,-0.00001591,-0.00010400,-0.00000309,0.00004473,0.00000170
 ,-0.00007704,0.00000155,0.00009883,0.00002795,0.00007002,-0.00010736,0
 .00001334,0.00078457,0.00091026,0.00110546,-0.01599345,-0.00115446,0.0
 2424975,-0.00255435,-0.04903661,0.00340337,0.00017908,0.00011188,-0.00
 013021,0.00000254,-0.00002293,0.00001719,0.00001227,0.00001780,0.00000
 057,0.00002078,-0.00005704,-0.00001793,0.00003076,-0.00000738,0.000008
 10,-0.00000621,-0.00003134,-0.00004716,0.00014565,0.00007550,-0.000105
 96,0.00004341,-0.00001753,-0.00008241,-0.00001342,-0.00000612,-0.00020
 020,0.00000995,0.00018716,-0.00067767,-0.00328879,-0.00466488,-0.00008
 520,0.00674772,0.05148746,-0.00134999,-0.00097550,0.00062069,0.0021100
 9,-0.00059210,0.00012717,-0.00027485,0.00013186,-0.00023397,0.00003632
 ,0.00003716,-0.00000468,0.00001159,-0.00007162,-0.00000118,-0.00013437
 ,-0.00005849,0.00029481,-0.00055096,-0.00004709,0.00091229,-0.00074189
 ,0.00142344,0.00029274,0.12329134,0.00500565,-0.23131803,-0.00004486,-
 0.00002323,0.00003606,0.00000484,0.00001015,-0.00001505,-0.00002243,0.
 00001584,0.00000262,-0.00000645,0.00001793,0.00002123,-0.00003469,0.00
 001825,-0.00001557,0.00000142,0.00000709,0.00002113,-0.00008568,-0.000
 09717,-0.00010238,0.00005080,0.00007594,-0.00000120,-0.00003709,0.0000
 3730,-0.00002232,0.00039134,-0.00001370,0.00043376,-0.00038771,0.00002
 264,0.00114272,-0.13643361,-0.00436838,0.24844734,0.00142594,0.0018395
 4,0.00001987,-0.00516985,-0.00327062,-0.00040361,0.00099176,-0.0008220
 1,0.00001515,-0.00029701,-0.00026001,-0.00000370,0.00013736,0.00000848
 ,0.00008199,0.00018039,0.00001709,0.00025417,0.00106491,-0.00019204,0.
 00027308,0.01167460,-0.01904745,-0.00124379,-0.13322286,0.12333897,0.0
 0505201,0.00001057,0.00004588,0.00002569,0.00000047,-0.00000384,0.0000
 1955,0.00010556,-0.00011423,0.00000037,0.00000745,-0.00001227,-0.00002
 243,-0.00000458,0.00003606,-0.00000475,-0.00001233,-0.00000695,-0.0000
 2269,-0.00000541,-0.00000283,-0.00000109,0.00004490,0.00009972,0.00002
 542,-0.00004922,0.00023395,0.00001351,-0.00006781,0.00006768,-0.000083
 63,0.00091620,0.00087600,-0.00002425,-0.01027434,0.01442284,-0.0011584
 9,0.14357345,-0.00018396,0.00057974,-0.00002073,-0.00511776,-0.0024966
 7,0.00014260,0.00146948,-0.00099749,-0.00006205,-0.00058049,-0.0003852
 6,-0.00004104,0.00035615,0.00012255,0.00025715,-0.00035143,0.00018912,
 0.00013538,0.00168274,0.00074006,0.00059685,0.01587675,-0.02318670,-0.
 00126317,0.12260793,-0.22683059,-0.00737240,-0.00001595,0.00002121,0.0
 0004442,0.00000304,0.00004914,0.00000266,0.00011423,-0.00023215,-0.000
 00890,0.00003037,0.00001780,-0.00001584,-0.00012552,0.00005546,-0.0000
 7318,-0.00002131,0.00000907,-0.00003988,0.00001608,-0.00001695,0.00001
 529,-0.00003951,0.00004036,-0.00001255,-0.00098580,0.00045992,-0.00058
 041,-0.00010445,0.00000822,-0.00008179,0.00008424,0.00098918,0.0004646
 7,-0.00113302,0.00171912,-0.00065333,-0.13307152,0.24831578,-0.0000033
 9,-0.00000439,0.00048830,0.00007630,0.00020407,0.00057052,-0.00009240,
 0.00003945,0.00008289,0.00001190,0.00001646,-0.00002090,0.00008167,-0.
 00001921,-0.00001712,-0.00010372,0.00009437,-0.00002355,0.00048783,-0.
 00057601,0.00008093,-0.00019777,0.00071276,-0.00134972,0.00486591,-0.0
 0734235,-0.05128537,0.00000210,-0.00001080,-0.00000978,-0.00000525,0.0
 0000315,-0.00000314,0.00000037,0.00000890,-0.00000120,0.00000294,-0.00
 000057,0.00000262,-0.00002270,0.00003220,0.00000185,0.00000121,-0.0000
 0045,0.00001086,0.00003622,0.00003030,-0.00003003,0.00000751,-0.000004
 28,-0.00000643,-0.00030346,-0.00004804,0.00014812,0.00005620,-0.000103
 36,-0.00000978,-0.00043385,0.00019561,0.00008580,0.01498170,-0.0241144
 7,0.00046375,-0.00537939,0.00782355,0.04849886,0.00096230,0.00060460,0
 .00028894,-0.00074647,0.00083486,0.00021306,0.00000699,-0.00001297,-0.
 00012442,0.00001123,0.00000467,0.00003783,-0.00018038,0.00010050,0.000
 02054,-0.00020971,0.00038851,-0.00136395,-0.00153249,-0.00385842,0.001
 60513,-0.01229895,0.00008686,-0.01506945,-0.14981324,0.00108713,-0.130
 92559,-0.00003023,0.00003176,0.00002301,0.00003563,-0.00002666,0.00000
 994,0.00000047,-0.00000304,-0.00000525,0.00000029,-0.00000254,0.000004
 84,0.00004199,-0.00008003,0.00001852,0.00002318,-0.00001191,-0.0000034
 9,0.00000002,0.00004211,0.00006584,-0.00028319,-0.00042748,-0.00002984
 ,0.00034528,0.00000494,0.00033350,0.00014386,-0.00004365,-0.00022827,0
 .00019743,0.00061754,0.00017874,0.01298798,0.00004672,0.01536536,-0.01
 103013,-0.00051031,-0.01406993,0.16136814,0.00152905,-0.00009668,0.000
 45212,-0.00197575,0.00069537,-0.00082754,0.00003073,0.00016920,0.00010
 072,0.00008683,0.00006010,0.00005189,-0.00013993,0.00031410,-0.0001187
 9,-0.00105446,0.00055766,-0.00142949,-0.00211707,-0.00527805,0.0013540
 6,-0.01617159,0.00051309,-0.02347317,0.00199271,-0.04863184,0.00324167
 ,0.00000036,0.00003088,-0.00003872,0.00002666,-0.00005730,0.00002560,0
 .00000384,0.00004914,-0.00000315,-0.00001083,-0.00002293,-0.00001015,0
 .00007409,-0.00004751,0.00005240,0.00003177,-0.00001699,0.00000282,-0.
 00001600,-0.00000334,0.00005136,-0.00034872,-0.00055780,-0.00004212,-0
 .00021229,0.00017455,0.00015272,0.00022814,-0.00007898,0.00012360,0.00
 046049,0.00108102,0.00032497,0.00063762,-0.00070379,0.00009738,0.01581
 752,0.00082907,0.02306311,0.00112683,0.05102105,0.00137804,0.00122226,
 0.00054800,-0.00212230,0.00038919,0.00016474,0.00031145,-0.00010357,-0
 .00014043,-0.00001366,-0.00003604,-0.00000042,-0.00006959,0.00008152,-
 0.00007042,-0.00001021,0.00043762,0.00023274,-0.00007058,-0.00034720,0
 .00070592,0.00227560,-0.00065677,0.00136361,-0.13065402,0.00123794,-0.
 21771667,0.00006677,0.00008423,-0.00002771,0.00000994,-0.00002560,0.00
 002318,0.00001955,-0.00000266,-0.00000314,-0.00000565,-0.00001719,-0.0
 0001505,0.00003065,-0.00003618,0.00003761,0.00000700,0.00000601,0.0000
 1194,-0.00008553,-0.00011976,0.00000863,0.00000504,-0.00003420,0.00000
 410,0.00002222,0.00013247,-0.00007526,0.00013426,0.00015891,0.00050975
 ,-0.00013169,-0.00053700,0.00067896,-0.01731924,0.00057462,-0.02110193
 ,0.00256700,0.00074269,0.00232252,0.14365496,-0.00315128,0.23253932\\0
 .00002172,0.,0.00000434,0.00007375,-0.00000002,-0.00000527,-0.00004585
 ,-0.00002663,0.00001373,0.00001019,0.00000209,0.00001494,0.00000483,0.
 00003585,-0.00001641,-0.00000028,0.00000004,0.00000184,0.00000459,-0.0
 0003543,-0.00001639,-0.00004559,0.00002676,0.00001357,0.00000970,-0.00
 000222,0.00001563,0.00000253,-0.00001909,0.00000343,0.00000158,0.00000
 357,-0.00000762,0.00000387,0.00000940,-0.00000459,-0.00000552,-0.00000
 423,-0.00000271,-0.00000194,-0.00000605,0.00000350,-0.00001436,-0.0000
 0361,-0.00000871,-0.00000111,0.,-0.00000112,-0.00000476,0.,0.00000908,
 -0.00000169,0.00000560,0.00000348,-0.00001436,0.00000360,-0.00000870,0
 .00000258,0.00001916,0.00000343,-0.00000534,0.00000421,-0.00000319,0.0
 0000390,-0.00000939,-0.00000468,0.00000157,-0.00000361,-0.00000759\\\@


 TWO ROADS DIVERGED IN A WOOD, AND I--
 I TOOK THE ONE LESS TRAVELED BY,
 AND THAT HAS MADE ALL THE DIFFERENCE.

                       -- ROBERT FROST
 Job cpu time:       0 days  0 hours  1 minutes 32.3 seconds.
 Elapsed time:       0 days  0 hours  1 minutes 34.1 seconds.
 File lengths (MBytes):  RWF=     78 Int=      0 D2E=      0 Chk=      5 Scr=      1
 Normal termination of Gaussian 16 at Wed Feb 21 19:06:12 2024.
