 Entering Gaussian System, Link 0=g16
 Input=/Volumes/SSD-PMU3/b3lyp_6-31gd_freq/IXTKOLGCHQGCFF-RXMQYKEDSA-N_calculating/gaussianinput0.gjf
 Output=/Volumes/SSD-PMU3/b3lyp_6-31gd_freq/IXTKOLGCHQGCFF-RXMQYKEDSA-N_calculating/gaussianinput0.log
 Initial command:
 /Applications/g16/l1.exe "/Users/macmini_m1_2022/PycharmProjects/sphere_model/sphere_model_lib/Gau-74935.inp" -scrdir="/Users/macmini_m1_2022/PycharmProjects/sphere_model/sphere_model_lib/"
 Entering Link 1 = /Applications/g16/l1.exe PID=     74936.
  
 Copyright (c) 1988,1990,1992,1993,1995,1998,2003,2009,2016,
            Gaussian, Inc.  All Rights Reserved.
  
 This is part of the Gaussian(R) 16 program.  It is based on
 the Gaussian(R) 09 system (copyright 2009, Gaussian, Inc.),
 the Gaussian(R) 03 system (copyright 2003, Gaussian, Inc.),
 the Gaussian(R) 98 system (copyright 1998, Gaussian, Inc.),
 the Gaussian(R) 94 system (copyright 1995, Gaussian, Inc.),
 the Gaussian 92(TM) system (copyright 1992, Gaussian, Inc.),
 the Gaussian 90(TM) system (copyright 1990, Gaussian, Inc.),
 the Gaussian 88(TM) system (copyright 1988, Gaussian, Inc.),
 the Gaussian 86(TM) system (copyright 1986, Carnegie Mellon
 University), and the Gaussian 82(TM) system (copyright 1983,
 Carnegie Mellon University). Gaussian is a federally registered
 trademark of Gaussian, Inc.
  
 This software contains proprietary and confidential information,
 including trade secrets, belonging to Gaussian, Inc.
  
 This software is provided under written license and may be
 used, copied, transmitted, or stored only in accord with that
 written license.
  
 The following legend is applicable only to US Government
 contracts under FAR:
  
                    RESTRICTED RIGHTS LEGEND
  
 Use, reproduction and disclosure by the US Government is
 subject to restrictions as set forth in subparagraphs (a)
 and (c) of the Commercial Computer Software - Restricted
 Rights clause in FAR 52.227-19.
  
 Gaussian, Inc.
 340 Quinnipiac St., Bldg. 40, Wallingford CT 06492
  
  
 ---------------------------------------------------------------
 Warning -- This program may not be used in any manner that
 competes with the business of Gaussian, Inc. or will provide
 assistance to any competitor of Gaussian, Inc.  The licensee
 of this program is prohibited from giving any competitor of
 Gaussian, Inc. access to this program.  By using this program,
 the user acknowledges that Gaussian, Inc. is engaged in the
 business of creating and licensing software in the field of
 computational chemistry and represents and warrants to the
 licensee that it is not a competitor of Gaussian, Inc. and that
 it will not use this program in any manner prohibited above.
 ---------------------------------------------------------------
  

 Cite this work as:
 Gaussian 16, Revision A.03,
 M. J. Frisch, G. W. Trucks, H. B. Schlegel, G. E. Scuseria, 
 M. A. Robb, J. R. Cheeseman, G. Scalmani, V. Barone, 
 G. A. Petersson, H. Nakatsuji, X. Li, M. Caricato, A. V. Marenich, 
 J. Bloino, B. G. Janesko, R. Gomperts, B. Mennucci, H. P. Hratchian, 
 J. V. Ortiz, A. F. Izmaylov, J. L. Sonnenberg, D. Williams-Young, 
 F. Ding, F. Lipparini, F. Egidi, J. Goings, B. Peng, A. Petrone, 
 T. Henderson, D. Ranasinghe, V. G. Zakrzewski, J. Gao, N. Rega, 
 G. Zheng, W. Liang, M. Hada, M. Ehara, K. Toyota, R. Fukuda, 
 J. Hasegawa, M. Ishida, T. Nakajima, Y. Honda, O. Kitao, H. Nakai, 
 T. Vreven, K. Throssell, J. A. Montgomery, Jr., J. E. Peralta, 
 F. Ogliaro, M. J. Bearpark, J. J. Heyd, E. N. Brothers, K. N. Kudin, 
 V. N. Staroverov, T. A. Keith, R. Kobayashi, J. Normand, 
 K. Raghavachari, A. P. Rendell, J. C. Burant, S. S. Iyengar, 
 J. Tomasi, M. Cossi, J. M. Millam, M. Klene, C. Adamo, R. Cammi, 
 J. W. Ochterski, R. L. Martin, K. Morokuma, O. Farkas, 
 J. B. Foresman, and D. J. Fox, Gaussian, Inc., Wallingford CT, 2016.
 
 ******************************************
 Gaussian 16:  EM64M-G16RevA.03 25-Dec-2016
                23-Feb-2024 
 ******************************************
 %nprocshared=10
 Will use up to   10 processors via shared memory.
 %mem=12GB
 %chk= 0.chk
 ---------------------
 # freq b3lyp/6-31g(d)
 ---------------------
 1/10=4,30=1,38=1/1,3;
 2/12=2,17=6,18=5,40=1/2;
 3/5=1,6=6,7=1,11=2,25=1,30=1,71=2,74=-5,140=1/1,2,3;
 4//1;
 5/5=2,38=5,98=1/2;
 8/6=4,10=90,11=11/1;
 11/6=1,8=1,9=11,15=111,16=1/1,2,10;
 10/6=1/2;
 6/7=2,8=2,9=2,10=2,28=1/1;
 7/8=1,10=1,25=1/1,2,3,16;
 1/10=4,30=1/3;
 99//99;
 ---------
 good luck
 ---------
 Symbolic Z-matrix:
 Charge =  0 Multiplicity = 1
 O                     1.21559   0.        0. 
 C                     0.        0.        0. 
 C                    -0.808    -1.29469  -0.00502 
 C                    -1.92205  -1.28646   1.07702 
 C                    -2.74524  -2.56315   1.05277 
 C                    -3.50727  -2.95803  -0.05106 
 F                    -3.53317  -2.1931   -1.16185 
 C                    -4.25803  -4.13001  -0.06719 
 F                    -4.9681   -4.46598  -1.14983 
 C                    -4.26729  -4.95443   1.05539 
 F                    -4.98457  -6.08086   1.05539 
 C                    -3.52435  -4.59553   2.17582 
 F                    -3.52691  -5.37901   3.25957 
 C                    -2.7813   -3.41699   2.15905 
 F                    -2.08076  -3.11383   3.26652 
 C                    -2.79145  -0.01333   0.96618 
 C                    -1.92703   1.25072   1.07114 
 C                    -0.82275   1.28084  -0.00502 
 H                    -1.27031  -1.39899  -0.99536 
 H                    -0.11964  -2.13255   0.13673 
 H                    -1.42611  -1.25698   2.05322 
 H                    -3.3312   -0.01889   0.01137 
 H                    -3.54718  -0.01809   1.76072 
 H                    -2.55477   2.14473   0.98097 
 H                    -1.46314   1.2937    2.06615 
 H                    -0.14632   2.13068   0.1223 
 H                    -1.29234   1.37148  -0.99666 
 

 GradGradGradGradGradGradGradGradGradGradGradGradGradGradGradGradGradGrad
 Berny optimization.
 Initialization pass.
 Trust Radius=3.00D-01 FncErr=1.00D-07 GrdErr=1.00D-07 EigMax=2.50D+02 EigMin=1.00D-04
 Number of steps in this run=      2 maximum allowed number of steps=      2.
 GradGradGradGradGradGradGradGradGradGradGradGradGradGradGradGradGradGrad

                          Input orientation:                          
 ---------------------------------------------------------------------
 Center     Atomic      Atomic             Coordinates (Angstroms)
 Number     Number       Type             X           Y           Z
 ---------------------------------------------------------------------
      1          8           0        1.215586    0.000000    0.000000
      2          6           0        0.000000    0.000000    0.000000
      3          6           0       -0.807998   -1.294693   -0.005019
      4          6           0       -1.922051   -1.286457    1.077024
      5          6           0       -2.745236   -2.563147    1.052772
      6          6           0       -3.507274   -2.958026   -0.051057
      7          9           0       -3.533166   -2.193095   -1.161853
      8          6           0       -4.258027   -4.130012   -0.067187
      9          9           0       -4.968101   -4.465975   -1.149825
     10          6           0       -4.267294   -4.954426    1.055394
     11          9           0       -4.984571   -6.080858    1.055389
     12          6           0       -3.524348   -4.595532    2.175818
     13          9           0       -3.526909   -5.379013    3.259565
     14          6           0       -2.781297   -3.416989    2.159052
     15          9           0       -2.080760   -3.113829    3.266523
     16          6           0       -2.791447   -0.013326    0.966184
     17          6           0       -1.927030    1.250721    1.071142
     18          6           0       -0.822753    1.280842   -0.005019
     19          1           0       -1.270311   -1.398989   -0.995357
     20          1           0       -0.119640   -2.132552    0.136732
     21          1           0       -1.426108   -1.256983    2.053222
     22          1           0       -3.331202   -0.018890    0.011370
     23          1           0       -3.547180   -0.018093    1.760716
     24          1           0       -2.554765    2.144729    0.980972
     25          1           0       -1.463141    1.293701    2.066151
     26          1           0       -0.146318    2.130684    0.122299
     27          1           0       -1.292341    1.371484   -0.996655
 ---------------------------------------------------------------------
                    Distance matrix (angstroms):
                    1          2          3          4          5
     1  O    0.000000
     2  C    1.215586   0.000000
     3  C    2.402321   1.526144   0.000000
     4  C    3.558050   2.551320   1.553061   0.000000
     5  C    4.833856   3.900560   2.545739   1.519263   0.000000
     6  C    5.572964   4.588409   3.170944   2.565081   1.398238
     7  F    5.358191   4.317734   3.093854   2.903490   2.379566
     8  C    6.857255   5.932310   4.466050   3.853804   2.449063
     9  F    7.713949   6.778573   5.354817   4.934229   3.662420
    10  C    7.464728   6.623443   5.146343   4.353691   2.834587
    11  F    8.748293   7.933261   6.440155   5.689093   4.170002
    12  C    6.951264   6.186609   4.798973   3.837275   2.449252
    13  F    7.877170   7.210938   5.893357   4.907960   3.661973
    14  C    5.684399   4.906417   3.616801   2.539341   1.397928
    15  F    5.588560   4.969473   3.953753   2.856288   2.376020
    16  C    4.121893   2.953958   2.553274   1.545638   2.551709
    17  C    3.547913   2.534777   2.981524   2.537190   3.900691
    18  C    2.407365   1.522335   2.575577   2.995045   4.426185
    19  H    3.021190   2.135789   1.097898   2.175360   2.779478
    20  H    2.519782   2.140277   1.093589   2.201979   2.813947
    21  H    3.574112   2.798126   2.149381   1.095350   2.108806
    22  H    4.546841   3.331275   2.827455   2.174408   2.810893
    23  H    5.077833   3.960168   3.500092   2.171918   2.760724
    24  H    4.447214   3.476923   3.981582   3.490357   4.712274
    25  H    3.621908   2.843136   3.379163   2.801104   4.188792
    26  H    2.531710   2.139201   3.491022   3.967566   5.445384
    27  H    3.027208   2.131768   2.885555   3.429479   4.668231
                    6          7          8          9         10
     6  C    0.000000
     7  F    1.348947   0.000000
     8  C    1.391920   2.339950   0.000000
     9  F    2.369645   2.687967   1.337603   0.000000
    10  C    2.405718   3.616639   1.392815   2.364890   0.000000
    11  F    3.627493   4.705044   2.365131   2.733329   1.335416
    12  C    2.764180   4.112399   2.405424   3.627824   1.391447
    13  F    4.101437   5.449683   3.627922   4.727937   2.363644
    14  C    2.371133   3.618236   2.765009   4.102579   2.406234
    15  F    3.614631   4.750552   4.109348   5.446941   3.613561
    16  C    3.196630   3.135296   4.490636   5.389007   5.157572
    17  C    4.633579   4.407472   5.973410   6.845540   6.631812
    18  C    5.017646   4.555529   6.409549   7.177771   7.201938
    19  H    2.885533   2.403921   4.152883   4.806653   5.082186
    20  H    3.491810   3.652691   4.599747   5.532420   5.099995
    21  H    3.413618   3.956350   4.557433   5.753508   4.768551
    22  H    2.945067   2.478792   4.215033   4.878973   5.130864
    23  H    3.453595   3.643109   4.555701   5.502174   5.038197
    24  H    5.292491   4.936161   6.585751   7.352951   7.303170
    25  H    5.170902   5.182930   6.463682   7.470014   6.922716
    26  H    6.100905   5.640465   7.492554   8.269450   8.249357
    27  H    4.954265   4.213646   6.318676   6.900043   7.285492
                   11         12         13         14         15
    11  F    0.000000
    12  C    2.365123   0.000000
    13  F    2.734183   1.337295   0.000000
    14  C    3.628868   1.393330   2.369938   0.000000
    15  F    4.703668   2.338595   2.687462   1.345047   0.000000
    16  C    6.452340   4.795516   5.881420   3.606655   3.925526
    17  C    7.943605   6.160390   7.162554   4.868351   4.888009
    18  C    8.522900   6.825426   7.894532   5.530706   5.621272
    19  H    6.318321   5.035367   6.247975   4.038032   4.664882
    20  H    6.332504   4.670779   5.648104   3.581058   3.821582
    21  H    6.076849   3.945067   4.781188   2.552129   2.312692
    22  H    6.369542   5.066339   6.270565   4.057340   4.662432
    23  H    6.270622   4.596279   5.566545   3.506814   3.741848
    24  H    8.577283   6.913672   7.921095   5.689631   5.753334
    25  H    8.234454   6.240486   7.085795   4.892521   4.609628
    26  H    9.576470   7.801923   8.812853   6.470560   6.413511
    27  H    8.566262   7.117002   8.287214   5.924943   6.238135
                   16         17         18         19         20
    16  C    0.000000
    17  C    1.534942   0.000000
    18  C    2.548306   1.542225   0.000000
    19  H    2.842808   3.423837   2.891811   0.000000
    20  H    3.509653   3.947951   3.487939   1.773072   0.000000
    21  H    2.143008   2.739340   3.322792   3.055859   2.479196
    22  H    1.096830   2.169499   2.825224   2.676835   3.846741
    23  H    1.096557   2.170320   3.496792   3.832355   4.342383
    24  H    2.171045   1.096099   2.172175   4.256012   4.993767
    25  H    2.163942   1.098673   2.167950   4.081739   4.155341
    26  H    3.507938   2.201266   1.093620   3.869251   4.263344
    27  H    2.831564   2.166379   1.100941   2.770561   3.864979
                   21         22         23         24         25
    21  H    0.000000
    22  H    3.054737   0.000000
    23  H    2.473733   1.762628   0.000000
    24  H    3.741020   2.494841   2.504134   0.000000
    25  H    2.550986   3.071591   2.481393   1.758836   0.000000
    26  H    4.103975   3.844016   4.343675   2.556977   2.492614
    27  H    4.028459   2.665747   3.823391   2.470350   3.068551
                   26         27
    26  H    0.000000
    27  H    1.772516   0.000000
 Stoichiometry    C12H9F5O
 Framework group  C1[X(C12H9F5O)]
 Deg. of freedom    75
 Full point group                 C1      NOp   1
 Largest Abelian subgroup         C1      NOp   1
 Largest concise Abelian subgroup C1      NOp   1
                         Standard orientation:                         
 ---------------------------------------------------------------------
 Center     Atomic      Atomic             Coordinates (Angstroms)
 Number     Number       Type             X           Y           Z
 ---------------------------------------------------------------------
      1          8           0       -4.216024    0.531068   -1.826462
      2          6           0       -3.555500    0.048851   -0.927116
      3          6           0       -2.045752   -0.140382   -1.045297
      4          6           0       -1.294495    0.403563    0.200390
      5          6           0        0.205893    0.188877    0.095963
      6          6           0        0.790952   -1.078596    0.016661
      7          9           0        0.015235   -2.182113    0.029692
      8          6           0        2.166482   -1.268130   -0.080479
      9          9           0        2.677541   -2.501847   -0.157568
     10          6           0        3.012191   -0.161570   -0.095762
     11          9           0        4.334109   -0.327901   -0.186332
     12          6           0        2.469627    1.117238   -0.015787
     13          9           0        3.272338    2.186749   -0.028419
     14          6           0        1.088213    1.273031    0.077993
     15          9           0        0.612987    2.529053    0.153615
     16          6           0       -1.891291   -0.176010    1.503051
     17          6           0       -3.392231    0.129958    1.601097
     18          6           0       -4.169087   -0.416527    0.386063
     19          1           0       -1.848007   -1.215955   -1.142360
     20          1           0       -1.706425    0.349883   -1.962049
     21          1           0       -1.450592    1.487434    0.225859
     22          1           0       -1.728157   -1.260270    1.531423
     23          1           0       -1.364557    0.249253    2.365686
     24          1           0       -3.803684   -0.295113    2.523839
     25          1           0       -3.539431    1.216850    1.664977
     26          1           0       -5.221954   -0.121271    0.403361
     27          1           0       -4.128891   -1.516627    0.401393
 ---------------------------------------------------------------------
 Rotational constants (GHZ):           0.7516580           0.2403984           0.2061168
 Standard basis: 6-31G(d) (6D, 7F)
 There are   288 symmetry adapted cartesian basis functions of A   symmetry.
 There are   288 symmetry adapted basis functions of A   symmetry.
   288 basis functions,   540 primitive gaussians,   288 cartesian basis functions
    67 alpha electrons       67 beta electrons
       nuclear repulsion energy      1372.5600307211 Hartrees.
 NAtoms=   27 NActive=   27 NUniq=   27 SFac= 1.00D+00 NAtFMM=   60 NAOKFM=F Big=F
 Integral buffers will be    131072 words long.
 Raffenetti 2 integral format.
 Two-electron integral symmetry is turned on.
 One-electron integrals computed using PRISM.
 NBasis=   288 RedAO= T EigKep=  3.14D-04  NBF=   288
 NBsUse=   288 1.00D-06 EigRej= -1.00D+00 NBFU=   288
 ExpMin= 1.61D-01 ExpMax= 7.00D+03 ExpMxC= 1.05D+03 IAcc=3 IRadAn=         5 AccDes= 0.00D+00
 Harris functional with IExCor=  402 and IRadAn=       5 diagonalized for initial guess.
 HarFok:  IExCor=  402 AccDes= 0.00D+00 IRadAn=         5 IDoV= 1 UseB2=F ITyADJ=14
 ICtDFT=  3500011 ScaDFX=  1.000000  1.000000  1.000000  1.000000
 FoFCou: FMM=F IPFlag=           0 FMFlag=      100000 FMFlg1=           0
         NFxFlg=           0 DoJE=T BraDBF=F KetDBF=T FulRan=T
         wScrn=  0.000000 ICntrl=       500 IOpCl=  0 I1Cent=   200000004 NGrid=           0
         NMat0=    1 NMatS0=      1 NMatT0=    0 NMatD0=    1 NMtDS0=    0 NMtDT0=    0
 Petite list used in FoFCou.
 Requested convergence on RMS density matrix=1.00D-08 within 128 cycles.
 Requested convergence on MAX density matrix=1.00D-06.
 Requested convergence on             energy=1.00D-06.
 No special actions if energy rises.
 Integral accuracy reduced to 1.0D-05 until final iterations.
 Initial convergence to 1.0D-05 achieved.  Increase integral accuracy.
 SCF Done:  E(RB3LYP) =  -1037.07449306     A.U. after   14 cycles
            NFock= 14  Conv=0.65D-08     -V/T= 2.0080
 DoSCS=F DFT=T ScalE2(SS,OS)=  1.000000  1.000000
 Range of M.O.s used for correlation:     1   288
 NBasis=   288 NAE=    67 NBE=    67 NFC=     0 NFV=     0
 NROrb=    288 NOA=    67 NOB=    67 NVA=   221 NVB=   221

 **** Warning!!: The largest alpha MO coefficient is  0.10772462D+02

 Symmetrizing basis deriv contribution to polar:
 IMax=3 JMax=2 DiffMx= 0.00D+00
 G2DrvN: will do    28 centers at a time, making    1 passes.
 Calling FoFCou, ICntrl=  3107 FMM=F I1Cent=   0 AccDes= 0.00D+00.
 End of G2Drv F.D. properties file   721 does not exist.
 End of G2Drv F.D. properties file   722 does not exist.
 End of G2Drv F.D. properties file   788 does not exist.
          IDoAtm=111111111111111111111111111
          Differentiating once with respect to electric field.
                with respect to dipole field.
          Differentiating once with respect to nuclear coordinates.
 Keep R1 ints in memory in canonical form, NReq=878048228.
          There are    84 degrees of freedom in the 1st order CPHF.  IDoFFX=6 NUNeed=     3.
     81 vectors produced by pass  0 Test12= 1.76D-14 1.19D-09 XBig12= 1.53D+02 6.09D+00.
 AX will form    81 AO Fock derivatives at one time.
     81 vectors produced by pass  1 Test12= 1.76D-14 1.19D-09 XBig12= 2.80D+01 1.33D+00.
     81 vectors produced by pass  2 Test12= 1.76D-14 1.19D-09 XBig12= 2.14D-01 4.73D-02.
     81 vectors produced by pass  3 Test12= 1.76D-14 1.19D-09 XBig12= 1.83D-03 6.03D-03.
     81 vectors produced by pass  4 Test12= 1.76D-14 1.19D-09 XBig12= 4.60D-06 2.47D-04.
     67 vectors produced by pass  5 Test12= 1.76D-14 1.19D-09 XBig12= 4.82D-09 6.48D-06.
     15 vectors produced by pass  6 Test12= 1.76D-14 1.19D-09 XBig12= 4.11D-12 2.10D-07.
      3 vectors produced by pass  7 Test12= 1.76D-14 1.19D-09 XBig12= 3.06D-15 6.21D-09.
 InvSVY:  IOpt=1 It=  1 EMax= 8.88D-15
 Solved reduced A of dimension   490 with    84 vectors.
 Isotropic polarizability for W=    0.000000      123.91 Bohr**3.
 End of Minotr F.D. properties file   721 does not exist.
 End of Minotr F.D. properties file   722 does not exist.
 End of Minotr F.D. properties file   788 does not exist.

 **********************************************************************

            Population analysis using the SCF density.

 **********************************************************************

 Orbital symmetries:
       Occupied  (A) (A) (A) (A) (A) (A) (A) (A) (A) (A) (A) (A)
                 (A) (A) (A) (A) (A) (A) (A) (A) (A) (A) (A) (A)
                 (A) (A) (A) (A) (A) (A) (A) (A) (A) (A) (A) (A)
                 (A) (A) (A) (A) (A) (A) (A) (A) (A) (A) (A) (A)
                 (A) (A) (A) (A) (A) (A) (A) (A) (A) (A) (A) (A)
                 (A) (A) (A) (A) (A) (A) (A)
       Virtual   (A) (A) (A) (A) (A) (A) (A) (A) (A) (A) (A) (A)
                 (A) (A) (A) (A) (A) (A) (A) (A) (A) (A) (A) (A)
                 (A) (A) (A) (A) (A) (A) (A) (A) (A) (A) (A) (A)
                 (A) (A) (A) (A) (A) (A) (A) (A) (A) (A) (A) (A)
                 (A) (A) (A) (A) (A) (A) (A) (A) (A) (A) (A) (A)
                 (A) (A) (A) (A) (A) (A) (A) (A) (A) (A) (A) (A)
                 (A) (A) (A) (A) (A) (A) (A) (A) (A) (A) (A) (A)
                 (A) (A) (A) (A) (A) (A) (A) (A) (A) (A) (A) (A)
                 (A) (A) (A) (A) (A) (A) (A) (A) (A) (A) (A) (A)
                 (A) (A) (A) (A) (A) (A) (A) (A) (A) (A) (A) (A)
                 (A) (A) (A) (A) (A) (A) (A) (A) (A) (A) (A) (A)
                 (A) (A) (A) (A) (A) (A) (A) (A) (A) (A) (A) (A)
                 (A) (A) (A) (A) (A) (A) (A) (A) (A) (A) (A) (A)
                 (A) (A) (A) (A) (A) (A) (A) (A) (A) (A) (A) (A)
                 (A) (A) (A) (A) (A) (A) (A) (A) (A) (A) (A) (A)
                 (A) (A) (A) (A) (A) (A) (A) (A) (A) (A) (A) (A)
                 (A) (A) (A) (A) (A) (A) (A) (A) (A) (A) (A) (A)
                 (A) (A) (A) (A) (A) (A) (A) (A) (A) (A) (A) (A)
                 (A) (A) (A) (A) (A)
 The electronic state is 1-A.
 Alpha  occ. eigenvalues --  -24.74256 -24.74209 -24.73980 -24.73890 -24.73827
 Alpha  occ. eigenvalues --  -19.14207 -10.31279 -10.30892 -10.30838 -10.30833
 Alpha  occ. eigenvalues --  -10.30776 -10.27868 -10.23934 -10.22822 -10.20494
 Alpha  occ. eigenvalues --  -10.20413 -10.20275 -10.19947  -1.26530  -1.25866
 Alpha  occ. eigenvalues --   -1.25305  -1.24480  -1.24145  -1.04117  -0.90988
 Alpha  occ. eigenvalues --   -0.85359  -0.80352  -0.78402  -0.75860  -0.73759
 Alpha  occ. eigenvalues --   -0.67960  -0.66671  -0.63340  -0.61191  -0.59753
 Alpha  occ. eigenvalues --   -0.59119  -0.57205  -0.54802  -0.54479  -0.53972
 Alpha  occ. eigenvalues --   -0.52594  -0.51962  -0.49812  -0.48831  -0.48520
 Alpha  occ. eigenvalues --   -0.47048  -0.46646  -0.46486  -0.46311  -0.44834
 Alpha  occ. eigenvalues --   -0.44570  -0.43878  -0.43324  -0.42595  -0.41806
 Alpha  occ. eigenvalues --   -0.40876  -0.39684  -0.38768  -0.37152  -0.36750
 Alpha  occ. eigenvalues --   -0.35941  -0.34494  -0.34103  -0.33605  -0.26832
 Alpha  occ. eigenvalues --   -0.26135  -0.24438
 Alpha virt. eigenvalues --   -0.03513  -0.02172  -0.01875   0.00798   0.08295
 Alpha virt. eigenvalues --    0.09356   0.10483   0.11996   0.13281   0.13502
 Alpha virt. eigenvalues --    0.14501   0.15101   0.15680   0.15973   0.16611
 Alpha virt. eigenvalues --    0.17186   0.19805   0.20474   0.21239   0.22171
 Alpha virt. eigenvalues --    0.23859   0.24794   0.25847   0.27057   0.31095
 Alpha virt. eigenvalues --    0.32343   0.33768   0.35396   0.38170   0.38490
 Alpha virt. eigenvalues --    0.44772   0.46211   0.47347   0.48441   0.50471
 Alpha virt. eigenvalues --    0.51206   0.51617   0.51879   0.53098   0.54506
 Alpha virt. eigenvalues --    0.54839   0.55935   0.56948   0.57105   0.58206
 Alpha virt. eigenvalues --    0.59881   0.60378   0.61701   0.63251   0.64677
 Alpha virt. eigenvalues --    0.65491   0.65972   0.67971   0.68942   0.70890
 Alpha virt. eigenvalues --    0.73258   0.73596   0.75595   0.78621   0.79248
 Alpha virt. eigenvalues --    0.80526   0.82137   0.84023   0.84614   0.85108
 Alpha virt. eigenvalues --    0.85955   0.87000   0.87201   0.87753   0.89227
 Alpha virt. eigenvalues --    0.90469   0.91904   0.92285   0.92609   0.93757
 Alpha virt. eigenvalues --    0.95463   0.97386   1.02310   1.04357   1.06521
 Alpha virt. eigenvalues --    1.07989   1.09643   1.10656   1.12943   1.14139
 Alpha virt. eigenvalues --    1.17032   1.18436   1.19397   1.19591   1.20004
 Alpha virt. eigenvalues --    1.21656   1.22507   1.23274   1.24084   1.27167
 Alpha virt. eigenvalues --    1.29723   1.33768   1.35126   1.36208   1.37873
 Alpha virt. eigenvalues --    1.38395   1.38837   1.39362   1.40660   1.42884
 Alpha virt. eigenvalues --    1.43052   1.44518   1.45438   1.48672   1.49543
 Alpha virt. eigenvalues --    1.50124   1.52737   1.55624   1.61125   1.62428
 Alpha virt. eigenvalues --    1.64968   1.67281   1.68718   1.70059   1.71224
 Alpha virt. eigenvalues --    1.72385   1.73746   1.75755   1.76081   1.76235
 Alpha virt. eigenvalues --    1.76680   1.76779   1.77319   1.78675   1.79056
 Alpha virt. eigenvalues --    1.79934   1.81214   1.82078   1.83510   1.85107
 Alpha virt. eigenvalues --    1.85531   1.85989   1.86949   1.88434   1.89478
 Alpha virt. eigenvalues --    1.91687   1.92957   1.93512   1.96650   1.98485
 Alpha virt. eigenvalues --    1.99537   1.99817   2.00173   2.01473   2.03036
 Alpha virt. eigenvalues --    2.03754   2.05913   2.08033   2.11101   2.13650
 Alpha virt. eigenvalues --    2.14135   2.15966   2.17525   2.18099   2.23508
 Alpha virt. eigenvalues --    2.25015   2.25769   2.27190   2.28711   2.29479
 Alpha virt. eigenvalues --    2.31549   2.33630   2.33768   2.34010   2.34802
 Alpha virt. eigenvalues --    2.37182   2.37777   2.38727   2.40065   2.43596
 Alpha virt. eigenvalues --    2.47797   2.49099   2.50707   2.53739   2.54653
 Alpha virt. eigenvalues --    2.56691   2.60049   2.61286   2.63526   2.64416
 Alpha virt. eigenvalues --    2.67981   2.69762   2.71809   2.76779   2.77557
 Alpha virt. eigenvalues --    2.78967   2.89575   2.94647   2.96805   2.97772
 Alpha virt. eigenvalues --    3.01017   3.03895   3.07674   3.08673   3.12035
 Alpha virt. eigenvalues --    3.14298   3.36617   3.47368   3.98585   3.99447
 Alpha virt. eigenvalues --    4.01396   4.09420   4.13278   4.24841   4.25450
 Alpha virt. eigenvalues --    4.31592   4.34408   4.42393   4.51890   4.57192
 Alpha virt. eigenvalues --    4.62252   4.72923   5.04051   5.61762   6.07425
 Alpha virt. eigenvalues --    6.83117
          Condensed to atoms (all electrons):
               1          2          3          4          5          6
     1  O    7.987761   0.594101  -0.077913   0.000920  -0.000090   0.000000
     2  C    0.594101   4.473302   0.305483  -0.017904   0.001742   0.000125
     3  C   -0.077913   0.305483   5.391702   0.309237  -0.029350  -0.003716
     4  C    0.000920  -0.017904   0.309237   5.110661   0.308024  -0.051751
     5  C   -0.000090   0.001742  -0.029350   0.308024   5.255803   0.373202
     6  C    0.000000   0.000125  -0.003716  -0.051751   0.373202   4.886279
     7  F   -0.000000   0.000062  -0.004229   0.001028  -0.056100   0.293885
     8  C    0.000000   0.000002  -0.000027   0.006446  -0.068300   0.335275
     9  F    0.000000  -0.000000  -0.000000  -0.000011   0.002984  -0.041038
    10  C    0.000000  -0.000000   0.000011  -0.000460   0.001849  -0.057444
    11  F   -0.000000   0.000000   0.000000  -0.000000   0.000003   0.002634
    12  C   -0.000000   0.000001  -0.000158   0.007091  -0.061372  -0.018511
    13  F    0.000000  -0.000000   0.000000  -0.000017   0.002975  -0.000024
    14  C   -0.000000  -0.000024  -0.000270  -0.038760   0.407393   0.003798
    15  F    0.000000   0.000002   0.000075  -0.004610  -0.051468   0.002426
    16  C    0.000069  -0.013659  -0.042220   0.356947  -0.032375  -0.004143
    17  C    0.001483  -0.025132  -0.003306  -0.039626   0.004233   0.000179
    18  C   -0.078567   0.328076  -0.140032  -0.002954  -0.000228  -0.000007
    19  H    0.000932  -0.023118   0.341605  -0.030448  -0.011752   0.001433
    20  H    0.004714  -0.021159   0.342505  -0.028385  -0.001303  -0.000004
    21  H    0.000480  -0.000967  -0.045461   0.377657  -0.051108   0.004017
    22  H   -0.000007  -0.000968  -0.004850  -0.037344  -0.008762   0.002032
    23  H    0.000001   0.000257   0.004818  -0.034212  -0.001020  -0.000043
    24  H   -0.000066   0.003060  -0.000262   0.004439  -0.000144  -0.000004
    25  H    0.000399  -0.002668   0.000333  -0.005919   0.000014  -0.000008
    26  H    0.004643  -0.023396   0.006609  -0.000004   0.000011   0.000000
    27  H    0.001204  -0.028490   0.004092  -0.001931   0.000015  -0.000020
               7          8          9         10         11         12
     1  O   -0.000000   0.000000   0.000000   0.000000  -0.000000  -0.000000
     2  C    0.000062   0.000002  -0.000000  -0.000000   0.000000   0.000001
     3  C   -0.004229  -0.000027  -0.000000   0.000011   0.000000  -0.000158
     4  C    0.001028   0.006446  -0.000011  -0.000460  -0.000000   0.007091
     5  C   -0.056100  -0.068300   0.002984   0.001849   0.000003  -0.061372
     6  C    0.293885   0.335275  -0.041038  -0.057444   0.002634  -0.018511
     7  F    9.061656  -0.037979  -0.000589   0.002826  -0.000000  -0.000107
     8  C   -0.037979   4.985096   0.307678   0.310818  -0.038983  -0.048987
     9  F   -0.000589   0.307678   9.034585  -0.040040  -0.000631   0.002512
    10  C    0.002826   0.310818  -0.040040   5.009104   0.304790   0.300699
    11  F   -0.000000  -0.038983  -0.000631   0.304790   9.030416  -0.038225
    12  C   -0.000107  -0.048987   0.002512   0.300699  -0.038225   5.010487
    13  F   -0.000000   0.002505  -0.000000  -0.041235  -0.000612   0.306894
    14  C    0.002291  -0.017812  -0.000022  -0.054381   0.002569   0.315183
    15  F   -0.000000  -0.000097  -0.000000   0.003148  -0.000000  -0.038961
    16  C   -0.003795  -0.000031  -0.000000   0.000015   0.000000  -0.000163
    17  C    0.000073   0.000001  -0.000000  -0.000000   0.000000   0.000002
    18  C    0.000007  -0.000000  -0.000000  -0.000000   0.000000  -0.000000
    19  H    0.010898   0.000007   0.000001  -0.000016   0.000000   0.000021
    20  H    0.000056  -0.000018   0.000000  -0.000008   0.000000  -0.000035
    21  H    0.000032  -0.000107   0.000000  -0.000043   0.000000   0.001024
    22  H    0.008988   0.000020   0.000000  -0.000015   0.000000   0.000020
    23  H    0.000026  -0.000016   0.000000  -0.000012   0.000000  -0.000037
    24  H    0.000000  -0.000000   0.000000   0.000000  -0.000000  -0.000000
    25  H   -0.000001  -0.000000  -0.000000   0.000000  -0.000000  -0.000000
    26  H   -0.000000   0.000000  -0.000000   0.000000  -0.000000   0.000000
    27  H   -0.000010  -0.000000  -0.000000   0.000000  -0.000000  -0.000000
              13         14         15         16         17         18
     1  O    0.000000  -0.000000   0.000000   0.000069   0.001483  -0.078567
     2  C   -0.000000  -0.000024   0.000002  -0.013659  -0.025132   0.328076
     3  C    0.000000  -0.000270   0.000075  -0.042220  -0.003306  -0.140032
     4  C   -0.000017  -0.038760  -0.004610   0.356947  -0.039626  -0.002954
     5  C    0.002975   0.407393  -0.051468  -0.032375   0.004233  -0.000228
     6  C   -0.000024   0.003798   0.002426  -0.004143   0.000179  -0.000007
     7  F   -0.000000   0.002291  -0.000000  -0.003795   0.000073   0.000007
     8  C    0.002505  -0.017812  -0.000097  -0.000031   0.000001  -0.000000
     9  F   -0.000000  -0.000022  -0.000000  -0.000000  -0.000000  -0.000000
    10  C   -0.041235  -0.054381   0.003148   0.000015  -0.000000  -0.000000
    11  F   -0.000612   0.002569  -0.000000   0.000000   0.000000   0.000000
    12  C    0.306894   0.315183  -0.038961  -0.000163   0.000002  -0.000000
    13  F    9.034954  -0.039798  -0.000715   0.000000  -0.000000   0.000000
    14  C   -0.039798   4.861622   0.301185  -0.000510  -0.000003  -0.000009
    15  F   -0.000715   0.301185   9.051718  -0.000004   0.000004  -0.000000
    16  C    0.000000  -0.000510  -0.000004   5.069234   0.360317  -0.044261
    17  C   -0.000000  -0.000003   0.000004   0.360317   5.030318   0.334696
    18  C    0.000000  -0.000009  -0.000000  -0.044261   0.334696   5.313016
    19  H   -0.000000  -0.000056  -0.000006  -0.004621  -0.000796   0.003189
    20  H    0.000000   0.000536   0.000052   0.004309  -0.000209   0.006411
    21  H    0.000000  -0.004922   0.012345  -0.042616  -0.003330   0.000081
    22  H   -0.000000  -0.000063  -0.000007   0.368367  -0.036573  -0.003479
    23  H    0.000000   0.000703   0.000087   0.366024  -0.029015   0.004396
    24  H    0.000000  -0.000000   0.000000  -0.029750   0.369832  -0.027865
    25  H   -0.000000   0.000005  -0.000007  -0.038541   0.376463  -0.042765
    26  H   -0.000000   0.000000  -0.000000   0.004056  -0.025776   0.345634
    27  H   -0.000000   0.000001  -0.000000  -0.002396  -0.036229   0.348732
              19         20         21         22         23         24
     1  O    0.000932   0.004714   0.000480  -0.000007   0.000001  -0.000066
     2  C   -0.023118  -0.021159  -0.000967  -0.000968   0.000257   0.003060
     3  C    0.341605   0.342505  -0.045461  -0.004850   0.004818  -0.000262
     4  C   -0.030448  -0.028385   0.377657  -0.037344  -0.034212   0.004439
     5  C   -0.011752  -0.001303  -0.051108  -0.008762  -0.001020  -0.000144
     6  C    0.001433  -0.000004   0.004017   0.002032  -0.000043  -0.000004
     7  F    0.010898   0.000056   0.000032   0.008988   0.000026   0.000000
     8  C    0.000007  -0.000018  -0.000107   0.000020  -0.000016  -0.000000
     9  F    0.000001   0.000000   0.000000   0.000000   0.000000   0.000000
    10  C   -0.000016  -0.000008  -0.000043  -0.000015  -0.000012   0.000000
    11  F    0.000000   0.000000   0.000000   0.000000   0.000000  -0.000000
    12  C    0.000021  -0.000035   0.001024   0.000020  -0.000037  -0.000000
    13  F   -0.000000   0.000000   0.000000  -0.000000   0.000000   0.000000
    14  C   -0.000056   0.000536  -0.004922  -0.000063   0.000703  -0.000000
    15  F   -0.000006   0.000052   0.012345  -0.000007   0.000087   0.000000
    16  C   -0.004621   0.004309  -0.042616   0.368367   0.366024  -0.029750
    17  C   -0.000796  -0.000209  -0.003330  -0.036573  -0.029015   0.369832
    18  C    0.003189   0.006411   0.000081  -0.003479   0.004396  -0.027865
    19  H    0.555350  -0.025201   0.005222   0.003764  -0.000022  -0.000014
    20  H   -0.025201   0.551038  -0.003355  -0.000023  -0.000142   0.000016
    21  H    0.005222  -0.003355   0.580341   0.005398  -0.003971  -0.000019
    22  H    0.003764  -0.000023   0.005398   0.579738  -0.033990  -0.003868
    23  H   -0.000022  -0.000142  -0.003971  -0.033990   0.584449  -0.002476
    24  H   -0.000014   0.000016  -0.000019  -0.003868  -0.002476   0.580880
    25  H    0.000085  -0.000042   0.004991   0.005334  -0.003898  -0.035647
    26  H   -0.000113  -0.000174  -0.000045  -0.000013  -0.000138  -0.002334
    27  H    0.001070  -0.000119   0.000104   0.004399  -0.000025  -0.006236
              25         26         27
     1  O    0.000399   0.004643   0.001204
     2  C   -0.002668  -0.023396  -0.028490
     3  C    0.000333   0.006609   0.004092
     4  C   -0.005919  -0.000004  -0.001931
     5  C    0.000014   0.000011   0.000015
     6  C   -0.000008   0.000000  -0.000020
     7  F   -0.000001  -0.000000  -0.000010
     8  C   -0.000000   0.000000  -0.000000
     9  F   -0.000000  -0.000000  -0.000000
    10  C    0.000000   0.000000   0.000000
    11  F   -0.000000  -0.000000  -0.000000
    12  C   -0.000000   0.000000  -0.000000
    13  F   -0.000000  -0.000000  -0.000000
    14  C    0.000005   0.000000   0.000001
    15  F   -0.000007  -0.000000  -0.000000
    16  C   -0.038541   0.004056  -0.002396
    17  C    0.376463  -0.025776  -0.036229
    18  C   -0.042765   0.345634   0.348732
    19  H    0.000085  -0.000113   0.001070
    20  H   -0.000042  -0.000174  -0.000119
    21  H    0.004991  -0.000045   0.000104
    22  H    0.005334  -0.000013   0.004399
    23  H   -0.003898  -0.000138  -0.000025
    24  H   -0.035647  -0.002334  -0.006236
    25  H    0.590031  -0.003220   0.005620
    26  H   -0.003220   0.552172  -0.025835
    27  H    0.005620  -0.025835   0.576840
 Mulliken charges:
               1
     1  O   -0.440065
     2  C    0.451274
     3  C   -0.354675
     4  C   -0.188112
     5  C    0.015125
     6  C    0.271426
     7  F   -0.279018
     8  C    0.264512
     9  F   -0.265427
    10  C    0.260394
    11  F   -0.261960
    12  C    0.262623
    13  F   -0.264926
    14  C    0.261346
    15  F   -0.275166
    16  C   -0.270253
    17  C   -0.277608
    18  C   -0.344069
    19  H    0.172586
    20  H    0.170541
    21  H    0.164253
    22  H    0.151904
    23  H    0.148256
    24  H    0.150461
    25  H    0.149440
    26  H    0.167922
    27  H    0.159217
 Sum of Mulliken charges =  -0.00000
 Mulliken charges with hydrogens summed into heavy atoms:
               1
     1  O   -0.440065
     2  C    0.451274
     3  C   -0.011548
     4  C   -0.023859
     5  C    0.015125
     6  C    0.271426
     7  F   -0.279018
     8  C    0.264512
     9  F   -0.265427
    10  C    0.260394
    11  F   -0.261960
    12  C    0.262623
    13  F   -0.264926
    14  C    0.261346
    15  F   -0.275166
    16  C    0.029906
    17  C    0.022293
    18  C   -0.016931
 APT charges:
               1
     1  O   -0.675554
     2  C    0.799055
     3  C   -0.127965
     4  C    0.183976
     5  C   -0.079107
     6  C    0.434311
     7  F   -0.459932
     8  C    0.433281
     9  F   -0.469034
    10  C    0.529244
    11  F   -0.506868
    12  C    0.447256
    13  F   -0.480591
    14  C    0.441975
    15  F   -0.446149
    16  C    0.057811
    17  C    0.151301
    18  C   -0.064365
    19  H    0.030040
    20  H   -0.013046
    21  H   -0.016342
    22  H   -0.010997
    23  H   -0.034854
    24  H   -0.056997
    25  H   -0.038748
    26  H   -0.022651
    27  H   -0.005055
 Sum of APT charges =   0.00000
 APT charges with hydrogens summed into heavy atoms:
               1
     1  O   -0.675554
     2  C    0.799055
     3  C   -0.110971
     4  C    0.167634
     5  C   -0.079107
     6  C    0.434311
     7  F   -0.459932
     8  C    0.433281
     9  F   -0.469034
    10  C    0.529244
    11  F   -0.506868
    12  C    0.447256
    13  F   -0.480591
    14  C    0.441975
    15  F   -0.446149
    16  C    0.011960
    17  C    0.055556
    18  C   -0.092070
 Electronic spatial extent (au):  <R**2>=           5010.3078
 Charge=             -0.0000 electrons
 Dipole moment (field-independent basis, Debye):
    X=             -0.1486    Y=             -0.8917    Z=              2.4375  Tot=              2.5998
 Quadrupole moment (field-independent basis, Debye-Ang):
   XX=           -111.9534   YY=           -103.5699   ZZ=           -100.2033
   XY=              4.2323   XZ=            -11.0300   YZ=              1.7683
 Traceless Quadrupole moment (field-independent basis, Debye-Ang):
   XX=             -6.7112   YY=              1.6723   ZZ=              5.0389
   XY=              4.2323   XZ=            -11.0300   YZ=              1.7683
 Octapole moment (field-independent basis, Debye-Ang**2):
  XXX=             78.8405  YYY=             -1.6079  ZZZ=              3.6053  XYY=              6.1842
  XXY=            -20.4240  XXZ=             50.3273  XZZ=             41.0013  YZZ=             -3.9927
  YYZ=             -1.8759  XYZ=             -8.8053
 Hexadecapole moment (field-independent basis, Debye-Ang**3):
 XXXX=          -4670.0287 YYYY=           -993.3299 ZZZZ=           -520.4392 XXXY=             79.8555
 XXXZ=           -205.9095 YYYX=             -1.8928 YYYZ=              1.2175 ZZZX=            -33.5480
 ZZZY=              8.7097 XXYY=           -900.9964 XXZZ=           -883.5277 YYZZ=           -240.8313
 XXYZ=             34.3054 YYXZ=              2.7583 ZZXY=             16.8469
 N-N= 1.372560030721D+03 E-N=-5.182594456278D+03  KE= 1.028806747037D+03
  Exact polarizability: 166.428  -1.000 116.791  -1.864  -1.625  88.505
 Approx polarizability: 228.312  -3.757 213.886   1.546  -4.005 132.222
 Calling FoFJK, ICntrl=    100127 FMM=F ISym2X=0 I1Cent= 0 IOpClX= 0 NMat=1 NMatS=1 NMatT=0.
 Full mass-weighted force constant matrix:
 Low frequencies ---   -4.5388   -2.6809   -0.0006   -0.0002   -0.0001    2.6155
 Low frequencies ---   40.4811   53.7395   67.2281
 Diagonal vibrational polarizability:
       21.1998094      41.4145203      11.2072587
 Harmonic frequencies (cm**-1), IR intensities (KM/Mole), Raman scattering
 activities (A**4/AMU), depolarization ratios for plane and unpolarized
 incident light, reduced masses (AMU), force constants (mDyne/A),
 and normal coordinates:
                      1                      2                      3
                      A                      A                      A
 Frequencies --     40.4779                53.7385                67.2273
 Red. masses --      7.3107                10.3374                 4.2998
 Frc consts  --      0.0071                 0.0176                 0.0114
 IR Inten    --      1.5246                 1.0899                 0.5863
  Atom  AN      X      Y      Z        X      Y      Z        X      Y      Z
     1   8     0.13   0.35   0.02    -0.15   0.27   0.23     0.08   0.07  -0.04
     2   6     0.06   0.14  -0.04    -0.09   0.08   0.09    -0.00   0.04   0.00
     3   6     0.05   0.07   0.01    -0.12  -0.02  -0.08    -0.03  -0.19   0.03
     4   6    -0.01  -0.06   0.10    -0.00  -0.05  -0.13    -0.00  -0.11  -0.02
     5   6    -0.00  -0.04   0.10    -0.01  -0.03  -0.20    -0.00  -0.09  -0.01
     6   6     0.02  -0.03   0.12     0.02  -0.02  -0.13     0.04  -0.07  -0.01
     7   9     0.04  -0.04   0.18     0.03  -0.03  -0.19     0.08  -0.10  -0.01
     8   6     0.02  -0.01   0.07     0.03  -0.01   0.04     0.05  -0.01  -0.03
     9   9     0.04   0.00   0.11     0.06  -0.00   0.15     0.11   0.01  -0.05
    10   6    -0.01   0.01  -0.04     0.02   0.00   0.12     0.01   0.02  -0.01
    11   9    -0.01   0.04  -0.11     0.04   0.02   0.32     0.02   0.08  -0.02
    12   6    -0.03   0.01  -0.08    -0.01  -0.00  -0.01    -0.04  -0.00   0.01
    13   9    -0.06   0.02  -0.19    -0.02   0.01   0.05    -0.08   0.03   0.04
    14   6    -0.03  -0.02  -0.00    -0.02  -0.02  -0.17    -0.04  -0.06   0.01
    15   9    -0.05  -0.03  -0.05    -0.05  -0.02  -0.27    -0.09  -0.08   0.03
    16   6    -0.07  -0.20   0.01     0.11  -0.08  -0.09    -0.03  -0.00   0.01
    17   6    -0.07  -0.20  -0.03     0.12  -0.10   0.06     0.01   0.18   0.02
    18   6    -0.02  -0.04  -0.14     0.01  -0.03   0.10    -0.08   0.25   0.04
    19   1     0.02   0.07  -0.06    -0.17  -0.03  -0.10    -0.15  -0.23   0.18
    20   1     0.12   0.13   0.07    -0.18  -0.02  -0.10     0.04  -0.35  -0.03
    21   1    -0.01  -0.06   0.21    -0.01  -0.05  -0.10    -0.00  -0.10  -0.10
    22   1    -0.08  -0.20  -0.10     0.12  -0.08  -0.14    -0.13  -0.02   0.04
    23   1    -0.11  -0.30   0.08     0.19  -0.11  -0.13     0.03  -0.02  -0.01
    24   1    -0.12  -0.32  -0.10     0.21  -0.15   0.08    -0.04   0.26   0.03
    25   1    -0.07  -0.21   0.11     0.12  -0.10   0.14     0.15   0.20  -0.01
    26   1    -0.02  -0.02  -0.15     0.02  -0.03   0.22    -0.03   0.44   0.02
    27   1    -0.04  -0.04  -0.28     0.02  -0.03   0.03    -0.28   0.24   0.11
                      4                      5                      6
                      A                      A                      A
 Frequencies --    103.7636               135.0880               150.9439
 Red. masses --      3.3907                15.4947                11.7515
 Frc consts  --      0.0215                 0.1666                 0.1578
 IR Inten    --      1.7569                 0.1766                 0.8187
  Atom  AN      X      Y      Z        X      Y      Z        X      Y      Z
     1   8     0.07   0.18   0.12    -0.08   0.03   0.04    -0.22   0.00   0.03
     2   6     0.03  -0.08   0.00    -0.04  -0.02  -0.01    -0.12   0.04  -0.03
     3   6     0.01  -0.18  -0.01    -0.04  -0.03  -0.07    -0.10   0.11  -0.15
     4   6    -0.01   0.01  -0.07    -0.00   0.00  -0.11    -0.00   0.01  -0.16
     5   6    -0.01   0.01  -0.02    -0.00  -0.02  -0.07     0.01  -0.02  -0.14
     6   6    -0.01   0.00   0.00     0.00  -0.01  -0.12     0.03  -0.02   0.03
     7   9    -0.01   0.00   0.04    -0.00  -0.01  -0.33     0.06  -0.04   0.24
     8   6    -0.01   0.00  -0.02     0.02  -0.01   0.11     0.04  -0.01   0.03
     9   9    -0.02  -0.00  -0.04     0.06  -0.02   0.48     0.07  -0.01   0.23
    10   6    -0.01  -0.00  -0.02     0.01   0.00  -0.05     0.02   0.00  -0.12
    11   9    -0.01  -0.00  -0.04     0.00   0.01  -0.12     0.00   0.03  -0.40
    12   6    -0.01  -0.00   0.02    -0.00  -0.00  -0.10     0.02  -0.01   0.07
    13   9    -0.00  -0.00   0.06    -0.03   0.01  -0.32     0.03  -0.01   0.41
    14   6    -0.01   0.00   0.01     0.01  -0.02   0.12     0.01  -0.02  -0.05
    15   9    -0.00   0.00   0.02     0.03  -0.04   0.52     0.01  -0.02  -0.02
    16   6    -0.01   0.19   0.01     0.02   0.08  -0.07     0.05  -0.03  -0.15
    17   6    -0.05   0.04  -0.07     0.02   0.06  -0.05     0.07   0.01  -0.04
    18   6     0.05  -0.19  -0.03     0.01  -0.04   0.01    -0.01   0.01   0.01
    19   1    -0.01  -0.20   0.16    -0.05  -0.03  -0.06    -0.08   0.12  -0.27
    20   1     0.04  -0.31  -0.07    -0.08  -0.05  -0.10    -0.19   0.20  -0.14
    21   1    -0.03   0.01  -0.24     0.01   0.01  -0.16     0.03   0.01  -0.09
    22   1     0.10   0.21   0.21     0.04   0.08  -0.01     0.01  -0.04  -0.21
    23   1    -0.07   0.39  -0.05     0.04   0.14  -0.11     0.12  -0.09  -0.17
    24   1    -0.03   0.11  -0.03     0.05   0.13  -0.01     0.13   0.02  -0.01
    25   1    -0.17   0.03  -0.22     0.00   0.07  -0.13     0.10   0.01  -0.04
    26   1     0.00  -0.36  -0.06    -0.00  -0.11   0.03    -0.01  -0.01   0.09
    27   1     0.26  -0.18   0.04     0.09  -0.04   0.05     0.02   0.01  -0.00
                      7                      8                      9
                      A                      A                      A
 Frequencies --    173.6539               193.2962               212.4294
 Red. masses --      4.4255                 8.4930                 6.2474
 Frc consts  --      0.0786                 0.1870                 0.1661
 IR Inten    --      0.6981                 1.5164                 2.3833
  Atom  AN      X      Y      Z        X      Y      Z        X      Y      Z
     1   8    -0.16   0.00   0.04    -0.10   0.02   0.01     0.10  -0.02  -0.01
     2   6    -0.07   0.04  -0.01    -0.08  -0.02  -0.03     0.17   0.03  -0.03
     3   6    -0.03   0.22  -0.05    -0.09  -0.14  -0.10     0.14   0.11  -0.08
     4   6     0.01   0.04   0.02    -0.02  -0.04  -0.17     0.08   0.02  -0.03
     5   6     0.01  -0.08   0.03    -0.00   0.05  -0.14    -0.01  -0.04  -0.06
     6   6     0.04  -0.08   0.04     0.01   0.05  -0.01    -0.07  -0.05  -0.03
     7   9     0.08  -0.10   0.07     0.01   0.05   0.35    -0.11  -0.03   0.09
     8   6     0.06  -0.03  -0.01    -0.01   0.03  -0.10    -0.08  -0.03  -0.04
     9   9     0.12   0.00  -0.11    -0.05   0.01  -0.14    -0.05  -0.03   0.00
    10   6     0.04  -0.01   0.03     0.01   0.01  -0.04    -0.10  -0.00  -0.03
    11   9     0.05   0.02   0.09     0.03  -0.02   0.21    -0.10   0.00   0.05
    12   6     0.00  -0.03  -0.00     0.02   0.02  -0.10    -0.09   0.01  -0.04
    13   9    -0.05   0.01  -0.08     0.06  -0.01  -0.12    -0.13   0.04   0.02
    14   6     0.00  -0.08   0.02     0.02   0.05  -0.04    -0.08  -0.02  -0.03
    15   9    -0.02  -0.09   0.03     0.08   0.05   0.27    -0.20  -0.07   0.07
    16   6    -0.07   0.11   0.00     0.06  -0.10  -0.16     0.19   0.02  -0.01
    17   6    -0.07   0.14  -0.08     0.07  -0.09  -0.01     0.23   0.05   0.03
    18   6     0.01  -0.09  -0.02    -0.06   0.06   0.01     0.26   0.02   0.02
    19   1     0.04   0.25  -0.26    -0.14  -0.16   0.01     0.19   0.13  -0.22
    20   1    -0.10   0.41   0.03    -0.11  -0.25  -0.18     0.13   0.24  -0.02
    21   1     0.13   0.06   0.06    -0.10  -0.05  -0.18     0.08   0.01   0.01
    22   1    -0.11   0.10   0.07     0.05  -0.09  -0.23     0.17   0.02  -0.00
    23   1    -0.09   0.13   0.00     0.12  -0.15  -0.17     0.27   0.03  -0.06
    24   1    -0.10   0.29  -0.02     0.15  -0.17  -0.02     0.20   0.08   0.03
    25   1    -0.08   0.15  -0.27     0.10  -0.09   0.11     0.25   0.06   0.00
    26   1    -0.05  -0.30  -0.03    -0.02   0.21   0.08     0.24  -0.07   0.04
    27   1     0.26  -0.08   0.03    -0.22   0.05  -0.02     0.35   0.02   0.03
                     10                     11                     12
                      A                      A                      A
 Frequencies --    246.6605               262.4865               268.4569
 Red. masses --      7.5163                 4.8500                 3.6244
 Frc consts  --      0.2694                 0.1969                 0.1539
 IR Inten    --      1.1361                 0.4543                 0.3405
  Atom  AN      X      Y      Z        X      Y      Z        X      Y      Z
     1   8    -0.08   0.02   0.07     0.02   0.01   0.05    -0.02  -0.01  -0.06
     2   6    -0.01  -0.04  -0.02     0.02  -0.05   0.02    -0.01   0.07  -0.02
     3   6     0.00  -0.07  -0.14     0.03   0.01   0.01    -0.02   0.02  -0.01
     4   6     0.01  -0.06  -0.13     0.01  -0.07   0.06    -0.00   0.07  -0.05
     5   6     0.02   0.01   0.09     0.01   0.01   0.01    -0.01  -0.02  -0.01
     6   6     0.01   0.01   0.20     0.02   0.02  -0.04     0.01  -0.01   0.02
     7   9    -0.04   0.05  -0.05    -0.00   0.04   0.00     0.08  -0.06  -0.00
     8   6     0.00  -0.01   0.27     0.01  -0.03  -0.07     0.02  -0.04   0.04
     9   9    -0.06  -0.01  -0.15    -0.12  -0.10   0.04    -0.12  -0.09  -0.02
    10   6     0.00  -0.00   0.29    -0.02  -0.01  -0.07     0.01  -0.02   0.05
    11   9    -0.02   0.03  -0.14     0.03   0.28   0.04     0.04   0.21  -0.02
    12   6     0.01   0.00   0.27    -0.03  -0.02  -0.06    -0.02  -0.04   0.04
    13   9     0.02  -0.01  -0.16     0.15  -0.15   0.02     0.02  -0.08  -0.03
    14   6     0.01   0.02   0.20    -0.02   0.04  -0.04    -0.01  -0.02   0.02
    15   9    -0.03   0.03  -0.06    -0.05   0.02   0.01    -0.03  -0.03   0.00
    16   6     0.06  -0.11  -0.15    -0.06  -0.14   0.00     0.06   0.17   0.02
    17   6     0.12   0.07  -0.05    -0.01   0.15  -0.07    -0.00  -0.14   0.08
    18   6     0.06   0.01   0.03     0.01  -0.05   0.01     0.00   0.05  -0.02
    19   1     0.00  -0.07  -0.17     0.08   0.02  -0.09    -0.07   0.01   0.07
    20   1    -0.05  -0.05  -0.15     0.00   0.11   0.06     0.01  -0.05  -0.04
    21   1    -0.05  -0.07  -0.12    -0.02  -0.08   0.14     0.05   0.08  -0.13
    22   1    -0.07  -0.13  -0.26    -0.27  -0.18  -0.11     0.29   0.21   0.17
    23   1     0.18  -0.24  -0.16    -0.01  -0.33   0.06    -0.01   0.39  -0.04
    24   1     0.12   0.21   0.01    -0.12   0.45   0.02     0.11  -0.45  -0.02
    25   1     0.25   0.10  -0.16     0.18   0.19  -0.36    -0.20  -0.19   0.37
    26   1     0.06   0.02   0.05    -0.01  -0.13  -0.04     0.02   0.10   0.03
    27   1     0.05   0.01   0.11     0.11  -0.05   0.14    -0.07   0.05  -0.15
                     13                     14                     15
                      A                      A                      A
 Frequencies --    274.3872               308.6913               351.0582
 Red. masses --     13.4580                17.6506                14.2048
 Frc consts  --      0.5970                 0.9910                 1.0314
 IR Inten    --      0.0612                 1.2526                 1.5653
  Atom  AN      X      Y      Z        X      Y      Z        X      Y      Z
     1   8    -0.02  -0.01  -0.04    -0.01   0.00   0.01     0.07  -0.00   0.01
     2   6    -0.02   0.04  -0.01    -0.00  -0.00   0.01     0.07  -0.03  -0.00
     3   6    -0.02  -0.00   0.00     0.01   0.03   0.01     0.04   0.01  -0.04
     4   6     0.01   0.01  -0.02    -0.01   0.06   0.01    -0.08   0.06  -0.02
     5   6     0.03  -0.01  -0.01    -0.01   0.05   0.01    -0.14   0.02  -0.01
     6   6    -0.05  -0.07   0.01     0.02   0.10   0.00    -0.15  -0.07   0.01
     7   9    -0.24   0.06   0.02     0.49  -0.22  -0.04     0.25  -0.38  -0.02
     8   6    -0.02  -0.04   0.01    -0.04   0.19   0.01    -0.16   0.03   0.02
     9   9     0.47   0.16  -0.03    -0.30   0.11   0.03     0.09   0.16  -0.00
    10   6    -0.15   0.01   0.03    -0.00   0.09  -0.00    -0.25   0.02   0.03
    11   9    -0.16   0.03   0.00    -0.06  -0.35  -0.01    -0.29   0.08   0.02
    12   6    -0.02   0.04   0.02     0.07   0.16  -0.01    -0.17  -0.04   0.01
    13   9     0.41  -0.28  -0.05     0.35  -0.02  -0.02    -0.02  -0.19  -0.01
    14   6    -0.03   0.07   0.01    -0.01   0.11   0.00    -0.11   0.06   0.00
    15   9    -0.25  -0.01   0.01    -0.46  -0.04   0.03     0.39   0.27  -0.01
    16   6     0.02   0.09   0.03    -0.01   0.00  -0.02     0.01  -0.03  -0.04
    17   6    -0.02  -0.09   0.04    -0.01   0.03  -0.01     0.05   0.04   0.04
    18   6    -0.02   0.02  -0.01    -0.01  -0.00   0.00     0.09   0.01   0.03
    19   1    -0.08  -0.01   0.03     0.05   0.03   0.04     0.13   0.02  -0.00
    20   1    -0.01  -0.05  -0.01    -0.01   0.02   0.00     0.03   0.03  -0.03
    21   1     0.02   0.01  -0.07    -0.05   0.05   0.02    -0.10   0.07   0.00
    22   1     0.14   0.11   0.14    -0.03  -0.01  -0.09    -0.05  -0.05  -0.20
    23   1    -0.04   0.23  -0.01    -0.00  -0.06   0.00     0.12  -0.17  -0.04
    24   1     0.04  -0.26  -0.01    -0.01   0.07   0.00     0.04   0.06   0.04
    25   1    -0.14  -0.11   0.20     0.01   0.03  -0.05     0.10   0.05   0.02
    26   1    -0.01   0.06   0.01    -0.01  -0.01  -0.01     0.08  -0.04   0.00
    27   1    -0.08   0.02  -0.09     0.00  -0.00   0.03     0.14   0.01   0.08
                     16                     17                     18
                      A                      A                      A
 Frequencies --    389.6888               395.4310               405.6846
 Red. masses --     12.5330                 3.3160                 7.8675
 Frc consts  --      1.1213                 0.3055                 0.7629
 IR Inten    --      0.0054                 0.9849                 2.9974
  Atom  AN      X      Y      Z        X      Y      Z        X      Y      Z
     1   8     0.01  -0.00   0.01    -0.15   0.03  -0.13    -0.16  -0.01   0.08
     2   6     0.01  -0.02   0.01    -0.08   0.13  -0.11     0.05   0.00  -0.07
     3   6     0.01   0.00  -0.01    -0.08  -0.07   0.05     0.08  -0.09  -0.22
     4   6     0.00   0.01  -0.01    -0.01  -0.13   0.09    -0.03  -0.08  -0.09
     5   6     0.00  -0.00   0.00    -0.00  -0.00   0.01     0.02  -0.01   0.36
     6   6     0.03  -0.02   0.43     0.01   0.02   0.01     0.03   0.00   0.26
     7   9    -0.01   0.00  -0.15     0.02   0.02  -0.01     0.01   0.02  -0.08
     8   6     0.03  -0.02   0.51     0.01   0.01   0.02    -0.00   0.01  -0.17
     9   9    -0.01   0.01  -0.16    -0.01   0.01  -0.00    -0.00  -0.00   0.05
    10   6     0.00  -0.00   0.00    -0.00   0.01   0.01    -0.02   0.01  -0.32
    11   9     0.00   0.00  -0.00    -0.01  -0.02  -0.00     0.01  -0.02   0.10
    12   6    -0.03   0.02  -0.50    -0.01   0.01  -0.01    -0.02   0.00  -0.16
    13   9     0.01  -0.00   0.16     0.01  -0.01   0.00     0.01  -0.01   0.05
    14   6    -0.03   0.01  -0.44    -0.02   0.02  -0.01     0.01   0.00   0.26
    15   9     0.01  -0.01   0.14     0.02   0.04   0.00     0.00   0.03  -0.08
    16   6    -0.01   0.01  -0.02     0.08  -0.05   0.17    -0.05   0.04  -0.04
    17   6    -0.01  -0.00   0.00     0.09   0.02  -0.03    -0.02  -0.01   0.08
    18   6    -0.01   0.00   0.01     0.13  -0.01  -0.07     0.10   0.10  -0.01
    19   1     0.04   0.01  -0.02    -0.32  -0.13   0.16     0.05  -0.09  -0.30
    20   1    -0.02   0.02  -0.01     0.17  -0.24   0.05     0.10  -0.01  -0.17
    21   1     0.00   0.01  -0.02    -0.06  -0.13   0.11    -0.07  -0.08  -0.20
    22   1    -0.01   0.01  -0.03     0.12  -0.04   0.35    -0.03   0.04   0.04
    23   1    -0.00  -0.01  -0.01     0.04   0.12   0.12     0.04   0.11  -0.13
    24   1     0.01  -0.02   0.01    -0.08   0.12  -0.06     0.02  -0.22  -0.00
    25   1    -0.02  -0.00   0.02     0.17   0.03  -0.13    -0.09  -0.03   0.28
    26   1    -0.00   0.04  -0.01     0.05  -0.29   0.10     0.11   0.12  -0.10
    27   1    -0.05   0.00   0.02     0.41   0.00  -0.18     0.06   0.09  -0.01
                     19                     20                     21
                      A                      A                      A
 Frequencies --    436.6567               449.2102               463.0360
 Red. masses --      4.0421                 8.7366                 1.9853
 Frc consts  --      0.4541                 1.0387                 0.2508
 IR Inten    --      0.5014                 0.0734                 0.3486
  Atom  AN      X      Y      Z        X      Y      Z        X      Y      Z
     1   8    -0.01   0.01  -0.04     0.02   0.01  -0.01     0.02  -0.02  -0.04
     2   6    -0.09   0.02   0.03    -0.07  -0.03   0.03     0.01   0.09   0.02
     3   6    -0.05   0.01   0.17    -0.03   0.05   0.12    -0.02  -0.02   0.04
     4   6     0.08   0.16   0.02     0.08   0.10   0.02    -0.04   0.11  -0.03
     5   6     0.04  -0.03   0.09     0.07   0.09   0.05    -0.04   0.03   0.00
     6   6    -0.06  -0.08   0.10     0.16   0.08   0.06     0.00   0.04   0.01
     7   9    -0.08  -0.10  -0.02     0.17   0.13  -0.02     0.02   0.04  -0.00
     8   6    -0.06   0.01  -0.04     0.11  -0.18  -0.03     0.01   0.01  -0.00
     9   9    -0.03   0.03   0.01     0.13  -0.23  -0.01     0.03   0.02  -0.00
    10   6    -0.04   0.03  -0.09    -0.06  -0.10  -0.05     0.04  -0.02  -0.01
    11   9    -0.03   0.06   0.03    -0.07  -0.09   0.02     0.05  -0.01  -0.00
    12   6     0.06   0.05  -0.04    -0.15  -0.08  -0.02    -0.02  -0.06  -0.00
    13   9     0.04   0.08   0.01    -0.17  -0.11   0.01    -0.04  -0.06   0.00
    14   6     0.07  -0.05   0.09    -0.10   0.18   0.07    -0.02  -0.02   0.01
    15   9     0.02  -0.08  -0.03    -0.13   0.23   0.00    -0.03  -0.02   0.00
    16   6     0.11  -0.00  -0.11     0.11   0.03  -0.07    -0.06  -0.01  -0.09
    17   6     0.11  -0.03  -0.15     0.09  -0.04  -0.15    -0.03   0.04   0.07
    18   6    -0.08  -0.06  -0.02    -0.13  -0.05  -0.01     0.08  -0.01   0.03
    19   1    -0.15  -0.04   0.51    -0.00   0.05   0.20    -0.13  -0.06   0.33
    20   1    -0.01  -0.32   0.01    -0.09  -0.03   0.05     0.06  -0.29  -0.07
    21   1     0.14   0.16   0.03     0.09   0.10   0.04    -0.02   0.11  -0.04
    22   1     0.14  -0.00  -0.30     0.23   0.05  -0.08    -0.21  -0.04  -0.39
    23   1     0.04  -0.15   0.00    -0.01   0.08  -0.01     0.07  -0.33  -0.02
    24   1     0.15   0.12  -0.06     0.13   0.13  -0.06     0.03  -0.09   0.04
    25   1     0.16  -0.01  -0.27     0.14  -0.02  -0.29    -0.09   0.02   0.18
    26   1    -0.06  -0.00   0.13    -0.06   0.18   0.09    -0.01  -0.35   0.03
    27   1    -0.12  -0.06  -0.06    -0.35  -0.05  -0.01     0.44  -0.00  -0.02
                     22                     23                     24
                      A                      A                      A
 Frequencies --    487.9810               512.3818               566.5815
 Red. masses --      5.6910                 3.5793                12.1268
 Frc consts  --      0.7984                 0.5537                 2.2936
 IR Inten    --      3.0102                13.2083                 0.0450
  Atom  AN      X      Y      Z        X      Y      Z        X      Y      Z
     1   8     0.08   0.05  -0.05     0.20   0.04  -0.18    -0.00   0.00   0.00
     2   6    -0.06  -0.11  -0.02    -0.12   0.02   0.05     0.00  -0.00  -0.00
     3   6    -0.06   0.04  -0.01    -0.15   0.04  -0.04     0.00  -0.00  -0.00
     4   6    -0.08   0.01   0.01    -0.03  -0.10  -0.08    -0.00   0.00   0.00
     5   6    -0.12   0.02   0.03     0.01  -0.02  -0.01    -0.01   0.00  -0.08
     6   6    -0.04   0.11   0.06     0.02  -0.03   0.07     0.01  -0.01   0.19
     7   9     0.03   0.09  -0.01    -0.01  -0.01  -0.01    -0.00  -0.00  -0.01
     8   6    -0.03   0.16  -0.01     0.01  -0.02  -0.01    -0.03   0.01  -0.48
     9   9    -0.02   0.22   0.01    -0.00  -0.05  -0.00     0.01  -0.01   0.06
    10   6     0.09  -0.01  -0.05    -0.01   0.02  -0.05     0.05  -0.03   0.68
    11   9     0.12  -0.01   0.00    -0.01  -0.01   0.01    -0.00   0.00  -0.11
    12   6    -0.06  -0.15  -0.01     0.02   0.05  -0.01    -0.03   0.02  -0.46
    13   9    -0.08  -0.21  -0.00     0.04   0.06   0.00     0.00   0.00   0.06
    14   6    -0.05  -0.11   0.06     0.01   0.02   0.07     0.01  -0.00   0.16
    15   9     0.01  -0.12  -0.02     0.01   0.04  -0.01    -0.00   0.00  -0.01
    16   6     0.12  -0.00   0.05     0.01   0.00  -0.01    -0.00  -0.00   0.00
    17   6     0.13  -0.02  -0.06     0.01   0.03   0.11    -0.00   0.00   0.00
    18   6    -0.06  -0.04   0.02    -0.06  -0.08   0.14     0.00   0.00  -0.00
    19   1     0.12   0.09  -0.20    -0.11   0.07  -0.36     0.02   0.00   0.01
    20   1    -0.16   0.26   0.07    -0.36   0.29   0.02     0.00  -0.00   0.00
    21   1    -0.12   0.00   0.05    -0.03  -0.09  -0.08    -0.00   0.00   0.00
    22   1     0.27   0.03   0.18    -0.02  -0.00   0.08    -0.01  -0.00  -0.01
    23   1     0.06   0.20  -0.02     0.10   0.06  -0.09     0.00  -0.01   0.01
    24   1     0.07   0.20   0.01     0.09   0.03   0.15    -0.00  -0.01  -0.00
    25   1     0.24   0.00  -0.25    -0.01   0.03   0.09    -0.01  -0.00   0.01
    26   1     0.01   0.21   0.14    -0.14  -0.39   0.29     0.00   0.00  -0.01
    27   1    -0.31  -0.04   0.09     0.27  -0.07   0.12     0.00   0.00   0.00
                     25                     26                     27
                      A                      A                      A
 Frequencies --    577.7292               612.3270               623.2432
 Red. masses --     14.5572                 5.4946                12.1566
 Frc consts  --      2.8627                 1.2138                 2.7821
 IR Inten    --      0.1615                 1.1587                 0.0117
  Atom  AN      X      Y      Z        X      Y      Z        X      Y      Z
     1   8    -0.01   0.04  -0.01     0.05  -0.13   0.08    -0.00   0.01  -0.01
     2   6    -0.01  -0.10  -0.09     0.08   0.27   0.24    -0.01  -0.02  -0.02
     3   6    -0.00  -0.01  -0.02     0.00   0.03   0.05     0.00  -0.00  -0.01
     4   6    -0.12   0.10   0.04     0.17  -0.20  -0.09    -0.02   0.02   0.01
     5   6    -0.09   0.05   0.01     0.09  -0.08  -0.04    -0.01   0.01   0.01
     6   6    -0.18  -0.16   0.00     0.03  -0.06   0.00    -0.04   0.02  -0.52
     7   9    -0.25  -0.37   0.00    -0.05  -0.03   0.00     0.01  -0.00   0.09
     8   6    -0.01  -0.01   0.00     0.01   0.08   0.02     0.03  -0.02   0.44
     9   9     0.03  -0.02  -0.00    -0.08   0.12   0.01     0.00  -0.01  -0.07
    10   6     0.27  -0.05  -0.03     0.04   0.03  -0.01    -0.00  -0.00   0.02
    11   9     0.47  -0.05  -0.03     0.05  -0.03  -0.00    -0.00   0.00  -0.00
    12   6     0.01  -0.02   0.01    -0.06  -0.02  -0.02    -0.02   0.02  -0.47
    13   9    -0.00   0.00  -0.00    -0.05  -0.09   0.00     0.01   0.01   0.08
    14   6    -0.10   0.21   0.01    -0.04   0.03   0.05     0.04  -0.02   0.52
    15   9    -0.16   0.39   0.02    -0.01   0.10  -0.00    -0.01  -0.00  -0.09
    16   6     0.02  -0.01   0.05    -0.02   0.01  -0.10     0.00  -0.00   0.01
    17   6     0.05   0.00   0.02    -0.07  -0.04  -0.12     0.01   0.00   0.01
    18   6     0.04   0.00  -0.00    -0.05   0.02  -0.03     0.00  -0.00   0.00
    19   1     0.16   0.02   0.04    -0.40  -0.04  -0.06     0.02   0.00   0.00
    20   1     0.03   0.02   0.01    -0.05  -0.04  -0.01     0.01   0.00  -0.00
    21   1    -0.19   0.09   0.06     0.22  -0.19  -0.11    -0.03   0.02   0.00
    22   1     0.05  -0.01  -0.05     0.04   0.02   0.22     0.01   0.00  -0.02
    23   1     0.06  -0.06   0.05    -0.16   0.27  -0.14     0.01  -0.02   0.01
    24   1    -0.03   0.05   0.01     0.03   0.02  -0.05    -0.01   0.01   0.01
    25   1     0.10   0.01  -0.02    -0.09  -0.04  -0.18     0.01   0.00   0.00
    26   1     0.07   0.13   0.01    -0.09  -0.14  -0.08     0.01   0.02   0.01
    27   1    -0.11  -0.00   0.10     0.13   0.02  -0.32    -0.02  -0.00   0.03
                     28                     29                     30
                      A                      A                      A
 Frequencies --    659.7157               696.3953               758.6529
 Red. masses --      8.5428                 3.8919                 3.1728
 Frc consts  --      2.1906                 1.1121                 1.0759
 IR Inten    --      1.3151                16.1054                 3.4459
  Atom  AN      X      Y      Z        X      Y      Z        X      Y      Z
     1   8    -0.03   0.05  -0.09    -0.07   0.08  -0.06    -0.03   0.01  -0.06
     2   6    -0.11  -0.02  -0.04    -0.08  -0.13  -0.13     0.03   0.12  -0.03
     3   6     0.05  -0.05  -0.05     0.09  -0.02   0.05     0.13   0.01  -0.13
     4   6     0.13  -0.05   0.01     0.22  -0.03   0.05     0.06   0.03  -0.05
     5   6     0.12  -0.06   0.57     0.15  -0.06  -0.17     0.07   0.10  -0.02
     6   6     0.01  -0.02  -0.31     0.07  -0.07   0.06    -0.06   0.04   0.01
     7   9    -0.02  -0.00   0.04    -0.03  -0.00  -0.01     0.02  -0.03  -0.00
     8   6     0.01   0.04  -0.03     0.02   0.05   0.01    -0.07  -0.03   0.00
     9   9    -0.04   0.06   0.02    -0.07   0.09   0.00     0.02   0.03  -0.00
    10   6     0.01   0.01   0.18    -0.01   0.03  -0.04    -0.02  -0.09  -0.00
    11   9    -0.00  -0.01  -0.04    -0.02  -0.01   0.01    -0.01   0.03   0.00
    12   6    -0.03  -0.01  -0.02    -0.03  -0.02   0.01     0.07  -0.06  -0.01
    13   9    -0.03  -0.05   0.01    -0.06  -0.08  -0.00    -0.05  -0.01   0.00
    14   6    -0.02   0.03  -0.31     0.02   0.03   0.07     0.11   0.05  -0.00
    15   9    -0.00   0.03   0.04    -0.01   0.04  -0.01    -0.04  -0.01   0.00
    16   6     0.02   0.07  -0.12     0.02   0.04   0.03    -0.01  -0.06   0.06
    17   6     0.06   0.01   0.02    -0.04   0.07   0.08    -0.07  -0.04   0.12
    18   6    -0.08  -0.04   0.09    -0.06  -0.02   0.01    -0.10  -0.11   0.12
    19   1     0.04  -0.04  -0.17     0.22   0.01  -0.01    -0.07  -0.05   0.13
    20   1    -0.02   0.04  -0.03     0.11   0.04   0.09     0.27  -0.25  -0.22
    21   1     0.18  -0.04  -0.10     0.33  -0.01   0.02    -0.02   0.02   0.00
    22   1    -0.02   0.06  -0.15    -0.25  -0.01  -0.16     0.11  -0.04   0.16
    23   1     0.05  -0.01  -0.09     0.08  -0.28   0.15    -0.01   0.08  -0.01
    24   1     0.25  -0.12   0.05     0.09  -0.28  -0.03    -0.11   0.45   0.34
    25   1    -0.05  -0.01   0.15    -0.24   0.02   0.39     0.12   0.02  -0.35
    26   1    -0.11  -0.16   0.23    -0.09  -0.13   0.02    -0.07   0.02   0.08
    27   1     0.05  -0.03   0.13     0.04  -0.01   0.23    -0.25  -0.11  -0.01
                     31                     32                     33
                      A                      A                      A
 Frequencies --    772.8349               842.6015               879.7145
 Red. masses --      3.5647                 2.5478                 2.1345
 Frc consts  --      1.2544                 1.0658                 0.9733
 IR Inten    --      1.2059                 8.9728                 3.6122
  Atom  AN      X      Y      Z        X      Y      Z        X      Y      Z
     1   8     0.02  -0.01   0.03    -0.05   0.01  -0.02     0.01  -0.01   0.02
     2   6    -0.05  -0.04   0.06    -0.03   0.05  -0.01    -0.03  -0.01   0.04
     3   6    -0.05  -0.08   0.04     0.22  -0.05   0.09     0.02  -0.07  -0.07
     4   6     0.04  -0.04   0.02    -0.05  -0.06   0.04     0.02   0.14  -0.03
     5   6     0.07   0.16   0.01    -0.10   0.01  -0.04     0.02  -0.01   0.01
     6   6    -0.11   0.08   0.01    -0.04   0.03   0.01     0.05  -0.03  -0.01
     7   9     0.04  -0.04  -0.00     0.01   0.00  -0.00    -0.03  -0.01   0.00
     8   6    -0.14  -0.05   0.01    -0.01  -0.01   0.00     0.06   0.02  -0.00
     9   9     0.04   0.03  -0.00     0.02  -0.03  -0.00    -0.01  -0.01   0.00
    10   6    -0.02  -0.15  -0.00     0.00   0.01  -0.01     0.01   0.07   0.00
    11   9    -0.00   0.05   0.00     0.02  -0.01  -0.00    -0.01  -0.02  -0.00
    12   6     0.12  -0.10  -0.01    -0.02   0.02   0.01    -0.04   0.03   0.00
    13   9    -0.06   0.01   0.00     0.03   0.02  -0.00    -0.01  -0.03  -0.00
    14   6     0.17   0.07  -0.01    -0.06  -0.02   0.01    -0.02  -0.01  -0.00
    15   9    -0.05  -0.02   0.00     0.02  -0.01  -0.00     0.01  -0.01  -0.00
    16   6     0.03  -0.01   0.00    -0.01  -0.00  -0.13     0.08  -0.08   0.08
    17   6     0.00   0.03  -0.09     0.03   0.00  -0.04    -0.06  -0.02   0.03
    18   6     0.00   0.11  -0.08    -0.12   0.03   0.07    -0.09   0.10  -0.06
    19   1     0.10  -0.02  -0.35     0.36  -0.00  -0.08     0.28  -0.01  -0.08
    20   1    -0.28   0.27   0.15     0.37   0.16   0.25    -0.22   0.03  -0.11
    21   1    -0.15  -0.06  -0.03    -0.15  -0.07   0.05    -0.01   0.14  -0.05
    22   1    -0.03  -0.02   0.04     0.14   0.03   0.12     0.35  -0.04  -0.00
    23   1    -0.06  -0.01   0.06    -0.12   0.26  -0.18    -0.01   0.01   0.10
    24   1     0.00  -0.29  -0.24     0.25  -0.05   0.03    -0.30   0.18   0.02
    25   1    -0.06   0.00   0.26     0.09   0.00   0.09     0.27   0.03  -0.05
    26   1    -0.09  -0.24  -0.02    -0.21  -0.31   0.19    -0.23  -0.37  -0.11
    27   1     0.38   0.11  -0.06     0.25   0.04   0.04     0.41   0.11  -0.16
                     34                     35                     36
                      A                      A                      A
 Frequencies --    889.0437               912.5844               961.7027
 Red. masses --      1.5574                 2.4721                 2.7342
 Frc consts  --      0.7253                 1.2130                 1.4899
 IR Inten    --     11.9753                 1.3360                58.4626
  Atom  AN      X      Y      Z        X      Y      Z        X      Y      Z
     1   8     0.02   0.01   0.01     0.00   0.01  -0.04    -0.03   0.02  -0.01
     2   6    -0.01  -0.09  -0.03    -0.05   0.04   0.03     0.01  -0.03  -0.05
     3   6    -0.03   0.09  -0.02     0.02  -0.10  -0.05    -0.02  -0.02   0.19
     4   6     0.00   0.01  -0.01     0.01   0.08   0.04    -0.12  -0.02  -0.03
     5   6     0.04  -0.01  -0.00     0.04   0.00  -0.04     0.09  -0.00   0.00
     6   6     0.02  -0.01  -0.00     0.04  -0.02   0.00     0.08  -0.04  -0.01
     7   9    -0.01  -0.00  -0.00    -0.02  -0.01  -0.00    -0.03  -0.02   0.00
     8   6     0.01   0.00  -0.00     0.04   0.01  -0.00     0.07   0.01  -0.00
     9   9    -0.01   0.01   0.00    -0.01   0.00   0.00    -0.03   0.04   0.00
    10   6     0.00  -0.00  -0.00     0.00   0.03  -0.00     0.02  -0.00  -0.00
    11   9    -0.01   0.00   0.00    -0.02  -0.00   0.00    -0.06   0.01   0.00
    12   6     0.01  -0.01  -0.00    -0.00   0.01   0.00     0.06  -0.03  -0.01
    13   9    -0.01  -0.01   0.00    -0.02  -0.02  -0.00    -0.04  -0.03   0.00
    14   6     0.03   0.01  -0.00     0.02   0.01   0.01     0.09   0.03  -0.01
    15   9    -0.01   0.01   0.00    -0.00  -0.00  -0.00    -0.02   0.02   0.00
    16   6    -0.08  -0.09  -0.06    -0.16   0.04   0.04    -0.04   0.00  -0.12
    17   6     0.00  -0.00  -0.04     0.05  -0.12  -0.12    -0.03  -0.05   0.13
    18   6     0.04   0.06   0.05     0.11   0.05   0.14     0.09   0.02  -0.04
    19   1    -0.02   0.05   0.36     0.19  -0.04  -0.24     0.15   0.04  -0.11
    20   1    -0.02  -0.24  -0.19    -0.10   0.13   0.03     0.00   0.28   0.36
    21   1     0.04   0.01   0.28     0.00   0.08  -0.13    -0.17  -0.02  -0.14
    22   1     0.17  -0.04   0.39    -0.12   0.04  -0.11     0.21   0.05  -0.07
    23   1    -0.28   0.39  -0.17    -0.41  -0.09   0.26     0.06   0.19  -0.28
    24   1    -0.01  -0.11  -0.09    -0.02   0.02  -0.08    -0.13   0.34   0.26
    25   1     0.17   0.01   0.16     0.02  -0.11  -0.26     0.20   0.01  -0.25
    26   1     0.00  -0.08   0.03     0.15   0.14   0.56     0.10   0.09  -0.17
    27   1     0.17   0.07   0.29     0.01   0.04  -0.07    -0.02   0.01  -0.20
                     37                     38                     39
                      A                      A                      A
 Frequencies --    994.4845              1030.0635              1049.9177
 Red. masses --      4.8876                 5.1712                 2.0419
 Frc consts  --      2.8480                 3.2327                 1.3262
 IR Inten    --    112.5355                76.6368                 8.0618
  Atom  AN      X      Y      Z        X      Y      Z        X      Y      Z
     1   8     0.01  -0.02   0.01    -0.02   0.04  -0.04    -0.00  -0.00   0.01
     2   6     0.04   0.06   0.02    -0.06  -0.06  -0.03     0.03  -0.02  -0.02
     3   6    -0.00   0.00  -0.05     0.00   0.02   0.15    -0.07  -0.05  -0.04
     4   6    -0.11  -0.02   0.05     0.22  -0.06  -0.14     0.10   0.01   0.11
     5   6     0.07   0.21  -0.00    -0.00   0.13   0.03     0.01   0.02  -0.02
     6   6     0.06   0.07  -0.00    -0.15   0.11   0.01    -0.05   0.02   0.01
     7   9    -0.10  -0.14   0.00     0.01  -0.03  -0.00     0.01   0.00  -0.00
     8   6     0.16   0.11  -0.01    -0.09   0.04   0.01    -0.04   0.00   0.00
     9   9     0.00  -0.09  -0.00     0.06  -0.11  -0.01     0.02  -0.03  -0.00
    10   6     0.05   0.21   0.00    -0.04   0.12   0.01    -0.02   0.03  -0.00
    11   9    -0.06  -0.03   0.00     0.11  -0.03  -0.01     0.04  -0.01  -0.00
    12   6    -0.01   0.09   0.00    -0.14   0.13   0.01    -0.04   0.04   0.01
    13   9    -0.08  -0.13   0.00     0.00  -0.04  -0.00     0.00  -0.01  -0.00
    14   6     0.10   0.11  -0.00    -0.07   0.08   0.00    -0.02   0.02   0.01
    15   9     0.02  -0.12  -0.01     0.05  -0.12  -0.01     0.01  -0.03  -0.00
    16   6     0.03  -0.00   0.01     0.02  -0.06  -0.04    -0.11   0.03  -0.07
    17   6     0.05   0.09  -0.05    -0.16  -0.04   0.04     0.10  -0.02   0.11
    18   6    -0.06  -0.08  -0.01     0.17   0.04   0.06    -0.02  -0.01  -0.07
    19   1    -0.19  -0.03  -0.03    -0.00   0.04  -0.04    -0.02  -0.03  -0.10
    20   1     0.13  -0.03  -0.02    -0.16   0.09   0.13    -0.23   0.01  -0.07
    21   1    -0.50  -0.07   0.17     0.19  -0.06  -0.19     0.14   0.02   0.16
    22   1    -0.19  -0.03   0.12     0.14  -0.04   0.07    -0.07   0.04   0.07
    23   1     0.09   0.00  -0.03     0.03   0.08  -0.12    -0.32   0.09   0.04
    24   1     0.30  -0.24  -0.09    -0.53   0.12  -0.05     0.48   0.18   0.37
    25   1    -0.21   0.04   0.23    -0.11  -0.02  -0.19     0.25   0.01  -0.03
    26   1    -0.03   0.04  -0.06     0.22   0.21   0.11    -0.04  -0.05  -0.32
    27   1    -0.14  -0.08   0.12    -0.08   0.03   0.14     0.03  -0.01  -0.31
                     40                     41                     42
                      A                      A                      A
 Frequencies --   1083.2158              1091.7531              1133.1756
 Red. masses --      1.2188                 2.8676                 2.3306
 Frc consts  --      0.8426                 2.0138                 1.7633
 IR Inten    --     11.0854                 2.8400                13.7033
  Atom  AN      X      Y      Z        X      Y      Z        X      Y      Z
     1   8    -0.01  -0.00  -0.00     0.00  -0.00  -0.01    -0.03   0.00  -0.05
     2   6     0.08   0.02  -0.05     0.02   0.02  -0.00    -0.01   0.12   0.05
     3   6    -0.05  -0.01  -0.00    -0.07  -0.08  -0.11     0.01  -0.12   0.04
     4   6     0.01   0.01   0.05     0.01   0.00   0.24     0.03   0.14  -0.03
     5   6     0.00  -0.00  -0.01    -0.01  -0.01  -0.03     0.01  -0.02   0.00
     6   6    -0.00  -0.00   0.00     0.01  -0.01   0.00     0.02  -0.04  -0.00
     7   9     0.00   0.00   0.00    -0.00   0.00  -0.00     0.01   0.02  -0.00
     8   6    -0.00  -0.00  -0.00     0.00  -0.01   0.00    -0.00  -0.03  -0.00
     9   9     0.00  -0.00   0.00    -0.00   0.01   0.00    -0.01   0.02   0.00
    10   6    -0.00   0.00  -0.00     0.00  -0.01  -0.00    -0.01  -0.02   0.00
    11   9     0.00  -0.00  -0.00    -0.00   0.00   0.00     0.01   0.00  -0.00
    12   6    -0.00   0.00   0.00     0.00  -0.01   0.00    -0.02  -0.02   0.00
    13   9     0.00  -0.00  -0.00     0.00   0.01  -0.00     0.01   0.02  -0.00
    14   6    -0.00  -0.00   0.00    -0.01  -0.01   0.01    -0.03  -0.03   0.00
    15   9     0.00   0.00  -0.00    -0.00   0.01  -0.00    -0.00   0.01   0.00
    16   6     0.02   0.01  -0.02     0.15   0.02  -0.15    -0.01  -0.13  -0.01
    17   6    -0.04  -0.02  -0.03    -0.17  -0.00  -0.02    -0.00   0.12   0.01
    18   6    -0.02  -0.01   0.04     0.06   0.03   0.09     0.05  -0.13  -0.02
    19   1    -0.40  -0.06  -0.24     0.07  -0.05  -0.08     0.21  -0.05  -0.21
    20   1     0.18   0.09   0.14    -0.11  -0.01  -0.08    -0.33   0.16   0.06
    21   1    -0.01   0.02  -0.27    -0.01  -0.01   0.58    -0.10   0.11   0.08
    22   1     0.32   0.05  -0.23     0.22   0.03  -0.09     0.09  -0.10   0.32
    23   1    -0.25  -0.04   0.17     0.25   0.09  -0.24    -0.14   0.21  -0.10
    24   1    -0.03   0.00  -0.01    -0.08   0.06   0.04     0.03  -0.18  -0.11
    25   1     0.25   0.01   0.11    -0.43  -0.02  -0.24    -0.05   0.10   0.31
    26   1    -0.03  -0.05  -0.22     0.07   0.06   0.05     0.16   0.25  -0.20
    27   1     0.04   0.00   0.49    -0.00   0.03  -0.08    -0.30  -0.13   0.22
                     43                     44                     45
                      A                      A                      A
 Frequencies --   1155.6515              1172.0293              1214.8318
 Red. masses --      7.5324                11.6109                 1.8128
 Frc consts  --      5.9270                 9.3971                 1.5763
 IR Inten    --     70.4556                 8.4228                18.9091
  Atom  AN      X      Y      Z        X      Y      Z        X      Y      Z
     1   8     0.02  -0.01   0.02    -0.01   0.01  -0.01    -0.02   0.01   0.00
     2   6     0.02   0.00  -0.00    -0.00  -0.03  -0.01     0.11  -0.02  -0.09
     3   6    -0.01   0.02  -0.03    -0.01   0.03   0.01    -0.06   0.00   0.06
     4   6    -0.22   0.04   0.02     0.11  -0.05  -0.02    -0.00   0.04  -0.10
[...]
 18,-0.00002508,0.00034439,0.00022114,0.00011803,-0.00012509,-0.0000485
 5,-0.00007921,-0.00071919,0.00076232,0.00023138,-0.00038877,0.00023353
 ,0.00040063,-0.00499501,-0.00312547,-0.00067028,-0.00323237,0.00385197
 ,-0.00001894,-0.14013849,0.22263949,0.00082109,0.00039757,-0.00114531,
 -0.00054118,-0.00299911,-0.00050075,-0.02466499,0.03076726,-0.05614771
 ,0.01541628,-0.01888602,0.00313178,-0.00072527,-0.00088744,0.00050228,
 -0.00001403,0.00042065,-0.00020234,-0.00040960,-0.00031227,0.00011552,
 0.00000295,-0.00014100,0.00015618,-0.00002141,0.00000492,-0.00004444,-
 0.00001097,0.00003757,-0.00005174,-0.00001741,-0.00003938,-0.00000054,
 0.00003143,0.00002494,-0.00003236,0.00000600,-0.00000303,-0.00001114,0
 .00016713,0.00016221,0.00028327,-0.00023231,-0.00005861,-0.00019565,0.
 00305530,0.00117648,-0.00357345,0.00014559,0.00054867,-0.00009329,-0.0
 0003523,0.00030984,0.00116749,-0.01736113,0.02372938,-0.00281231,0.023
 97488,-0.03213717,0.05748215,-0.00033517,0.00027553,-0.00036382,0.0019
 4142,0.00068721,0.00050108,0.00946925,0.00042127,0.02424420,-0.1023899
 9,-0.00539286,-0.10387739,-0.01027516,-0.00305648,-0.01648798,-0.00104
 042,-0.00316357,0.00130544,0.00026072,0.00010588,0.00020808,0.00017669
 ,0.00038863,-0.00092243,-0.00031924,-0.00032867,-0.00006737,0.00007791
 ,0.00015791,0.00008793,-0.00005839,-0.00014813,0.00005389,-0.00015287,
 -0.00004083,-0.00021646,0.00005472,-0.00004170,0.00019918,-0.00123679,
 -0.00077547,-0.00290430,0.00148929,0.00170551,0.00156550,-0.01115479,0
 .00240217,-0.01907452,0.00065339,-0.00135915,0.00031741,-0.00002242,-0
 .00000397,0.00018626,-0.00356072,-0.00048448,0.00437694,0.00110427,0.0
 0010396,-0.00078780,0.11605416,0.00011325,0.00004281,-0.00011531,0.000
 13822,-0.00005525,0.00077723,0.00010892,0.00045192,-0.00076905,-0.0032
 6584,-0.05024003,-0.00393663,-0.01545707,-0.00404985,-0.02653466,-0.00
 249627,-0.00497122,0.00216600,0.00027103,0.00035088,0.00025573,-0.0002
 2207,0.00079207,-0.00126625,-0.00041202,-0.00060699,-0.00018697,0.0001
 5945,0.00021489,0.00002909,-0.00006040,-0.00016478,0.00009180,-0.00007
 774,-0.00003471,-0.00021767,0.00008136,-0.00003736,0.00021848,-0.00231
 032,-0.00083159,-0.00299665,0.00122215,-0.00059891,0.00303271,0.014202
 24,-0.00207417,0.02529725,0.00072200,0.00153616,0.00139234,-0.00028478
 ,-0.00014538,-0.00020561,0.00030307,0.00086545,-0.00010985,-0.00023787
 ,0.00007969,-0.00036108,0.00530187,0.06293156,0.00098400,0.00024573,0.
 00031292,-0.00170029,-0.00113838,-0.00055176,-0.00648823,0.00051123,-0
 .02206885,-0.10678113,-0.00883745,-0.25503664,-0.00103885,-0.00171935,
 0.00021609,0.00022197,0.00051074,0.00036909,0.00000704,-0.00010859,0.0
 0020582,-0.00004404,0.00014589,0.00005245,0.00004872,-0.00000780,0.000
 01408,0.00004210,-0.00001290,0.00006246,-0.00004856,-0.00007608,-0.000
 00642,-0.00016119,-0.00007938,-0.00022033,0.00002912,-0.00004239,0.000
 11515,-0.00056462,0.00034664,-0.00134790,0.00216331,0.00402433,-0.0012
 5571,-0.00170541,0.00093092,-0.00164587,0.00039177,-0.00039969,0.00010
 423,0.00010622,0.00038167,-0.00033397,0.00381914,0.00029976,-0.0021241
 3,-0.00018551,-0.00038474,0.00094798,0.11070761,0.00457807,0.27935626,
 0.00021269,-0.00004045,-0.00005393,-0.00050709,0.00008771,0.00001347,0
 .00082665,-0.00081482,-0.00108202,-0.01047873,0.00128041,-0.01700890,0
 .00026973,-0.00063524,0.00080562,0.00024399,0.00079582,-0.00118367,-0.
 00027495,-0.00173300,0.00015286,-0.00000640,0.00002696,0.00013100,0.00
 003824,0.00003560,0.00005353,0.00000850,-0.00003005,0.00003224,0.00002
 915,0.00001592,0.00001473,-0.00006179,-0.00007134,-0.00001091,0.000008
 61,0.00001690,0.00002130,-0.00006183,-0.00003812,-0.00027114,0.0001880
 3,0.00020045,0.00007212,-0.11180669,-0.00058114,-0.10668718,-0.0097272
 1,-0.00072264,-0.01657729,0.00058770,0.00073114,-0.00108224,-0.0002658
 2,0.00026292,0.00062670,0.00026702,0.00000101,0.00025008,-0.00152599,0
 .00318481,-0.00007740,0.11996890,0.00005444,0.00017465,-0.00000399,-0.
 00006116,-0.00046789,0.00002720,-0.00134816,0.00111104,0.00035787,0.01
 513984,-0.00194362,0.02634078,0.00012737,0.00211596,-0.00015688,0.0001
 6363,-0.00241131,0.00241866,-0.00025369,0.00009280,-0.00254398,-0.0003
 2740,-0.00007717,-0.00024229,-0.00000454,-0.00000257,-0.00003514,0.000
 03050,-0.00007265,-0.00007871,-0.00000569,0.00007438,-0.00003803,0.000
 16314,0.00008970,0.00015755,-0.00002066,0.00007106,-0.00018450,0.00021
 855,0.00013647,0.00069002,-0.00049118,-0.00040427,-0.00036133,-0.00191
 861,-0.04780224,-0.00204808,-0.01478238,-0.00132618,-0.02628117,0.0010
 4110,0.00109239,-0.00052070,0.00018194,0.00010816,-0.00063941,-0.00030
 506,-0.00003771,-0.00010154,0.00376374,-0.00459918,-0.00011897,0.00123
 924,0.05779016,-0.00008693,-0.00001789,-0.00009499,0.00008020,0.000059
 96,0.00014803,0.00038501,-0.00014962,0.00083146,-0.00084765,0.00067944
 ,-0.00226556,-0.00023411,-0.00002206,0.00033053,-0.00002189,0.00100698
 ,-0.00068238,-0.00010206,-0.00298733,-0.00097882,-0.00004281,0.0000897
 7,-0.00002435,0.00006617,0.00004109,0.00012007,0.00001431,-0.00003988,
 0.00003899,0.00004651,0.00003781,0.00001278,-0.00008048,-0.00006884,-0
 .00005972,0.00002651,-0.00000914,0.00005372,-0.00002798,0.00000720,-0.
 00030722,0.00015037,0.00010537,0.00024619,-0.10779276,0.00015613,-0.24
 890402,-0.00043299,-0.00088510,-0.00170677,0.00033547,0.00029026,0.000
 88694,-0.00034150,-0.00000823,0.00037836,-0.00002563,0.00004000,0.0001
 5340,0.00022940,0.00043816,0.00139830,0.12035539,0.00230678,0.26880654
 ,-0.00043918,-0.00001285,-0.00002361,0.00110597,0.00002515,-0.00031884
 ,-0.00129318,0.00325165,-0.00143631,-0.01317597,0.00088725,0.01362140,
 0.00026710,-0.00111497,-0.00042290,0.00026106,0.00013364,0.00014975,-0
 .00002483,-0.00012687,-0.00017164,-0.00001842,-0.00009319,0.00012655,-
 0.00001688,0.00000567,-0.00005044,0.00002218,0.00003876,-0.00003343,-0
 .00001885,-0.00001293,-0.00000168,-0.00004728,0.00002955,-0.00004403,0
 .00000573,0.00003042,-0.00002139,0.00032511,0.00041103,0.00024041,-0.0
 0007628,-0.00015601,-0.00029040,-0.16922611,-0.00039009,0.12829321,-0.
 01290773,-0.00028863,0.01346712,-0.00107738,-0.00343811,-0.00160591,0.
 00008495,0.00001808,0.00009399,-0.00065830,-0.00008454,0.00089541,0.00
 026921,-0.00063076,-0.00011522,0.01249833,0.00012082,-0.01157055,0.183
 61302,-0.00004289,0.00095354,-0.00002117,-0.00001542,-0.00227028,0.000
 04293,0.00312486,-0.00465388,0.00169989,0.01903713,-0.00185688,-0.0213
 9111,0.00075213,0.00150882,-0.00072628,-0.00021121,0.00018225,-0.00045
 291,-0.00012584,-0.00028046,0.00022598,-0.00003035,0.00002261,-0.00021
 237,0.00003201,-0.00000014,0.00008551,-0.00003602,-0.00011677,0.000033
 64,0.00007045,0.00011981,0.00000651,0.00002747,-0.00015513,0.00010566,
 -0.00000330,0.00003523,-0.00005156,-0.00001248,-0.00004940,0.00021800,
 -0.00007107,-0.00001696,0.00005308,-0.00120141,-0.04737938,0.00143533,
 -0.01951553,-0.00002364,0.02191650,-0.00314689,-0.00466734,-0.00187916
 ,-0.00030505,0.00001608,0.00016172,0.00141976,0.00025978,-0.00124809,-
 0.00071682,0.00108797,0.00023121,-0.00001771,-0.00032038,-0.00010212,0
 .00064717,0.05548746,0.00005315,-0.00002033,-0.00006865,-0.00025935,0.
 00002671,0.00000097,-0.00042297,0.00015577,0.00086702,-0.00322431,0.00
 026352,0.00223362,-0.00004889,0.00014059,0.00041829,-0.00002072,0.0003
 0813,-0.00065337,-0.00013608,-0.00064630,0.00013162,-0.00002452,-0.000
 09906,0.00006222,-0.00001161,-0.00001351,-0.00000709,-0.00001530,-0.00
 001755,-0.00006348,-0.00002394,-0.00002662,0.00001183,0.00005954,0.000
 01406,0.00004906,-0.00002492,-0.00002204,0.00001309,0.00000558,-0.0002
 5673,0.00022001,-0.00008409,-0.00008833,-0.00006738,0.12943097,0.00069
 749,-0.19129001,-0.00352579,-0.00014476,0.00244919,-0.00054464,-0.0000
 3070,0.00097451,-0.00019181,0.00015072,0.00033312,0.00002010,0.0001108
 0,0.00022343,0.00011412,-0.00041727,0.00072677,0.02012569,0.00030698,-
 0.02069588,-0.14139508,-0.00104533,0.20274409,-0.00180736,0.00184009,-
 0.00081052,-0.00097768,-0.00491958,0.00399891,0.00002480,0.00015532,-0
 .00058162,-0.00234363,-0.00299214,-0.00042626,0.00091031,-0.00085823,0
 .00006471,-0.00003375,-0.00015014,0.00027649,0.00008661,0.00013579,-0.
 00021125,0.00000118,0.00004175,0.00007903,-0.00003238,-0.00001818,-0.0
 0005085,0.00005909,0.00002141,-0.00001654,-0.00007213,-0.00007903,0.00
 000439,-0.00005533,0.00010336,0.00002288,-0.00001263,-0.00005633,0.000
 04533,-0.00026079,-0.00017581,-0.00022675,0.00014758,0.00002312,0.0000
 9653,0.01248161,-0.01754159,0.00205404,-0.13518242,0.12359946,-0.01611
 264,-0.01466222,0.02032799,0.00042732,-0.00003997,-0.00004657,-0.00003
 795,0.00008158,0.00008386,-0.00012892,-0.00007703,0.00000852,0.0001564
 4,0.00080088,0.00076686,0.00005995,0.00080163,0.00079181,0.00013746,0.
 14679914,-0.00011324,0.00013800,-0.00017087,-0.00044322,0.00047744,0.0
 0042320,-0.00039376,0.00065863,0.00009020,-0.00503389,-0.00303185,-0.0
 0060411,0.00113037,-0.00117184,0.00013468,0.00006642,-0.00029421,0.000
 54850,0.00001274,0.00018034,-0.00032919,0.00009371,0.00011444,0.000203
 42,-0.00016237,-0.00009527,-0.00020650,0.00017717,0.00018940,0.0000000
 5,-0.00019512,-0.00027292,0.00000075,-0.00004930,0.00018705,-0.0000820
 5,-0.00004546,-0.00018802,0.00018807,-0.00035270,-0.00021353,-0.000541
 82,0.00017071,-0.00000486,0.00020700,0.01596052,-0.02242134,0.00287303
 ,0.12261756,-0.22133864,0.01956817,-0.00120460,0.00257378,-0.00007636,
 0.00002453,-0.00002449,-0.00003883,0.00009449,0.00004970,-0.00004497,-
 0.00019947,0.00035122,0.00001072,0.00021349,0.00104937,-0.00050870,-0.
 00000615,0.00082185,0.00051544,-0.13172253,0.24015212,0.00230485,-0.00
 185847,0.00097089,0.00187852,0.00377115,-0.00392358,-0.00032448,0.0000
 7511,0.00033853,-0.00036317,-0.00027208,0.00014796,0.00002184,-0.00008
 253,0.00060436,0.00007255,0.00004942,-0.00000250,-0.00004280,0.0000526
 7,-0.00001508,0.00000912,-0.00001515,0.00001028,0.00001248,0.00001547,
 0.00000809,-0.00001038,-0.00001261,0.00000652,0.00001295,0.00001711,-0
 .00000279,0.00001178,-0.00001328,0.00004341,-0.00000442,0.00000067,-0.
 00001318,-0.00009305,-0.00010418,-0.00009273,0.00002042,0.00003813,0.0
 0001978,0.00132819,-0.00316533,-0.00069072,-0.01631859,0.02055394,-0.0
 5187669,0.01590235,-0.02211898,-0.00050327,0.00003931,0.00002361,0.000
 03193,-0.00003753,-0.00008528,0.00006423,0.00031681,-0.00033624,0.0003
 4636,0.00050919,-0.00006798,0.00022643,-0.00017072,0.00033515,-0.00000
 181,0.01380393,-0.02198007,0.05471124,-0.00021191,-0.00021431,-0.00034
 210,0.00181079,-0.00086060,0.00052775,-0.00001074,0.00006799,0.0002124
 3,0.00029030,0.00114215,0.00029711,0.00006688,0.00013144,0.00032641,0.
 00000363,0.00036965,-0.00028698,0.00001440,-0.00036913,0.00010631,0.00
 004731,0.00001470,0.00007298,-0.00001603,-0.00001422,-0.00002089,0.000
 03777,0.00006154,-0.00000819,-0.00004108,-0.00007366,0.00000896,-0.000
 01449,0.00005779,-0.00006428,-0.00000108,-0.00006793,0.00009175,-0.000
 09661,-0.00007458,-0.00021792,0.00006323,0.00002761,0.00016252,-0.0102
 5266,-0.00148805,-0.01848288,-0.09600603,-0.00130724,-0.09844716,0.009
 65240,0.00096425,0.02408171,-0.00010344,-0.00000549,-0.00000171,0.0000
 6747,0.00004427,-0.00004971,0.00065585,-0.00039031,0.00027049,-0.00137
 815,-0.00387375,0.00033124,0.00023181,0.00058317,0.00011549,-0.0083651
 0,-0.00093004,-0.01738858,0.10571250,-0.00017016,0.00015483,0.00015450
 ,-0.00027236,-0.00028175,-0.00077296,0.00021763,-0.00009770,0.00020835
 ,-0.00088031,0.00164549,-0.00139946,0.00004151,0.00022473,0.00042074,0
 .00003441,0.00044094,-0.00047575,-0.00000722,-0.00047045,0.00019122,0.
 00002039,0.00000408,0.00002490,0.00002943,0.00001905,0.00004032,-0.000
 01012,-0.00000978,0.00000554,0.00002112,0.00001486,0.00000682,-0.00002
 410,-0.00001732,0.00000123,0.00000853,-0.00000060,0.00001961,-0.000086
 02,-0.00007959,-0.00015638,0.00009634,0.00008221,0.00011164,-0.0132499
 6,-0.00249255,-0.02636938,-0.00076305,-0.05234756,-0.00701427,0.000142
 71,-0.00007183,0.00060196,-0.00008106,0.00007933,0.00013029,0.00005157
 ,-0.00001018,-0.00003407,0.00043156,-0.00038276,0.00067964,-0.00318315
 ,-0.00446793,-0.00035712,0.00065852,0.00110449,0.00044989,0.01139842,0
 .00159703,0.02517398,0.00582256,0.05420901,0.00127547,-0.00041628,0.00
 037318,-0.00210467,0.00169909,-0.00054112,0.00008902,-0.00038189,-0.00
 026413,0.00022199,0.00043176,-0.00000797,0.00019715,-0.00008308,0.0003
 7315,0.00002134,0.00023061,-0.00017306,0.00000884,-0.00009816,0.000109
 41,0.00000592,-0.00001611,0.00003958,0.00002116,0.00001255,0.00002327,
 0.00000839,0.00001829,-0.00001145,-0.00001400,-0.00002594,0.00000787,-
 0.00000274,0.00003101,-0.00002369,0.00000178,-0.00002899,0.00004523,-0
 .00014829,-0.00009462,-0.00020068,0.00009282,0.00005795,0.00012895,-0.
 00126962,-0.00034227,-0.00139655,-0.09835224,-0.00713262,-0.25606231,-
 0.00738632,-0.00120149,-0.02134276,-0.00001356,0.00006823,0.00011519,-
 0.00002053,-0.00011887,-0.00001789,0.00031065,-0.00067584,0.00026905,-
 0.00011790,-0.00000222,0.00146124,-0.00025528,-0.00038905,0.00077530,-
 0.00160990,0.00062572,-0.00245097,0.10510576,0.00778680,0.28021147,0.0
 0177485,-0.00136828,-0.00012118,0.01175165,0.01609263,0.00291927,-0.00
 219939,0.00277968,-0.00045269,-0.00029154,0.00024922,0.00009472,0.0001
 7457,-0.00008176,-0.00004745,-0.00000395,0.00004894,0.00001019,0.00002
 664,-0.00006977,-0.00000222,0.00003131,0.00002547,0.00006370,-0.000037
 32,-0.00002610,-0.00005084,0.00004098,0.00006606,-0.00000485,-0.000047
 15,-0.00007544,0.00000164,-0.00001189,0.00006027,-0.00004574,-0.000004
 58,-0.00005216,0.00005815,-0.00004117,0.00000252,-0.00007271,0.0000282
 2,-0.00001783,0.00003490,-0.00241198,0.00167709,0.00428652,-0.01272891
 ,-0.01723042,-0.00437062,-0.15267465,-0.13185053,-0.02162845,-0.000097
 50,-0.00009408,0.00001788,0.00058927,0.00091829,-0.00009062,0.00005470
 ,-0.00005378,-0.00002890,0.00032325,0.00041977,0.00000362,-0.00066270,
 -0.00145660,0.00008141,0.00014351,0.00029491,-0.00059398,0.00118654,0.
 00022820,-0.00003780,0.16318801,-0.00000463,0.00595029,0.00080470,-0.0
 2182231,-0.02650397,-0.00454488,0.00479834,-0.00321680,0.00075494,0.00
 049066,0.00026875,-0.00040479,-0.00008678,0.00010116,0.00009585,0.0000
 5242,0.00003262,0.00004480,-0.00007056,-0.00000900,-0.00000658,0.00005
 975,0.00001743,0.00006578,-0.00005061,-0.00003016,-0.00006368,0.000048
 45,0.00008242,-0.00000346,-0.00005664,-0.00008946,0.00000144,0.0000243
 2,0.00004820,-0.00007399,-0.00000810,-0.00006428,0.00007406,-0.0000547
 8,0.00001232,-0.00011210,0.00001416,-0.00000468,0.00007144,0.00060540,
 0.00088093,-0.00025293,0.00157383,0.00225744,0.00110183,-0.12743358,-0
 .21069177,-0.02723800,0.00010711,0.00040126,-0.00014604,-0.00087906,-0
 .00144487,0.00007465,-0.00005427,-0.00001985,0.00008442,-0.00002394,-0
 .00005520,-0.00004924,0.00012079,0.00017664,-0.00017158,-0.00022585,0.
 00034241,0.00041309,-0.00007722,0.00014639,0.00037412,0.13995121,0.227
 75995,0.00072748,-0.00027236,-0.00115347,-0.00067794,0.00264508,-0.000
 65544,0.00002022,-0.00029740,0.00125356,0.00016979,-0.00054674,-0.0000
 8740,-0.00018030,0.00004464,0.00009704,-0.00000035,0.00004751,-0.00013
 052,-0.00002423,-0.00003862,0.00010303,-0.00001460,-0.00002195,-0.0000
 2058,0.00001686,0.00001015,0.00002641,-0.00001709,-0.00002058,-0.00000
 496,0.00001963,0.00002799,0.00000145,0.00001392,-0.00002814,0.00001935
 ,0.00000075,0.00001666,-0.00001835,0.00002618,-0.00001295,0.00004455,-
 0.00002425,0.00000978,-0.00002062,0.00302916,-0.00120628,-0.00366442,0
 .01433586,0.02011946,0.00352646,-0.02136697,-0.02768341,-0.05486864,0.
 00032287,0.00044213,0.00020621,-0.00009346,-0.00008399,0.00037463,-0.0
 0003136,0.00002643,-0.00000925,0.00026165,0.00008493,0.00018360,0.0009
 0318,0.00120742,0.00020595,-0.00057762,-0.00037452,0.00068952,-0.00089
 228,0.00035868,0.00084101,0.02133202,0.02920100,0.05600041,-0.00117009
 ,0.00380252,0.00328569,-0.01146517,-0.00029490,-0.01792312,0.00034235,
 -0.00018837,0.00114741,-0.00012093,-0.00028639,0.00002871,-0.00004017,
 -0.00003919,0.00002542,0.00001078,-0.00002116,0.00000074,-0.00000688,0
 .00002250,0.00000830,-0.00002170,-0.00001721,-0.00003066,0.00001805,0.
 00001145,0.00002687,-0.00001701,-0.00002518,-0.00000278,0.00001928,0.0
 0003102,0.00000029,0.00000155,-0.00001903,0.00002074,0.00000170,0.0000
 1798,-0.00002059,0.00000554,0.00000039,0.00002273,-0.00000135,0.000003
 91,-0.00001691,0.00158358,0.00048791,0.00012484,0.00953670,-0.00282128
 ,0.02523128,-0.09209363,0.00726361,-0.10482228,0.00053733,0.00038744,0
 .00024095,-0.00008520,-0.00007924,0.00032444,-0.00011260,0.00008235,-0
 .00000856,-0.00017703,-0.00003863,-0.00047681,0.00015696,0.00042261,-0
 .00018949,0.00158453,-0.00000477,-0.00089658,-0.00334356,-0.00047540,0
 .00397256,-0.00810076,0.00300187,-0.01727910,0.10295774,0.00250846,-0.
 00268214,-0.00357891,0.01236846,0.00140895,0.02881896,-0.00135236,-0.0
 0042379,-0.00342352,0.00035580,0.00020265,-0.00015918,0.00004748,0.000
 01838,-0.00002840,-0.00000474,-0.00012328,0.00011714,-0.00002117,0.000
 09414,-0.00008888,-0.00001964,0.00000815,-0.00004755,0.00001825,0.0000
 1349,0.00002167,-0.00002121,-0.00004397,0.00001293,0.00002642,0.000045
 06,-0.00000413,-0.00000174,-0.00003149,0.00003261,0.00000219,0.0000347
 5,-0.00004219,0.00001760,-0.00000812,0.00004369,-0.00001344,0.00000888
 ,-0.00003192,0.00053208,0.00009251,0.00102342,-0.00088618,0.00037091,-
 0.00118605,0.00860444,-0.05364592,0.02408311,-0.00033123,-0.00160164,0
 .00008593,0.00008874,0.00041691,-0.00040035,0.00002064,0.00010741,-0.0
 0005522,-0.00020078,0.00008216,-0.00005366,-0.00002338,0.00001412,-0.0
 0013998,-0.00051178,0.00017422,-0.00040733,0.00045941,0.00100756,-0.00
 032869,-0.01043752,0.00365181,-0.02365489,-0.01122480,0.05080831,0.000
 74290,0.00057137,-0.00081612,-0.00093948,0.00010412,0.00076865,-0.0005
 9280,-0.00014245,-0.00060939,0.00038752,0.00002289,-0.00012433,-0.0000
 1604,0.00005128,0.00006363,0.00001816,0.00015440,-0.00020053,-0.000011
 94,-0.00011083,0.00015009,-0.00001016,-0.00001717,0.00000497,0.0000154
 5,0.00000474,0.00002534,-0.00000429,0.00000571,-0.00001642,0.00000273,
 -0.00000100,0.00000688,0.00000595,0.00001216,-0.00001382,0.00000287,-0
 .00001350,0.00002500,-0.00003310,-0.00001845,-0.00005575,0.00002855,0.
 00001462,0.00005998,-0.00137190,-0.00045516,0.00080269,-0.00890445,0.0
 0183832,-0.02487894,-0.10036271,0.01842032,-0.24509738,0.00025114,-0.0
 0000051,0.00047575,0.00001410,0.00015969,0.00022658,0.00000896,-0.0001
 7422,0.00010383,0.00072701,0.00073416,0.00044314,0.00013640,-0.0002393
 5,0.00040755,-0.00043658,-0.00043095,0.00135379,0.00449177,0.00021327,
 -0.00228132,-0.00135599,-0.00009484,-0.00293956,0.10720592,-0.02060860
 ,0.27211567\\0.00013029,-0.00001398,-0.00000956,-0.00009391,0.00001069
 ,0.00002270,0.00001849,-0.00001868,-0.00009368,-0.00003926,0.00000974,
 -0.00001612,-0.00001787,-0.00001084,0.00004851,-0.00004429,-0.00003035
 ,-0.00000641,0.00006184,-0.00007724,0.00016543,-0.00002054,0.00004480,
 -0.00002800,0.00006073,-0.00005371,-0.00002804,0.00002122,0.00003608,0
 .00002025,0.00000199,0.00000347,0.00000795,-0.00004806,-0.00001521,-0.
 00005635,0.00004685,0.00013841,-0.00006024,-0.00000464,-0.00000134,-0.
 00002545,-0.00002500,0.00000188,0.00001083,-0.00003510,-0.00004583,0.0
 0000757,0.00001348,0.00002748,0.00000097,0.00000102,0.00001740,-0.0000
 1793,-0.00000590,0.00003529,0.00001221,-0.00001947,0.00000923,-0.00001
 566,-0.00000165,-0.00001911,-0.00002198,-0.00000091,0.00001679,0.00003
 352,-0.00000941,-0.00001245,0.00002066,0.00001053,-0.00000514,0.000020
 61,0.00000821,-0.00001730,-0.00001174,-0.00000079,-0.00001647,-0.00000
 011,-0.00000784,-0.00001361,0.00002006\\\@


 A MAN THINKING OR WORKING IS ALWAYS ALONE, 
 LET HIM BE WHERE HE WILL.

                                    -- THOREAU
 Job cpu time:       0 days  0 hours  3 minutes 58.8 seconds.
 Elapsed time:       0 days  0 hours  4 minutes 21.1 seconds.
 File lengths (MBytes):  RWF=    281 Int=      0 D2E=      0 Chk=     16 Scr=      1
 Normal termination of Gaussian 16 at Fri Feb 23 21:23:00 2024.
