 Entering Gaussian System, Link 0=g16
 Input=/Volumes/SSD-PMU3/b3lyp_6-31gd_freq/NQLWNJXBFXEGNU-SECBINFHSA-N_calculating/gaussianinput0.gjf
 Output=/Volumes/SSD-PMU3/b3lyp_6-31gd_freq/NQLWNJXBFXEGNU-SECBINFHSA-N_calculating/gaussianinput0.log
 Initial command:
 /Applications/g16/l1.exe "/Users/macmini_m1_2022/PycharmProjects/sphere_model/sphere_model_lib/Gau-91016.inp" -scrdir="/Users/macmini_m1_2022/PycharmProjects/sphere_model/sphere_model_lib/"
 Entering Link 1 = /Applications/g16/l1.exe PID=     91017.
  
 Copyright (c) 1988,1990,1992,1993,1995,1998,2003,2009,2016,
            Gaussian, Inc.  All Rights Reserved.
  
 This is part of the Gaussian(R) 16 program.  It is based on
 the Gaussian(R) 09 system (copyright 2009, Gaussian, Inc.),
 the Gaussian(R) 03 system (copyright 2003, Gaussian, Inc.),
 the Gaussian(R) 98 system (copyright 1998, Gaussian, Inc.),
 the Gaussian(R) 94 system (copyright 1995, Gaussian, Inc.),
 the Gaussian 92(TM) system (copyright 1992, Gaussian, Inc.),
 the Gaussian 90(TM) system (copyright 1990, Gaussian, Inc.),
 the Gaussian 88(TM) system (copyright 1988, Gaussian, Inc.),
 the Gaussian 86(TM) system (copyright 1986, Carnegie Mellon
 University), and the Gaussian 82(TM) system (copyright 1983,
 Carnegie Mellon University). Gaussian is a federally registered
 trademark of Gaussian, Inc.
  
 This software contains proprietary and confidential information,
 including trade secrets, belonging to Gaussian, Inc.
  
 This software is provided under written license and may be
 used, copied, transmitted, or stored only in accord with that
 written license.
  
 The following legend is applicable only to US Government
 contracts under FAR:
  
                    RESTRICTED RIGHTS LEGEND
  
 Use, reproduction and disclosure by the US Government is
 subject to restrictions as set forth in subparagraphs (a)
 and (c) of the Commercial Computer Software - Restricted
 Rights clause in FAR 52.227-19.
  
 Gaussian, Inc.
 340 Quinnipiac St., Bldg. 40, Wallingford CT 06492
  
  
 ---------------------------------------------------------------
 Warning -- This program may not be used in any manner that
 competes with the business of Gaussian, Inc. or will provide
 assistance to any competitor of Gaussian, Inc.  The licensee
 of this program is prohibited from giving any competitor of
 Gaussian, Inc. access to this program.  By using this program,
 the user acknowledges that Gaussian, Inc. is engaged in the
 business of creating and licensing software in the field of
 computational chemistry and represents and warrants to the
 licensee that it is not a competitor of Gaussian, Inc. and that
 it will not use this program in any manner prohibited above.
 ---------------------------------------------------------------
  

 Cite this work as:
 Gaussian 16, Revision A.03,
 M. J. Frisch, G. W. Trucks, H. B. Schlegel, G. E. Scuseria, 
 M. A. Robb, J. R. Cheeseman, G. Scalmani, V. Barone, 
 G. A. Petersson, H. Nakatsuji, X. Li, M. Caricato, A. V. Marenich, 
 J. Bloino, B. G. Janesko, R. Gomperts, B. Mennucci, H. P. Hratchian, 
 J. V. Ortiz, A. F. Izmaylov, J. L. Sonnenberg, D. Williams-Young, 
 F. Ding, F. Lipparini, F. Egidi, J. Goings, B. Peng, A. Petrone, 
 T. Henderson, D. Ranasinghe, V. G. Zakrzewski, J. Gao, N. Rega, 
 G. Zheng, W. Liang, M. Hada, M. Ehara, K. Toyota, R. Fukuda, 
 J. Hasegawa, M. Ishida, T. Nakajima, Y. Honda, O. Kitao, H. Nakai, 
 T. Vreven, K. Throssell, J. A. Montgomery, Jr., J. E. Peralta, 
 F. Ogliaro, M. J. Bearpark, J. J. Heyd, E. N. Brothers, K. N. Kudin, 
 V. N. Staroverov, T. A. Keith, R. Kobayashi, J. Normand, 
 K. Raghavachari, A. P. Rendell, J. C. Burant, S. S. Iyengar, 
 J. Tomasi, M. Cossi, J. M. Millam, M. Klene, C. Adamo, R. Cammi, 
 J. W. Ochterski, R. L. Martin, K. Morokuma, O. Farkas, 
 J. B. Foresman, and D. J. Fox, Gaussian, Inc., Wallingford CT, 2016.
 
 ******************************************
 Gaussian 16:  EM64M-G16RevA.03 25-Dec-2016
                24-Feb-2024 
 ******************************************
 %nprocshared=10
 Will use up to   10 processors via shared memory.
 %mem=12GB
 %chk= 0.chk
 ---------------------
 # freq b3lyp/6-31g(d)
 ---------------------
 1/10=4,30=1,38=1/1,3;
 2/12=2,17=6,18=5,40=1/2;
 3/5=1,6=6,7=1,11=2,25=1,30=1,71=2,74=-5,140=1/1,2,3;
 4//1;
 5/5=2,38=5,98=1/2;
 8/6=4,10=90,11=11/1;
 11/6=1,8=1,9=11,15=111,16=1/1,2,10;
 10/6=1/2;
 6/7=2,8=2,9=2,10=2,28=1/1;
 7/8=1,10=1,25=1/1,2,3,16;
 1/10=4,30=1/3;
 99//99;
 ---------
 good luck
 ---------
 Symbolic Z-matrix:
 Charge =  0 Multiplicity = 1
 O                     1.21897   0.        0. 
 C                     0.        0.        0. 
 C                    -0.76628  -1.31785  -0.00657 
 C                    -1.66322  -1.51864  -1.25716 
 C                    -2.9675   -0.75167  -1.22702 
 C                    -4.18128  -1.44911  -1.20216 
 C                    -5.4053   -0.78088  -1.16246 
 C                    -5.42602   0.61232  -1.14427 
 C                    -4.22266   1.31785  -1.1663 
 C                    -2.98738   0.65924  -1.20888 
 C                    -1.70683   1.46704  -1.24013 
 C                    -0.76786   1.32402  -0.00657 
 C                    -1.50218   1.5625    1.32553 
 H                    -0.01335  -2.11      0.04118 
 H                    -1.39153  -1.39047   0.89324 
 H                    -1.88502  -2.58802  -1.34062 
 H                    -1.08163  -1.25962  -2.1536 
 H                    -4.16425  -2.53677  -1.2175 
 H                    -6.33313  -1.34639  -1.14677 
 H                    -6.37034   1.1492   -1.11413 
 H                    -4.23902   2.40549  -1.1554 
 H                    -1.96688   2.5287   -1.32553 
 H                    -1.12753   1.22508  -2.14292 
 H                     0.01361   2.08529  -0.10992 
 H                    -1.96282   2.55734   1.32811 
 H                    -2.29888   0.83105   1.49293 
 H                    -0.80466   1.51351   2.16888 
 

 GradGradGradGradGradGradGradGradGradGradGradGradGradGradGradGradGradGrad
 Berny optimization.
 Initialization pass.
 Trust Radius=3.00D-01 FncErr=1.00D-07 GrdErr=1.00D-07 EigMax=2.50D+02 EigMin=1.00D-04
 Number of steps in this run=      2 maximum allowed number of steps=      2.
 GradGradGradGradGradGradGradGradGradGradGradGradGradGradGradGradGradGrad

                          Input orientation:                          
 ---------------------------------------------------------------------
 Center     Atomic      Atomic             Coordinates (Angstroms)
 Number     Number       Type             X           Y           Z
 ---------------------------------------------------------------------
      1          8           0        1.218972    0.000000    0.000000
      2          6           0        0.000000    0.000000    0.000000
      3          6           0       -0.766276   -1.317847   -0.006574
      4          6           0       -1.663215   -1.518635   -1.257161
      5          6           0       -2.967496   -0.751673   -1.227017
      6          6           0       -4.181277   -1.449108   -1.202160
      7          6           0       -5.405302   -0.780882   -1.162463
      8          6           0       -5.426015    0.612322   -1.144270
      9          6           0       -4.222659    1.317848   -1.166299
     10          6           0       -2.987379    0.659237   -1.208883
     11          6           0       -1.706829    1.467036   -1.240132
     12          6           0       -0.767861    1.324022   -0.006574
     13          6           0       -1.502181    1.562498    1.325529
     14          1           0       -0.013352   -2.109996    0.041178
     15          1           0       -1.391526   -1.390474    0.893236
     16          1           0       -1.885023   -2.588018   -1.340622
     17          1           0       -1.081633   -1.259624   -2.153602
     18          1           0       -4.164251   -2.536767   -1.217498
     19          1           0       -6.333130   -1.346392   -1.146769
     20          1           0       -6.370342    1.149199   -1.114125
     21          1           0       -4.239016    2.405487   -1.155397
     22          1           0       -1.966875    2.528700   -1.325532
     23          1           0       -1.127532    1.225081   -2.142924
     24          1           0        0.013612    2.085289   -0.109920
     25          1           0       -1.962823    2.557338    1.328108
     26          1           0       -2.298882    0.831048    1.492925
     27          1           0       -0.804663    1.513514    2.168884
 ---------------------------------------------------------------------
                    Distance matrix (angstroms):
                    1          2          3          4          5
     1  O    0.000000
     2  C    1.218972   0.000000
     3  C    2.382850   1.524448   0.000000
     4  C    3.491949   2.579339   1.552026   0.000000
     5  C    4.426861   3.297971   2.579807   1.513370   0.000000
     6  C    5.719073   4.585649   3.620620   2.519622   1.400106
     7  C    6.770680   5.583761   4.810922   3.815293   2.438835
     8  C    6.770535   5.579062   5.170403   4.325782   2.812765
     9  C    5.719119   4.574694   4.498715   3.821602   2.421165
    10  C    4.425989   3.289441   3.207445   2.549288   1.411167
    11  C    3.500062   2.569706   3.187770   2.986038   2.551886
    12  C    2.387589   1.530584   2.641869   3.232078   3.261347
    13  C    3.406332   2.540664   3.257674   4.023630   3.744066
    14  H    2.443850   2.110440   1.093926   2.181156   3.490032
    15  H    3.089658   2.160471   1.098121   2.171278   2.717944
    16  H    4.257921   3.471083   2.155136   1.095329   2.134670
    17  H    3.393735   2.719298   2.170845   1.099514   2.161725
    18  H    6.074255   5.025781   3.807668   2.700620   2.149157
    19  H    7.756423   6.575438   5.682493   4.674394   3.418717
    20  H    7.756263   6.568348   6.222422   5.412471   3.899413
    21  H    6.075438   5.009048   5.219476   4.695087   3.404343
    22  H    4.277964   3.466981   4.239931   4.059286   3.431005
    23  H    3.405735   2.713720   3.340805   2.932492   2.851650
    24  H    2.411100   2.088228   3.492884   4.137170   4.264184
    25  H    4.292746   3.486621   4.269679   4.836004   4.299719
    26  H    3.910852   2.864319   3.035643   3.672609   3.217163
    27  H    3.330147   2.764465   3.570812   4.654978   4.619639
                    6          7          8          9         10
     6  C    0.000000
     7  C    1.395113   0.000000
     8  C    2.408779   1.393477   0.000000
     9  C    2.767498   2.409010   1.395105   0.000000
    10  C    2.422923   2.814685   2.439943   1.400535   0.000000
    11  C    3.824687   4.328726   3.817338   2.521331   1.514372
    12  C    4.557531   5.222314   4.847604   3.644260   2.610315
    13  C    4.757787   5.188052   4.732781   3.697305   3.073262
    14  H    4.399348   5.682290   6.173591   5.561149   4.251604
    15  H    3.489532   4.550593   4.943655   4.426286   3.341701
    16  H    2.566918   3.961041   4.776961   4.555296   3.431794
    17  H    3.247913   4.461576   4.837002   4.181408   2.864680
    18  H    1.087900   2.150899   3.393254   3.855397   3.405810
    19  H    2.155015   1.086698   2.158570   3.398918   3.901340
    20  H    3.398670   2.158437   1.086692   2.154926   3.419573
    21  H    3.855311   3.393114   2.150472   1.087817   2.149150
    22  H    4.554312   4.775218   3.958663   2.565166   2.133056
    23  H    4.166735   4.825402   4.455305   3.246877   2.156767
    24  H    5.593035   6.219921   5.729664   4.432933   3.499613
    25  H    5.232151   5.403454   4.678615   3.586818   3.329989
    26  H    4.000751   4.393091   4.096535   3.318036   2.793441
    27  H    5.616279   6.126011   5.757259   4.779584   4.111368
                   11         12         13         14         15
    11  C    0.000000
    12  C    1.556849   0.000000
    13  C    2.575580   1.539674   0.000000
    14  H    4.159901   3.516254   4.165739   0.000000
    15  H    3.579949   2.926962   2.986497   1.772873   0.000000
    16  H    4.060211   4.281564   4.947900   2.375085   2.582203
    17  H    2.942783   3.373931   4.499509   2.584844   3.065351
    18  H    4.697858   5.282754   5.509771   4.358482   3.668404
    19  H    5.415418   6.277211   6.157269   6.475639   5.346308
    20  H    4.676029   5.713583   5.460927   7.236601   5.938691
    21  H    2.701822   3.812909   3.788917   6.299017   5.168599
    22  H    1.096379   2.151403   2.859652   5.215520   4.540251
    23  H    1.099618   2.168673   3.504908   4.139376   4.016104
    24  H    2.149310   1.095859   2.152081   4.198092   3.880936
    25  H    2.801812   2.174943   1.096314   5.219256   4.012569
    26  H    2.867858   2.198987   1.094428   3.997619   2.473476
    27  H    3.526677   2.184005   1.095527   4.275878   3.225652
                   16         17         18         19         20
    16  H    0.000000
    17  H    1.752428   0.000000
    18  H    2.283126   3.465533   0.000000
    19  H    4.622215   5.347846   2.475082   0.000000
    20  H    5.842617   5.903675   4.296960   2.496082   0.000000
    21  H    5.523648   4.939486   4.943210   4.296741   2.474371
    22  H    5.117395   3.977531   5.522598   5.840589   4.619333
    23  H    3.969535   2.485152   4.922355   5.890929   5.343336
    24  H    5.192229   4.069968   6.328086   7.289213   6.529897
    25  H    5.796797   5.240992   6.105432   6.361109   5.231977
    26  H    4.459852   4.376044   4.708309   5.290027   4.845071
    27  H    5.505123   5.143043   6.257730   7.052416   6.472067
                   21         22         23         24         25
    21  H    0.000000
    22  H    2.281831   0.000000
    23  H    3.471297   1.752726   0.000000
    24  H    4.390945   2.365725   2.485010   0.000000
    25  H    3.372226   2.653798   3.810601   2.489387   0.000000
    26  H    3.640960   3.306955   3.840146   3.080562   1.766402
    27  H    4.862226   3.819985   4.333489   2.487860   1.771386
                   26         27
    26  H    0.000000
    27  H    1.776336   0.000000
 Stoichiometry    C12H14O
 Framework group  C1[X(C12H14O)]
 Deg. of freedom    75
 Full point group                 C1      NOp   1
 Largest Abelian subgroup         C1      NOp   1
 Largest concise Abelian subgroup C1      NOp   1
                         Standard orientation:                         
 ---------------------------------------------------------------------
 Center     Atomic      Atomic             Coordinates (Angstroms)
 Number     Number       Type             X           Y           Z
 ---------------------------------------------------------------------
      1          8           0       -3.503765    0.447114   -0.249537
      2          6           0       -2.331218    0.283550    0.040761
      3          6           0       -1.490680    1.459224    0.525767
      4          6           0       -0.284466    1.792267   -0.392337
      5          6           0        0.903036    0.867750   -0.232975
      6          6           0        2.117905    1.375627    0.242894
      7          6           0        3.233324    0.555588    0.415277
      8          6           0        3.140938   -0.801118    0.110991
      9          6           0        1.934731   -1.318820   -0.361625
     10          6           0        0.808501   -0.505992   -0.541662
     11          6           0       -0.477437   -1.110541   -1.065311
     12          6           0       -1.693076   -1.101240   -0.092729
     13          6           0       -1.354442   -1.706562    1.281865
     14          1           0       -2.166306    2.318046    0.577032
     15          1           0       -1.119590    1.259493    1.539804
     16          1           0        0.033323    2.816122   -0.167671
     17          1           0       -0.628821    1.804816   -1.436460
     18          1           0        2.189504    2.435143    0.479173
     19          1           0        4.165350    0.975882    0.783506
     20          1           0        3.999955   -1.454359    0.238530
     21          1           0        1.863654   -2.377309   -0.602240
     22          1           0       -0.286849   -2.156625   -1.332576
     23          1           0       -0.779260   -0.611495   -1.997522
     24          1           0       -2.476447   -1.712741   -0.554577
     25          1           0       -0.988810   -2.733010    1.160950
     26          1           0       -0.575520   -1.139255    1.800725
     27          1           0       -2.242763   -1.740030    1.922133
 ---------------------------------------------------------------------
 Rotational constants (GHZ):           1.5725244           0.6023374           0.4941357
 Standard basis: 6-31G(d) (6D, 7F)
 There are   223 symmetry adapted cartesian basis functions of A   symmetry.
 There are   223 symmetry adapted basis functions of A   symmetry.
   223 basis functions,   420 primitive gaussians,   223 cartesian basis functions
    47 alpha electrons       47 beta electrons
       nuclear repulsion energy       778.7666781930 Hartrees.
 NAtoms=   27 NActive=   27 NUniq=   27 SFac= 1.00D+00 NAtFMM=   60 NAOKFM=F Big=F
 Integral buffers will be    131072 words long.
 Raffenetti 2 integral format.
 Two-electron integral symmetry is turned on.
 One-electron integrals computed using PRISM.
 NBasis=   223 RedAO= T EigKep=  4.07D-04  NBF=   223
 NBsUse=   223 1.00D-06 EigRej= -1.00D+00 NBFU=   223
 ExpMin= 1.61D-01 ExpMax= 5.48D+03 ExpMxC= 8.25D+02 IAcc=3 IRadAn=         5 AccDes= 0.00D+00
 Harris functional with IExCor=  402 and IRadAn=       5 diagonalized for initial guess.
 HarFok:  IExCor=  402 AccDes= 0.00D+00 IRadAn=         5 IDoV= 1 UseB2=F ITyADJ=14
 ICtDFT=  3500011 ScaDFX=  1.000000  1.000000  1.000000  1.000000
 FoFCou: FMM=F IPFlag=           0 FMFlag=      100000 FMFlg1=           0
         NFxFlg=           0 DoJE=T BraDBF=F KetDBF=T FulRan=T
         wScrn=  0.000000 ICntrl=       500 IOpCl=  0 I1Cent=   200000004 NGrid=           0
         NMat0=    1 NMatS0=      1 NMatT0=    0 NMatD0=    1 NMtDS0=    0 NMtDT0=    0
 Petite list used in FoFCou.
 Requested convergence on RMS density matrix=1.00D-08 within 128 cycles.
 Requested convergence on MAX density matrix=1.00D-06.
 Requested convergence on             energy=1.00D-06.
 No special actions if energy rises.
 Integral accuracy reduced to 1.0D-05 until final iterations.
 Initial convergence to 1.0D-05 achieved.  Increase integral accuracy.
 SCF Done:  E(RB3LYP) =  -540.940859554     A.U. after   15 cycles
            NFock= 15  Conv=0.47D-08     -V/T= 2.0097
 DoSCS=F DFT=T ScalE2(SS,OS)=  1.000000  1.000000
 Range of M.O.s used for correlation:     1   223
 NBasis=   223 NAE=    47 NBE=    47 NFC=     0 NFV=     0
 NROrb=    223 NOA=    47 NOB=    47 NVA=   176 NVB=   176
 Symmetrizing basis deriv contribution to polar:
 IMax=3 JMax=2 DiffMx= 0.00D+00
 G2DrvN: will do    28 centers at a time, making    1 passes.
 Calling FoFCou, ICntrl=  3107 FMM=F I1Cent=   0 AccDes= 0.00D+00.
 End of G2Drv F.D. properties file   721 does not exist.
 End of G2Drv F.D. properties file   722 does not exist.
 End of G2Drv F.D. properties file   788 does not exist.
          IDoAtm=111111111111111111111111111
          Differentiating once with respect to electric field.
                with respect to dipole field.
          Differentiating once with respect to nuclear coordinates.
 Keep R1 ints in memory in canonical form, NReq=322414271.
          There are    84 degrees of freedom in the 1st order CPHF.  IDoFFX=6 NUNeed=     3.
     81 vectors produced by pass  0 Test12= 9.85D-15 1.19D-09 XBig12= 1.51D+02 6.00D+00.
 AX will form    81 AO Fock derivatives at one time.
     81 vectors produced by pass  1 Test12= 9.85D-15 1.19D-09 XBig12= 2.26D+01 1.05D+00.
     81 vectors produced by pass  2 Test12= 9.85D-15 1.19D-09 XBig12= 1.87D-01 7.06D-02.
     81 vectors produced by pass  3 Test12= 9.85D-15 1.19D-09 XBig12= 5.93D-04 2.20D-03.
     81 vectors produced by pass  4 Test12= 9.85D-15 1.19D-09 XBig12= 6.50D-07 8.05D-05.
     49 vectors produced by pass  5 Test12= 9.85D-15 1.19D-09 XBig12= 4.75D-10 1.54D-06.
      4 vectors produced by pass  6 Test12= 9.85D-15 1.19D-09 XBig12= 3.41D-13 4.08D-08.
      1 vectors produced by pass  7 Test12= 9.85D-15 1.19D-09 XBig12= 2.54D-16 1.75D-09.
 InvSVY:  IOpt=1 It=  1 EMax= 5.36D-15
 Solved reduced A of dimension   459 with    84 vectors.
 Isotropic polarizability for W=    0.000000      118.87 Bohr**3.
 End of Minotr F.D. properties file   721 does not exist.
 End of Minotr F.D. properties file   722 does not exist.
 End of Minotr F.D. properties file   788 does not exist.

 **********************************************************************

            Population analysis using the SCF density.

 **********************************************************************

 Orbital symmetries:
       Occupied  (A) (A) (A) (A) (A) (A) (A) (A) (A) (A) (A) (A)
                 (A) (A) (A) (A) (A) (A) (A) (A) (A) (A) (A) (A)
                 (A) (A) (A) (A) (A) (A) (A) (A) (A) (A) (A) (A)
                 (A) (A) (A) (A) (A) (A) (A) (A) (A) (A) (A)
       Virtual   (A) (A) (A) (A) (A) (A) (A) (A) (A) (A) (A) (A)
                 (A) (A) (A) (A) (A) (A) (A) (A) (A) (A) (A) (A)
                 (A) (A) (A) (A) (A) (A) (A) (A) (A) (A) (A) (A)
                 (A) (A) (A) (A) (A) (A) (A) (A) (A) (A) (A) (A)
                 (A) (A) (A) (A) (A) (A) (A) (A) (A) (A) (A) (A)
                 (A) (A) (A) (A) (A) (A) (A) (A) (A) (A) (A) (A)
                 (A) (A) (A) (A) (A) (A) (A) (A) (A) (A) (A) (A)
                 (A) (A) (A) (A) (A) (A) (A) (A) (A) (A) (A) (A)
                 (A) (A) (A) (A) (A) (A) (A) (A) (A) (A) (A) (A)
                 (A) (A) (A) (A) (A) (A) (A) (A) (A) (A) (A) (A)
                 (A) (A) (A) (A) (A) (A) (A) (A) (A) (A) (A) (A)
                 (A) (A) (A) (A) (A) (A) (A) (A) (A) (A) (A) (A)
                 (A) (A) (A) (A) (A) (A) (A) (A) (A) (A) (A) (A)
                 (A) (A) (A) (A) (A) (A) (A) (A) (A) (A) (A) (A)
                 (A) (A) (A) (A) (A) (A) (A) (A)
 The electronic state is 1-A.
 Alpha  occ. eigenvalues --  -19.13334 -10.26792 -10.20074 -10.19875 -10.19845
 Alpha  occ. eigenvalues --  -10.19798 -10.19777 -10.19328 -10.19120 -10.19082
 Alpha  occ. eigenvalues --  -10.19047 -10.19024 -10.18466  -1.03232  -0.86529
 Alpha  occ. eigenvalues --   -0.81339  -0.79039  -0.75403  -0.73727  -0.68925
 Alpha  occ. eigenvalues --   -0.65343  -0.63002  -0.60296  -0.56577  -0.52730
 Alpha  occ. eigenvalues --   -0.50177  -0.47427  -0.46645  -0.46154  -0.45729
 Alpha  occ. eigenvalues --   -0.42799  -0.42336  -0.42028  -0.41567  -0.39602
 Alpha  occ. eigenvalues --   -0.38932  -0.38045  -0.36256  -0.35795  -0.35606
 Alpha  occ. eigenvalues --   -0.34927  -0.33767  -0.33245  -0.32269  -0.24973
 Alpha  occ. eigenvalues --   -0.24133  -0.23488
 Alpha virt. eigenvalues --   -0.01310  -0.00552  -0.00124   0.08236   0.09692
 Alpha virt. eigenvalues --    0.10832   0.10997   0.12653   0.14126   0.15211
 Alpha virt. eigenvalues --    0.15650   0.16266   0.17163   0.17386   0.18209
 Alpha virt. eigenvalues --    0.18506   0.19891   0.20596   0.21435   0.22425
 Alpha virt. eigenvalues --    0.22796   0.25632   0.26283   0.27912   0.31425
 Alpha virt. eigenvalues --    0.33036   0.33892   0.34673   0.36651   0.36720
 Alpha virt. eigenvalues --    0.46731   0.48896   0.50714   0.51519   0.52399
 Alpha virt. eigenvalues --    0.53707   0.54325   0.55362   0.55801   0.57454
 Alpha virt. eigenvalues --    0.58192   0.59858   0.60475   0.61318   0.61438
 Alpha virt. eigenvalues --    0.62872   0.64067   0.65352   0.65979   0.66172
 Alpha virt. eigenvalues --    0.69073   0.69644   0.70402   0.73715   0.74614
 Alpha virt. eigenvalues --    0.75628   0.76351   0.80563   0.81761   0.82493
 Alpha virt. eigenvalues --    0.82713   0.83718   0.84415   0.84935   0.86599
 Alpha virt. eigenvalues --    0.86896   0.87817   0.89754   0.89964   0.91520
 Alpha virt. eigenvalues --    0.91932   0.93519   0.93694   0.94411   0.96996
 Alpha virt. eigenvalues --    0.97516   0.99682   1.00818   1.02547   1.04430
 Alpha virt. eigenvalues --    1.05972   1.08151   1.11956   1.12635   1.14628
 Alpha virt. eigenvalues --    1.18194   1.20962   1.23799   1.25838   1.33061
 Alpha virt. eigenvalues --    1.34274   1.35864   1.40261   1.41708   1.42890
 Alpha virt. eigenvalues --    1.44747   1.46356   1.48740   1.49824   1.50907
 Alpha virt. eigenvalues --    1.55513   1.56528   1.62653   1.65749   1.68582
 Alpha virt. eigenvalues --    1.73580   1.76925   1.77485   1.78088   1.81417
 Alpha virt. eigenvalues --    1.82691   1.83929   1.86275   1.87490   1.87921
 Alpha virt. eigenvalues --    1.91002   1.92284   1.93156   1.94954   1.96322
 Alpha virt. eigenvalues --    1.97436   1.98821   2.01557   2.04260   2.04869
 Alpha virt. eigenvalues --    2.05861   2.08730   2.10895   2.14913   2.18455
 Alpha virt. eigenvalues --    2.19405   2.21108   2.22836   2.25803   2.27650
 Alpha virt. eigenvalues --    2.28414   2.30292   2.32168   2.34212   2.36486
 Alpha virt. eigenvalues --    2.38594   2.40092   2.44816   2.45753   2.46170
 Alpha virt. eigenvalues --    2.48114   2.59341   2.61336   2.62644   2.65110
 Alpha virt. eigenvalues --    2.66044   2.68178   2.71515   2.74604   2.75113
 Alpha virt. eigenvalues --    2.77430   2.78740   2.80078   2.96442   2.98003
 Alpha virt. eigenvalues --    3.00112   3.09248   3.40892   4.02617   4.08292
 Alpha virt. eigenvalues --    4.09732   4.12622   4.17548   4.23109   4.31915
 Alpha virt. eigenvalues --    4.35726   4.42067   4.43480   4.60822   4.66976
 Alpha virt. eigenvalues --    4.74105
          Condensed to atoms (all electrons):
               1          2          3          4          5          6
     1  O    8.016171   0.574238  -0.083453   0.000004  -0.000027  -0.000000
     2  C    0.574238   4.498660   0.325159  -0.023692  -0.004326  -0.000032
     3  C   -0.083453   0.325159   5.329175   0.316931  -0.037507  -0.001399
     4  C    0.000004  -0.023692   0.316931   5.203920   0.349657  -0.060264
     5  C   -0.000027  -0.004326  -0.037507   0.349657   4.752657   0.527465
     6  C   -0.000000  -0.000032  -0.001399  -0.060264   0.527465   4.992743
     7  C   -0.000000   0.000002  -0.000163   0.007447  -0.024753   0.516759
     8  C   -0.000000   0.000004   0.000026  -0.000045  -0.040578  -0.027607
     9  C   -0.000000  -0.000014  -0.000027   0.008797  -0.020094  -0.060622
    10  C   -0.000006  -0.006827   0.002508  -0.070404   0.528395  -0.017896
    11  C    0.001022  -0.027045   0.000320  -0.012504  -0.069706   0.008729
    12  C   -0.078026   0.336606  -0.124650   0.002109   0.002656   0.000041
    13  C    0.000668  -0.034845   0.001906  -0.000669  -0.002362  -0.000108
    14  H    0.005950  -0.024411   0.336417  -0.024387   0.004180  -0.000039
    15  H    0.002218  -0.025106   0.344103  -0.036966  -0.001894   0.001903
    16  H   -0.000086   0.002816  -0.028281   0.361405  -0.032800  -0.005452
    17  H    0.001006  -0.003276  -0.049370   0.359617  -0.028384   0.001878
    18  H    0.000000   0.000006   0.000268  -0.011125  -0.039506   0.350385
    19  H    0.000000   0.000000   0.000001  -0.000181   0.003621  -0.038696
    20  H    0.000000   0.000000  -0.000000   0.000009   0.001008   0.004382
    21  H    0.000000   0.000007  -0.000002  -0.000179   0.005234   0.000689
    22  H   -0.000106   0.003558  -0.000214   0.000032   0.005170  -0.000160
    23  H    0.000863  -0.002922   0.000008   0.001405  -0.007107  -0.000113
    24  H    0.006409  -0.034610   0.007745  -0.000195  -0.000071   0.000002
    25  H   -0.000089   0.003422  -0.000205  -0.000009   0.000174   0.000001
    26  H   -0.000047  -0.006322   0.002492  -0.000244   0.001722   0.000021
    27  H    0.001092  -0.000214   0.000512   0.000023   0.000014  -0.000001
               7          8          9         10         11         12
     1  O   -0.000000  -0.000000  -0.000000  -0.000006   0.001022  -0.078026
     2  C    0.000002   0.000004  -0.000014  -0.006827  -0.027045   0.336606
     3  C   -0.000163   0.000026  -0.000027   0.002508   0.000320  -0.124650
     4  C    0.007447  -0.000045   0.008797  -0.070404  -0.012504   0.002109
     5  C   -0.024753  -0.040578  -0.020094   0.528395  -0.069706   0.002656
     6  C    0.516759  -0.027607  -0.060622  -0.017896   0.008729   0.000041
     7  C    4.872990   0.549585  -0.027272  -0.040944  -0.000069   0.000023
     8  C    0.549585   4.872797   0.516229  -0.024341   0.007333  -0.000127
     9  C   -0.027272   0.516229   4.997878   0.523669  -0.058771  -0.002094
    10  C   -0.040944  -0.024341   0.523669   4.749956   0.345994  -0.036581
    11  C   -0.000069   0.007333  -0.058771   0.345994   5.253315   0.312489
    12  C    0.000023  -0.000127  -0.002094  -0.036581   0.312489   5.210265
    13  C    0.000007  -0.000020   0.002037  -0.006059  -0.045551   0.338045
    14  H    0.000002  -0.000000   0.000003  -0.000038  -0.000173   0.006810
    15  H   -0.000068  -0.000011  -0.000112  -0.000666  -0.000534   0.000992
    16  H    0.000286  -0.000002  -0.000164   0.004878   0.000053  -0.000196
    17  H   -0.000228   0.000032  -0.000116  -0.006456   0.001554   0.000206
    18  H   -0.045636   0.004610   0.000677   0.005220  -0.000174  -0.000001
    19  H    0.355981  -0.042071   0.004362   0.001014   0.000009  -0.000000
    20  H   -0.042152   0.356055  -0.038675   0.003611  -0.000178   0.000001
    21  H    0.004612  -0.045621   0.350223  -0.039607  -0.010946   0.000183
    22  H   -0.000004   0.000312  -0.006316  -0.033603   0.355187  -0.026244
    23  H    0.000030  -0.000224   0.002155  -0.029324   0.358453  -0.045487
    24  H    0.000000   0.000002  -0.000078   0.004887  -0.032639   0.342621
    25  H   -0.000002   0.000013   0.000303  -0.000504  -0.003471  -0.027911
    26  H   -0.000015  -0.000053   0.000773   0.007835  -0.008474  -0.030731
    27  H   -0.000000   0.000000   0.000010   0.000230   0.005121  -0.034280
              13         14         15         16         17         18
     1  O    0.000668   0.005950   0.002218  -0.000086   0.001006   0.000000
     2  C   -0.034845  -0.024411  -0.025106   0.002816  -0.003276   0.000006
     3  C    0.001906   0.336417   0.344103  -0.028281  -0.049370   0.000268
     4  C   -0.000669  -0.024387  -0.036966   0.361405   0.359617  -0.011125
     5  C   -0.002362   0.004180  -0.001894  -0.032800  -0.028384  -0.039506
     6  C   -0.000108  -0.000039   0.001903  -0.005452   0.001878   0.350385
     7  C    0.000007   0.000002  -0.000068   0.000286  -0.000228  -0.045636
     8  C   -0.000020  -0.000000  -0.000011  -0.000002   0.000032   0.004610
     9  C    0.002037   0.000003  -0.000112  -0.000164  -0.000116   0.000677
    10  C   -0.006059  -0.000038  -0.000666   0.004878  -0.006456   0.005220
    11  C   -0.045551  -0.000173  -0.000534   0.000053   0.001554  -0.000174
    12  C    0.338045   0.006810   0.000992  -0.000196   0.000206  -0.000001
    13  C    5.134260  -0.000102   0.001294  -0.000002   0.000019   0.000000
    14  H   -0.000102   0.564174  -0.026904  -0.006618   0.000072  -0.000024
    15  H    0.001294  -0.026904   0.576097  -0.002506   0.005772   0.000120
    16  H   -0.000002  -0.006618  -0.002506   0.577714  -0.033504   0.008428
    17  H    0.000019   0.000072   0.005772  -0.033504   0.587939   0.000169
    18  H    0.000000  -0.000024   0.000120   0.008428   0.000169   0.607379
    19  H   -0.000000  -0.000000   0.000001  -0.000014   0.000003  -0.005331
    20  H    0.000000   0.000000  -0.000000  -0.000000  -0.000000  -0.000195
    21  H   -0.000017  -0.000000   0.000001   0.000003  -0.000000   0.000020
    22  H   -0.005445   0.000006   0.000003  -0.000003   0.000035   0.000003
    23  H    0.005759  -0.000007   0.000023   0.000021   0.003495  -0.000001
    24  H   -0.036756  -0.000203  -0.000098   0.000007  -0.000041  -0.000000
    25  H    0.369619   0.000004   0.000038   0.000000   0.000003   0.000000
    26  H    0.371753  -0.000034   0.002096   0.000004   0.000014  -0.000001
    27  H    0.371723  -0.000035  -0.000120   0.000000  -0.000002  -0.000000
              19         20         21         22         23         24
     1  O    0.000000   0.000000   0.000000  -0.000106   0.000863   0.006409
     2  C    0.000000   0.000000   0.000007   0.003558  -0.002922  -0.034610
     3  C    0.000001  -0.000000  -0.000002  -0.000214   0.000008   0.007745
     4  C   -0.000181   0.000009  -0.000179   0.000032   0.001405  -0.000195
     5  C    0.003621   0.001008   0.005234   0.005170  -0.007107  -0.000071
     6  C   -0.038696   0.004382   0.000689  -0.000160  -0.000113   0.000002
     7  C    0.355981  -0.042152   0.004612  -0.000004   0.000030   0.000000
     8  C   -0.042071   0.356055  -0.045621   0.000312  -0.000224   0.000002
     9  C    0.004362  -0.038675   0.350223  -0.006316   0.002155  -0.000078
    10  C    0.001014   0.003611  -0.039607  -0.033603  -0.029324   0.004887
    11  C    0.000009  -0.000178  -0.010946   0.355187   0.358453  -0.032639
    12  C   -0.000000   0.000001   0.000183  -0.026244  -0.045487   0.342621
    13  C   -0.000000   0.000000  -0.000017  -0.005445   0.005759  -0.036756
    14  H   -0.000000   0.000000  -0.000000   0.000006  -0.000007  -0.000203
    15  H    0.000001  -0.000000   0.000001   0.000003   0.000023  -0.000098
    16  H   -0.000014  -0.000000   0.000003  -0.000003   0.000021   0.000007
    17  H    0.000003  -0.000000  -0.000000   0.000035   0.003495  -0.000041
    18  H   -0.005331  -0.000195   0.000020   0.000003  -0.000001  -0.000000
    19  H    0.596954  -0.005238  -0.000195  -0.000000  -0.000000   0.000000
    20  H   -0.005238   0.597100  -0.005361  -0.000015   0.000003  -0.000000
    21  H   -0.000195  -0.005361   0.607777   0.008484   0.000143  -0.000023
    22  H   -0.000000  -0.000015   0.008484   0.585940  -0.033158  -0.006771
    23  H   -0.000000   0.000003   0.000143  -0.033158   0.590160  -0.000952
    24  H    0.000000  -0.000000  -0.000023  -0.006771  -0.000952   0.599624
    25  H   -0.000000  -0.000001   0.000248   0.004214  -0.000032  -0.004807
    26  H    0.000000  -0.000003   0.000011  -0.000160   0.000059   0.005096
    27  H   -0.000000   0.000000  -0.000000  -0.000094  -0.000136  -0.002356
              25         26         27
     1  O   -0.000089  -0.000047   0.001092
     2  C    0.003422  -0.006322  -0.000214
     3  C   -0.000205   0.002492   0.000512
     4  C   -0.000009  -0.000244   0.000023
     5  C    0.000174   0.001722   0.000014
     6  C    0.000001   0.000021  -0.000001
     7  C   -0.000002  -0.000015  -0.000000
     8  C    0.000013  -0.000053   0.000000
     9  C    0.000303   0.000773   0.000010
    10  C   -0.000504   0.007835   0.000230
    11  C   -0.003471  -0.008474   0.005121
    12  C   -0.027911  -0.030731  -0.034280
    13  C    0.369619   0.371753   0.371723
    14  H    0.000004  -0.000034  -0.000035
    15  H    0.000038   0.002096  -0.000120
    16  H    0.000000   0.000004   0.000000
    17  H    0.000003   0.000014  -0.000002
    18  H    0.000000  -0.000001  -0.000000
    19  H   -0.000000   0.000000  -0.000000
    20  H   -0.000001  -0.000003   0.000000
    21  H    0.000248   0.000011  -0.000000
    22  H    0.004214  -0.000160  -0.000094
    23  H   -0.000032   0.000059  -0.000136
    24  H   -0.004807   0.005096  -0.002356
    25  H    0.565192  -0.028671  -0.028872
    26  H   -0.028671   0.551841  -0.030190
    27  H   -0.028872  -0.030190   0.558789
 Mulliken charges:
               1
     1  O   -0.447801
     2  C    0.449165
     3  C   -0.342301
     4  C   -0.370493
     5  C    0.127160
     6  C   -0.192609
     7  C   -0.126417
     8  C   -0.126298
     9  C   -0.192761
    10  C    0.135060
    11  C   -0.379344
    12  C   -0.146720
    13  C   -0.465156
    14  H    0.165356
    15  H    0.160322
    16  H    0.154013
    17  H    0.159566
    18  H    0.124709
    19  H    0.129781
    20  H    0.129647
    21  H    0.124317
    22  H    0.149348
    23  H    0.156887
    24  H    0.153208
    25  H    0.151342
    26  H    0.161229
    27  H    0.158787
 Sum of Mulliken charges =  -0.00000
 Mulliken charges with hydrogens summed into heavy atoms:
               1
     1  O   -0.447801
     2  C    0.449165
     3  C   -0.016623
     4  C   -0.056913
     5  C    0.127160
     6  C   -0.067899
     7  C    0.003365
     8  C    0.003350
     9  C   -0.068444
    10  C    0.135060
    11  C   -0.073109
    12  C    0.006488
    13  C    0.006202
 APT charges:
               1
     1  O   -0.638604
     2  C    0.681616
     3  C   -0.051675
     4  C    0.153928
     5  C    0.003759
     6  C   -0.033687
     7  C   -0.016138
     8  C   -0.015215
     9  C   -0.038902
    10  C   -0.000184
    11  C    0.130659
    12  C   -0.006986
    13  C    0.058780
    14  H   -0.030120
    15  H    0.001357
    16  H   -0.033644
    17  H   -0.040526
    18  H    0.010793
    19  H    0.011213
    20  H    0.011258
    21  H    0.012042
    22  H   -0.033930
    23  H   -0.046200
    24  H   -0.055005
    25  H   -0.014605
    26  H   -0.005038
    27  H   -0.014946
 Sum of APT charges =   0.00000
 APT charges with hydrogens summed into heavy atoms:
               1
     1  O   -0.638604
     2  C    0.681616
     3  C   -0.080438
     4  C    0.079758
     5  C    0.003759
     6  C   -0.022894
     7  C   -0.004925
     8  C   -0.003957
     9  C   -0.026859
    10  C   -0.000184
    11  C    0.050529
    12  C   -0.061991
    13  C    0.024192
 Electronic spatial extent (au):  <R**2>=           2362.8992
 Charge=             -0.0000 electrons
 Dipole moment (field-independent basis, Debye):
    X=              2.6349    Y=             -0.3938    Z=              0.5583  Tot=              2.7220
 Quadrupole moment (field-independent basis, Debye-Ang):
   XX=            -88.5332   YY=            -70.9063   ZZ=            -77.3712
   XY=              1.9456   XZ=             -0.3764   YZ=              1.4983
 Traceless Quadrupole moment (field-independent basis, Debye-Ang):
   XX=             -9.5963   YY=              8.0306   ZZ=              1.5657
   XY=              1.9456   XZ=             -0.3764   YZ=              1.4983
 Octapole moment (field-independent basis, Debye-Ang**2):
  XXX=             65.1158  YYY=              2.4834  ZZZ=             -1.6316  XYY=             -1.2733
  XXY=            -10.2908  XXZ=             15.3032  XZZ=            -13.2166  YZZ=              1.0856
  YYZ=             -0.4409  XYZ=              1.9186
 Hexadecapole moment (field-independent basis, Debye-Ang**3):
 XXXX=          -2195.6546 YYYY=           -774.9424 ZZZZ=           -293.0578 XXXY=             23.5240
 XXXZ=              7.6638 YYYX=             -8.3063 YYYZ=              9.8176 ZZZX=              3.5743
 ZZZY=             -1.2781 XXYY=           -454.2963 XXZZ=           -397.2379 YYZZ=           -187.3283
 XXYZ=              9.2377 YYXZ=              3.0643 ZZXY=             -0.3250
 N-N= 7.787666781930D+02 E-N=-2.812120507850D+03  KE= 5.357348781458D+02
  Exact polarizability: 153.301  -3.449 125.530  12.926   6.944  77.769
 Approx polarizability: 225.694  -8.193 200.373  29.741  15.414 121.713
 Calling FoFJK, ICntrl=    100127 FMM=F ISym2X=0 I1Cent= 0 IOpClX= 0 NMat=1 NMatS=1 NMatT=0.
 Full mass-weighted force constant matrix:
 Low frequencies ---   -9.6429   -4.1388   -0.0006   -0.0004   -0.0003    1.6974
 Low frequencies ---   49.3352   81.7132  118.9563
 Diagonal vibrational polarizability:
        4.5387842       7.3466278      39.0125312
 Harmonic frequencies (cm**-1), IR intensities (KM/Mole), Raman scattering
 activities (A**4/AMU), depolarization ratios for plane and unpolarized
 incident light, reduced masses (AMU), force constants (mDyne/A),
 and normal coordinates:
                      1                      2                      3
                      A                      A                      A
 Frequencies --     49.3281                81.7129               118.9561
 Red. masses --      6.4474                 3.3249                 3.8381
 Frc consts  --      0.0092                 0.0131                 0.0320
 IR Inten    --      3.1998                 0.3385                 1.4154
  Atom  AN      X      Y      Z        X      Y      Z        X      Y      Z
     1   8    -0.11  -0.07   0.44    -0.01  -0.08  -0.01     0.13   0.09  -0.08
     2   6     0.01   0.01   0.04    -0.01  -0.01  -0.01     0.08  -0.01   0.07
     3   6     0.05   0.07  -0.16    -0.05   0.06  -0.08     0.11  -0.06   0.14
     4   6     0.04   0.00  -0.20    -0.00   0.01  -0.02    -0.05   0.02  -0.05
     5   6     0.04   0.02  -0.09    -0.02  -0.01   0.01    -0.03   0.04  -0.14
     6   6     0.00   0.01  -0.01    -0.05  -0.06   0.13    -0.04   0.04  -0.11
     7   6    -0.03  -0.01   0.12    -0.07  -0.09   0.13    -0.09   0.01   0.05
     8   6    -0.04  -0.02   0.17    -0.05  -0.06  -0.02    -0.13  -0.02   0.17
     9   6    -0.01  -0.01   0.08    -0.03  -0.01  -0.12    -0.10  -0.00   0.08
    10   6     0.03   0.01  -0.05    -0.02   0.01  -0.09    -0.05   0.03  -0.08
    11   6     0.04   0.05  -0.10    -0.03   0.04  -0.06    -0.05   0.02  -0.06
    12   6     0.02   0.03  -0.13     0.06   0.02   0.06     0.02  -0.03   0.04
    13   6    -0.01  -0.07  -0.16     0.25   0.16   0.07     0.16  -0.10  -0.03
    14   1     0.04   0.07  -0.21    -0.07   0.05  -0.19     0.11  -0.08   0.33
    15   1     0.07   0.17  -0.15    -0.11   0.15  -0.03     0.29  -0.17   0.05
    16   1     0.03   0.02  -0.29     0.02   0.01  -0.00    -0.06   0.03  -0.11
    17   1     0.05  -0.09  -0.20     0.04   0.03  -0.04    -0.21  -0.02  -0.00
    18   1     0.01   0.02  -0.05    -0.05  -0.08   0.23    -0.03   0.05  -0.17
    19   1    -0.05  -0.02   0.19    -0.09  -0.13   0.23    -0.10  -0.00   0.09
    20   1    -0.07  -0.04   0.28    -0.06  -0.07  -0.03    -0.17  -0.05   0.31
    21   1    -0.01  -0.02   0.12    -0.02   0.01  -0.21    -0.12  -0.02   0.16
    22   1     0.03   0.05  -0.13    -0.06   0.05  -0.12    -0.05   0.04  -0.11
    23   1     0.07   0.08  -0.10    -0.11   0.07  -0.02    -0.12   0.06  -0.02
    24   1     0.01   0.07  -0.16     0.05  -0.07   0.19    -0.02  -0.00   0.07
    25   1     0.01  -0.05  -0.22     0.34   0.18   0.12     0.15  -0.09  -0.12
    26   1    -0.04  -0.09  -0.09     0.24   0.27  -0.04     0.21  -0.13  -0.08
    27   1    -0.04  -0.12  -0.20     0.31   0.12   0.16     0.23  -0.14   0.06
                      4                      5                      6
                      A                      A                      A
 Frequencies --    169.1956               222.6016               236.6214
 Red. masses --      3.0421                 1.6765                 1.5793
 Frc consts  --      0.0513                 0.0489                 0.0521
 IR Inten    --      0.4395                 0.3668                 0.2098
  Atom  AN      X      Y      Z        X      Y      Z        X      Y      Z
     1   8    -0.06  -0.10  -0.03    -0.04  -0.02   0.04    -0.03   0.05   0.02
     2   6    -0.05  -0.04  -0.04    -0.02  -0.01  -0.04    -0.03   0.01  -0.01
     3   6    -0.08  -0.00  -0.05    -0.01  -0.07   0.06     0.01  -0.05   0.07
     4   6     0.03   0.08   0.11    -0.02  -0.02   0.07    -0.03  -0.07   0.02
     5   6     0.03   0.05   0.05    -0.00  -0.01  -0.01    -0.01  -0.04  -0.00
     6   6     0.11   0.01  -0.10     0.00  -0.00  -0.04    -0.02  -0.01  -0.02
     7   6     0.08  -0.04  -0.13     0.01   0.01  -0.02    -0.00   0.02  -0.01
     8   6    -0.04  -0.08   0.06     0.00  -0.00   0.05     0.02   0.01   0.02
     9   6    -0.10  -0.03   0.14     0.01  -0.01   0.03     0.03  -0.02   0.02
    10   6    -0.03   0.05   0.08     0.02  -0.02  -0.02     0.02  -0.04  -0.00
    11   6    -0.01   0.11  -0.02     0.03  -0.03  -0.05     0.02  -0.02  -0.03
    12   6     0.00  -0.01  -0.01     0.01   0.02  -0.08    -0.01   0.03  -0.06
    13   6     0.10  -0.00  -0.03     0.01   0.15  -0.02     0.02   0.12  -0.03
    14   1    -0.10  -0.01  -0.14     0.02  -0.06   0.16     0.04  -0.03   0.16
    15   1    -0.20   0.03   0.00     0.00  -0.19   0.04     0.05  -0.13   0.04
    16   1     0.02   0.04   0.29    -0.02  -0.03   0.13    -0.03  -0.06  -0.03
    17   1     0.12   0.24   0.08    -0.04   0.05   0.07    -0.08  -0.10   0.03
    18   1     0.20   0.03  -0.19    -0.00   0.00  -0.06    -0.04  -0.00  -0.03
    19   1     0.14  -0.06  -0.26     0.00   0.02  -0.03    -0.01   0.05  -0.03
    20   1    -0.09  -0.13   0.10    -0.01  -0.01   0.10     0.03   0.03   0.04
    21   1    -0.18  -0.04   0.22     0.01  -0.02   0.06     0.06  -0.03   0.03
    22   1    -0.00   0.15  -0.16     0.03  -0.04  -0.01    -0.00  -0.04   0.01
    23   1    -0.00   0.24   0.05     0.06  -0.05  -0.08     0.08  -0.04  -0.06
    24   1     0.04  -0.06  -0.00     0.01  -0.02  -0.04     0.01  -0.01  -0.04
    25   1     0.30   0.08  -0.07    -0.42  -0.02   0.13     0.53   0.30   0.01
    26   1    -0.02   0.13  -0.00     0.33  -0.04  -0.28    -0.34   0.46   0.13
    27   1     0.10  -0.20  -0.05     0.11   0.63   0.15    -0.08  -0.30  -0.19
                      7                      8                      9
                      A                      A                      A
 Frequencies --    259.5675               315.4099               345.7973
 Red. masses --      2.8539                 2.4463                 4.1787
 Frc consts  --      0.1133                 0.1434                 0.2944
 IR Inten    --      0.9833                 0.4861                 1.7850
  Atom  AN      X      Y      Z        X      Y      Z        X      Y      Z
     1   8    -0.02   0.09  -0.02    -0.06   0.01  -0.03     0.13  -0.04   0.06
     2   6    -0.03   0.07   0.03    -0.08  -0.05   0.01     0.15  -0.06  -0.06
     3   6    -0.05   0.09  -0.00     0.04  -0.12  -0.00     0.13  -0.05  -0.04
     4   6    -0.04  -0.10  -0.03    -0.02  -0.12  -0.12     0.02   0.07  -0.08
     5   6    -0.05  -0.09   0.11     0.07   0.03   0.02    -0.06   0.04   0.07
     6   6    -0.06  -0.02   0.05     0.07   0.03   0.05    -0.09  -0.01   0.19
     7   6     0.01   0.04  -0.08     0.05  -0.01   0.02    -0.04   0.00  -0.10
     8   6     0.04   0.03  -0.04     0.02  -0.01  -0.03    -0.07   0.02  -0.15
     9   6     0.02  -0.05   0.10     0.00   0.01  -0.00    -0.16  -0.00   0.16
    10   6    -0.01  -0.08   0.11     0.03   0.04   0.05    -0.10   0.04   0.10
    11   6    -0.00  -0.00   0.00    -0.03   0.19   0.00     0.01  -0.03  -0.05
    12   6    -0.02   0.06  -0.02    -0.04  -0.01   0.03     0.04  -0.08  -0.09
    13   6     0.17  -0.06  -0.12    -0.02   0.02   0.05    -0.02   0.09  -0.01
    14   1    -0.03   0.11  -0.12     0.11  -0.08   0.15     0.05  -0.13   0.11
    15   1    -0.09   0.17   0.03     0.16  -0.22  -0.06     0.25  -0.11  -0.09
    16   1    -0.01  -0.06  -0.23    -0.16  -0.03  -0.35    -0.00   0.09  -0.12
    17   1    -0.03  -0.28  -0.04    -0.05  -0.39  -0.12     0.05   0.00  -0.09
    18   1    -0.10  -0.02   0.03     0.09   0.03   0.05    -0.09  -0.03   0.30
    19   1     0.03   0.10  -0.20     0.07  -0.05   0.02     0.03  -0.00  -0.27
    20   1     0.10   0.09  -0.12     0.03  -0.01  -0.08    -0.02   0.04  -0.37
    21   1     0.05  -0.06   0.13    -0.02   0.01  -0.03    -0.23  -0.01   0.23
    22   1    -0.07  -0.02   0.00    -0.07   0.26  -0.28     0.12  -0.01  -0.07
    23   1     0.11   0.04  -0.01    -0.07   0.44   0.14     0.04  -0.02  -0.05
    24   1    -0.05   0.08   0.00     0.02  -0.07   0.00     0.01  -0.06  -0.05
    25   1     0.00  -0.10  -0.30    -0.09  -0.01   0.09     0.02   0.08   0.18
    26   1     0.38  -0.21  -0.28     0.03  -0.00  -0.01    -0.09   0.19  -0.02
    27   1     0.33   0.01   0.10    -0.00   0.11   0.08    -0.08   0.16  -0.08
                     10                     11                     12
                      A                      A                      A
 Frequencies --    357.6955               400.9562               463.9325
 Red. masses --      3.1432                 2.2460                 3.1969
 Frc consts  --      0.2369                 0.2127                 0.4054
 IR Inten    --      2.9982                 0.4933                 3.1595
  Atom  AN      X      Y      Z        X      Y      Z        X      Y      Z
     1   8    -0.10   0.14   0.03    -0.03  -0.05  -0.02     0.10   0.06   0.04
     2   6    -0.09  -0.03  -0.09    -0.02   0.02   0.01     0.09  -0.06  -0.01
     3   6     0.07  -0.13  -0.11    -0.04   0.02   0.07     0.01  -0.01  -0.04
     4   6     0.09   0.06  -0.01    -0.10   0.01  -0.06     0.01  -0.06   0.03
     5   6     0.05   0.04  -0.03     0.01   0.11   0.02    -0.03  -0.02   0.20
     6   6     0.04   0.02   0.03     0.08   0.01   0.00     0.05   0.07  -0.14
     7   6     0.03   0.01   0.07     0.02  -0.10   0.01    -0.03   0.01   0.05
     8   6     0.01   0.04  -0.03    -0.02  -0.09  -0.03    -0.09   0.01   0.06
     9   6    -0.01   0.06  -0.01    -0.05   0.04  -0.03    -0.01   0.05  -0.16
    10   6    -0.05   0.02   0.04     0.01   0.11   0.04    -0.08  -0.01   0.16
    11   6    -0.06  -0.10   0.09     0.09  -0.06   0.09    -0.02  -0.02  -0.00
    12   6    -0.14  -0.08   0.00     0.03   0.06  -0.03    -0.03  -0.10  -0.07
    13   6     0.11  -0.03  -0.03     0.02   0.01  -0.06     0.00   0.04  -0.03
    14   1     0.11  -0.12   0.09    -0.03   0.02   0.16    -0.09  -0.07  -0.26
    15   1     0.11  -0.31  -0.16     0.04  -0.03   0.03    -0.10   0.20   0.05
    16   1     0.05   0.02   0.23    -0.20   0.10  -0.31    -0.03  -0.01  -0.14
    17   1     0.18   0.26  -0.03    -0.17  -0.28  -0.04     0.07  -0.26   0.00
    18   1     0.03   0.02   0.05     0.19   0.01   0.01     0.13   0.13  -0.44
    19   1     0.02  -0.02   0.13     0.04  -0.16   0.04    -0.01  -0.03   0.03
    20   1     0.00   0.02  -0.09    -0.06  -0.14  -0.05    -0.10  -0.01   0.07
    21   1     0.00   0.06  -0.01    -0.15   0.05  -0.07     0.08   0.11  -0.46
    22   1     0.03  -0.14   0.29     0.19  -0.14   0.45     0.06   0.02  -0.08
    23   1    -0.01  -0.29  -0.02     0.15  -0.39  -0.10     0.04   0.06   0.02
    24   1    -0.11  -0.16   0.05     0.05   0.06  -0.06    -0.06  -0.08  -0.05
    25   1     0.19   0.01  -0.11     0.03   0.02  -0.12     0.04   0.03   0.11
    26   1     0.17   0.04  -0.20     0.04  -0.02  -0.05    -0.01   0.14  -0.14
    27   1     0.25  -0.13   0.17     0.04  -0.02  -0.04     0.02   0.11   0.00
                     13                     14                     15
                      A                      A                      A
 Frequencies --    492.9533               520.1047               548.8070
 Red. masses --      3.1028                 4.2967                 3.1596
 Frc consts  --      0.4442                 0.6848                 0.5607
 IR Inten    --      4.6655                 3.3410                 1.3518
  Atom  AN      X      Y      Z        X      Y      Z        X      Y      Z
     1   8    -0.02  -0.13  -0.02     0.02   0.24   0.06    -0.07   0.04   0.02
     2   6     0.01   0.05  -0.03    -0.01  -0.07  -0.02    -0.02   0.07  -0.12
     3   6     0.07   0.01   0.01    -0.13  -0.04  -0.05     0.04  -0.06  -0.08
     4   6     0.02   0.09  -0.03    -0.17   0.09  -0.01     0.03  -0.01  -0.01
     5   6    -0.05  -0.03  -0.05    -0.08   0.08  -0.08    -0.05  -0.03   0.15
     6   6    -0.06  -0.01  -0.12    -0.06  -0.04  -0.05    -0.08   0.04   0.04
     7   6    -0.12  -0.04   0.11    -0.09  -0.10   0.01    -0.08   0.02  -0.15
     8   6     0.04  -0.00  -0.09     0.10  -0.10  -0.05    -0.11  -0.04   0.11
     9   6     0.04  -0.06  -0.02     0.07  -0.06   0.04    -0.00  -0.04  -0.10
    10   6    -0.02  -0.08   0.21     0.09   0.03   0.08     0.05   0.02  -0.03
    11   6     0.02   0.07   0.10     0.17   0.05   0.01     0.11   0.03   0.02
    12   6     0.01   0.10   0.00     0.08  -0.12  -0.02     0.13   0.08   0.06
    13   6     0.01   0.03  -0.05     0.02  -0.04   0.07     0.03  -0.06   0.08
    14   1     0.13   0.04   0.34    -0.28  -0.15  -0.18     0.15   0.00   0.28
    15   1     0.23  -0.26  -0.10    -0.16   0.12  -0.01     0.15  -0.42  -0.19
    16   1     0.13   0.02   0.14    -0.18   0.06   0.14     0.04  -0.03   0.06
    17   1     0.01   0.30  -0.03    -0.18   0.23  -0.01     0.17   0.01  -0.05
    18   1    -0.02   0.02  -0.26     0.04  -0.06   0.01    -0.04   0.05  -0.03
    19   1    -0.18  -0.01   0.22    -0.15  -0.04   0.08    -0.01   0.03  -0.32
    20   1     0.13   0.09  -0.21     0.16  -0.03  -0.09    -0.10  -0.00   0.23
    21   1     0.07  -0.03  -0.17    -0.05  -0.04   0.02    -0.01  -0.01  -0.21
    22   1    -0.09   0.09  -0.04     0.20   0.11  -0.20     0.10   0.01   0.10
    23   1     0.16   0.25   0.15     0.18   0.23   0.11     0.06  -0.05  -0.01
    24   1     0.01   0.12  -0.02     0.19  -0.21  -0.08     0.19  -0.00   0.05
    25   1     0.00   0.04  -0.16    -0.01  -0.07   0.22    -0.06  -0.07  -0.06
    26   1     0.04  -0.03  -0.02     0.00  -0.00   0.05     0.02  -0.22   0.27
    27   1     0.03  -0.03  -0.03    -0.02   0.07   0.03    -0.05  -0.10  -0.03
                     16                     17                     18
                      A                      A                      A
 Frequencies --    588.9381               641.3289               680.7396
 Red. masses --      3.7163                 3.5255                 4.0662
 Frc consts  --      0.7594                 0.8543                 1.1102
 IR Inten    --      2.2507                 1.7164                 1.2614
  Atom  AN      X      Y      Z        X      Y      Z        X      Y      Z
     1   8    -0.01  -0.03  -0.00     0.08  -0.04  -0.01     0.12   0.01   0.07
     2   6    -0.00   0.02  -0.01     0.03  -0.09   0.11     0.15   0.00  -0.10
     3   6     0.01   0.06   0.02     0.03  -0.04  -0.03    -0.07  -0.18  -0.12
     4   6    -0.09   0.18  -0.11    -0.00   0.03  -0.03    -0.10  -0.12   0.04
     5   6    -0.14   0.00   0.10     0.00   0.03  -0.05    -0.07  -0.03  -0.03
     6   6    -0.01  -0.17   0.02    -0.08   0.02   0.10    -0.01  -0.14  -0.05
     7   6     0.15  -0.03  -0.05    -0.06   0.01  -0.17     0.08  -0.01   0.03
     8   6     0.16  -0.06   0.15    -0.00  -0.07   0.12     0.07   0.01   0.00
     9   6     0.11   0.13  -0.02     0.09  -0.07  -0.11    -0.02   0.15   0.03
    10   6    -0.06  -0.00   0.02     0.10   0.02  -0.01    -0.07   0.05  -0.03
    11   6    -0.08  -0.05  -0.08    -0.02   0.09   0.19    -0.09   0.08   0.09
    12   6    -0.06  -0.06   0.00    -0.15  -0.01  -0.01     0.04   0.19   0.06
    13   6    -0.00  -0.01   0.02    -0.04   0.07  -0.13    -0.00   0.05  -0.04
    14   1    -0.04   0.00   0.40    -0.06  -0.11  -0.19    -0.12  -0.22  -0.20
    15   1     0.29  -0.16  -0.13     0.06   0.21   0.01    -0.21  -0.21  -0.08
    16   1    -0.05   0.19  -0.17    -0.01  -0.00   0.12    -0.18  -0.13   0.19
    17   1    -0.06   0.08  -0.11     0.02   0.17  -0.03    -0.04  -0.00   0.02
    18   1     0.08  -0.14  -0.11    -0.08  -0.02   0.29    -0.06  -0.15   0.00
    19   1     0.13   0.17  -0.23    -0.06   0.03  -0.19     0.00   0.09   0.11
    20   1     0.10  -0.14   0.13     0.01  -0.01   0.37    -0.03  -0.12   0.01
    21   1     0.16   0.16  -0.20     0.02  -0.07  -0.05    -0.05   0.13   0.11
    22   1    -0.08  -0.01  -0.22    -0.07   0.07   0.23    -0.16   0.03   0.23
    23   1    -0.11   0.08  -0.00     0.02   0.04   0.16    -0.10  -0.03   0.04
    24   1    -0.12  -0.02   0.06    -0.10   0.05  -0.16     0.03   0.19   0.10
    25   1     0.04  -0.00   0.07     0.08   0.11  -0.12    -0.09   0.06  -0.36
    26   1    -0.01   0.05  -0.03     0.02   0.20  -0.37     0.03  -0.17   0.14
    27   1     0.02  -0.01   0.05     0.12   0.04   0.09    -0.03  -0.10  -0.10
                     19                     20                     21
                      A                      A                      A
 Frequencies --    733.1662               751.9322               765.5671
 Red. masses --      3.2866                 2.0140                 3.3744
 Frc consts  --      1.0409                 0.6709                 1.1652
 IR Inten    --      1.3821                17.6404                 3.6187
  Atom  AN      X      Y      Z        X      Y      Z        X      Y      Z
     1   8    -0.06   0.02  -0.07     0.03   0.01  -0.02    -0.00  -0.02  -0.01
     2   6    -0.12  -0.07   0.22    -0.01  -0.04   0.12    -0.01  -0.02   0.02
     3   6     0.08  -0.03  -0.01    -0.04  -0.07  -0.05     0.08   0.01  -0.03
     4   6     0.10  -0.07  -0.04    -0.05   0.04  -0.05     0.06   0.00   0.03
     5   6    -0.05  -0.06  -0.04     0.00   0.02   0.08    -0.10  -0.01   0.23
     6   6    -0.07  -0.16  -0.03     0.03   0.08   0.03    -0.05   0.01  -0.13
     7   6     0.01  -0.01   0.00    -0.02  -0.01   0.08    -0.13  -0.06   0.03
     8   6    -0.01   0.01   0.03     0.01  -0.01   0.01     0.14  -0.04  -0.12
     9   6    -0.05   0.17   0.02     0.01  -0.10   0.05     0.03   0.03   0.08
    10   6    -0.06   0.06   0.03     0.04  -0.01  -0.07     0.08   0.10  -0.18
    11   6     0.11   0.06  -0.00    -0.04  -0.01  -0.08    -0.00   0.04   0.00
    12   6     0.07   0.01  -0.02    -0.01   0.07   0.03    -0.07  -0.03   0.01
    13   6     0.01   0.01  -0.02    -0.01   0.03  -0.02    -0.02  -0.00  -0.00
    14   1     0.16   0.05  -0.20    -0.09  -0.12   0.00     0.09   0.02   0.02
    15   1     0.16   0.28   0.02     0.13   0.02  -0.10     0.10   0.00  -0.04
    16   1     0.17  -0.15   0.24    -0.12   0.00   0.21     0.05   0.03  -0.11
    17   1     0.17   0.19  -0.05     0.08   0.21  -0.09     0.20  -0.21  -0.01
    18   1    -0.09  -0.13  -0.17     0.19   0.16  -0.37     0.04   0.00  -0.16
    19   1    -0.00   0.14  -0.16     0.14   0.02  -0.37    -0.27   0.02   0.29
    20   1    -0.05  -0.07  -0.18     0.18   0.13  -0.39     0.06  -0.05   0.28
    21   1    -0.05   0.21  -0.16     0.11  -0.05  -0.19    -0.21  -0.05   0.51
    22   1     0.18   0.02   0.21    -0.10  -0.08   0.14     0.05   0.03   0.11
    23   1     0.16  -0.11  -0.11    -0.06  -0.18  -0.16    -0.11  -0.12  -0.05
    24   1     0.18  -0.06  -0.11    -0.04   0.08   0.07    -0.04  -0.02  -0.05
    25   1    -0.05  -0.03   0.12    -0.05   0.02  -0.08     0.05   0.02   0.02
    26   1    -0.04   0.02   0.04    -0.01  -0.04   0.05     0.00   0.08  -0.12
    27   1    -0.07   0.12  -0.13    -0.04   0.01  -0.06     0.06  -0.02   0.10
                     22                     23                     24
                      A                      A                      A
 Frequencies --    785.3852               835.9952               883.5289
 Red. masses --      1.7454                 2.9219                 1.9203
 Frc consts  --      0.6343                 1.2032                 0.8832
 IR Inten    --     17.6684                 0.5029                11.8050
  Atom  AN      X      Y      Z        X      Y      Z        X      Y      Z
     1   8     0.01   0.02  -0.02     0.01   0.02   0.01    -0.04   0.03  -0.00
     2   6    -0.03  -0.03   0.12     0.01  -0.01  -0.03    -0.04  -0.11  -0.03
     3   6    -0.05  -0.03  -0.04    -0.07   0.06   0.02     0.05  -0.04   0.06
     4   6    -0.05   0.03  -0.06    -0.04   0.04  -0.05     0.07   0.14   0.01
     5   6    -0.01  -0.02   0.06    -0.02  -0.10   0.04    -0.00   0.01   0.01
     6   6     0.05   0.03  -0.02     0.03  -0.09   0.01    -0.02  -0.03   0.01
     7   6     0.07   0.03  -0.04     0.11   0.04   0.11    -0.00   0.01   0.01
     8   6    -0.02   0.04  -0.06    -0.12   0.10  -0.04     0.02   0.02  -0.01
     9   6    -0.00  -0.03  -0.05    -0.05  -0.04  -0.03     0.02  -0.05  -0.02
    10   6    -0.03  -0.05   0.05     0.04  -0.03  -0.15    -0.02  -0.04  -0.00
    11   6     0.00  -0.03  -0.04     0.06   0.04   0.19    -0.08   0.02   0.04
    12   6     0.05   0.03   0.00     0.04  -0.07  -0.01     0.09   0.01   0.02
    13   6     0.01   0.02  -0.02    -0.02  -0.00  -0.06     0.03   0.05  -0.06
    14   1    -0.07  -0.05   0.12    -0.12   0.01   0.27    -0.12  -0.16  -0.19
    15   1     0.19  -0.01  -0.13     0.11  -0.10  -0.08    -0.16   0.16   0.17
    16   1    -0.06  -0.01   0.16     0.07  -0.00  -0.00     0.03   0.24  -0.37
    17   1     0.11   0.20  -0.11     0.01   0.09  -0.06    -0.09  -0.24   0.06
    18   1    -0.06  -0.03   0.26    -0.01  -0.01  -0.37    -0.00  -0.00  -0.11
    19   1    -0.06  -0.15   0.51     0.25   0.03  -0.23    -0.01   0.06  -0.03
    20   1    -0.20  -0.09   0.48    -0.19   0.01  -0.09     0.02   0.04   0.11
    21   1    -0.04  -0.10   0.26    -0.03  -0.11   0.29     0.04  -0.08   0.09
    22   1    -0.05  -0.04  -0.02     0.03   0.09  -0.04    -0.14  -0.02   0.13
    23   1     0.07  -0.01  -0.06    -0.05   0.17   0.30    -0.12  -0.07   0.00
    24   1     0.02   0.04   0.04     0.16  -0.06  -0.23     0.21  -0.23   0.14
    25   1    -0.05  -0.01   0.02     0.07   0.01   0.08    -0.17  -0.01  -0.17
    26   1    -0.03  -0.02   0.08    -0.01   0.14  -0.22    -0.01  -0.17   0.24
    27   1    -0.07   0.06  -0.12     0.05   0.06   0.02    -0.16   0.06  -0.32
                     25                     26                     27
                      A                      A                      A
 Frequencies --    889.5896               912.7321               938.1888
 Red. masses --      1.4445                 2.4400                 1.8557
 Frc consts  --      0.6735                 1.1976                 0.9623
 IR Inten    --      0.3751                 3.1696                 0.7287
  Atom  AN      X      Y      Z        X      Y      Z        X      Y      Z
     1   8     0.00   0.01   0.00     0.01  -0.02   0.01     0.02   0.00   0.01
     2   6    -0.00  -0.02   0.00     0.02  -0.04  -0.03     0.02   0.02  -0.03
     3   6    -0.01   0.01  -0.01     0.03  -0.04   0.03    -0.05   0.06  -0.00
     4   6     0.01   0.04   0.00    -0.00   0.08  -0.01    -0.01  -0.05  -0.00
     5   6    -0.01  -0.02   0.04    -0.01  -0.03  -0.00     0.02  -0.02  -0.03
     6   6     0.03  -0.01  -0.10    -0.01  -0.09   0.01    -0.00   0.02   0.02
     7   6     0.03   0.02  -0.03     0.06   0.04   0.02    -0.01   0.01   0.00
     8   6    -0.03   0.01   0.05    -0.05   0.06  -0.03     0.05  -0.02   0.01
     9   6    -0.03  -0.05   0.09    -0.01  -0.07  -0.01     0.02  -0.03  -0.01
    10   6     0.02   0.00  -0.06     0.01  -0.02   0.02    -0.03   0.01   0.03
    11   6     0.00   0.04   0.03     0.08   0.13  -0.09    -0.14   0.14   0.01
    12   6     0.01  -0.01   0.01    -0.14   0.08  -0.05     0.04  -0.05  -0.07
    13   6    -0.00   0.00  -0.02    -0.02  -0.04   0.15     0.06  -0.08   0.01
    14   1    -0.06  -0.03   0.08    -0.12  -0.15  -0.14     0.00   0.09   0.18
    15   1     0.03  -0.04  -0.03    -0.09   0.10   0.10     0.04  -0.12  -0.07
    16   1     0.02   0.05  -0.10     0.01   0.11  -0.15     0.07  -0.09   0.07
    17   1     0.05  -0.07  -0.01    -0.13  -0.04   0.03     0.04   0.06  -0.02
    18   1    -0.20  -0.14   0.52    -0.05  -0.05  -0.19     0.00   0.03  -0.06
    19   1    -0.08  -0.04   0.32     0.04   0.03   0.08    -0.02   0.06  -0.03
    20   1     0.09   0.09  -0.36    -0.11   0.02   0.15     0.07   0.02   0.08
    21   1     0.19   0.08  -0.51     0.07  -0.08  -0.03     0.00  -0.05   0.03
    22   1    -0.00   0.02   0.11     0.10   0.02   0.36    -0.02   0.04   0.49
    23   1    -0.05  -0.05   0.00     0.32  -0.20  -0.35    -0.08  -0.31  -0.24
    24   1     0.06  -0.04  -0.05    -0.09   0.07  -0.12     0.05  -0.03  -0.12
    25   1     0.01   0.00   0.02     0.07   0.01  -0.04     0.03  -0.14   0.49
    26   1    -0.01   0.03  -0.05     0.08  -0.04   0.00    -0.10   0.12   0.04
    27   1     0.00   0.02  -0.01     0.15  -0.18   0.37    -0.10   0.23  -0.20
                     28                     29                     30
                      A                      A                      A
 Frequencies --    947.9641               973.2752               984.8386
 Red. masses --      1.3840                 2.4767                 1.2621
 Frc consts  --      0.7328                 1.3823                 0.7212
 IR Inten    --      1.0612                 1.7479                 0.0016
  Atom  AN      X      Y      Z        X      Y      Z        X      Y      Z
     1   8     0.01  -0.00  -0.00    -0.05  -0.02  -0.01     0.00   0.00  -0.00
     2   6    -0.00  -0.01   0.02    -0.02   0.02  -0.07    -0.00   0.00   0.00
     3   6    -0.01  -0.01  -0.01     0.24   0.03  -0.01     0.00   0.00  -0.01
     4   6     0.01   0.02   0.01    -0.19  -0.05   0.03    -0.00   0.00   0.00
     5   6    -0.00  -0.00   0.02    -0.08   0.01   0.05     0.00   0.00  -0.01
     6   6     0.02   0.01  -0.09     0.03   0.03  -0.02     0.01   0.01  -0.05
     7   6    -0.02  -0.01   0.07     0.08   0.02   0.04    -0.03  -0.02   0.09
     8   6    -0.02  -0.01   0.06    -0.00  -0.01   0.01     0.03   0.02  -0.09
     9   6     0.03   0.01  -0.10    -0.00  -0.06  -0.01    -0.02  -0.01   0.05
    10   6    -0.01  -0.01   0.03     0.01   0.00  -0.02    -0.00  -0.00   0.01
    11   6     0.00   0.01  -0.02    -0.03   0.02   0.03     0.00  -0.00   0.00
    12   6    -0.01   0.02  -0.01     0.01  -0.02  -0.02     0.00  -0.00   0.00
    13   6     0.01  -0.01   0.02     0.02   0.00   0.01    -0.00   0.00  -0.00
    14   1    -0.03  -0.03   0.03     0.32   0.12  -0.37     0.01   0.01   0.01
    15   1     0.01  -0.02  -0.02     0.18   0.41   0.07     0.00  -0.01  -0.01
    16   1    -0.01   0.04  -0.06    -0.17  -0.10   0.28    -0.00   0.00  -0.01
    17   1     0.05  -0.06  -0.01    -0.34   0.27   0.08    -0.00  -0.01   0.00
    18   1    -0.17  -0.12   0.51    -0.02   0.01   0.13    -0.10  -0.07   0.33
    19   1     0.11   0.09  -0.38     0.12  -0.03   0.02     0.17   0.11  -0.55
    20   1     0.10   0.08  -0.32    -0.00  -0.02  -0.07    -0.17  -0.12   0.56
    21   1    -0.16  -0.12   0.55    -0.00  -0.08   0.03     0.11   0.07  -0.35
    22   1     0.00  -0.00   0.02    -0.02   0.01   0.05    -0.00  -0.00   0.00
    23   1     0.09  -0.01  -0.06    -0.04  -0.03   0.01    -0.00   0.00   0.01
    24   1    -0.03   0.02   0.01     0.08  -0.14   0.01     0.00  -0.00   0.00
    25   1    -0.00  -0.01   0.02    -0.04  -0.02  -0.02     0.00   0.00   0.00
    26   1     0.00  -0.01   0.04     0.01  -0.06   0.09    -0.00   0.00  -0.01
    27   1    -0.00  -0.01   0.01    -0.04   0.00  -0.07    -0.00   0.01  -0.01
                     31                     32                     33
                      A                      A                      A
 Frequencies --   1009.1203              1036.8034              1079.0407
 Red. masses --      1.8475                 2.3059                 2.2660
 Frc consts  --      1.1085                 1.4605                 1.5545
 IR Inten    --      9.9625                 0.5402                 1.0371
  Atom  AN      X      Y      Z        X      Y      Z        X      Y      Z
     1   8    -0.01  -0.01  -0.02     0.03  -0.00   0.00    -0.00  -0.01   0.00
     2   6    -0.02   0.07   0.09     0.00  -0.01   0.03     0.01   0.02  -0.02
     3   6     0.06  -0.07  -0.12     0.01   0.09  -0.11     0.01  -0.00   0.02
     4   6    -0.02   0.07   0.11    -0.05  -0.03   0.12    -0.04  -0.00  -0.02
     5   6    -0.01   0.05  -0.02     0.01   0.02  -0.05     0.03   0.01   0.02
     6   6    -0.02  -0.05   0.00    -0.01  -0.08   0.00     0.07  -0.10  -0.00
     7   6     0.02   0.00   0.00     0.02   0.02   0.01    -0.12  -0.11  -0.06
     8   6    -0.01   0.03   0.00    -0.03   0.03  -0.01    -0.12   0.14  -0.01
     9   6    -0.00  -0.03  -0.01     0.01  -0.06  -0.02     0.08   0.09   0.05
    10   6    -0.01  -0.03  -0.00     0.03   0.04   0.04     0.06  -0.01  -0.01
    11   6     0.01  -0.04   0.01     0.05   0.06  -0.07    -0.03  -0.00   0.02
    12   6     0.04   0.04   0.01    -0.08  -0.11   0.12    -0.05   0.00  -0.03
    13   6     0.01  -0.07  -0.03    -0.00   0.08  -0.09     0.05  -0.01   0.00
    14   1     0.17   0.02  -0.13     0.13   0.17   0.24    -0.01  -0.02  -0.04
    15   1    -0.16  -0.19  -0.06     0.10  -0.24  -0.20     0.04   0.08   0.02
    16   1    -0.29   0.22  -0.19    -0.06   0.02  -0.09    -0.06  -0.02   0.07
    17   1    -0.12  -0.31   0.14    -0.03  -0.19   0.11    -0.03   0.07  -0.02
    18   1     0.02  -0.03  -0.08    -0.01  -0.05  -0.11     0.45  -0.16   0.11
    19   1    -0.00   0.03   0.02    -0.00   0.06   0.01    -0.03  -0.34  -0.08
    20   1    -0.00   0.05   0.01    -0.01   0.07   0.02    -0.02   0.31   0.05
    21   1     0.05  -0.04  -0.01     0.01  -0.06   0.01     0.47   0.05   0.13
    22   1    -0.13  -0.04  -0.07     0.29   0.05   0.11    -0.09  -0.01   0.01
    23   1     0.03   0.07   0.06     0.08  -0.12  -0.16     0.11   0.04  -0.01
    24   1    -0.04   0.29  -0.18    -0.14  -0.26   0.43    -0.11  -0.01   0.10
    25   1     0.13  -0.08   0.44    -0.15   0.04  -0.22    -0.06  -0.07   0.13
    26   1    -0.10   0.23  -0.19    -0.02  -0.10   0.12    -0.05  -0.03   0.16
    27   1     0.01   0.19  -0.01    -0.11   0.00  -0.24    -0.09   0.09  -0.19
                     34                     35                     36
                      A                      A                      A
 Frequencies --   1096.2384              1104.9401              1121.3212
 Red. masses --      1.8254                 1.9822                 2.1626
 Frc consts  --      1.2924                 1.4258                 1.6021
 IR Inten    --     10.8087                 4.3217                 7.6192
  Atom  AN      X      Y      Z        X      Y      Z        X      Y      Z
     1   8     0.01   0.02  -0.01    -0.02   0.00   0.01    -0.00   0.01   0.00
     2   6    -0.02  -0.10   0.03     0.00   0.04  -0.04    -0.00  -0.04  -0.01
     3   6     0.01   0.08  -0.07     0.00  -0.04   0.05     0.04   0.02  -0.03
     4   6    -0.04  -0.01   0.10     0.01  -0.01  -0.07    -0.03   0.04   0.02
     5   6     0.03   0.00  -0.04    -0.01   0.02   0.02    -0.01  -0.11  -0.01
     6   6     0.02   0.00   0.02     0.03  -0.05  -0.01    -0.01   0.15   0.02
     7   6    -0.04  -0.03  -0.02    -0.02  -0.00  -0.01    -0.00  -0.05  -0.01
     8   6     0.00   0.02   0.00    -0.02   0.04   0.00    -0.01  -0.05  -0.01
     9   6     0.02   0.03   0.01     0.03  -0.04  -0.02     0.04   0.14   0.04
    10   6    -0.05  -0.04   0.01    -0.03   0.03   0.06    -0.02  -0.10  -0.02
    11   6    -0.04   0.01  -0.00    -0.00   0.03  -0.09     0.05   0.06  -0.03
    12   6     0.09   0.01  -0.08     0.11  -0.03   0.15    -0.01   0.00   0.11
    13   6    -0.07   0.03   0.07    -0.11  -0.01  -0.07    -0.03  -0.02  -0.05
    14   1     0.03   0.07   0.20     0.07   0.03  -0.13    -0.05  -0.05   0.02
    15   1     0.34   0.05  -0.19    -0.19  -0.01   0.12    -0.12  -0.13   0.00
    16   1    -0.10   0.04  -0.06     0.04  -0.05   0.08     0.20   0.01  -0.15
    17   1     0.10  -0.18   0.05    -0.09   0.14  -0.03    -0.33   0.06   0.11
    18   1     0.13  -0.00  -0.01     0.15  -0.09   0.09    -0.16   0.17  -0.01
    19   1    -0.01  -0.09  -0.03    -0.04   0.02  -0.01     0.17  -0.42  -0.03
    20   1     0.03   0.07   0.03     0.09   0.19   0.07    -0.22  -0.34  -0.14
    21   1     0.15   0.01   0.06     0.09  -0.07   0.10     0.21   0.11   0.12
    22   1    -0.12  -0.02   0.06     0.20   0.02   0.09    -0.10  -0.02   0.17
    23   1    -0.18  -0.06   0.00    -0.43  -0.22  -0.08     0.17  -0.02  -0.11
    24   1     0.31  -0.09  -0.32     0.15   0.04  -0.02     0.08  -0.05   0.04
    25   1     0.06   0.12  -0.31     0.17   0.08  -0.04     0.04  -0.01   0.09
    26   1     0.13  -0.07  -0.12    -0.00   0.20  -0.45    -0.05   0.13  -0.17
    27   1     0.15  -0.23   0.35     0.14  -0.02   0.26     0.01   0.08  -0.00
                     37                     38                     39
                      A                      A                      A
 Frequencies --   1181.7105              1196.8705              1202.8048
 Red. masses --      1.5146                 1.1055                 1.2446
 Frc consts  --      1.2462                 0.9330                 1.0609
 IR Inten    --      3.0384                 0.0742                 6.9330
  Atom  AN      X      Y      Z        X      Y      Z        X      Y      Z
     1   8    -0.03   0.01   0.01     0.00  -0.00  -0.00     0.01   0.01   0.00
     2   6     0.01  -0.06  -0.10    -0.00   0.01   0.01    -0.01  -0.08   0.00
     3   6     0.01   0.02   0.04     0.00  -0.00  -0.00     0.02   0.04  -0.03
     4   6    -0.02  -0.02   0.04    -0.00   0.00  -0.00    -0.02  -0.02  -0.00
     5   6     0.04   0.02  -0.02     0.01   0.00   0.01    -0.01  -0.01   0.01
     6   6    -0.01  -0.02  -0.00     0.03  -0.00   0.01     0.06  -0.01   0.01
     7   6    -0.01   0.01   0.00    -0.03   0.05   0.00    -0.02   0.02  -0.00
     8   6    -0.00   0.00  -0.00    -0.04  -0.04  -0.02     0.02   0.01   0.01
     9   6    -0.02   0.01  -0.00     0.03  -0.00   0.01    -0.05  -0.00  -0.01
    10   6     0.03  -0.01   0.02     0.01  -0.01   0.00    -0.00  -0.00  -0.01
    11   6     0.02  -0.01  -0.03    -0.01   0.00   0.00     0.02  -0.02  -0.01
    12   6    -0.00   0.06   0.10     0.00  -0.00  -0.01    -0.01   0.04   0.02
    13   6    -0.01  -0.05  -0.05    -0.00   0.00   0.00    -0.00  -0.01  -0.01
    14   1    -0.23  -0.17   0.07     0.02   0.01  -0.01    -0.01   0.02   0.07
    15   1     0.49   0.40  -0.07    -0.03  -0.02   0.00    -0.12  -0.16  -0.02
    16   1    -0.14   0.02   0.05    -0.01   0.00   0.00     0.37  -0.12  -0.10
    17   1     0.35  -0.13  -0.08    -0.03   0.01   0.01    -0.33   0.13   0.10
    18   1    -0.03  -0.01  -0.04     0.29  -0.04   0.08     0.41  -0.05   0.12
    19   1    -0.07   0.15   0.00    -0.27   0.56   0.03    -0.12   0.24   0.02
    20   1    -0.04  -0.05  -0.02    -0.35  -0.49  -0.21     0.16   0.20   0.09
    21   1    -0.13   0.03  -0.04     0.31  -0.04   0.09    -0.36   0.04  -0.10
    22   1    -0.24  -0.07   0.03     0.01   0.00   0.00    -0.29  -0.08   0.02
    23   1     0.13   0.05  -0.04    -0.03  -0.01   0.00     0.23   0.09  -0.01
    24   1    -0.02   0.07   0.12     0.00  -0.01  -0.01     0.05  -0.02  -0.01
    25   1     0.07  -0.05   0.19    -0.00   0.00  -0.01     0.02  -0.01   0.04
    26   1    -0.09   0.17  -0.16     0.01  -0.01   0.01    -0.02   0.04  -0.04
    27   1    -0.00   0.15  -0.03     0.00  -0.01   0.00     0.00   0.04   0.00
                     40                     41                     42
                      A                      A                      A
 Frequencies --   1210.9835              1244.7515              1251.9986
 Red. masses --      2.5714                 1.6883                 1.5852
 Frc consts  --      2.2217                 1.5412                 1.4640
 IR Inten    --      8.4154                 0.9025                 4.1939
  Atom  AN      X      Y      Z        X      Y      Z        X      Y      Z
     1   8     0.01   0.02   0.00     0.02  -0.00   0.00     0.03  -0.00   0.01
     2   6    -0.01  -0.10  -0.01     0.00   0.02   0.01     0.01   0.01  -0.02
     3   6    -0.02   0.03   0.01    -0.01   0.01   0.01    -0.04  -0.01   0.04
     4   6     0.05  -0.06   0.01    -0.02   0.03  -0.04     0.05  -0.02  -0.02
     5   6    -0.15   0.14  -0.02     0.13  -0.02   0.05    -0.08   0.10  -0.01
     6   6    -0.07  -0.02  -0.02    -0.03  -0.05  -0.02    -0.03   0.03  -0.00
     7   6     0.08  -0.00   0.03    -0.02  -0.01  -0.01     0.03  -0.03   0.01
     8   6    -0.08   0.02  -0.02    -0.02   0.02  -0.00     0.04   0.02   0.02
     9   6     0.07  -0.04   0.01    -0.02   0.06   0.00    -0.03  -0.02  -0.01
    10   6     0.16   0.10   0.08     0.14  -0.02   0.04    -0.08  -0.08  -0.06
    11   6    -0.06  -0.05  -0.04    -0.05  -0.00  -0.03     0.03   0.03   0.01
    12   6     0.02   0.04  -0.02     0.02  -0.04  -0.02    -0.01  -0.03   0.03
    13   6    -0.01  -0.02   0.01    -0.03   0.01   0.00    -0.02   0.00  -0.01
    14   1     0.12   0.13   0.05     0.22   0.20  -0.03     0.33   0.28  -0.06
    15   1    -0.10  -0.15   0.00    -0.19  -0.11   0.05    -0.12  -0.06   0.06
    16   1     0.45  -0.17  -0.08    -0.38   0.11   0.12    -0.25   0.04   0.12
    17   1     0.07  -0.00   0.00    -0.12   0.10  -0.01     0.31  -0.06  -0.11
    18   1    -0.10  -0.00  -0.04    -0.33  -0.02  -0.09     0.23   0.00   0.07
    19   1     0.23  -0.30   0.01    -0.09   0.11  -0.00     0.03  -0.02   0.01
    20   1    -0.26  -0.23  -0.13    -0.10  -0.08  -0.05     0.04   0.01   0.01
    21   1     0.14  -0.04   0.04    -0.35   0.11  -0.08     0.21  -0.06   0.04
    22   1    -0.44  -0.12  -0.01    -0.43  -0.11   0.09    -0.27  -0.05   0.11
    23   1    -0.13  -0.01   0.00     0.09  -0.02  -0.08     0.46   0.11  -0.09
    24   1    -0.03   0.08   0.01     0.12  -0.21   0.04     0.19  -0.27   0.02
    25   1     0.03  -0.00   0.04     0.02   0.03  -0.06     0.01   0.01  -0.02
    26   1    -0.01   0.03  -0.04     0.04  -0.03  -0.05     0.01   0.01  -0.07
    27   1     0.01   0.02   0.03     0.03  -0.06   0.07     0.01  -0.01   0.02
                     43                     44                     45
                      A                      A                      A
 Frequencies --   1299.3699              1309.5216              1329.9367
 Red. masses --      1.5623                 1.4755                 1.4363
 Frc consts  --      1.5541                 1.4908                 1.4968
 IR Inten    --     14.1350                 1.3746                 4.8030
  Atom  AN      X      Y      Z        X      Y      Z        X      Y      Z
     1   8    -0.01  -0.03  -0.01    -0.02   0.00  -0.01     0.01  -0.00  -0.00
     2   6     0.01   0.18   0.05    -0.01   0.02   0.02    -0.01  -0.01   0.01
     3   6     0.05  -0.02  -0.02     0.00  -0.02  -0.01     0.05   0.06  -0.01
     4   6    -0.02  -0.01   0.02    -0.00   0.00   0.01    -0.01  -0.05  -0.02
     5   6    -0.05   0.01  -0.03    -0.01  -0.01   0.00     0.07   0.06   0.04
     6   6    -0.02   0.01  -0.00     0.01  -0.00   0.00     0.01  -0.03  -0.00
     7   6     0.01   0.01   0.01    -0.00   0.01   0.00    -0.00  -0.03  -0.01
     8   6    -0.01   0.02   0.00    -0.01  -0.01  -0.00     0.00  -0.03  -0.01
     9   6     0.01   0.01   0.00     0.01  -0.01   0.01    -0.02  -0.02  -0.01
    10   6     0.05  -0.02   0.02     0.01   0.04  -0.03    -0.06   0.07  -0.01
    11   6    -0.01   0.01  -0.01    -0.11  -0.00   0.04     0.01  -0.04  -0.00
    12   6    -0.01  -0.05  -0.01     0.13  -0.02  -0.05    -0.03   0.06   0.01
    13   6    -0.02   0.01  -0.01    -0.07  -0.01   0.01    -0.00  -0.02  -0.01
    14   1    -0.48  -0.44  -0.00    -0.08  -0.08  -0.01    -0.27  -0.19   0.09
    15   1    -0.04  -0.01   0.01     0.06   0.04  -0.02    -0.16  -0.15   0.03
    16   1     0.17  -0.06  -0.03     0.09  -0.02  -0.04     0.02  -0.07   0.05
    17   1     0.20  -0.10  -0.05    -0.05  -0.00   0.02    -0.12   0.12   0.02
    18   1     0.24  -0.02   0.06    -0.05   0.01  -0.02    -0.47   0.03  -0.14
    19   1     0.05  -0.06   0.00     0.01  -0.01  -0.00    -0.09   0.14   0.00
    20   1    -0.05  -0.05  -0.03     0.01   0.01   0.00     0.10   0.12   0.06
    21   1    -0.21   0.04  -0.05     0.07  -0.01  -0.01     0.48  -0.09   0.13
    22   1    -0.20  -0.04   0.04     0.18   0.07  -0.02    -0.08  -0.04  -0.06
    23   1     0.02  -0.04  -0.05     0.61   0.11  -0.13     0.13   0.09   0.03
    24   1     0.30  -0.41  -0.05    -0.26   0.02   0.55     0.27  -0.29  -0.03
    25   1    -0.00   0.01  -0.01     0.13   0.06  -0.06     0.02  -0.02   0.06
[...]
 3,0.00003678,-0.00000362,0.00001446,0.00000089,0.00001061,0.00000481,0
 .00001135,-0.00001342,-0.00000606,-0.00000684,-0.00005757,0.00008255,0
 .00001497,0.00006092,0.00001385,-0.00000960,0.00157342,-0.00070607,-0.
 00005244,-0.00040420,0.00112035,0.00007377,-0.12929267,0.13236865,-0.0
 0000259,-0.00001811,0.00001224,-0.00003232,0.00005299,-0.00003872,-0.0
 0016316,-0.00000670,-0.00000615,0.00003313,0.00002308,-0.00108956,-0.0
 0003023,-0.00000703,-0.00060694,0.00008060,-0.00013607,0.00722990,0.00
 032705,-0.00014406,0.00217508,0.00737484,-0.00407770,-0.03503200,0.000
 31891,-0.00024945,0.00186619,0.00029075,0.00001991,0.00713066,-0.00003
 150,-0.00007087,0.00013081,0.00004257,0.00003435,0.00008023,-0.0000019
 7,-0.00000648,-0.00000995,-0.00002184,-0.00001034,-0.00002450,-0.00000
 349,0.00000436,0.00001601,-0.00000056,-0.00001241,0.00001478,0.0001683
 9,-0.00000189,0.00003169,0.00003445,-0.00000410,0.00036742,-0.00012208
 ,0.00005158,-0.00387546,-0.00810381,0.00452547,0.02539575,0.00007360,-
 0.00015887,-0.00002014,-0.00003221,0.00037326,0.00009566,0.00003417,-0
 .00009887,0.00001361,0.00073537,0.00140709,0.00004300,-0.00492416,0.00
 173662,0.00028069,-0.00131076,0.00005047,0.00004619,-0.00473937,-0.001
 98447,0.00023630,0.00483142,-0.02908023,-0.00034987,-0.05936801,0.0039
 4226,0.00071079,0.00218909,0.02732006,0.00033994,0.00103717,0.00250414
 ,-0.00028802,-0.00004283,-0.00022408,-0.00000649,0.00001932,0.00009888
 ,0.00004974,-0.00002077,-0.00003339,-0.00003406,0.00000155,-0.00000832
 ,-0.00001561,-0.00042252,0.00031250,-0.00000676,0.00001792,-0.00005710
 ,0.00003441,0.00019885,-0.00000410,-0.00002836,0.00010440,-0.00154689,
 -0.00000427,0.00098325,0.00043761,-0.00011962,0.06120385,0.00001708,0.
 00021320,-0.00000092,-0.00015143,-0.00050780,-0.00005531,0.00006310,0.
 00002119,-0.00005720,-0.00063272,-0.00048615,-0.00003116,0.00308650,0.
 00074776,-0.00004828,0.00016253,0.00078086,0.00000461,-0.00344590,0.00
 069453,0.00004908,0.00272181,-0.01255516,-0.00026048,0.00487795,-0.333
 77818,-0.00306138,-0.00187497,-0.01376792,-0.00003876,-0.00189661,0.00
 021583,0.00011698,0.00007587,0.00055225,-0.00001293,0.00000259,-0.0002
 2535,-0.00010358,0.00005237,0.00003725,0.00005651,-0.00002650,0.000002
 28,-0.00000349,0.00026305,-0.00013904,0.00000919,0.00011090,-0.0000225
 4,-0.00003661,0.00001420,-0.00012647,0.00000478,0.00018808,-0.00075034
 ,-0.00001569,-0.00029221,0.00090972,0.00005027,-0.00387558,0.35644205,
 -0.00003590,0.00005552,0.00003588,-0.00003378,-0.00008449,-0.00014584,
 -0.00003342,0.00003623,0.00003420,-0.00002033,-0.00005122,0.00022743,0
 .00032937,-0.00024945,0.00649445,0.00006759,0.00002903,-0.00017057,0.0
 0022051,0.00001151,0.00677737,-0.00008832,0.00048566,0.00232085,0.0006
 1191,-0.00286429,-0.03568646,0.00030046,-0.00065589,0.00317362,-0.0002
 2519,-0.00033208,-0.00444821,-0.00062747,0.00002428,0.00027471,-0.0000
 3548,0.00006086,0.00016918,-0.00000088,-0.00000502,-0.00000944,0.00000
 607,0.00001499,-0.00002344,-0.00001167,-0.00000394,-0.00015767,0.00001
 407,-0.00000523,0.00001105,-0.00002765,0.00001814,-0.00108825,0.000005
 82,0.00002826,0.00036478,-0.00011985,0.00004564,-0.00375524,-0.0010228
 8,0.00335997,0.02542658,-0.00146239,0.00093951,0.00070018,0.00016115,-
 0.00271661,-0.00381577,0.00002844,0.00006012,0.00078746,-0.00056264,0.
 00069542,0.00013876,-0.00534171,-0.00171500,0.00033115,0.00065001,-0.0
 0133473,-0.00019170,-0.00003234,0.00008302,0.00003288,0.00009934,-0.00
 004460,0.00004783,0.00050210,-0.00257355,-0.00009148,0.00477723,-0.029
 26727,0.00189880,-0.06210716,0.06315108,-0.00159525,-0.00831343,0.0201
 5640,-0.00489621,0.00042163,-0.00061790,0.00112116,0.00004655,0.000064
 43,0.00009538,-0.00003212,-0.00003006,-0.00007043,0.00027559,-0.000017
 99,0.00000981,0.00013337,0.00002593,-0.00022287,-0.00040138,-0.0002671
 4,-0.00003707,-0.00001477,0.00005160,-0.00000424,0.00002770,0.00001851
 ,-0.00000772,-0.00064192,0.00056573,0.00004861,0.07569960,0.00022740,-
 0.00035975,0.00006726,0.00018218,0.00188115,0.00011357,-0.00011460,0.0
 0025375,-0.00009052,-0.00039789,0.00032115,-0.00013130,-0.00363386,-0.
 00050374,0.00030468,0.00087607,-0.00089152,-0.00009883,-0.00006240,0.0
 0043856,0.00000649,-0.00051196,0.00015095,-0.00006329,0.00320814,0.000
 58623,-0.00026579,0.00337395,-0.01911309,0.00065291,0.05889837,-0.2921
 6503,0.01698548,0.00159645,-0.00336941,0.00018059,-0.00047035,0.000276
 18,-0.00024106,0.00004145,0.00001774,0.00004950,-0.00002885,-0.0000226
 6,0.00001289,0.00002857,-0.00006508,0.00006031,-0.00005412,0.00008954,
 0.00010777,-0.00032361,-0.00016239,-0.00000132,-0.00005141,0.00008216,
 0.00002334,-0.00004079,-0.00001032,0.00001290,-0.00080873,0.00118134,0
 .00014120,-0.06386884,0.31686785,-0.00199874,0.00136991,0.00112491,-0.
 00078708,-0.00325276,-0.00499945,0.00018208,0.00016174,0.00054820,0.00
 011313,-0.00001670,-0.00063284,0.00038893,0.00012601,0.00129253,-0.000
 06381,0.00000050,0.00025774,0.00001893,-0.00001681,0.00005065,-0.00005
 636,-0.00000550,-0.00012863,-0.00030255,-0.00006450,-0.00019049,-0.000
 20968,0.00178503,-0.00052124,-0.00127992,0.01747922,-0.04955233,-0.010
 28570,0.02812204,-0.00574405,0.00000435,0.00103993,0.00178483,0.000010
 14,0.00007560,0.00006789,-0.00002278,-0.00002627,0.00004477,-0.0000140
 8,-0.00005863,0.00029933,-0.00025054,0.00012480,0.00031730,-0.00000496
 ,0.00000052,-0.00015139,-0.00000602,-0.00001395,0.00001409,-0.00002769
 ,-0.00000883,-0.00004388,0.00014146,-0.00005642,0.00031224,0.00712894,
 -0.01836985,0.05230589,0.00018926,-0.00039774,0.00030026,0.00134250,0.
 00013865,-0.00041232,0.00003946,-0.00021781,-0.00022689,0.00046785,0.0
 0013065,0.00085234,-0.00009765,0.00195546,-0.00054329,-0.00043287,0.00
 020448,-0.00074579,-0.00020553,-0.00004126,0.00013717,-0.00070770,-0.0
 0000890,-0.00148406,-0.00180043,-0.00306087,0.00056761,-0.01896039,0.0
 0507413,0.02116614,-0.11607638,0.03117826,0.11149697,0.01032983,-0.004
 18222,-0.01787825,-0.00284646,0.00075716,-0.00296012,0.00006713,0.0000
 8853,0.00006751,-0.00008877,-0.00004614,-0.00007318,0.00013686,0.00005
 348,-0.00023871,0.00050175,-0.00041576,-0.00016861,0.00001971,-0.00010
 530,0.00001482,-0.00000418,-0.00006630,0.00016999,-0.00030339,-0.00011
 701,-0.00004327,0.00008054,-0.00006993,0.00074126,-0.00428415,0.001977
 58,0.00636239,0.13143404,-0.00038145,0.00020672,-0.00002370,-0.0002010
 4,-0.00008057,0.00081721,0.00045321,0.00006550,-0.00017722,-0.00117844
 ,-0.00025109,0.00114667,0.00005981,-0.00046101,-0.00002384,0.00005387,
 0.00044658,-0.00070360,-0.00030091,-0.00007740,0.00013525,-0.00018190,
 0.00023002,-0.00045095,-0.00064440,-0.00135589,0.00006387,-0.01015760,
 0.00533678,0.01569857,0.02899572,-0.06493016,-0.04690369,-0.00143438,0
 .00074062,0.00537772,0.00067639,0.00045715,0.00044037,0.00004950,0.000
 02922,0.00003451,-0.00005010,0.00005378,-0.00013167,-0.00002556,0.0001
 0300,-0.00015022,0.00044195,-0.00051101,-0.00046918,0.00005810,-0.0000
 2166,0.00000701,0.00002101,0.00001268,0.00000498,-0.00012890,-0.000053
 98,-0.00003881,-0.00017229,0.00034967,-0.00003625,0.01677737,-0.007056
 55,-0.02701107,-0.03248110,0.06624290,-0.00114426,0.00008044,0.0003630
 1,0.00238010,-0.00083859,-0.00040733,-0.00007420,0.00036500,-0.0006921
 5,-0.00029827,-0.00029967,-0.00030906,0.00069746,-0.00090185,0.0007333
 9,0.00003698,0.00019388,-0.00010897,-0.00006665,-0.00000592,-0.0000288
 5,-0.00003481,-0.00002955,-0.00022419,-0.00044449,0.00051819,-0.000403
 45,0.00078536,0.00069061,0.00194751,0.10932467,-0.04785463,-0.21394157
 ,0.01196308,-0.00502678,-0.02357554,-0.00532190,0.00080416,-0.00332617
 ,0.00000160,0.00008264,0.00004933,-0.00001710,-0.00007530,0.00013099,-
 0.00023577,-0.00011391,0.00030552,-0.00017963,0.00049696,0.00041837,0.
 00003623,0.00004129,0.00000953,-0.00000769,0.00000925,0.00003018,0.000
 00686,0.00002240,0.00003132,-0.00005494,-0.00000193,0.00011988,-0.0014
 9864,-0.00016465,0.00250675,-0.11678271,0.05252366,0.23638849,0.001763
 36,0.00115134,0.00003127,0.00841735,0.01322079,-0.00143676,-0.00182545
 ,0.00214115,0.00011574,-0.00016835,0.00000489,-0.00010169,-0.00034990,
 0.00014560,0.00010782,0.00009013,0.00001045,0.00016602,-0.00013057,0.0
 0001233,-0.00006745,-0.00009233,-0.00003548,0.00023655,-0.00013587,-0.
 00060499,-0.00003804,-0.00035210,0.00141772,-0.00342433,-0.01569385,-0
 .01297483,-0.00040482,-0.17899296,-0.13266256,0.01760614,-0.01124905,-
 0.01035650,0.00314330,0.00048502,0.00076313,0.00000873,-0.00003627,-0.
 00012803,-0.00006982,0.00005267,-0.00004162,0.00002010,0.00006265,-0.0
 0004971,0.00001052,-0.00002458,-0.00004805,0.00000216,-0.00001149,-0.0
 0001070,-0.00001872,-0.00006484,-0.00001815,0.00002066,-0.00001433,0.0
 0005287,-0.00007969,0.00003398,0.00022991,0.00049982,0.00072092,0.0000
 6342,0.00001704,0.19701544,-0.00026727,0.00586284,-0.00057388,-0.02409
 003,-0.03004571,0.00285449,0.00512080,-0.00314702,0.00011572,0.0002080
 6,0.00023900,0.00034363,0.00054859,-0.00004592,-0.00011615,-0.00007115
 ,0.00010884,-0.00007465,0.00001536,0.00004920,0.00002176,-0.00005999,-
 0.00004648,-0.00003568,0.00012336,0.00007510,-0.00017748,0.00033830,0.
 00086643,0.00090691,0.00410870,0.00250672,0.00064140,-0.12770191,-0.17
 533726,0.01674927,0.00503718,0.00484388,-0.00093865,-0.00085111,-0.001
 69896,-0.00001675,0.00009689,0.00035022,0.00006395,-0.00005497,0.00002
 504,-0.00010224,-0.00008607,0.00004137,-0.00011741,0.00003555,0.000032
 14,0.00000212,-0.00001433,0.00000323,0.00000517,0.00001448,0.00000761,
 0.00000967,-0.00001018,-0.00001094,0.00003298,0.00033090,0.00112297,-0
 .00024979,-0.00019033,-0.00015412,-0.00044036,0.13645296,0.19265910,-0
 .00046191,-0.00002384,-0.00110399,0.00082775,-0.00085922,0.00034794,0.
 00008194,-0.00009860,0.00123861,-0.00009381,0.00041173,-0.00016317,-0.
 00024616,-0.00006145,0.00013534,0.00008646,-0.00005253,0.00024783,-0.0
 0014437,-0.00004674,-0.00006800,-0.00015844,0.00013423,0.00032997,-0.0
 0057727,-0.00085687,0.00012048,-0.00145497,0.00211160,-0.00418765,-0.0
 2182656,-0.01807228,-0.00016663,0.01705055,0.01718430,-0.05105539,0.02
 275199,0.02073946,-0.00552703,-0.00003219,-0.00002017,0.00020057,-0.00
 009602,-0.00033234,-0.00000271,0.00010446,-0.00004821,0.00007937,0.000
 07305,-0.00003614,0.00005570,-0.00003679,-0.00006840,-0.00000747,-0.00
 001504,-0.00001337,-0.00002552,-0.00011171,-0.00003460,-0.00000518,0.0
 0001674,0.00009783,-0.00012869,0.00025269,-0.00002728,0.00114906,0.000
 83970,-0.00039506,0.00081340,-0.01842612,-0.01847544,0.06072227,-0.000
 93154,0.00083294,-0.00050398,0.00013316,-0.00249397,0.00327004,-0.0001
 1823,0.00004138,-0.00022444,-0.00007819,-0.00001829,-0.00004081,-0.000
 16888,-0.00014669,-0.00007044,0.00019404,0.00001922,-0.00004025,-0.000
 04155,0.00011341,0.00000298,-0.00010188,-0.00011111,0.00003332,0.00010
 682,0.00010578,0.00009872,0.00015304,-0.00003260,0.00021253,0.00066711
 ,-0.00070119,-0.00099970,-0.00821735,0.01602102,0.00210340,-0.09341833
 ,0.09907483,-0.00264645,0.00005892,0.00010462,-0.00017552,0.00016780,0
 .00028716,-0.00021413,0.00001870,0.00000833,0.00002567,-0.00001061,0.0
 0000549,-0.00002479,-0.00000367,0.00000481,0.00001221,0.00000441,0.000
 00725,-0.00000538,0.00000253,-0.00000283,-0.00000793,-0.00000477,0.000
 03242,-0.00009670,0.00045376,-0.00021599,0.00046819,-0.00014009,-0.000
 22246,-0.00013783,0.00009332,-0.00001912,-0.00062103,0.09819687,0.0003
 6142,-0.00044089,0.00004713,0.00009198,0.00191004,-0.00063863,-0.00029
 988,-0.00007608,0.00041049,0.00017842,0.00002151,0.00008056,0.00000048
 ,-0.00015068,-0.00006247,0.00015121,0.00014147,-0.00004195,-0.00007541
 ,0.00011285,-0.00000522,-0.00020317,-0.00007226,0.00009879,0.00018306,
 -0.00018579,0.00008857,-0.00018616,-0.00002615,-0.00009424,-0.00008414
 ,0.00026606,0.00046351,0.00172492,-0.00412358,-0.00015293,0.09869133,-
 0.26719158,0.00247551,0.00002919,0.00001611,-0.00014853,0.00018555,0.0
 0012874,-0.00024178,-0.00004200,-0.00000383,-0.00004551,-0.00004906,0.
 00000261,-0.00008259,0.00001004,0.00001879,0.00001532,-0.00000815,0.00
 001860,-0.00000527,-0.00002264,-0.00000117,-0.00000673,-0.00007058,0.0
 0020982,-0.00014997,-0.00026952,0.00014165,-0.00066827,-0.00010631,0.0
 0025029,-0.00002577,0.00015144,0.00074906,-0.00027711,-0.10987857,0.28
 792798,0.00235297,-0.00142829,0.00136255,0.00026132,0.00335075,-0.0061
 6738,-0.00012045,-0.00037921,0.00081012,0.00013894,0.00005074,0.000228
 19,0.00016719,-0.00015268,-0.00000804,0.00002398,0.00007072,0.00000091
 ,-0.00000676,0.00007016,0.00000009,-0.00011037,0.00000141,0.00003145,-
 0.00005981,-0.00010662,0.00001327,-0.00019581,0.00013617,-0.00006219,-
 0.00006556,-0.00088572,0.00189328,0.01368605,-0.03020081,-0.00324398,-
 0.00237698,0.00249227,-0.04722464,-0.00005401,-0.00008704,0.00005603,-
 0.00016556,-0.00044872,-0.00005147,-0.00003031,0.00000576,-0.00004071,
 0.00002444,0.00005494,0.00000327,0.00001859,0.00002397,-0.00000292,0.0
 0000147,0.00001634,-0.00000421,0.00001293,-0.00000234,0.00000806,-0.00
 009980,0.00005044,-0.00010060,-0.00033050,0.00071285,-0.00034220,0.000
 13995,0.00039629,0.00045804,-0.00051213,0.00052918,0.00121664,-0.00094
 464,-0.00223617,0.05146537,-0.00000245,0.00087401,0.00002926,-0.000187
 62,-0.00234992,-0.00013394,-0.00041263,0.00003592,0.00064492,0.0002487
 7,0.00010055,0.00008059,-0.00001503,-0.00008298,-0.00034189,0.00014898
 ,0.00010225,-0.00004960,-0.00008421,0.00007183,0.00000909,-0.00009702,
 -0.00010824,-0.00000276,0.00021933,0.00007703,-0.00025811,0.,-0.000220
 20,-0.00046523,0.00029254,0.00041386,-0.00089609,-0.01223295,-0.009816
 64,0.00291601,-0.18918311,-0.13017829,0.02723694,0.00011349,0.00005296
 ,-0.00032379,0.00043682,0.00071070,-0.00036503,-0.00000361,0.00000181,
 -0.00000736,-0.00008010,-0.00001257,-0.00015213,0.00001555,0.00001991,
 0.00001381,-0.00000543,0.00000882,0.00000307,0.00000682,0.00000850,-0.
 00000313,-0.00001248,0.00003357,0.00002368,-0.00000027,0.00001780,-0.0
 0000182,0.00000583,0.00004093,0.00005950,-0.00041483,0.00118608,0.0029
 5087,0.01173776,0.00990905,-0.00250827,0.20400393,-0.00003739,-0.00002
 882,-0.00016074,0.00063468,0.00042115,0.00062926,-0.00000631,-0.000314
 29,-0.00034003,0.00002160,-0.00000483,-0.00001848,-0.00010587,0.000395
 00,-0.00025209,-0.00010335,-0.00003287,0.00005625,0.00001769,-0.000086
 40,0.00003373,0.00024466,0.00012540,-0.00011290,0.00009809,-0.00025588
 ,-0.00034256,-0.00041933,-0.00012009,-0.00050440,-0.00064577,-0.000029
 89,0.00033321,0.00512510,0.00480442,0.00024604,-0.12994633,-0.17078021
 ,0.02599015,0.00004872,0.00015035,0.00008270,0.00043111,-0.00070389,-0
 .00039342,0.00003186,-0.00000528,0.00001577,0.00003395,-0.00000159,0.0
 0000398,-0.00000631,-0.00002308,-0.00000463,0.00000353,-0.00001109,0.0
 0000635,0.00000240,-0.00000375,0.00000876,-0.00000293,-0.00006185,0.00
 012765,-0.00002799,0.00003526,-0.00006676,0.00012173,0.00000930,0.0001
 3637,0.00089246,0.00083727,-0.00133581,-0.02262222,-0.01957269,0.00380
 109,0.14323362,0.18353338,0.00016545,-0.00067807,0.00019598,-0.0004996
 0,0.00146498,0.00067291,0.00022683,-0.00020481,-0.00043649,0.00013955,
 -0.00018666,-0.00009723,0.00000061,-0.00047850,-0.00002947,-0.00021337
 ,-0.00010884,0.00000141,0.00004075,-0.00007818,-0.00005140,-0.00005654
 ,0.00010589,-0.00004593,-0.00060692,0.00003310,0.00003405,-0.00023099,
 0.00016310,-0.00057036,0.00037695,0.00061120,0.00154761,0.02168787,0.0
 2118485,-0.00413311,0.02613306,0.02501375,-0.05483981,-0.00011459,-0.0
 0008861,0.00012440,-0.00000071,-0.00021654,0.00031242,-0.00005604,0.00
 002680,-0.00001472,-0.00004113,0.00004732,0.00002600,0.00000345,0.0000
 3688,-0.00000082,0.00002543,0.00001297,0.00001842,0.00002004,-0.000012
 54,0.00000105,0.00001551,-0.00002152,0.00000042,0.00001972,-0.00003151
 ,-0.00011076,-0.00008808,-0.00028692,0.00024640,0.00266630,-0.00152240
 ,-0.00518604,0.00005068,0.00065393,-0.00080197,-0.03208293,-0.02674752
 ,0.05814987,0.00026358,-0.00057773,-0.00024169,0.00102508,0.00048752,0
 .00020181,0.00000489,-0.00014046,0.00013972,-0.00006839,0.00000363,0.0
 0009139,0.00002910,0.00030396,-0.00011744,-0.00005233,0.00001300,0.000
 01111,0.00005180,-0.00004428,0.00001369,0.00012377,0.00003287,-0.00005
 205,0.00013475,-0.00007352,-0.00022708,-0.00037485,-0.00018517,-0.0002
 4148,-0.00179699,0.00098455,0.00300799,0.01184598,-0.00094932,0.013908
 89,-0.16068524,0.00738720,-0.13130880,0.00003383,0.00000932,-0.0000243
 1,-0.00013037,-0.00004879,-0.00011263,0.00001152,-0.00000966,-0.000012
 69,0.00004623,-0.00002817,0.00001596,0.00000186,-0.00001677,-0.0000029
 6,-0.00001121,-0.00001428,-0.00000087,-0.00000548,0.00000707,0.0000038
 8,0.00002366,-0.00005478,0.00008986,-0.00011617,-0.00007448,-0.0000066
 3,0.00061230,-0.00013075,0.00099002,0.00082194,-0.00020078,-0.00073380
 ,-0.00875314,-0.00037249,-0.00924688,-0.01449810,0.00298261,-0.0175813
 0,0.17146197,0.00003289,0.00004237,0.00022550,-0.00087887,0.00016166,-
 0.00091016,0.00020580,-0.00004087,0.00006693,-0.00012749,0.00011864,0.
 00001944,-0.00003988,0.00020212,-0.00000337,0.00004424,0.00003135,-0.0
 0000893,-0.00000348,0.00000762,0.00000063,-0.00000584,0.00001324,0.000
 00364,0.00015849,-0.00020647,-0.00004155,0.00014893,0.00006090,-0.0001
 3203,0.00050489,0.00017893,-0.00072279,-0.00380913,-0.00118375,-0.0041
 5733,0.00766513,-0.05123653,0.00979895,0.00002185,-0.00002414,0.000003
 13,-0.00017898,-0.00004068,-0.00002183,0.00002912,-0.00000682,0.000029
 17,0.00003447,-0.00001030,0.00004532,-0.00000911,-0.00001268,0.0000018
 6,-0.00000067,0.00000398,-0.00000282,-0.00001000,-0.00000402,-0.000002
 58,-0.00004628,0.00007398,-0.00003409,-0.00016883,0.00027306,-0.000399
 20,-0.00017311,0.00041923,-0.00018590,0.00022016,0.00010637,0.00045630
 ,0.01980639,-0.00007089,0.02416452,-0.01413038,0.00172498,-0.01869218,
 -0.00929031,0.04941875,0.00138534,0.00006080,0.00055509,-0.00270677,0.
 00083070,-0.00043944,0.00022954,-0.00015625,-0.00023121,-0.00009332,0.
 00004608,-0.00005507,-0.00017620,-0.00005595,0.00009333,0.00008217,-0.
 00003479,-0.00000908,-0.00007851,0.00000462,-0.00000753,-0.00002987,-0
 .00004308,0.00002254,-0.00005868,-0.00005338,0.00012238,0.00102690,0.0
 0050208,0.00019567,0.00424849,-0.00176693,-0.00410598,-0.01776698,0.00
 036114,-0.02079228,-0.13039003,0.00983622,-0.20179187,0.00001034,-0.00
 008125,0.00001004,-0.00005544,-0.00005395,-0.00000830,0.00000723,-0.00
 003155,0.00003574,0.00000061,0.00004468,0.00006521,-0.00002102,-0.0000
 3381,-0.00000088,-0.00001102,-0.00000944,-0.00000274,-0.00003158,-0.00
 000302,-0.00000362,0.00002680,0.00000599,-0.00002823,0.00014851,0.0000
 5365,0.00034109,-0.00121083,0.00015607,-0.00153481,-0.00007259,0.00056
 462,0.00097028,0.00047629,0.00054934,0.00050305,0.00362434,-0.00119197
 ,0.00498719,0.14143627,-0.00950063,0.22110944\\0.00007257,-0.00003696,
 0.00000807,-0.00008523,0.00002365,0.00000236,-0.00000249,0.00000497,-0
 .00003139,0.00002220,-0.00000509,0.00000075,-0.00001677,-0.00000812,0.
 00000247,0.00002581,-0.00000004,0.00000672,-0.00000992,0.00000868,0.00
 000110,-0.00001313,0.00000320,0.00000175,-0.00000937,0.00000216,-0.000
 00171,-0.00000528,-0.00000985,-0.00000207,-0.00001051,-0.00001249,-0.0
 0005140,0.00003018,-0.00001574,0.00004063,-0.00000416,0.00001635,-0.00
 000466,-0.00000598,0.00000545,-0.00000337,-0.00001135,0.00001833,-0.00
 000355,0.00000147,0.00000560,0.00000393,-0.00000085,0.00000374,0.00000
 681,-0.00000026,0.00000747,-0.00000034,0.00000825,-0.00000160,0.000000
 62,0.00000675,-0.00000893,0.00000152,-0.00000479,-0.00001166,0.0000001
 2,0.00000187,0.00000084,0.00000484,0.00001128,0.00001345,0.00001387,-0
 .00000983,0.00000152,-0.00000319,-0.00000220,-0.00000378,-0.00000616,0
 .00001055,-0.00000214,0.00001304,0.00000119,0.00000099,-0.00000077\\\@


 THE MORE POWERFUL THE METHOD, THE MORE CATASTROPHIC THE ERRORS.
     -- M.D. KAMEN
 Job cpu time:       0 days  0 hours  2 minutes 51.1 seconds.
 Elapsed time:       0 days  0 hours  2 minutes 55.9 seconds.
 File lengths (MBytes):  RWF=    161 Int=      0 D2E=      0 Chk=     16 Scr=      1
 Normal termination of Gaussian 16 at Sat Feb 24 04:04:31 2024.
