 Entering Gaussian System, Link 0=g16
 Input=/Volumes/SSD-PMU3/b3lyp_6-31gd_freq/NQLWNJXBFXEGNU-SECBINFHSA-N_calculating/gaussianinput1.gjf
 Output=/Volumes/SSD-PMU3/b3lyp_6-31gd_freq/NQLWNJXBFXEGNU-SECBINFHSA-N_calculating/gaussianinput1.log
 Initial command:
 /Applications/g16/l1.exe "/Users/macmini_m1_2022/PycharmProjects/sphere_model/sphere_model_lib/Gau-91173.inp" -scrdir="/Users/macmini_m1_2022/PycharmProjects/sphere_model/sphere_model_lib/"
 Entering Link 1 = /Applications/g16/l1.exe PID=     91174.
  
 Copyright (c) 1988,1990,1992,1993,1995,1998,2003,2009,2016,
            Gaussian, Inc.  All Rights Reserved.
  
 This is part of the Gaussian(R) 16 program.  It is based on
 the Gaussian(R) 09 system (copyright 2009, Gaussian, Inc.),
 the Gaussian(R) 03 system (copyright 2003, Gaussian, Inc.),
 the Gaussian(R) 98 system (copyright 1998, Gaussian, Inc.),
 the Gaussian(R) 94 system (copyright 1995, Gaussian, Inc.),
 the Gaussian 92(TM) system (copyright 1992, Gaussian, Inc.),
 the Gaussian 90(TM) system (copyright 1990, Gaussian, Inc.),
 the Gaussian 88(TM) system (copyright 1988, Gaussian, Inc.),
 the Gaussian 86(TM) system (copyright 1986, Carnegie Mellon
 University), and the Gaussian 82(TM) system (copyright 1983,
 Carnegie Mellon University). Gaussian is a federally registered
 trademark of Gaussian, Inc.
  
 This software contains proprietary and confidential information,
 including trade secrets, belonging to Gaussian, Inc.
  
 This software is provided under written license and may be
 used, copied, transmitted, or stored only in accord with that
 written license.
  
 The following legend is applicable only to US Government
 contracts under FAR:
  
                    RESTRICTED RIGHTS LEGEND
  
 Use, reproduction and disclosure by the US Government is
 subject to restrictions as set forth in subparagraphs (a)
 and (c) of the Commercial Computer Software - Restricted
 Rights clause in FAR 52.227-19.
  
 Gaussian, Inc.
 340 Quinnipiac St., Bldg. 40, Wallingford CT 06492
  
  
 ---------------------------------------------------------------
 Warning -- This program may not be used in any manner that
 competes with the business of Gaussian, Inc. or will provide
 assistance to any competitor of Gaussian, Inc.  The licensee
 of this program is prohibited from giving any competitor of
 Gaussian, Inc. access to this program.  By using this program,
 the user acknowledges that Gaussian, Inc. is engaged in the
 business of creating and licensing software in the field of
 computational chemistry and represents and warrants to the
 licensee that it is not a competitor of Gaussian, Inc. and that
 it will not use this program in any manner prohibited above.
 ---------------------------------------------------------------
  

 Cite this work as:
 Gaussian 16, Revision A.03,
 M. J. Frisch, G. W. Trucks, H. B. Schlegel, G. E. Scuseria, 
 M. A. Robb, J. R. Cheeseman, G. Scalmani, V. Barone, 
 G. A. Petersson, H. Nakatsuji, X. Li, M. Caricato, A. V. Marenich, 
 J. Bloino, B. G. Janesko, R. Gomperts, B. Mennucci, H. P. Hratchian, 
 J. V. Ortiz, A. F. Izmaylov, J. L. Sonnenberg, D. Williams-Young, 
 F. Ding, F. Lipparini, F. Egidi, J. Goings, B. Peng, A. Petrone, 
 T. Henderson, D. Ranasinghe, V. G. Zakrzewski, J. Gao, N. Rega, 
 G. Zheng, W. Liang, M. Hada, M. Ehara, K. Toyota, R. Fukuda, 
 J. Hasegawa, M. Ishida, T. Nakajima, Y. Honda, O. Kitao, H. Nakai, 
 T. Vreven, K. Throssell, J. A. Montgomery, Jr., J. E. Peralta, 
 F. Ogliaro, M. J. Bearpark, J. J. Heyd, E. N. Brothers, K. N. Kudin, 
 V. N. Staroverov, T. A. Keith, R. Kobayashi, J. Normand, 
 K. Raghavachari, A. P. Rendell, J. C. Burant, S. S. Iyengar, 
 J. Tomasi, M. Cossi, J. M. Millam, M. Klene, C. Adamo, R. Cammi, 
 J. W. Ochterski, R. L. Martin, K. Morokuma, O. Farkas, 
 J. B. Foresman, and D. J. Fox, Gaussian, Inc., Wallingford CT, 2016.
 
 ******************************************
 Gaussian 16:  EM64M-G16RevA.03 25-Dec-2016
                24-Feb-2024 
 ******************************************
 %nprocshared=10
 Will use up to   10 processors via shared memory.
 %mem=12GB
 %chk= 1.chk
 ---------------------
 # freq b3lyp/6-31g(d)
 ---------------------
 1/10=4,30=1,38=1/1,3;
 2/12=2,17=6,18=5,40=1/2;
 3/5=1,6=6,7=1,11=2,25=1,30=1,71=2,74=-5,140=1/1,2,3;
 4//1;
 5/5=2,38=5,98=1/2;
 8/6=4,10=90,11=11/1;
 11/6=1,8=1,9=11,15=111,16=1/1,2,10;
 10/6=1/2;
 6/7=2,8=2,9=2,10=2,28=1/1;
 7/8=1,10=1,25=1/1,2,3,16;
 1/10=4,30=1/3;
 99//99;
 ---------
 good luck
 ---------
 Symbolic Z-matrix:
 Charge =  0 Multiplicity = 1
 O                     1.21854   0.        0. 
 C                     0.        0.        0. 
 C                    -0.76735  -1.31576   0.02207 
 C                    -1.55382  -1.55131   1.34037 
 C                    -2.84582  -0.77162   1.45189 
 C                    -4.06317  -1.459     1.53354 
 C                    -5.27895  -0.78146   1.6257 
 C                    -5.28848   0.61198   1.63412 
 C                    -4.08233   1.30763   1.55128 
 C                    -2.85456   0.63923   1.46106 
 C                    -1.57624   1.44434   1.36701 
 C                    -0.79199   1.3095    0.02207 
 C                     0.12921   2.51235  -0.20145 
 H                    -1.46816  -1.35493  -0.82219 
 H                    -0.02569  -2.10939  -0.10847 
 H                    -0.89025  -1.32863   2.18819 
 H                    -1.78064  -2.62075   1.40766 
 H                    -4.05483  -2.54683   1.5271 
 H                    -6.20908  -1.33969   1.69023 
 H                    -6.22623   1.15647   1.7055 
 H                    -4.08987   2.39543   1.5601 
 H                    -0.89504   1.19388   2.1934 
 H                    -1.82395   2.50397   1.49405 
 H                    -1.5375    1.26281  -0.78492 
 H                     0.70217   2.40402  -1.12694 
 H                    -0.45759   3.43568  -0.26116 
 H                     0.85013   2.61009   0.61634 
 

 GradGradGradGradGradGradGradGradGradGradGradGradGradGradGradGradGradGrad
 Berny optimization.
 Initialization pass.
 Trust Radius=3.00D-01 FncErr=1.00D-07 GrdErr=1.00D-07 EigMax=2.50D+02 EigMin=1.00D-04
 Number of steps in this run=      2 maximum allowed number of steps=      2.
 GradGradGradGradGradGradGradGradGradGradGradGradGradGradGradGradGradGrad

                          Input orientation:                          
 ---------------------------------------------------------------------
 Center     Atomic      Atomic             Coordinates (Angstroms)
 Number     Number       Type             X           Y           Z
 ---------------------------------------------------------------------
      1          8           0        1.218543    0.000000    0.000000
      2          6           0        0.000000    0.000000    0.000000
      3          6           0       -0.767351   -1.315763    0.022065
      4          6           0       -1.553823   -1.551309    1.340373
      5          6           0       -2.845821   -0.771615    1.451894
      6          6           0       -4.063174   -1.458997    1.533535
      7          6           0       -5.278949   -0.781462    1.625699
      8          6           0       -5.288485    0.611976    1.634119
      9          6           0       -4.082332    1.307628    1.551281
     10          6           0       -2.854564    0.639227    1.461057
     11          6           0       -1.576243    1.444343    1.367012
     12          6           0       -0.791992    1.309498    0.022065
     13          6           0        0.129210    2.512346   -0.201454
     14          1           0       -1.468160   -1.354925   -0.822189
     15          1           0       -0.025687   -2.109390   -0.108466
     16          1           0       -0.890252   -1.328633    2.188190
     17          1           0       -1.780642   -2.620746    1.407664
     18          1           0       -4.054834   -2.546832    1.527102
     19          1           0       -6.209077   -1.339689    1.690225
     20          1           0       -6.226227    1.156468    1.705499
     21          1           0       -4.089870    2.395431    1.560099
     22          1           0       -0.895042    1.193882    2.193397
     23          1           0       -1.823950    2.503972    1.494050
     24          1           0       -1.537500    1.262811   -0.784919
     25          1           0        0.702165    2.404022   -1.126936
     26          1           0       -0.457589    3.435684   -0.261155
     27          1           0        0.850129    2.610089    0.616344
 ---------------------------------------------------------------------
                    Distance matrix (angstroms):
                    1          2          3          4          5
     1  O    0.000000
     2  C    1.218543   0.000000
     3  C    2.382330   1.523334   0.000000
     4  C    3.448068   2.572455   1.553047   0.000000
     5  C    4.384340   3.286652   2.580803   1.513149   0.000000
     6  C    5.690073   4.581461   3.628706   2.518467   1.400396
     7  C    6.743218   5.578609   4.817846   3.814530   2.439348
     8  C    6.736933   5.568926   5.172577   4.325944   2.813208
     9  C    5.675882   4.558706   4.495529   3.822481   2.421175
    10  C    4.374186   3.269837   3.201428   2.550478   1.410899
    11  C    3.430113   2.537595   3.175118   2.995854   2.555289
    12  C    2.399484   1.530530   2.625377   3.240762   3.254790
    13  C    2.745744   2.523720   3.938045   4.660807   4.729563
    14  H    3.119325   2.160396   1.097922   2.173150   2.722068
    15  H    2.451408   2.112333   1.094051   2.178483   3.489631
    16  H    3.316694   2.710349   2.169647   1.099411   2.162557
    17  H    4.224327   3.467061   2.156299   1.095295   2.134443
    18  H    6.052016   5.025940   3.819452   2.698331   2.149131
    19  H    7.734414   6.572995   5.691723   4.673175   3.419211
    20  H    7.724684   6.558357   6.224565   5.412646   3.899867
    21  H    6.029200   4.989893   5.213218   4.696442   3.404342
    22  H    3.271634   2.652818   3.321040   2.949189   2.866800
    23  H    4.214122   3.439310   4.227708   4.067172   3.431540
    24  H    3.131543   2.138854   2.809519   3.526529   3.294530
    25  H    2.704802   2.746333   4.161308   5.178971   5.415094
    26  H    3.831650   3.475847   4.769949   5.351329   5.132208
    27  H    2.707060   2.813390   4.287391   4.860086   5.078790
                    6          7          8          9         10
     6  C    0.000000
     7  C    1.394868   0.000000
     8  C    2.408409   1.393496   0.000000
     9  C    2.766748   2.408678   1.394847   0.000000
    10  C    2.422506   2.814801   2.440218   1.400826   0.000000
    11  C    3.826479   4.327951   3.813780   2.516571   1.513658
    12  C    4.544198   5.203512   4.827391   3.628339   2.602723
    13  C    6.029746   6.590587   6.027616   4.718105   3.895565
    14  H    3.506332   4.565428   4.949448   4.422267   3.333462
    15  H    4.406867   5.689243   6.175717   5.557620   4.245096
    16  H    3.242376   4.458302   4.839154   4.188663   2.873972
    17  H    2.564265   3.958365   4.775640   4.555274   3.432722
    18  H    1.087886   2.150514   3.392848   3.854634   3.405287
    19  H    2.154921   1.086701   2.158618   3.398623   3.901459
    20  H    3.398386   2.158536   1.086705   2.154743   3.419854
    21  H    3.854612   3.392766   2.150086   1.087865   2.149428
    22  H    4.184524   4.841787   4.466962   3.253317   2.164184
    23  H    4.552011   4.769531   3.949971   2.556326   2.130851
    24  H    4.377499   4.897813   4.510568   3.454853   2.677298
    25  H    6.686515   7.314235   6.835403   5.591631   4.739465
    26  H    6.338695   6.677578   5.907872   4.577369   4.065916
    27  H    6.445095   7.077218   6.535358   5.186490   4.280489
                   11         12         13         14         15
    11  C    0.000000
    12  C    1.562727   0.000000
    13  C    2.551330   1.531475   0.000000
    14  H    3.555304   2.875607   4.229975   0.000000
    15  H    4.148527   3.506146   4.625266   1.777455   0.000000
    16  H    2.972257   3.414892   4.637113   3.065461   2.575205
    17  H    4.070428   4.283005   5.708365   2.583059   2.374869
    18  H    4.700906   5.270916   6.788918   3.691977   4.370408
    19  H    5.414652   6.256657   7.654443   5.365515   6.485525
    20  H    4.671167   5.691070   6.772478   5.944367   7.238991
    21  H    2.694471   3.797473   4.573552   5.158859   6.292464
    22  H    1.099853   2.176848   2.919375   3.989817   4.118975
    23  H    1.095587   2.158343   2.586433   4.514713   5.204317
    24  H    2.159922   1.099629   2.163259   2.618919   3.756981
    25  H    3.511681   2.179608   1.093859   4.351191   4.683795
    26  H    2.804952   2.170877   1.095651   4.928077   5.563964
    27  H    2.794593   2.177445   1.094565   4.813022   4.854471
                   16         17         18         19         20
    16  H    0.000000
    17  H    1.752590   0.000000
    18  H    3.454797   2.278525   0.000000
    19  H    5.342096   4.618656   2.474786   0.000000
    20  H    5.906043   5.841171   4.296650   2.496263   0.000000
    21  H    4.949819   5.524292   4.942497   4.296405   2.473902
    22  H    2.522525   3.994127   4.941779   5.908564   5.353595
    23  H    4.005307   5.125629   5.521644   5.834514   4.608744
    24  H    3.996735   4.466380   5.118182   5.892620   5.310146
    25  H    5.240092   6.151164   7.360972   8.349673   7.588260
    26  H    5.374496   6.419951   7.206145   7.726039   6.506899
    27  H    4.584011   5.908365   7.175094   8.160046   7.305757
                   21         22         23         24         25
    21  H    0.000000
    22  H    3.471558   0.000000
    23  H    2.269479   1.751654   0.000000
    24  H    3.646441   3.047601   2.610792   0.000000
    25  H    5.493981   3.878159   3.641540   2.536816   0.000000
    26  H    4.194348   3.352889   2.411592   2.482320   1.777339
    27  H    5.033919   2.745607   2.816439   3.078875   1.761642
                   26         27
    26  H    0.000000
    27  H    1.778128   0.000000
 Stoichiometry    C12H14O
 Framework group  C1[X(C12H14O)]
 Deg. of freedom    75
 Full point group                 C1      NOp   1
 Largest Abelian subgroup         C1      NOp   1
 Largest concise Abelian subgroup C1      NOp   1
                         Standard orientation:                         
 ---------------------------------------------------------------------
 Center     Atomic      Atomic             Coordinates (Angstroms)
 Number     Number       Type             X           Y           Z
 ---------------------------------------------------------------------
      1          8           0       -3.264407    0.868164    0.148165
      2          6           0       -2.130831    0.616378   -0.221235
      3          6           0       -1.145134    1.744669   -0.496748
      4          6           0        0.038149    1.791628    0.508037
      5          6           0        1.117165    0.760124    0.260365
      6          6           0        2.413153    1.179746   -0.064354
      7          6           0        3.435908    0.264240   -0.312302
      8          6           0        3.166625   -1.101051   -0.239517
      9          6           0        1.879023   -1.531058    0.081069
     10          6           0        0.843865   -0.622041    0.334943
     11          6           0       -0.536362   -1.144045    0.672056
     12          6           0       -1.651123   -0.828690   -0.376740
     13          6           0       -2.818961   -1.811523   -0.251795
     14          1           0       -0.744150    1.651600   -1.514580
     15          1           0       -1.715212    2.676391   -0.434678
     16          1           0       -0.364074    1.697416    1.526882
     17          1           0        0.485244    2.789911    0.451388
     18          1           0        2.622588    2.245790   -0.120771
     19          1           0        4.433430    0.617131   -0.559966
     20          1           0        3.951166   -1.828621   -0.429420
     21          1           0        1.669579   -2.596942    0.139998
     22          1           0       -0.866233   -0.771408    1.652874
     23          1           0       -0.480461   -2.233873    0.769320
     24          1           0       -1.195614   -0.924226   -1.373018
     25          1           0       -3.613894   -1.572444   -0.964151
     26          1           0       -2.477408   -2.835116   -0.441665
     27          1           0       -3.258566   -1.771188    0.749799
 ---------------------------------------------------------------------
 Rotational constants (GHZ):           1.6064670           0.5720214           0.4452875
 Standard basis: 6-31G(d) (6D, 7F)
 There are   223 symmetry adapted cartesian basis functions of A   symmetry.
 There are   223 symmetry adapted basis functions of A   symmetry.
   223 basis functions,   420 primitive gaussians,   223 cartesian basis functions
    47 alpha electrons       47 beta electrons
       nuclear repulsion energy       770.7869686899 Hartrees.
 NAtoms=   27 NActive=   27 NUniq=   27 SFac= 1.00D+00 NAtFMM=   60 NAOKFM=F Big=F
 Integral buffers will be    131072 words long.
 Raffenetti 2 integral format.
 Two-electron integral symmetry is turned on.
 One-electron integrals computed using PRISM.
 NBasis=   223 RedAO= T EigKep=  4.02D-04  NBF=   223
 NBsUse=   223 1.00D-06 EigRej= -1.00D+00 NBFU=   223
 ExpMin= 1.61D-01 ExpMax= 5.48D+03 ExpMxC= 8.25D+02 IAcc=3 IRadAn=         5 AccDes= 0.00D+00
 Harris functional with IExCor=  402 and IRadAn=       5 diagonalized for initial guess.
 HarFok:  IExCor=  402 AccDes= 0.00D+00 IRadAn=         5 IDoV= 1 UseB2=F ITyADJ=14
 ICtDFT=  3500011 ScaDFX=  1.000000  1.000000  1.000000  1.000000
 FoFCou: FMM=F IPFlag=           0 FMFlag=      100000 FMFlg1=           0
         NFxFlg=           0 DoJE=T BraDBF=F KetDBF=T FulRan=T
         wScrn=  0.000000 ICntrl=       500 IOpCl=  0 I1Cent=   200000004 NGrid=           0
         NMat0=    1 NMatS0=      1 NMatT0=    0 NMatD0=    1 NMtDS0=    0 NMtDT0=    0
 Petite list used in FoFCou.
 Requested convergence on RMS density matrix=1.00D-08 within 128 cycles.
 Requested convergence on MAX density matrix=1.00D-06.
 Requested convergence on             energy=1.00D-06.
 No special actions if energy rises.
 Integral accuracy reduced to 1.0D-05 until final iterations.
 Initial convergence to 1.0D-05 achieved.  Increase integral accuracy.
 SCF Done:  E(RB3LYP) =  -540.942867264     A.U. after   15 cycles
            NFock= 15  Conv=0.38D-08     -V/T= 2.0097
 DoSCS=F DFT=T ScalE2(SS,OS)=  1.000000  1.000000
 Range of M.O.s used for correlation:     1   223
 NBasis=   223 NAE=    47 NBE=    47 NFC=     0 NFV=     0
 NROrb=    223 NOA=    47 NOB=    47 NVA=   176 NVB=   176
 Symmetrizing basis deriv contribution to polar:
 IMax=3 JMax=2 DiffMx= 0.00D+00
 G2DrvN: will do    28 centers at a time, making    1 passes.
 Calling FoFCou, ICntrl=  3107 FMM=F I1Cent=   0 AccDes= 0.00D+00.
 End of G2Drv F.D. properties file   721 does not exist.
 End of G2Drv F.D. properties file   722 does not exist.
 End of G2Drv F.D. properties file   788 does not exist.
          IDoAtm=111111111111111111111111111
          Differentiating once with respect to electric field.
                with respect to dipole field.
          Differentiating once with respect to nuclear coordinates.
 Keep R1 ints in memory in canonical form, NReq=322414334.
          There are    84 degrees of freedom in the 1st order CPHF.  IDoFFX=6 NUNeed=     3.
     81 vectors produced by pass  0 Test12= 9.85D-15 1.19D-09 XBig12= 1.53D+02 6.02D+00.
 AX will form    81 AO Fock derivatives at one time.
     81 vectors produced by pass  1 Test12= 9.85D-15 1.19D-09 XBig12= 2.50D+01 1.07D+00.
     81 vectors produced by pass  2 Test12= 9.85D-15 1.19D-09 XBig12= 1.90D-01 7.23D-02.
     81 vectors produced by pass  3 Test12= 9.85D-15 1.19D-09 XBig12= 5.80D-04 2.02D-03.
     81 vectors produced by pass  4 Test12= 9.85D-15 1.19D-09 XBig12= 5.64D-07 7.90D-05.
     50 vectors produced by pass  5 Test12= 9.85D-15 1.19D-09 XBig12= 3.90D-10 1.90D-06.
      4 vectors produced by pass  6 Test12= 9.85D-15 1.19D-09 XBig12= 2.76D-13 4.77D-08.
      1 vectors produced by pass  7 Test12= 9.85D-15 1.19D-09 XBig12= 2.14D-16 1.88D-09.
 InvSVY:  IOpt=1 It=  1 EMax= 5.33D-15
 Solved reduced A of dimension   460 with    84 vectors.
 Isotropic polarizability for W=    0.000000      119.88 Bohr**3.
 End of Minotr F.D. properties file   721 does not exist.
 End of Minotr F.D. properties file   722 does not exist.
 End of Minotr F.D. properties file   788 does not exist.

 **********************************************************************

            Population analysis using the SCF density.

 **********************************************************************

 Orbital symmetries:
       Occupied  (A) (A) (A) (A) (A) (A) (A) (A) (A) (A) (A) (A)
                 (A) (A) (A) (A) (A) (A) (A) (A) (A) (A) (A) (A)
                 (A) (A) (A) (A) (A) (A) (A) (A) (A) (A) (A) (A)
                 (A) (A) (A) (A) (A) (A) (A) (A) (A) (A) (A)
       Virtual   (A) (A) (A) (A) (A) (A) (A) (A) (A) (A) (A) (A)
                 (A) (A) (A) (A) (A) (A) (A) (A) (A) (A) (A) (A)
                 (A) (A) (A) (A) (A) (A) (A) (A) (A) (A) (A) (A)
                 (A) (A) (A) (A) (A) (A) (A) (A) (A) (A) (A) (A)
                 (A) (A) (A) (A) (A) (A) (A) (A) (A) (A) (A) (A)
                 (A) (A) (A) (A) (A) (A) (A) (A) (A) (A) (A) (A)
                 (A) (A) (A) (A) (A) (A) (A) (A) (A) (A) (A) (A)
                 (A) (A) (A) (A) (A) (A) (A) (A) (A) (A) (A) (A)
                 (A) (A) (A) (A) (A) (A) (A) (A) (A) (A) (A) (A)
                 (A) (A) (A) (A) (A) (A) (A) (A) (A) (A) (A) (A)
                 (A) (A) (A) (A) (A) (A) (A) (A) (A) (A) (A) (A)
                 (A) (A) (A) (A) (A) (A) (A) (A) (A) (A) (A) (A)
                 (A) (A) (A) (A) (A) (A) (A) (A) (A) (A) (A) (A)
                 (A) (A) (A) (A) (A) (A) (A) (A) (A) (A) (A) (A)
                 (A) (A) (A) (A) (A) (A) (A) (A)
 The electronic state is 1-A.
 Alpha  occ. eigenvalues --  -19.13534 -10.26897 -10.20099 -10.20035 -10.19883
 Alpha  occ. eigenvalues --  -10.19838 -10.19789 -10.19356 -10.19084 -10.19049
 Alpha  occ. eigenvalues --  -10.19013 -10.18992 -10.17409  -1.03464  -0.86487
 Alpha  occ. eigenvalues --   -0.81231  -0.79098  -0.75333  -0.73817  -0.68612
 Alpha  occ. eigenvalues --   -0.65381  -0.62523  -0.60096  -0.56665  -0.52430
 Alpha  occ. eigenvalues --   -0.50819  -0.47715  -0.47398  -0.45902  -0.44687
 Alpha  occ. eigenvalues --   -0.43443  -0.42394  -0.41740  -0.40330  -0.39497
 Alpha  occ. eigenvalues --   -0.38912  -0.38134  -0.35984  -0.35774  -0.35256
 Alpha  occ. eigenvalues --   -0.34757  -0.33562  -0.33405  -0.32544  -0.24960
 Alpha  occ. eigenvalues --   -0.24099  -0.23772
 Alpha virt. eigenvalues --   -0.01383  -0.00493  -0.00074   0.08957   0.09869
 Alpha virt. eigenvalues --    0.10696   0.11062   0.13079   0.13905   0.14853
 Alpha virt. eigenvalues --    0.15785   0.16307   0.17082   0.17515   0.17655
 Alpha virt. eigenvalues --    0.18672   0.19140   0.20710   0.21105   0.24004
 Alpha virt. eigenvalues --    0.24649   0.26122   0.26279   0.26912   0.31529
 Alpha virt. eigenvalues --    0.32671   0.33808   0.34512   0.36497   0.37099
 Alpha virt. eigenvalues --    0.48117   0.50129   0.50956   0.51580   0.52498
 Alpha virt. eigenvalues --    0.54336   0.55150   0.55506   0.56368   0.57698
 Alpha virt. eigenvalues --    0.58749   0.59820   0.60847   0.61130   0.61649
 Alpha virt. eigenvalues --    0.62022   0.63438   0.64383   0.65987   0.66916
 Alpha virt. eigenvalues --    0.67868   0.68713   0.71099   0.72424   0.74555
 Alpha virt. eigenvalues --    0.75537   0.78406   0.79243   0.82301   0.82544
 Alpha virt. eigenvalues --    0.83087   0.83751   0.84242   0.85288   0.86607
 Alpha virt. eigenvalues --    0.87250   0.88175   0.88847   0.90017   0.90569
 Alpha virt. eigenvalues --    0.92774   0.93212   0.94195   0.95826   0.96303
 Alpha virt. eigenvalues --    0.97261   0.98345   1.01341   1.01803   1.04108
 Alpha virt. eigenvalues --    1.06834   1.08274   1.10973   1.13680   1.14819
 Alpha virt. eigenvalues --    1.17540   1.21282   1.21647   1.25640   1.32003
 Alpha virt. eigenvalues --    1.33875   1.36031   1.40786   1.42459   1.43924
 Alpha virt. eigenvalues --    1.44735   1.48548   1.49887   1.50515   1.53240
 Alpha virt. eigenvalues --    1.57288   1.59369   1.60936   1.66141   1.71444
 Alpha virt. eigenvalues --    1.74016   1.75082   1.77756   1.80396   1.81397
 Alpha virt. eigenvalues --    1.82387   1.82798   1.84304   1.87265   1.89220
 Alpha virt. eigenvalues --    1.91470   1.92338   1.92778   1.94033   1.96032
 Alpha virt. eigenvalues --    1.99076   1.99387   2.00793   2.03048   2.05592
 Alpha virt. eigenvalues --    2.06320   2.09154   2.11895   2.15991   2.17967
 Alpha virt. eigenvalues --    2.19158   2.22014   2.22281   2.23692   2.28493
 Alpha virt. eigenvalues --    2.29109   2.30478   2.32753   2.33929   2.35880
 Alpha virt. eigenvalues --    2.38543   2.40857   2.45798   2.46771   2.47681
 Alpha virt. eigenvalues --    2.49159   2.58217   2.60214   2.62641   2.64564
 Alpha virt. eigenvalues --    2.67081   2.68293   2.70043   2.75001   2.76966
 Alpha virt. eigenvalues --    2.78789   2.79553   2.81391   2.97219   2.98609
 Alpha virt. eigenvalues --    3.01900   3.09287   3.41049   4.01905   4.09137
 Alpha virt. eigenvalues --    4.12160   4.12482   4.16573   4.25369   4.31636
 Alpha virt. eigenvalues --    4.34477   4.42066   4.42662   4.58522   4.64589
 Alpha virt. eigenvalues --    4.73989
          Condensed to atoms (all electrons):
               1          2          3          4          5          6
     1  O    8.013528   0.581181  -0.078862  -0.000603  -0.000023  -0.000001
     2  C    0.581181   4.515450   0.348449  -0.026844  -0.004976  -0.000029
     3  C   -0.078862   0.348449   5.297629   0.325036  -0.038801  -0.001177
     4  C   -0.000603  -0.026844   0.325036   5.199535   0.349295  -0.060319
     5  C   -0.000023  -0.004976  -0.038801   0.349295   4.743039   0.527118
     6  C   -0.000001  -0.000029  -0.001177  -0.060319   0.527118   4.993571
     7  C   -0.000000   0.000005  -0.000164   0.007492  -0.024956   0.516973
     8  C   -0.000000   0.000004   0.000026  -0.000053  -0.040842  -0.027262
     9  C   -0.000001  -0.000043   0.000026   0.008807  -0.018773  -0.060931
    10  C    0.000064  -0.003801   0.001576  -0.069701   0.531981  -0.017298
    11  C   -0.001434  -0.026323   0.000171  -0.012315  -0.067048   0.008707
    12  C   -0.095124   0.295387  -0.130475   0.001515   0.001320   0.000042
    13  C    0.005265  -0.030934   0.006522  -0.000079   0.000039   0.000003
    14  H    0.002307  -0.027246   0.343738  -0.037905  -0.001043   0.001688
    15  H    0.005870  -0.025433   0.335888  -0.023577   0.004331  -0.000038
    16  H    0.001270  -0.004182  -0.048981   0.359419  -0.028307   0.001691
    17  H   -0.000074   0.003143  -0.028913   0.362185  -0.033358  -0.005387
    18  H    0.000000   0.000006   0.000255  -0.011207  -0.039370   0.350228
    19  H    0.000000   0.000000   0.000001  -0.000182   0.003619  -0.038662
    20  H   -0.000000   0.000000  -0.000000   0.000009   0.001032   0.004361
    21  H    0.000000   0.000005  -0.000001  -0.000178   0.005164   0.000685
    22  H    0.001358  -0.004611   0.000060   0.001714  -0.006156  -0.000137
    23  H   -0.000066   0.003080  -0.000229  -0.000015   0.004683  -0.000155
    24  H    0.002296  -0.032842   0.001204  -0.000440  -0.000417  -0.000142
    25  H    0.003245  -0.003350   0.000114   0.000004  -0.000004  -0.000000
    26  H    0.000666   0.004867  -0.000078  -0.000003   0.000004   0.000000
    27  H    0.004973  -0.005988   0.000190  -0.000011  -0.000010  -0.000000
               7          8          9         10         11         12
     1  O   -0.000000  -0.000000  -0.000001   0.000064  -0.001434  -0.095124
     2  C    0.000005   0.000004  -0.000043  -0.003801  -0.026323   0.295387
     3  C   -0.000164   0.000026   0.000026   0.001576   0.000171  -0.130475
     4  C    0.007492  -0.000053   0.008807  -0.069701  -0.012315   0.001515
     5  C   -0.024956  -0.040842  -0.018773   0.531981  -0.067048   0.001320
     6  C    0.516973  -0.027262  -0.060931  -0.017298   0.008707   0.000042
     7  C    4.872370   0.549410  -0.027408  -0.040802  -0.000039   0.000027
     8  C    0.549410   4.873730   0.515940  -0.024086   0.007486  -0.000144
     9  C   -0.027408   0.515940   4.995192   0.526355  -0.060575  -0.001440
    10  C   -0.040802  -0.024086   0.526355   4.741327   0.343652  -0.034659
    11  C   -0.000039   0.007486  -0.060575   0.343652   5.239587   0.331911
    12  C    0.000027  -0.000144  -0.001440  -0.034659   0.331911   5.257923
    13  C   -0.000000   0.000002  -0.000070   0.003719  -0.038910   0.336921
    14  H   -0.000075  -0.000012  -0.000099  -0.000059  -0.000365   0.003521
    15  H    0.000002  -0.000000   0.000003  -0.000044  -0.000127   0.007030
    16  H   -0.000230   0.000032  -0.000119  -0.005443   0.001370   0.000545
    17  H    0.000292  -0.000002  -0.000164   0.004750   0.000052  -0.000245
    18  H   -0.045639   0.004610   0.000685   0.005195  -0.000175  -0.000002
    19  H    0.355926  -0.042138   0.004372   0.001021   0.000009   0.000000
    20  H   -0.042142   0.355888  -0.038567   0.003592  -0.000184   0.000001
    21  H    0.004617  -0.045676   0.350441  -0.039607  -0.011078   0.000217
    22  H    0.000035  -0.000241   0.002025  -0.025033   0.350350  -0.045874
    23  H   -0.000006   0.000322  -0.005552  -0.034365   0.363702  -0.035409
    24  H   -0.000008  -0.000107   0.002129   0.002363  -0.049256   0.355534
    25  H    0.000000  -0.000000   0.000000  -0.000119   0.004195  -0.027727
    26  H   -0.000000   0.000000   0.000005  -0.000107  -0.005166  -0.030239
    27  H    0.000000  -0.000000   0.000002   0.000261  -0.004445  -0.033250
              13         14         15         16         17         18
     1  O    0.005265   0.002307   0.005870   0.001270  -0.000074   0.000000
     2  C   -0.030934  -0.027246  -0.025433  -0.004182   0.003143   0.000006
     3  C    0.006522   0.343738   0.335888  -0.048981  -0.028913   0.000255
     4  C   -0.000079  -0.037905  -0.023577   0.359419   0.362185  -0.011207
     5  C    0.000039  -0.001043   0.004331  -0.028307  -0.033358  -0.039370
     6  C    0.000003   0.001688  -0.000038   0.001691  -0.005387   0.350228
     7  C   -0.000000  -0.000075   0.000002  -0.000230   0.000292  -0.045639
     8  C    0.000002  -0.000012  -0.000000   0.000032  -0.000002   0.004610
     9  C   -0.000070  -0.000099   0.000003  -0.000119  -0.000164   0.000685
    10  C    0.003719  -0.000059  -0.000044  -0.005443   0.004750   0.005195
    11  C   -0.038910  -0.000365  -0.000127   0.001370   0.000052  -0.000175
    12  C    0.336921   0.003521   0.007030   0.000545  -0.000245  -0.000002
    13  C    5.091379  -0.000104  -0.000195  -0.000014   0.000003  -0.000000
    14  H   -0.000104   0.581768  -0.027011   0.005881  -0.002445   0.000120
    15  H   -0.000195  -0.027011   0.566014   0.000074  -0.006950  -0.000023
    16  H   -0.000014   0.005881   0.000074   0.585497  -0.033246   0.000177
    17  H    0.000003  -0.002445  -0.006950  -0.033246   0.577494   0.008484
    18  H   -0.000000   0.000120  -0.000023   0.000177   0.008484   0.607619
    19  H    0.000000   0.000001  -0.000000   0.000003  -0.000014  -0.005332
    20  H   -0.000000  -0.000000   0.000000  -0.000000  -0.000000  -0.000196
    21  H   -0.000042   0.000002  -0.000000  -0.000001   0.000003   0.000020
    22  H   -0.001413   0.000069  -0.000011   0.003094   0.000014  -0.000001
    23  H   -0.005943   0.000001   0.000007   0.000019  -0.000003   0.000003
    24  H   -0.040071   0.001631  -0.000121   0.000063  -0.000000   0.000002
    25  H    0.374455  -0.000023  -0.000006  -0.000002   0.000000   0.000000
    26  H    0.361257  -0.000008   0.000002  -0.000000  -0.000000   0.000000
    27  H    0.377580  -0.000004   0.000000  -0.000007   0.000000   0.000000
              19         20         21         22         23         24
     1  O    0.000000  -0.000000   0.000000   0.001358  -0.000066   0.002296
     2  C    0.000000   0.000000   0.000005  -0.004611   0.003080  -0.032842
     3  C    0.000001  -0.000000  -0.000001   0.000060  -0.000229   0.001204
     4  C   -0.000182   0.000009  -0.000178   0.001714  -0.000015  -0.000440
     5  C    0.003619   0.001032   0.005164  -0.006156   0.004683  -0.000417
     6  C   -0.038662   0.004361   0.000685  -0.000137  -0.000155  -0.000142
     7  C    0.355926  -0.042142   0.004617   0.000035  -0.000006  -0.000008
     8  C   -0.042138   0.355888  -0.045676  -0.000241   0.000322  -0.000107
     9  C    0.004372  -0.038567   0.350441   0.002025  -0.005552   0.002129
    10  C    0.001021   0.003592  -0.039607  -0.025033  -0.034365   0.002363
    11  C    0.000009  -0.000184  -0.011078   0.350350   0.363702  -0.049256
    12  C    0.000000   0.000001   0.000217  -0.045874  -0.035409   0.355534
    13  C    0.000000  -0.000000  -0.000042  -0.001413  -0.005943  -0.040071
    14  H    0.000001  -0.000000   0.000002   0.000069   0.000001   0.001631
    15  H   -0.000000   0.000000  -0.000000  -0.000011   0.000007  -0.000121
    16  H    0.000003  -0.000000  -0.000001   0.003094   0.000019   0.000063
    17  H   -0.000014  -0.000000   0.000003   0.000014  -0.000003  -0.000000
    18  H   -0.005332  -0.000196   0.000020  -0.000001   0.000003   0.000002
    19  H    0.597220  -0.005236  -0.000196  -0.000000  -0.000000  -0.000000
    20  H   -0.005236   0.597201  -0.005343   0.000003  -0.000015   0.000001
    21  H   -0.000196  -0.005343   0.607672   0.000188   0.008432   0.000166
    22  H   -0.000000   0.000003   0.000188   0.590314  -0.032924   0.006418
    23  H   -0.000000  -0.000015   0.008432  -0.032924   0.578931  -0.002183
    24  H   -0.000000   0.000001   0.000166   0.006418  -0.002183   0.608377
    25  H   -0.000000   0.000000   0.000001  -0.000166   0.000128  -0.002552
    26  H   -0.000000  -0.000000  -0.000005  -0.000010   0.004880  -0.002898
    27  H   -0.000000   0.000000   0.000002   0.003700  -0.000399   0.005219
              25         26         27
     1  O    0.003245   0.000666   0.004973
     2  C   -0.003350   0.004867  -0.005988
     3  C    0.000114  -0.000078   0.000190
     4  C    0.000004  -0.000003  -0.000011
     5  C   -0.000004   0.000004  -0.000010
     6  C   -0.000000   0.000000  -0.000000
     7  C    0.000000  -0.000000   0.000000
     8  C   -0.000000   0.000000  -0.000000
     9  C    0.000000   0.000005   0.000002
    10  C   -0.000119  -0.000107   0.000261
    11  C    0.004195  -0.005166  -0.004445
    12  C   -0.027727  -0.030239  -0.033250
    13  C    0.374455   0.361257   0.377580
    14  H   -0.000023  -0.000008  -0.000004
    15  H   -0.000006   0.000002   0.000000
    16  H   -0.000002  -0.000000  -0.000007
    17  H    0.000000  -0.000000   0.000000
    18  H    0.000000   0.000000   0.000000
    19  H   -0.000000  -0.000000  -0.000000
    20  H    0.000000  -0.000000   0.000000
    21  H    0.000001  -0.000005   0.000002
    22  H   -0.000166  -0.000010   0.003700
    23  H    0.000128   0.004880  -0.000399
    24  H   -0.002552  -0.002898   0.005219
    25  H    0.551318  -0.029767  -0.027696
    26  H   -0.029767   0.592096  -0.031104
    27  H   -0.027696  -0.031104   0.551859
 Mulliken charges:
               1
     1  O   -0.445834
     2  C    0.445026
     3  C   -0.333206
     4  C   -0.371578
     5  C    0.132458
     6  C   -0.193530
     7  C   -0.125681
     8  C   -0.126886
     9  C   -0.192238
    10  C    0.129267
    11  C   -0.373753
    12  C   -0.157308
    13  C   -0.439370
    14  H    0.155673
    15  H    0.164315
    16  H    0.161398
    17  H    0.154381
    18  H    0.124541
    19  H    0.129587
    20  H    0.129594
    21  H    0.124511
    22  H    0.157237
    23  H    0.153073
    24  H    0.145635
    25  H    0.157953
    26  H    0.135607
    27  H    0.159128
 Sum of Mulliken charges =  -0.00000
 Mulliken charges with hydrogens summed into heavy atoms:
               1
     1  O   -0.445834
     2  C    0.445026
     3  C   -0.013218
     4  C   -0.055799
     5  C    0.132458
     6  C   -0.068989
     7  C    0.003907
     8  C    0.002708
     9  C   -0.067727
    10  C    0.129267
    11  C   -0.063443
    12  C   -0.011673
    13  C    0.013318
 APT charges:
               1
     1  O   -0.635311
     2  C    0.677575
     3  C   -0.053845
     4  C    0.156987
     5  C   -0.000070
     6  C   -0.033492
     7  C   -0.019284
     8  C   -0.016965
     9  C   -0.040680
    10  C    0.016099
    11  C    0.124965
    12  C   -0.024170
    13  C    0.066629
    14  H   -0.004884
    15  H   -0.033211
    16  H   -0.039909
    17  H   -0.034239
    18  H    0.010147
    19  H    0.010859
    20  H    0.010608
    21  H    0.011682
    22  H   -0.038848
    23  H   -0.028681
    24  H   -0.032401
    25  H   -0.019760
    26  H   -0.025503
    27  H   -0.004300
 Sum of APT charges =   0.00000
 APT charges with hydrogens summed into heavy atoms:
               1
     1  O   -0.635311
     2  C    0.677575
     3  C   -0.091940
     4  C    0.082840
     5  C   -0.000070
     6  C   -0.023345
     7  C   -0.008425
     8  C   -0.006356
     9  C   -0.028998
    10  C    0.016099
    11  C    0.057437
    12  C   -0.056571
    13  C    0.017066
 Electronic spatial extent (au):  <R**2>=           2523.2460
 Charge=             -0.0000 electrons
 Dipole moment (field-independent basis, Debye):
    X=              2.4316    Y=             -0.5162    Z=             -0.5897  Tot=              2.5548
 Quadrupole moment (field-independent basis, Debye-Ang):
   XX=            -86.1679   YY=            -71.7511   ZZ=            -77.6064
   XY=              3.7050   XZ=              0.3168   YZ=             -0.5344
 Traceless Quadrupole moment (field-independent basis, Debye-Ang):
   XX=             -7.6595   YY=              6.7574   ZZ=              0.9021
   XY=              3.7050   XZ=              0.3168   YZ=             -0.5344
 Octapole moment (field-independent basis, Debye-Ang**2):
  XXX=             54.1169  YYY=              4.6220  ZZZ=              0.9861  XYY=              4.4578
  XXY=            -13.8495  XXZ=            -12.8610  XZZ=            -14.5843  YZZ=              2.5029
  YYZ=             -0.4148  XYZ=              1.7705
 Hexadecapole moment (field-independent basis, Debye-Ang**3):
 XXXX=          -2373.4559 YYYY=           -855.3775 ZZZZ=           -179.8303 XXXY=             37.7716
 XXXZ=            -13.6915 YYYX=            -15.8485 YYYZ=             -0.5313 ZZZX=             -0.8843
 ZZZY=              0.5078 XXYY=           -523.1042 XXZZ=           -424.3223 YYZZ=           -184.5970
 XXYZ=             -3.1867 YYXZ=             -1.8720 ZZXY=             -2.1035
 N-N= 7.707869686899D+02 E-N=-2.796211110977D+03  KE= 5.357324439179D+02
  Exact polarizability: 158.235  -1.468 129.103 -11.392   0.039  72.289
 Approx polarizability: 227.192  -6.323 203.722 -26.742   1.024 115.927
 Calling FoFJK, ICntrl=    100127 FMM=F ISym2X=0 I1Cent= 0 IOpClX= 0 NMat=1 NMatS=1 NMatT=0.
 Full mass-weighted force constant matrix:
 Low frequencies ---   -7.3946   -0.8039    0.0009    0.0012    0.0012    4.3067
 Low frequencies ---   57.1598   78.1442  129.0954
 Diagonal vibrational polarizability:
        4.6377180       6.1194614      27.1867723
 Harmonic frequencies (cm**-1), IR intensities (KM/Mole), Raman scattering
 activities (A**4/AMU), depolarization ratios for plane and unpolarized
 incident light, reduced masses (AMU), force constants (mDyne/A),
 and normal coordinates:
                      1                      2                      3
                      A                      A                      A
 Frequencies --     57.1530                78.1438               129.0950
 Red. masses --      6.6544                 3.2774                 3.7755
 Frc consts  --      0.0128                 0.0118                 0.0371
 IR Inten    --      2.7584                 0.2400                 1.5377
  Atom  AN      X      Y      Z        X      Y      Z        X      Y      Z
     1   8     0.12  -0.02   0.46     0.02   0.06  -0.01     0.16   0.02   0.09
     2   6    -0.01  -0.00   0.06    -0.00  -0.01  -0.04     0.10  -0.03  -0.07
     3   6    -0.06  -0.02  -0.16     0.04  -0.07  -0.10     0.12  -0.08  -0.17
     4   6    -0.02   0.04  -0.20    -0.02  -0.03  -0.03    -0.06   0.01   0.04
     5   6    -0.03   0.01  -0.11     0.00  -0.01   0.01    -0.03   0.02   0.16
     6   6    -0.00  -0.01  -0.02     0.03   0.03   0.15    -0.05   0.02   0.09
     7   6     0.03  -0.01   0.12     0.05   0.06   0.15    -0.09   0.03  -0.07
     8   6     0.04  -0.00   0.18     0.05   0.05  -0.02    -0.11   0.03  -0.15
     9   6     0.01   0.00   0.08     0.03   0.01  -0.15    -0.07   0.02  -0.03
    10   6    -0.02   0.01  -0.06     0.01  -0.02  -0.11    -0.04   0.02   0.12
    11   6    -0.03  -0.03  -0.12     0.02  -0.06  -0.11    -0.04   0.01   0.10
    12   6    -0.03   0.02  -0.11    -0.08  -0.04   0.01     0.05  -0.05  -0.01
    13   6    -0.03   0.00  -0.16    -0.12   0.03   0.22     0.01  -0.01  -0.06
    14   1    -0.11  -0.11  -0.17     0.10  -0.16  -0.07     0.30  -0.24  -0.08
    15   1    -0.05  -0.01  -0.18     0.07  -0.04  -0.21     0.12  -0.06  -0.40
    16   1    -0.00   0.15  -0.18    -0.08  -0.05  -0.05    -0.23   0.02  -0.03
    17   1    -0.00   0.03  -0.30    -0.04  -0.02   0.01    -0.07   0.02   0.09
    18   1    -0.00  -0.01  -0.06     0.02   0.03   0.26    -0.05   0.03   0.13
    19   1     0.05  -0.01   0.20     0.07   0.08   0.26    -0.11   0.03  -0.15
    20   1     0.06  -0.01   0.30     0.06   0.07  -0.04    -0.14   0.03  -0.30
    21   1     0.02   0.01   0.12     0.03   0.01  -0.25    -0.08   0.02  -0.08
    22   1    -0.05  -0.08  -0.11     0.07  -0.14  -0.07    -0.11   0.07   0.05
    23   1    -0.02  -0.03  -0.18     0.05  -0.07  -0.19    -0.03   0.02   0.17
    24   1    -0.04   0.09  -0.12    -0.21  -0.12  -0.05     0.13  -0.12   0.04
    25   1    -0.03   0.05  -0.14    -0.21   0.03   0.32     0.11  -0.07  -0.18
    26   1    -0.03   0.02  -0.23    -0.20  -0.00   0.23     0.01  -0.04   0.09
    27   1    -0.02  -0.05  -0.16     0.02   0.11   0.28    -0.11   0.10  -0.12
                      4                      5                      6
                      A                      A                      A
 Frequencies --    165.9261               219.7493               270.1042
 Red. masses --      3.1491                 1.0782                 3.4458
 Frc consts  --      0.0511                 0.0307                 0.1481
 IR Inten    --      0.1207                 0.2184                 0.9788
  Atom  AN      X      Y      Z        X      Y      Z        X      Y      Z
     1   8     0.05   0.07  -0.01    -0.01  -0.01   0.01    -0.12   0.14  -0.03
     2   6     0.04   0.03  -0.02    -0.00  -0.01   0.01    -0.09   0.05   0.12
     3   6     0.05   0.00  -0.02    -0.01   0.00   0.02    -0.02  -0.08  -0.08
     4   6    -0.05  -0.10   0.09     0.00  -0.01  -0.00    -0.00  -0.04  -0.11
     5   6    -0.04  -0.06   0.01     0.00  -0.01  -0.02     0.00  -0.06   0.00
     6   6    -0.11   0.02  -0.13     0.00   0.00  -0.01    -0.00  -0.01   0.05
     7   6    -0.05   0.08  -0.12     0.01   0.01   0.01     0.04   0.05   0.02
     8   6     0.07   0.07   0.08     0.02   0.01   0.00     0.06   0.04  -0.07
     9   6     0.11  -0.01   0.14     0.01  -0.00  -0.02     0.09  -0.02  -0.03
    10   6     0.02  -0.08   0.04     0.01  -0.01  -0.02     0.05  -0.07   0.04
    11   6     0.01  -0.13  -0.06     0.01  -0.00   0.01     0.04  -0.07   0.12
    12   6    -0.01   0.01  -0.02    -0.00  -0.01   0.01    -0.02   0.05   0.20
    13   6    -0.09   0.10   0.01    -0.04   0.03  -0.01    -0.01  -0.00  -0.14
    14   1     0.14  -0.01   0.02    -0.03   0.03   0.01    -0.06  -0.31  -0.07
    15   1     0.08   0.02  -0.05    -0.02  -0.00   0.05     0.08  -0.00  -0.24
    16   1    -0.13  -0.26   0.05     0.02  -0.02   0.00     0.00   0.09  -0.09
    17   1    -0.05  -0.09   0.28     0.00  -0.01  -0.00     0.02  -0.05  -0.21
    18   1    -0.20   0.03  -0.22    -0.00   0.00  -0.00    -0.05   0.00   0.08
    19   1    -0.10   0.14  -0.23     0.02   0.01   0.03     0.02   0.10   0.04
    20   1     0.13   0.11   0.16     0.02   0.01   0.02     0.07   0.07  -0.15
    21   1     0.20  -0.03   0.23     0.02  -0.00  -0.02     0.14  -0.04  -0.06
    22   1    -0.01  -0.29  -0.01     0.03   0.01   0.01     0.15  -0.15   0.19
    23   1     0.01  -0.15  -0.24     0.01  -0.00   0.02     0.01  -0.08   0.01
    24   1    -0.05  -0.01  -0.03     0.00  -0.02   0.02     0.03   0.19   0.20
    25   1    -0.09   0.19   0.04     0.23  -0.26  -0.41     0.11   0.13  -0.23
    26   1    -0.20   0.07  -0.02     0.02  -0.05   0.53     0.04   0.05  -0.31
    27   1    -0.05   0.13   0.03    -0.42   0.45  -0.20    -0.18  -0.23  -0.21
                      7                      8                      9
                      A                      A                      A
 Frequencies --    281.6208               304.6713               319.9299
 Red. masses --      2.6029                 3.9516                 2.2759
 Frc consts  --      0.1216                 0.2161                 0.1373
 IR Inten    --      0.5402                 3.0865                 0.8566
  Atom  AN      X      Y      Z        X      Y      Z        X      Y      Z
     1   8    -0.01   0.11   0.05     0.06  -0.13  -0.01    -0.03   0.05  -0.01
     2   6    -0.05   0.07  -0.04     0.08   0.04  -0.04    -0.02   0.06   0.01
     3   6    -0.00   0.02  -0.06    -0.10   0.17  -0.06    -0.03   0.07  -0.02
     4   6    -0.09  -0.14   0.07    -0.07  -0.01  -0.10    -0.00   0.08  -0.05
     5   6    -0.03  -0.04  -0.06    -0.11  -0.08  -0.06    -0.03  -0.00   0.07
     6   6    -0.04  -0.01  -0.04    -0.11  -0.04   0.03    -0.02  -0.03   0.08
     7   6    -0.01  -0.01   0.04    -0.05   0.01   0.11    -0.05  -0.03  -0.04
     8   6     0.01  -0.02   0.04    -0.01  -0.01  -0.05    -0.03  -0.03  -0.04
     9   6    -0.00  -0.05  -0.05     0.01  -0.07  -0.08     0.00  -0.01   0.08
    10   6     0.01  -0.03  -0.07     0.01  -0.10   0.02     0.00  -0.01   0.06
    11   6     0.00   0.11   0.01     0.05  -0.06   0.11     0.02  -0.12  -0.12
    12   6     0.01   0.08  -0.01     0.17   0.05   0.05     0.02   0.05  -0.03
    13   6     0.17  -0.09   0.04     0.07   0.19   0.05     0.14  -0.06   0.07
    14   1     0.07   0.00  -0.03    -0.20   0.37  -0.11    -0.07   0.07  -0.04
    15   1     0.07   0.07  -0.08    -0.16   0.11   0.18    -0.03   0.07   0.00
    16   1    -0.19  -0.42   0.00    -0.10  -0.00  -0.11    -0.00   0.23  -0.04
    17   1    -0.13  -0.11   0.37     0.02  -0.06  -0.05     0.06   0.04  -0.18
    18   1    -0.05  -0.01  -0.03    -0.13  -0.03   0.07     0.00  -0.03   0.09
    19   1     0.00   0.00   0.12    -0.04   0.07   0.23    -0.07  -0.02  -0.13
    20   1     0.05   0.01   0.11     0.03   0.04  -0.10    -0.05  -0.03  -0.13
    21   1    -0.00  -0.05  -0.05     0.03  -0.08  -0.13    -0.01  -0.01   0.09
    22   1     0.06   0.24  -0.02     0.08  -0.02   0.10    -0.04  -0.41  -0.02
    23   1    -0.09   0.11   0.14    -0.03  -0.07   0.11     0.07  -0.14  -0.43
    24   1     0.03   0.09   0.00     0.22  -0.01   0.09    -0.04   0.11  -0.07
    25   1     0.14  -0.32  -0.01     0.05   0.34   0.13     0.11  -0.33   0.00
    26   1     0.37  -0.04   0.15    -0.08   0.16  -0.03     0.30  -0.04   0.28
    27   1     0.14  -0.08   0.03     0.14   0.20   0.08     0.11   0.05   0.05
                     10                     11                     12
                      A                      A                      A
 Frequencies --    343.1185               399.6240               444.6814
 Red. masses --      4.1578                 2.4281                 2.3782
 Frc consts  --      0.2884                 0.2285                 0.2771
 IR Inten    --      2.5657                 1.7356                 2.2406
  Atom  AN      X      Y      Z        X      Y      Z        X      Y      Z
     1   8    -0.11  -0.11   0.06    -0.06  -0.09  -0.01    -0.07  -0.07   0.00
     2   6    -0.12   0.01  -0.07    -0.02  -0.00   0.06    -0.04   0.01   0.04
     3   6    -0.10  -0.03  -0.07    -0.01  -0.06  -0.07     0.06  -0.10   0.03
     4   6    -0.07  -0.12  -0.03    -0.08   0.00   0.07     0.07   0.03   0.01
     5   6     0.08  -0.02   0.07     0.03   0.10   0.01    -0.01  -0.07   0.12
     6   6     0.12  -0.01   0.16     0.05   0.01  -0.07    -0.09  -0.02  -0.06
     7   6     0.05  -0.02  -0.11     0.01  -0.08   0.01    -0.04   0.04   0.01
     8   6     0.05  -0.03  -0.12    -0.03  -0.07   0.04     0.03   0.03   0.07
     9   6     0.11  -0.03   0.15    -0.07   0.04  -0.04     0.01  -0.05  -0.10
    10   6     0.10  -0.01   0.07     0.02   0.10  -0.00     0.00  -0.07   0.03
    11   6    -0.00   0.14  -0.04     0.09  -0.04  -0.04    -0.04   0.06  -0.04
    12   6    -0.01   0.08  -0.11     0.06   0.06   0.07     0.02   0.08  -0.09
    13   6    -0.03   0.13   0.02     0.04   0.11  -0.00     0.07   0.08   0.02
    14   1    -0.12  -0.04  -0.08     0.10  -0.31   0.00     0.12  -0.36   0.08
    15   1    -0.00   0.03  -0.03     0.05  -0.01  -0.33     0.17  -0.01  -0.23
    16   1    -0.13  -0.20  -0.06    -0.16  -0.20   0.02     0.13   0.37   0.06
    17   1    -0.14  -0.08   0.07    -0.20   0.07   0.25     0.16  -0.03  -0.31
    18   1     0.15  -0.01   0.25     0.13  -0.01  -0.15    -0.18  -0.01  -0.20
    19   1     0.02  -0.02  -0.26     0.03  -0.14   0.03    -0.06   0.08  -0.02
    20   1     0.01  -0.03  -0.29    -0.06  -0.12   0.10     0.08   0.07   0.12
    21   1     0.13  -0.03   0.25    -0.18   0.06  -0.08     0.02  -0.06  -0.24
    22   1    -0.05   0.29  -0.11     0.08  -0.33   0.07    -0.06   0.19  -0.09
    23   1    -0.11   0.15   0.11     0.20  -0.06  -0.32    -0.16   0.06   0.08
    24   1    -0.03   0.05  -0.12     0.04   0.12   0.05     0.00   0.13  -0.10
    25   1    -0.08   0.14   0.09     0.09   0.18  -0.03     0.00   0.00   0.07
    26   1    -0.12   0.09   0.05    -0.01   0.09  -0.02     0.07   0.07   0.11
    27   1     0.06   0.23   0.06    -0.00   0.11  -0.03     0.15   0.18   0.06
                     13                     14                     15
                      A                      A                      A
 Frequencies --    486.4179               517.2487               566.3848
 Red. masses --      3.4229                 3.8564                 4.1481
 Frc consts  --      0.4772                 0.6079                 0.7840
 IR Inten    --      5.0768                 0.2049                 4.4654
  Atom  AN      X      Y      Z        X      Y      Z        X      Y      Z
     1   8    -0.01   0.04   0.04     0.02   0.02   0.00     0.06   0.23  -0.03
     2   6    -0.06   0.02  -0.11     0.00  -0.00  -0.03     0.01  -0.12   0.04
     3   6    -0.07   0.07  -0.04    -0.07   0.09  -0.05    -0.13  -0.21   0.13
     4   6    -0.04  -0.01  -0.01    -0.12   0.16   0.07    -0.10  -0.03  -0.03
     5   6     0.07   0.01   0.15    -0.06   0.05   0.17    -0.02   0.05  -0.00
     6   6     0.04  -0.03  -0.16    -0.04  -0.07   0.07    -0.05   0.04  -0.03
     7   6     0.13  -0.02   0.08    -0.07  -0.08  -0.13    -0.09  -0.04   0.09
     8   6     0.08  -0.01  -0.00     0.16  -0.11   0.11    -0.03  -0.06  -0.05
     9   6     0.02   0.04  -0.13     0.09  -0.05  -0.09     0.01  -0.05   0.03
    10   6     0.06   0.01   0.25     0.07  -0.00  -0.15     0.10   0.04   0.04
    11   6    -0.03  -0.03   0.04     0.10   0.04  -0.00     0.13   0.05  -0.05
    12   6    -0.04  -0.03  -0.05    -0.01  -0.05   0.06     0.10  -0.08  -0.10
    13   6    -0.06  -0.06   0.00    -0.06  -0.05  -0.02     0.05   0.07  -0.02
    14   1    -0.12   0.30  -0.08     0.02   0.12  -0.01    -0.22  -0.05   0.08
    15   1    -0.10   0.04   0.19    -0.16   0.03  -0.08    -0.26  -0.30   0.26
    16   1    -0.12  -0.02  -0.04    -0.22   0.32   0.04     0.04   0.11   0.04
    17   1    -0.07   0.01   0.05    -0.06   0.13  -0.03    -0.20  -0.00  -0.27
    18   1    -0.03  -0.03  -0.49     0.06  -0.09   0.04     0.00   0.03  -0.12
    19   1     0.12  -0.01   0.08    -0.14   0.03  -0.29    -0.08  -0.04   0.11
    20   1     0.02  -0.05  -0.10     0.24  -0.07   0.27    -0.00  -0.00  -0.15
    21   1    -0.06   0.03  -0.46     0.01  -0.03  -0.07    -0.09  -0.03  -0.00
    22   1    -0.18  -0.16   0.04     0.26   0.26  -0.03     0.04   0.14  -0.12
    23   1    -0.01  -0.04  -0.07     0.05   0.06   0.21     0.14   0.06   0.07
    24   1    -0.01  -0.09  -0.03    -0.04  -0.09   0.05     0.06   0.02  -0.12
    25   1    -0.09  -0.09   0.03     0.01   0.04  -0.07     0.04   0.21   0.04
    26   1    -0.06  -0.06   0.01    -0.08  -0.04  -0.09    -0.21  -0.02   0.04
    27   1    -0.02  -0.05   0.02    -0.14  -0.12  -0.05     0.12   0.26   0.01
                     16                     17                     18
                      A                      A                      A
 Frequencies --    586.9542               628.6829               703.3769
 Red. masses --      3.2805                 4.7670                 3.3003
 Frc consts  --      0.6659                 1.1101                 0.9620
 IR Inten    --      1.3287                 2.5547                 4.8133
  Atom  AN      X      Y      Z        X      Y      Z        X      Y      Z
     1   8     0.02   0.03  -0.00     0.03   0.08  -0.01     0.12  -0.07  -0.08
     2   6     0.01  -0.02  -0.02     0.01  -0.05   0.02     0.17  -0.04   0.15
     3   6    -0.04  -0.04  -0.02    -0.08  -0.10   0.05     0.00  -0.05  -0.00
     4   6     0.04  -0.15  -0.12    -0.08   0.01   0.02    -0.05  -0.06  -0.08
     5   6     0.12  -0.04   0.11    -0.09  -0.03  -0.04    -0.03  -0.01   0.08
     6   6     0.08   0.09   0.09     0.05  -0.21   0.05    -0.05  -0.08  -0.01
     7   6    -0.04   0.05  -0.15     0.21  -0.02  -0.14     0.02  -0.01   0.05
     8   6    -0.08   0.07   0.20     0.13   0.03   0.03     0.05  -0.02  -0.03
     9   6    -0.12  -0.02  -0.10    -0.00   0.24  -0.06     0.03   0.07   0.04
    10   6    -0.03  -0.00  -0.03    -0.19   0.02  -0.03    -0.02   0.03   0.00
    11   6     0.00  -0.01   0.01    -0.16  -0.09   0.09    -0.06   0.13  -0.12
    12   6     0.02   0.01   0.05     0.06  -0.01  -0.06    -0.11   0.13   0.10
    13   6     0.04   0.03   0.00     0.11   0.09   0.00    -0.03   0.01   0.02
    14   1    -0.28   0.26  -0.14    -0.06  -0.12   0.06    -0.22   0.07  -0.10
    15   1    -0.04  -0.07   0.39    -0.15  -0.14  -0.01    -0.12  -0.15   0.21
    16   1    -0.02  -0.11  -0.13    -0.03   0.01   0.04    -0.17  -0.12  -0.13
    17   1    -0.01  -0.13  -0.11    -0.14   0.03  -0.04    -0.07  -0.05   0.05
    18   1     0.00   0.10   0.03     0.04  -0.19   0.23    -0.12  -0.08  -0.25
    19   1    -0.06  -0.09  -0.40     0.18   0.12  -0.09    -0.06   0.09  -0.14
    20   1    -0.06   0.06   0.32    -0.01  -0.17   0.24    -0.04  -0.05  -0.25
    21   1    -0.11  -0.03  -0.24     0.09   0.22   0.05    -0.04   0.08  -0.13
    22   1     0.05  -0.11   0.06    -0.23  -0.04   0.04     0.01   0.09  -0.08
    23   1     0.04  -0.02  -0.09    -0.15  -0.08   0.12    -0.10   0.13  -0.15
    24   1     0.05   0.01   0.06     0.18   0.04  -0.00    -0.25   0.20   0.02
    25   1     0.06   0.07  -0.01     0.02   0.05   0.10     0.03  -0.13  -0.09
    26   1     0.02   0.03  -0.02     0.04   0.04   0.10     0.28   0.12  -0.07
    27   1     0.01   0.01  -0.01     0.25   0.23   0.06    -0.16  -0.24  -0.03
                     19                     20                     21
                      A                      A                      A
 Frequencies --    736.3069               756.1075               760.6711
 Red. masses --      2.6486                 3.2479                 2.8745
 Frc consts  --      0.8460                 1.0940                 0.9800
 IR Inten    --      2.8618                 5.0333                 6.0178
  Atom  AN      X      Y      Z        X      Y      Z        X      Y      Z
     1   8    -0.01   0.01  -0.05    -0.06   0.00   0.02     0.06  -0.03  -0.01
     2   6     0.08   0.02   0.24    -0.04   0.03   0.02     0.03  -0.02  -0.07
     3   6    -0.03   0.08  -0.02     0.09   0.04   0.01     0.00  -0.07   0.05
     4   6    -0.04   0.07  -0.04     0.10  -0.08  -0.06    -0.02   0.02   0.01
     5   6     0.02   0.03  -0.08    -0.09  -0.01  -0.11    -0.04   0.05  -0.17
     6   6     0.06   0.07   0.04    -0.10  -0.12   0.11    -0.00   0.06   0.05
     7   6     0.00   0.01  -0.04    -0.09  -0.03  -0.01    -0.10  -0.02  -0.10
     8   6     0.00   0.01   0.06     0.06  -0.03   0.08     0.09  -0.06   0.04
     9   6    -0.00  -0.09  -0.04    -0.00   0.17  -0.03     0.03  -0.06  -0.11
    10   6     0.03  -0.05   0.09     0.03   0.10   0.11     0.08   0.01   0.18
    11   6    -0.05  -0.07  -0.01     0.12   0.05  -0.02    -0.06   0.05   0.04
    12   6     0.03  -0.06  -0.09     0.05  -0.06  -0.04    -0.08   0.10   0.01
    13   6    -0.02  -0.04  -0.01    -0.03  -0.04  -0.01    -0.03   0.01   0.01
    14   1    -0.14  -0.23  -0.04     0.02  -0.01  -0.01     0.08  -0.03   0.08
    15   1    -0.06   0.08  -0.24     0.23   0.12   0.04    -0.06  -0.11   0.01
    16   1    -0.14  -0.25  -0.11     0.13  -0.23  -0.06     0.12  -0.00   0.06
    17   1    -0.06   0.10   0.34     0.16  -0.10   0.09    -0.09   0.04  -0.10
    18   1     0.07   0.07   0.01    -0.13  -0.13   0.01     0.18   0.04   0.46
    19   1     0.00  -0.07  -0.17    -0.23   0.14  -0.29    -0.02   0.02   0.27
    20   1     0.01   0.05  -0.07    -0.07  -0.08  -0.24     0.23   0.03   0.29
    21   1    -0.01  -0.10  -0.24    -0.21   0.20  -0.36     0.00  -0.06  -0.08
    22   1    -0.19   0.22  -0.17     0.04   0.03  -0.04    -0.16  -0.27   0.13
    23   1    -0.10  -0.04   0.34     0.24   0.06   0.03    -0.08   0.02  -0.30
    24   1    -0.06   0.14  -0.15     0.01  -0.04  -0.06    -0.02   0.03   0.04
    25   1    -0.11  -0.09   0.07    -0.01   0.07   0.01    -0.06  -0.14  -0.01
    26   1    -0.09  -0.08   0.10    -0.20  -0.10   0.01     0.19   0.08  -0.02
    27   1     0.11   0.11   0.04    -0.03   0.05  -0.01    -0.03  -0.11   0.01
                     22                     23                     24
                      A                      A                      A
 Frequencies --    779.0460               839.5699               879.8154
 Red. masses --      1.4978                 2.7036                 1.6842
 Frc consts  --      0.5356                 1.1228                 0.7681
 IR Inten    --     26.1720                 0.7247                 2.9652
  Atom  AN      X      Y      Z        X      Y      Z        X      Y      Z
     1   8    -0.02  -0.00  -0.01     0.04  -0.00  -0.01     0.03  -0.02  -0.01
     2   6     0.01   0.01   0.08     0.03   0.03  -0.02     0.05   0.08   0.01
     3   6     0.02   0.02  -0.03    -0.09   0.05   0.02    -0.04   0.03   0.06
     4   6     0.03  -0.04  -0.04    -0.08  -0.02   0.06    -0.07  -0.08  -0.02
     5   6     0.01  -0.01   0.09    -0.03  -0.09  -0.05    -0.00  -0.01  -0.01
     6   6    -0.04  -0.03  -0.04     0.02  -0.09  -0.02     0.03   0.01   0.07
     7   6    -0.03  -0.01  -0.05     0.13   0.04  -0.08     0.02  -0.01   0.04
     8   6    -0.02  -0.00  -0.07    -0.12   0.10   0.06    -0.02  -0.01  -0.04
     9   6    -0.01   0.05  -0.03    -0.06  -0.02   0.03    -0.02   0.02  -0.07
    10   6     0.01   0.03   0.04     0.03  -0.04   0.10     0.02   0.02   0.00
    11   6     0.04   0.01  -0.03     0.12   0.07  -0.11     0.05  -0.00   0.06
    12   6     0.02  -0.02  -0.03     0.03  -0.00   0.04     0.00   0.04  -0.06
    13   6    -0.02  -0.02  -0.00    -0.03  -0.03   0.03    -0.07  -0.04  -0.02
    14   1    -0.13   0.04  -0.10     0.16  -0.17   0.14     0.08  -0.22   0.13
    15   1     0.06   0.04   0.09    -0.07   0.08  -0.28     0.09   0.12  -0.17
    16   1    -0.11  -0.06  -0.10     0.09   0.24   0.15     0.09   0.12   0.06
    17   1     0.05  -0.04   0.07     0.03  -0.09  -0.25    -0.03  -0.11  -0.24
    18   1     0.03  -0.03   0.27    -0.04  -0.06   0.31    -0.10   0.01  -0.46
    19   1     0.11   0.03   0.55     0.23  -0.06   0.16    -0.06  -0.03  -0.29
    20   1     0.11  -0.02   0.55    -0.23  -0.00   0.03     0.03  -0.03   0.27
    21   1     0.05   0.06   0.35    -0.04  -0.04  -0.26     0.09   0.03   0.47
    22   1    -0.02   0.07  -0.07     0.14   0.13  -0.13     0.04  -0.05   0.07
    23   1     0.07   0.02   0.06     0.09   0.08  -0.00     0.08  -0.01  -0.02
    24   1    -0.04   0.06  -0.06    -0.16  -0.08  -0.04     0.07   0.01  -0.02
    25   1    -0.03   0.00   0.01     0.12   0.08  -0.10    -0.18  -0.19   0.06
    26   1    -0.08  -0.05   0.02    -0.02  -0.01  -0.10     0.02  -0.02   0.05
    27   1     0.00   0.03   0.00    -0.22  -0.17  -0.05     0.05  -0.02   0.04
                     25                     26                     27
                      A                      A                      A
 Frequencies --    894.6454               917.0498               932.5689
 Red. masses --      1.8926                 2.0137                 1.8465
 Frc consts  --      0.8925                 0.9978                 0.9462
 IR Inten    --      3.1972                 4.5149                 0.2366
  Atom  AN      X      Y      Z        X      Y      Z        X      Y      Z
     1   8     0.02  -0.02  -0.01    -0.00  -0.00  -0.01     0.01   0.01  -0.01
     2   6     0.04   0.08   0.01    -0.00  -0.05   0.01     0.02   0.02   0.05
     3   6    -0.00   0.01   0.03     0.03  -0.05  -0.03    -0.04   0.05   0.01
     4   6    -0.06  -0.10  -0.02     0.02   0.08   0.01    -0.01  -0.03  -0.01
     5   6     0.02   0.02   0.05    -0.02  -0.02   0.00     0.02  -0.03   0.04
     6   6    -0.00   0.06  -0.09    -0.02  -0.09  -0.02    -0.01   0.01  -0.03
     7   6    -0.04  -0.03  -0.02     0.06   0.03  -0.00    -0.00   0.02   0.00
     8   6     0.03  -0.04   0.03    -0.06   0.06   0.04     0.04  -0.02   0.01
     9   6     0.03   0.06   0.08    -0.02  -0.05   0.00     0.02  -0.04   0.01
    10   6    -0.01   0.03  -0.07     0.02  -0.02  -0.03    -0.03   0.02  -0.04
    11   6     0.01  -0.08   0.07     0.11   0.05   0.10    -0.11   0.16   0.00
    12   6    -0.01   0.04  -0.04    -0.04   0.09  -0.07     0.09  -0.05   0.01
    13   6    -0.05  -0.01  -0.03    -0.07  -0.03  -0.06    -0.01  -0.09  -0.00
    14   1     0.03  -0.07   0.05    -0.10   0.11  -0.09    -0.04  -0.17   0.03
    15   1     0.15   0.11   0.01    -0.12  -0.15   0.11     0.02   0.10  -0.16
    16   1     0.00   0.18   0.03    -0.13  -0.06  -0.06     0.01   0.03   0.00
    17   1    -0.05  -0.13  -0.31     0.01   0.10   0.20     0.06  -0.07  -0.03
    18   1     0.19   0.05   0.41    -0.05  -0.07   0.18     0.01   0.01   0.16
    19   1     0.04  -0.05   0.24     0.04   0.02  -0.07    -0.01   0.06   0.02
    20   1    -0.07  -0.06  -0.30    -0.12   0.04  -0.14     0.05   0.03  -0.14
    21   1    -0.15   0.07  -0.38     0.05  -0.06   0.03     0.01  -0.05  -0.02
    22   1     0.07   0.05   0.03     0.24  -0.16   0.22    -0.14  -0.34   0.18
    23   1     0.02  -0.07   0.19     0.12   0.03  -0.18     0.04   0.12  -0.50
    24   1     0.07   0.06  -0.01     0.20   0.29   0.02     0.31  -0.07   0.12
    25   1    -0.20  -0.23   0.07    -0.35  -0.28   0.16     0.02   0.17   0.05
    26   1     0.08   0.01   0.08    -0.03  -0.06   0.17    -0.37  -0.22   0.05
    27   1     0.12   0.01   0.05     0.25   0.18   0.08     0.01   0.15  -0.00
                     28                     29                     30
                      A                      A                      A
 Frequencies --    946.8937               971.4109               984.4517
 Red. masses --      1.3667                 2.2866                 1.2623
 Frc consts  --      0.7220                 1.2713                 0.7208
 IR Inten    --      0.4926                 1.8494                 0.0056
  Atom  AN      X      Y      Z        X      Y      Z        X      Y      Z
     1   8    -0.01  -0.00   0.00    -0.05  -0.01   0.01     0.00   0.00  -0.00
     2   6    -0.00   0.00   0.01    -0.02   0.00   0.04     0.00  -0.00   0.00
     3   6     0.02   0.00  -0.01     0.23  -0.01   0.02    -0.00   0.00  -0.01
     4   6    -0.01  -0.01   0.01    -0.18  -0.01  -0.04     0.00  -0.00   0.01
     5   6     0.00   0.00   0.01    -0.07   0.03  -0.05    -0.00  -0.00  -0.01
     6   6    -0.02   0.01  -0.09     0.03   0.02   0.02    -0.01   0.00  -0.05
     7   6     0.02  -0.00   0.07     0.08   0.01  -0.03     0.02   0.00   0.09
     8   6     0.02  -0.00   0.06    -0.01  -0.00  -0.01    -0.02  -0.00  -0.09
     9   6    -0.03   0.01  -0.10    -0.01  -0.06   0.01     0.01   0.00   0.05
    10   6     0.01   0.00   0.04     0.00  -0.00   0.01     0.00   0.00   0.01
    11   6    -0.00  -0.01  -0.02    -0.02   0.02  -0.02    -0.00   0.00   0.00
    12   6    -0.00  -0.01   0.01     0.02  -0.01   0.02     0.00   0.00   0.00
    13   6     0.01   0.01   0.01     0.02  -0.04  -0.01    -0.00  -0.00  -0.00
    14   1     0.00   0.06  -0.02     0.23   0.41  -0.01     0.00   0.01  -0.01
    15   1     0.03   0.00   0.06     0.28  -0.00   0.39    -0.01  -0.01   0.00
    16   1    -0.04   0.07   0.00    -0.28   0.28  -0.05     0.01   0.01   0.01
    17   1     0.00  -0.02  -0.06    -0.17  -0.02  -0.27     0.01  -0.00  -0.01
    18   1     0.14   0.01   0.52    -0.02   0.03  -0.13     0.09   0.00   0.35
    19   1    -0.09  -0.01  -0.39     0.11  -0.04  -0.02    -0.14  -0.00  -0.58
    20   1    -0.09  -0.01  -0.34    -0.01  -0.03   0.08     0.15   0.00   0.58
    21   1     0.13   0.01   0.57    -0.01  -0.07  -0.05    -0.09  -0.00  -0.35
    22   1    -0.07   0.05  -0.07    -0.04  -0.01  -0.02     0.00  -0.00   0.00
    23   1    -0.01  -0.01   0.05    -0.03   0.02  -0.03     0.00   0.00   0.01
    24   1    -0.09  -0.01  -0.04     0.03   0.16   0.01     0.01   0.02   0.00
    25   1     0.07   0.05  -0.04     0.04   0.13   0.03    -0.01  -0.00   0.01
    26   1     0.02   0.02  -0.04    -0.22  -0.12   0.04    -0.01  -0.01   0.01
    27   1    -0.06  -0.04  -0.02     0.03   0.13  -0.01     0.01   0.01   0.00
                     31                     32                     33
                      A                      A                      A
 Frequencies --   1012.0272              1061.8004              1082.9120
 Red. masses --      2.0491                 2.3204                 2.3911
 Frc consts  --      1.2365                 1.5414                 1.6521
 IR Inten    --      2.2009                 5.8040                 3.2861
  Atom  AN      X      Y      Z        X      Y      Z        X      Y      Z
     1   8    -0.00  -0.01   0.01     0.02  -0.02   0.01    -0.00   0.00  -0.00
     2   6    -0.00   0.08  -0.06    -0.00   0.08  -0.09    -0.00  -0.04   0.03
     3   6     0.05  -0.03   0.17    -0.02  -0.08   0.04     0.02   0.05   0.01
     4   6    -0.04   0.07  -0.16     0.02   0.05  -0.02    -0.06  -0.01  -0.02
     5   6    -0.00   0.04   0.06     0.02   0.03   0.00     0.04   0.00  -0.00
     6   6    -0.03  -0.06  -0.02     0.01  -0.02  -0.01     0.07  -0.12  -0.02
     7   6     0.03   0.02  -0.00    -0.05  -0.05   0.01    -0.14  -0.10   0.04
     8   6    -0.01   0.03   0.00    -0.02   0.05   0.01    -0.10   0.16   0.02
     9   6    -0.01  -0.06   0.01     0.02   0.06  -0.01     0.10   0.07  -0.02
    10   6    -0.00  -0.01  -0.02    -0.00  -0.06   0.02     0.04  -0.00  -0.01
    11   6     0.02   0.01   0.03    -0.03  -0.06  -0.09    -0.04   0.03   0.02
    12   6     0.01  -0.02  -0.05     0.12   0.14   0.09    -0.06  -0.05  -0.00
    13   6    -0.00   0.03   0.04    -0.05  -0.13   0.01     0.04   0.03  -0.02
    14   1    -0.16  -0.33   0.11    -0.06  -0.05   0.02     0.16   0.06   0.07
    15   1     0.25   0.10   0.01     0.01  -0.07   0.07     0.01   0.05  -0.06
    16   1    -0.19  -0.29  -0.24     0.04  -0.16  -0.03    -0.01   0.04   0.01
    17   1    -0.25   0.18   0.22    -0.22   0.16   0.07    -0.02  -0.03  -0.07
    18   1    -0.01  -0.05   0.13     0.13  -0.04  -0.01     0.46  -0.21  -0.11
    19   1     0.01   0.06  -0.03    -0.04  -0.11   0.01    -0.08  -0.33   0.02
    20   1     0.01   0.06  -0.01    -0.02   0.06   0.00     0.06   0.36  -0.02
    21   1     0.03  -0.07  -0.03     0.15   0.04   0.01     0.50  -0.01  -0.13
    22   1     0.02  -0.06   0.06     0.14   0.22  -0.14    -0.04  -0.08   0.06
    23   1     0.04  -0.00  -0.05    -0.37  -0.06   0.11     0.03   0.02  -0.07
    24   1     0.01  -0.43  -0.01     0.23   0.33   0.11    -0.05  -0.07   0.00
    25   1     0.10  -0.02  -0.09    -0.03   0.12   0.07     0.01   0.02   0.01
    26   1     0.15   0.10  -0.11    -0.41  -0.26   0.06     0.05   0.04   0.01
    27   1    -0.15  -0.20  -0.02    -0.09   0.09  -0.01     0.09   0.06   0.00
                     34                     35                     36
                      A                      A                      A
 Frequencies --   1099.2654              1119.7227              1129.2143
 Red. masses --      2.0997                 2.0854                 1.6911
 Frc consts  --      1.4949                 1.5405                 1.2705
 IR Inten    --      8.2172                 9.5823                 3.3502
  Atom  AN      X      Y      Z        X      Y      Z        X      Y      Z
     1   8    -0.03  -0.00  -0.00     0.00   0.00  -0.00    -0.03   0.02   0.01
     2   6     0.03   0.11   0.05    -0.00  -0.03   0.00    -0.02  -0.03   0.01
     3   6    -0.00  -0.10  -0.10     0.03   0.01   0.03     0.02   0.00   0.00
     4   6     0.03   0.00   0.13    -0.02   0.05  -0.01    -0.01   0.02   0.01
     5   6    -0.02   0.01  -0.05    -0.02  -0.11  -0.01    -0.02  -0.03  -0.01
     6   6     0.02  -0.03   0.01     0.01   0.15  -0.00     0.00   0.04   0.00
     7   6    -0.02  -0.01   0.01    -0.01  -0.05   0.00     0.00  -0.02   0.00
     8   6    -0.02   0.03   0.00    -0.01  -0.05   0.00    -0.01  -0.01   0.00
     9   6     0.02  -0.01   0.01     0.05   0.14  -0.01     0.02   0.04  -0.01
    10   6    -0.01   0.01  -0.03    -0.03  -0.10   0.01     0.01  -0.03   0.04
    11   6    -0.00   0.01   0.05     0.05   0.04   0.05    -0.04   0.03  -0.11
    12   6     0.12   0.03  -0.10    -0.04   0.03  -0.08     0.11  -0.06   0.08
    13   6    -0.07  -0.01   0.08     0.03  -0.02   0.04    -0.09   0.07  -0.05
    14   1    -0.40   0.05  -0.26    -0.13  -0.10  -0.02    -0.05   0.00  -0.03
    15   1     0.05  -0.09   0.30    -0.08  -0.05  -0.04     0.05   0.02   0.04
    16   1    -0.16   0.24   0.07    -0.28   0.10  -0.10    -0.11   0.06  -0.03
    17   1     0.02  -0.01  -0.09     0.17  -0.03   0.15     0.07  -0.02   0.04
    18   1     0.11  -0.05  -0.11    -0.14   0.18   0.03    -0.04   0.05   0.01
    19   1    -0.01  -0.04   0.00     0.11  -0.42  -0.03     0.04  -0.14  -0.02
    20   1     0.05   0.11  -0.01    -0.25  -0.32   0.07    -0.08  -0.10   0.03
    21   1     0.09  -0.03  -0.08     0.21   0.11  -0.07     0.08   0.03   0.01
    22   1    -0.24  -0.09   0.00     0.21  -0.05   0.13     0.16   0.08  -0.06
    23   1     0.06   0.00  -0.05    -0.11   0.01  -0.17    -0.10   0.03  -0.05
    24   1     0.03  -0.23  -0.12    -0.07  -0.09  -0.08     0.42  -0.30   0.25
    25   1     0.10  -0.05  -0.13     0.17   0.17  -0.06    -0.30  -0.40   0.04
    26   1     0.09   0.07  -0.14    -0.11  -0.04  -0.09     0.36   0.18   0.10
    27   1    -0.31  -0.33  -0.02    -0.15  -0.02  -0.04     0.19  -0.12   0.08
                     37                     38                     39
                      A                      A                      A
 Frequencies --   1154.6340              1196.9721              1202.8497
 Red. masses --      1.8977                 1.1033                 1.2496
 Frc consts  --      1.4906                 0.9313                 1.0653
 IR Inten    --     16.7140                 0.0439                 8.6192
  Atom  AN      X      Y      Z        X      Y      Z        X      Y      Z
     1   8    -0.03   0.03   0.01    -0.00  -0.00  -0.00     0.00   0.01   0.00
     2   6    -0.03  -0.14   0.03     0.00   0.00   0.01    -0.02  -0.08  -0.01
     3   6     0.02   0.04   0.01     0.00  -0.00  -0.00     0.02   0.04   0.03
     4   6    -0.02   0.00  -0.07    -0.01   0.00   0.00    -0.02  -0.02   0.00
     5   6     0.03  -0.01   0.04     0.02   0.00  -0.00    -0.01  -0.01  -0.02
     6   6    -0.00   0.01  -0.01     0.03  -0.01  -0.01     0.05  -0.01  -0.01
     7   6    -0.01  -0.00   0.00    -0.03   0.05   0.01    -0.02   0.02   0.00
     8   6     0.01  -0.01  -0.00    -0.04  -0.04   0.01     0.03   0.01  -0.01
     9   6    -0.00   0.01   0.01     0.03  -0.00  -0.01    -0.05   0.00   0.01
    10   6    -0.02  -0.01  -0.03     0.01  -0.01  -0.00    -0.00  -0.01   0.02
    11   6     0.01   0.00   0.04    -0.01  -0.00   0.00     0.01  -0.02  -0.00
    12   6     0.15   0.06  -0.06    -0.00  -0.00  -0.00     0.00   0.04  -0.03
    13   6    -0.09   0.00   0.08     0.00   0.00   0.00    -0.00  -0.01   0.03
    14   1     0.52   0.25   0.19     0.01   0.01   0.00    -0.11  -0.12  -0.01
    15   1    -0.13  -0.04  -0.15    -0.01  -0.01   0.00    -0.01   0.02  -0.06
    16   1     0.22  -0.17   0.01    -0.00   0.00   0.00    -0.28   0.17  -0.08
    17   1    -0.05   0.02   0.02    -0.03   0.01  -0.01     0.32  -0.17   0.09
    18   1    -0.03   0.01   0.03     0.29  -0.06  -0.07     0.39  -0.08  -0.10
    19   1    -0.01   0.00   0.01    -0.21   0.60   0.05    -0.09   0.25   0.02
    20   1    -0.00  -0.01  -0.01    -0.41  -0.46   0.10     0.19   0.21  -0.05
    21   1     0.01   0.01  -0.02     0.28  -0.06  -0.07    -0.37   0.07   0.09
    22   1    -0.25  -0.04  -0.04     0.01   0.00   0.01     0.28   0.07   0.05
    23   1    -0.04  -0.01  -0.05    -0.03  -0.00  -0.01    -0.31  -0.04  -0.06
    24   1     0.00   0.30  -0.15     0.01  -0.02   0.01     0.12  -0.03   0.03
    25   1     0.04  -0.11  -0.11     0.00   0.00  -0.00     0.05   0.03  -0.03
    26   1     0.14   0.11  -0.11    -0.00  -0.00  -0.00    -0.01   0.00  -0.05
    27   1    -0.28  -0.32   0.00    -0.00  -0.00  -0.00    -0.08  -0.04  -0.01
                     40                     41                     42
                      A                      A                      A
 Frequencies --   1210.0563              1216.0348              1248.4818
 Red. masses --      1.7850                 1.7713                 2.1805
 Frc consts  --      1.5399                 1.5433                 2.0025
 IR Inten    --      6.3587                 1.5407                 0.5688
  Atom  AN      X      Y      Z        X      Y      Z        X      Y      Z
     1   8     0.03   0.01   0.00     0.01  -0.00   0.01     0.00  -0.00   0.00
     2   6    -0.03  -0.08  -0.06    -0.02   0.02  -0.07    -0.01  -0.00  -0.02
     3   6    -0.01   0.02   0.04     0.01  -0.01   0.05     0.02   0.01   0.03
     4   6     0.04  -0.04  -0.01    -0.02   0.04  -0.00    -0.05   0.04   0.02
     5   6    -0.12   0.08   0.02     0.03  -0.11  -0.02     0.16  -0.11  -0.06
     6   6    -0.02   0.01   0.01     0.07   0.03  -0.02    -0.01  -0.06   0.00
     7   6     0.05   0.01  -0.01    -0.05   0.02   0.01    -0.04   0.01   0.01
     8   6    -0.05   0.00   0.01     0.04  -0.03  -0.01    -0.05   0.01   0.01
     9   6     0.06  -0.05  -0.01    -0.01   0.00   0.00     0.02   0.06  -0.00
    10   6     0.07   0.08  -0.04    -0.15  -0.01   0.03     0.19   0.03  -0.07
    11   6    -0.03  -0.03   0.01     0.05   0.04  -0.02    -0.06  -0.02   0.03
    12   6     0.03   0.03   0.05     0.04  -0.01   0.07     0.01  -0.01   0.03
    13   6    -0.01  -0.01   0.00    -0.02   0.01  -0.03     0.00   0.00  -0.01
    14   1    -0.25  -0.25  -0.04    -0.09  -0.09   0.02    -0.09  -0.06  -0.01
    15   1     0.16   0.13  -0.03    -0.01  -0.02  -0.02    -0.06  -0.03  -0.05
    16   1    -0.17   0.08  -0.08    -0.31   0.11  -0.11    -0.34   0.20  -0.09
    17   1     0.46  -0.23   0.13     0.03   0.02   0.08    -0.09   0.06   0.01
    18   1     0.04   0.00  -0.02     0.17   0.00  -0.05    -0.45   0.02   0.10
    19   1     0.13  -0.22  -0.03    -0.08   0.12   0.02    -0.09   0.11   0.02
    20   1    -0.17  -0.13   0.04     0.19   0.14  -0.05    -0.12  -0.07   0.03
    21   1     0.22  -0.08  -0.07     0.09  -0.03  -0.03    -0.44   0.17   0.09
    22   1    -0.38  -0.01  -0.11    -0.31  -0.03  -0.11    -0.40  -0.08  -0.07
    23   1     0.00  -0.02   0.07     0.59   0.08   0.13    -0.13  -0.03   0.02
    24   1    -0.08   0.31  -0.03    -0.22   0.31  -0.09    -0.10   0.07  -0.03
    25   1    -0.02  -0.01   0.01    -0.10  -0.08   0.03    -0.03  -0.02   0.02
    26   1    -0.00  -0.00   0.02     0.05   0.01   0.07     0.00  -0.01   0.03
    27   1    -0.02  -0.01   0.00     0.08   0.01   0.02     0.03   0.01   0.00
                     43                     44                     45
                      A                      A                      A
 Frequencies --   1273.3062              1308.7586              1340.3907
 Red. masses --      1.3487                 1.3939                 1.5103
 Frc consts  --      1.2883                 1.4067                 1.5987
 IR Inten    --      9.3717                 4.8938                 3.6005
  Atom  AN      X      Y      Z        X      Y      Z        X      Y      Z
     1   8     0.04   0.01  -0.01     0.01   0.00  -0.00    -0.01   0.00   0.01
     2   6    -0.02  -0.11   0.00    -0.01  -0.04   0.00    -0.01  -0.01  -0.01
     3   6    -0.05   0.03  -0.02     0.01   0.03   0.01     0.06   0.05   0.02
     4   6     0.02   0.00   0.04    -0.00  -0.02   0.01    -0.02  -0.05   0.01
     5   6     0.04   0.03  -0.03     0.05  -0.00  -0.02     0.08   0.09  -0.02
     6   6    -0.02  -0.00   0.01     0.02  -0.03  -0.00    -0.02  -0.01   0.01
     7   6    -0.00  -0.03   0.00    -0.02   0.00   0.00     0.01  -0.07  -0.00
     8   6     0.02   0.01  -0.01    -0.02  -0.03   0.00     0.03   0.00  -0.01
     9   6    -0.03   0.01   0.01     0.01  -0.02  -0.01    -0.07  -0.01   0.02
    10   6    -0.03  -0.05   0.01    -0.02   0.09   0.02    -0.05   0.02   0.01
    11   6     0.02   0.02   0.01    -0.04  -0.04  -0.04     0.02  -0.01   0.01
    12   6     0.01  -0.02   0.00    -0.06   0.03  -0.05     0.06   0.02   0.02
    13   6    -0.01   0.01   0.00     0.00  -0.01   0.06    -0.00  -0.00  -0.03
    14   1    -0.18  -0.10  -0.07    -0.05  -0.04  -0.01    -0.18  -0.11  -0.06
    15   1     0.64   0.44   0.12    -0.01   0.02  -0.05    -0.33  -0.18  -0.13
    16   1    -0.04   0.07   0.03    -0.13   0.10  -0.03    -0.06   0.13   0.01
    17   1    -0.35   0.17  -0.12    -0.03  -0.00  -0.03     0.08  -0.09  -0.04
    18   1    -0.09   0.01   0.01    -0.38   0.05   0.09    -0.35   0.05   0.09
    19   1    -0.03   0.06   0.01    -0.04   0.06   0.01    -0.08   0.18   0.02
    20   1     0.00  -0.01  -0.00     0.07   0.06  -0.02     0.10   0.09  -0.03
    21   1     0.07  -0.01  -0.02     0.29  -0.08  -0.06     0.46  -0.12  -0.12
    22   1     0.11  -0.00   0.05     0.22   0.08   0.00     0.11   0.04   0.03
    23   1    -0.13   0.00  -0.10     0.32  -0.01   0.19    -0.24  -0.03  -0.10
    24   1    -0.13   0.21  -0.09     0.57   0.18   0.22    -0.36  -0.17  -0.15
    25   1     0.01  -0.02  -0.02     0.14   0.10  -0.06    -0.08  -0.06   0.03
[...]
 001262,-0.00000462,0.00000639,0.00000905,0.00000456,-0.00001097,0.0000
 6319,0.00001392,0.00000402,-0.00005751,0.00008331,-0.00000701,0.001564
 23,-0.00071838,-0.00012284,-0.00040082,0.00112162,0.00005779,-0.130193
 37,0.13446789,0.00001473,0.00001632,0.00001251,0.00000783,-0.00004252,
 -0.00004844,0.00016802,0.00001434,-0.00002062,-0.00015628,-0.00000495,
 -0.00108160,-0.00004894,0.00007572,-0.00063527,0.00044170,-0.00006549,
 0.00718478,0.00005624,0.00010007,0.00218837,0.01762848,-0.00935475,-0.
 03612531,0.00144643,-0.00119380,0.00176165,0.00056064,0.00026835,0.007
 13490,0.00010071,-0.00001591,0.00009582,-0.00000366,-0.00002040,0.0001
 3042,-0.00000178,-0.00000762,-0.00000776,0.00000271,-0.00000435,0.0000
 1888,0.00002184,0.00001232,-0.00002204,-0.00016568,0.00000454,0.000044
 34,0.00000051,0.00000278,0.00001441,0.00002335,-0.00000086,0.00036847,
 -0.00033810,-0.00000059,-0.00384577,-0.01948924,0.01012792,0.02661151,
 0.00007386,-0.00017439,0.00002218,-0.00002640,0.00041849,-0.00009725,0
 .00002751,-0.00010640,-0.00000038,0.00074456,0.00139590,-0.00006954,-0
 .00482633,0.00176603,0.00085661,-0.00130977,0.00006740,0.00007317,-0.0
 0472770,-0.00193708,0.00083730,0.00460120,-0.02916555,-0.00038103,-0.0
 5919414,0.00178557,0.00166285,0.00235620,0.02705617,0.00023602,0.00095
 262,0.00256717,-0.00018041,0.00009042,-0.00022666,0.00000040,-0.000025
 66,-0.00001977,-0.00005985,0.00000258,-0.00001560,0.00001150,-0.000017
 06,-0.00003154,0.00002932,0.00001015,-0.00005245,-0.00003641,-0.000413
 40,0.00031373,0.00003597,0.00019316,-0.00000695,-0.00009507,0.00009402
 ,-0.00155167,0.00000368,0.00096205,0.00043220,-0.00033155,0.06111309,0
 .00003751,0.00020870,-0.00000519,-0.00014141,-0.00049428,0.00008367,0.
 00007361,0.00002523,0.00002037,-0.00063731,-0.00047868,0.00008297,0.00
 311324,0.00069933,-0.00033412,0.00017645,0.00078642,-0.00000500,-0.003
 39966,0.00073278,0.00017765,0.00257839,-0.01236171,-0.00029664,0.00269
 189,-0.33373377,-0.00237368,-0.00200578,-0.01394715,-0.00008088,-0.001
 92863,0.00021124,0.00010730,0.00004728,0.00052947,0.00007860,0.0000675
 6,-0.00007652,-0.00008977,-0.00002148,0.00001079,0.00000867,0.00004784
 ,0.00003618,-0.00005865,0.00010919,-0.00002621,0.00002481,0.00026303,-
 0.00014360,-0.00003681,0.00001280,-0.00012620,0.00000982,0.00018052,-0
 .00073952,-0.00001663,-0.00028973,0.00091203,0.00006552,-0.00150824,0.
 35639958,0.00002382,0.00000577,0.00003967,-0.00001328,0.00003600,-0.00
 013815,0.00003034,-0.00003278,0.00002338,-0.00004433,-0.00009627,0.000
 23510,0.00085255,-0.00004813,0.00642268,0.00004417,-0.00001713,-0.0001
 6639,0.00084784,0.00006964,0.00672993,-0.00010925,0.00209563,0.0023152
 2,0.00183795,-0.00251301,-0.03563507,-0.00012339,-0.00227683,0.0031700
 4,-0.00050378,0.00006708,-0.00425037,0.00060127,-0.00000494,0.00007051
 ,0.00007626,-0.00009862,-0.00014776,-0.00000509,-0.00001112,-0.0000213
 5,0.00000265,0.00001022,-0.00001013,-0.00001099,0.00000991,0.00001969,
 0.00003321,-0.00002517,-0.00016288,-0.00009656,0.00000202,-0.00107779,
 0.00002372,0.00010669,0.00036308,-0.00034604,-0.00000411,-0.00373663,-
 0.00253328,0.00263282,0.02544419,0.00034678,-0.00041223,-0.00038302,0.
 00148427,0.00020378,0.00072163,0.00002497,-0.00029490,0.00015830,0.000
 33318,0.00009134,-0.00098470,0.00000641,0.00203225,0.00064887,-0.00037
 194,0.00015616,0.00077874,-0.00018354,-0.00005300,-0.00012503,-0.00054
 355,0.00003005,0.00148551,-0.00190350,-0.00312443,-0.00050056,-0.02058
 561,0.00573650,-0.01832358,-0.14286801,0.03771882,-0.11892095,0.009430
 93,-0.00346070,0.01336906,0.00092846,0.00043393,-0.00015853,-0.0001011
 0,-0.00005516,0.00008030,0.00006911,0.00009622,-0.00006422,0.00054942,
 -0.00044452,0.00016584,0.00018161,0.00004727,0.00024814,0.00001231,-0.
 00010758,-0.00001559,-0.00001982,-0.00006485,-0.00016473,-0.00030033,-
 0.00012034,0.00006916,0.00001262,-0.00006483,-0.00071163,0.15948696,-0
 .00043010,0.00025659,0.00011762,-0.00036196,-0.00002641,-0.00124696,0.
 00047813,0.00008712,0.00007430,-0.00120683,-0.00015676,-0.00086825,0.0
 0011450,-0.00038840,0.00001803,0.00011584,0.00042434,0.00068548,-0.000
 28820,-0.00006337,-0.00010575,-0.00016115,0.00025023,0.00045819,-0.000
 65304,-0.00137348,-0.00001403,-0.01164104,0.00579386,-0.01442906,0.035
 93865,-0.06625062,0.04559704,-0.00198631,0.00088292,-0.00560207,0.0005
 7263,-0.00024578,0.00048752,-0.00001183,0.00007469,0.00014575,0.000053
 93,0.00002632,-0.00002728,0.00043040,-0.00048982,0.00041604,-0.0000070
 3,0.00009999,0.00015547,0.00005606,-0.00002023,-0.00001195,0.00002028,
 0.00001424,-0.00000562,-0.00012665,-0.00005657,0.00004745,-0.00017933,
 0.00036169,0.00005898,-0.04061985,0.06732881,0.00160613,-0.00015274,0.
 00055441,-0.00333108,0.00159316,-0.00060076,0.00001646,-0.00033546,-0.
 00075335,0.00017004,0.00028716,-0.00015946,-0.00054493,0.00056620,0.00
 067514,-0.00002008,-0.00019748,-0.00019139,0.00008212,-0.00001826,-0.0
 0002643,0.00010889,0.00007546,-0.00038460,0.00052082,-0.00017405,-0.00
 035089,0.00184475,-0.00126996,0.00399367,-0.11736632,0.04599847,-0.185
 20927,-0.01482846,0.00428841,-0.02496864,-0.00077378,-0.00066433,0.000
 33689,0.00005606,0.00007474,0.00015957,-0.00000185,-0.00010904,0.00006
 576,0.00013793,-0.00039518,0.00035327,0.00022475,0.00008665,0.00023870
 ,-0.00003376,-0.00002689,0.00001555,0.00001134,-0.00000275,0.00004811,
 0.00002812,-0.00000851,0.00002091,0.00006531,0.00000629,0.00019094,0.1
 2516961,-0.04944557,0.20667909,-0.00108327,0.00066256,-0.00049519,0.00
 037753,-0.00218224,0.00306913,0.00005575,0.00002276,-0.00075786,-0.000
 58850,0.00067480,-0.00008301,-0.00531775,-0.00166520,0.00033518,0.0006
 5594,-0.00132449,0.00012963,-0.00002999,0.00008609,-0.00001617,0.00008
 862,-0.00003186,-0.00007965,0.00040555,-0.00270859,-0.00000391,0.00440
 057,-0.02934830,-0.00274778,-0.06164930,0.06136892,0.00303373,-0.00645
 891,0.01505902,0.00515607,0.00013166,0.00135295,0.00028356,-0.00003191
 ,-0.00002890,0.00007091,0.00003216,0.00002936,-0.00008202,0.00016281,-
 0.00001949,0.00022792,0.00026304,-0.00001436,-0.00000496,-0.00039575,-
 0.00025791,0.00004650,-0.00001259,0.00005652,0.00000715,0.00003265,0.0
 0001888,-0.00000288,-0.00068409,0.00057841,0.00004454,-0.00468709,0.02
 013649,0.00235095,0.07408835,0.00006196,0.00012380,-0.00015940,-0.0006
 5903,0.00109700,-0.00054550,-0.00000201,0.00017845,0.00016931,-0.00037
 821,0.00028095,0.00015696,-0.00349387,-0.00047436,0.00002611,0.0008437
 0,-0.00086185,-0.00000890,-0.00005170,0.00043605,0.00000329,-0.0004913
 3,0.00016172,0.00010053,0.00324538,0.00060587,-0.00006440,0.00305769,-
 0.01894434,-0.00117370,0.05766004,-0.29292251,-0.02635360,0.00195966,-
 0.00360334,-0.00092805,-0.00144519,0.00078429,0.00172045,-0.00000535,0
 .00001412,-0.00000136,0.00002621,-0.00003125,-0.00001723,-0.00005574,0
 .00009551,-0.00008818,0.00000911,-0.00005492,-0.00005315,-0.00031083,-
 0.00014852,0.00003593,-0.00004991,0.00008387,-0.00001541,-0.00003637,-
 0.00000950,-0.00000589,-0.00080301,0.00120087,-0.00002850,0.00204213,-
 0.00724750,-0.00025514,-0.06119560,0.31808671,0.00230349,-0.00135869,0
 .00127168,-0.00035584,0.00380440,-0.00570114,-0.00025297,-0.00016411,0
 .00077375,-0.00010303,-0.00012589,-0.00059944,0.00030694,0.00002455,0.
 00129930,0.00002059,0.00012912,0.00023145,-0.00000409,0.00001391,0.000
 05665,0.00001405,0.00002657,-0.00012784,0.00030332,0.00032473,-0.00026
 324,-0.00028632,0.00107844,-0.00006572,0.00276398,-0.02723300,-0.05003
 230,0.01223903,-0.02884763,-0.00793313,-0.00014854,-0.00168115,0.00132
 269,0.00005604,0.00004466,0.00003882,-0.00000749,-0.00006089,0.0000827
 8,0.00023499,-0.00014203,0.00024596,-0.00000941,0.00004564,0.00030461,
 0.00002678,0.00003317,-0.00015971,0.00000751,0.00001028,0.00001390,0.0
 0001684,0.00000618,-0.00004546,-0.00007283,0.00004007,0.00036934,-0.00
 546446,0.02490660,0.00311806,-0.01047502,0.02784284,0.05511480,-0.0017
 0025,0.00445812,0.00146666,-0.01477981,-0.00225408,-0.01359122,0.00007
 790,-0.00037699,0.00096930,0.00021101,-0.00030124,-0.00002882,0.000104
 29,-0.00004490,0.00001913,0.00009224,-0.00000321,-0.00001329,0.0000148
 1,0.00012239,0.00001867,-0.00012387,-0.00011690,-0.00004122,0.00038816
 ,0.00035276,-0.00010724,0.00121604,-0.00037853,0.00093950,0.00948774,-
 0.00079147,0.01471542,-0.16253265,-0.00542868,-0.13083526,-0.01314288,
 -0.00136512,-0.01370994,0.00080222,0.00040139,0.00031998,0.00002327,-0
 .00012698,0.00037508,-0.00011342,0.00000371,0.00007001,-0.00004179,-0.
 00000217,0.00005872,0.00000258,0.00001859,-0.00000763,0.00000097,0.000
 01032,0.00000414,0.00002867,0.00000698,0.00000031,-0.00001158,0.000022
 29,0.00004294,-0.00116603,0.00040264,0.00339746,0.00034306,-0.00009417
 ,-0.00073429,0.18112546,0.00426392,-0.00475623,-0.00350467,0.01895025,
 0.00568191,0.02381823,-0.00132587,-0.00045009,-0.00208278,0.00034495,0
 .00026440,-0.00008902,0.00011728,0.00005778,0.00002396,-0.00014512,-0.
 00000498,-0.00004944,0.00003728,-0.00007004,0.00000650,0.00006975,0.00
 004652,-0.00003156,-0.00015578,0.00001063,0.00018704,-0.00012477,0.000
 43578,0.00075386,-0.00294842,0.00102793,-0.00213702,-0.00457065,-0.052
 47183,-0.00304558,-0.01986435,-0.00244541,-0.02052249,-0.00020313,-0.0
 0146372,0.00001432,-0.00005583,0.00043114,-0.00026939,0.00004238,0.000
 06470,-0.00006703,0.00002671,-0.00000812,-0.00004787,0.00001194,0.0000
 0269,0.00000924,0.00000202,-0.00000758,0.00000543,0.00000536,0.0000006
 8,-0.00002198,0.00002386,-0.00007554,-0.00002018,0.00014831,0.00046722
 ,-0.00043422,-0.00057682,0.00000675,0.00018486,0.00803789,0.05580460,0
 .00033061,0.00013814,-0.00080584,0.00096415,-0.00129509,0.00097621,-0.
 00055785,-0.00010698,-0.00038271,0.00016828,0.00011279,-0.00018528,-0.
 00004018,0.00059426,0.00024206,0.00007215,0.00014482,-0.00004573,-0.00
 008411,0.00004335,-0.00001130,0.00006626,-0.00017105,-0.00012266,0.000
 62495,-0.00013340,0.00039133,-0.00221194,-0.00072557,0.00129135,-0.016
 03291,0.00155197,-0.02652134,-0.12699696,-0.00479992,-0.17713354,0.004
 14628,0.00021943,0.00479401,0.00029358,0.00004616,0.00045897,0.0001057
 7,0.00007491,0.00017873,0.00007323,-0.00016028,0.00015324,0.00007241,-
 0.00000005,0.00003290,0.00001326,-0.00001088,-0.00002219,-0.00000447,-
 0.00000733,0.00001893,0.00000132,0.00001290,-0.00001476,0.00000228,-0.
 00002116,-0.00006112,0.00334415,-0.00141069,-0.00446040,-0.00013261,-0
 .00026512,0.00084336,0.13512631,0.00610856,0.19878751,0.00082286,0.000
 45894,-0.00024499,-0.00056175,0.00082831,-0.00021976,-0.00002294,-0.00
 000356,0.00000736,-0.00007987,0.00007592,0.00004628,-0.00022672,-0.000
 05512,-0.00001089,0.00004359,-0.00001537,-0.00008227,-0.00007926,-0.00
 002261,0.00001466,-0.00000264,-0.00001645,-0.00008370,-0.00011206,-0.0
 0015266,0.00001256,0.00031633,0.00018775,0.00105822,-0.00218944,-0.003
 13967,-0.00022101,-0.01038707,0.00215884,0.01679691,-0.12063266,0.0150
 3370,0.11861286,-0.00005106,-0.00000199,-0.00001381,0.00003724,-0.0000
 1787,-0.00002850,0.00003141,0.00000838,-0.00001401,0.00001160,-0.00002
 284,-0.00000876,-0.00001823,-0.00003482,0.00000501,-0.00001153,-0.0000
 1093,0.00001241,-0.00003683,-0.00000256,0.00000159,0.00003291,0.000008
 80,0.00003357,-0.00003159,-0.00027015,0.00038865,0.00013646,-0.0002949
 1,-0.00049410,0.00019618,0.00068484,-0.00023936,0.12921800,0.00118491,
 -0.00027820,-0.00030794,-0.00178961,0.00052065,0.00105156,-0.00003767,
 0.00017546,-0.00010021,-0.00007583,0.00010619,0.00014863,-0.00013530,0
 .00001560,-0.00002901,0.00005730,0.00001026,-0.00008422,-0.00007871,-0
 .00001749,0.00002232,-0.00003476,0.00002690,-0.00009558,-0.00016679,-0
 .00032494,-0.00000708,-0.00024720,0.00070642,0.00134283,-0.00286467,-0
 .00456492,-0.00018665,-0.01243112,0.00258522,0.02366922,0.01571672,-0.
 05221642,-0.02636084,0.00001623,0.00000585,0.00004313,0.00004755,0.000
 03091,-0.00003059,0.00001448,-0.00002090,-0.00003518,0.00003907,-0.000
 01231,-0.00004882,-0.00001359,-0.00002895,0.00000340,-0.00000199,-0.00
 000535,0.00000960,-0.00004010,-0.00001253,-0.00000064,0.00000298,0.000
 03533,0.00004105,0.00008041,0.00003070,0.00001762,-0.00025537,0.000230
 84,-0.00010568,0.00046566,0.00098721,-0.00045582,-0.01419815,0.0550275
 3,-0.00163428,-0.00111561,0.00089162,0.00243371,-0.00059024,0.00017508
 ,-0.00033005,0.00009911,-0.00014260,0.00003887,-0.00005941,-0.00008448
 ,0.00016622,-0.00004664,-0.00000525,-0.00002239,0.00005186,0.00001193,
 0.00001196,0.00001012,-0.00000292,0.00001441,-0.00002052,0.00000935,0.
 00007685,0.00015753,-0.00001826,-0.00021556,-0.00024925,-0.00018344,0.
 00113856,0.00083608,0.00116383,0.00045878,0.00033647,-0.00271058,0.118
 31638,-0.02437989,-0.24348600,-0.00006496,-0.00009512,-0.00002917,0.00
 000467,0.00008612,0.00000420,-0.00000371,-0.00000232,0.00002193,-0.000
 01561,0.00001341,0.00003263,0.00002001,0.00002717,0.00000060,0.0000074
 8,0.00000906,-0.00000409,0.00002747,0.00000744,-0.00000157,-0.00002185
 ,-0.00000411,-0.00000265,-0.00019650,-0.00014976,0.00029771,-0.0002987
 4,0.00006673,0.00011660,0.00019759,0.00045154,0.00054357,-0.13091390,0
 .02790985,0.26063134,0.00148459,0.00206043,-0.00023574,-0.00536134,-0.
 00319363,0.00128776,0.00108073,-0.00080508,-0.00028094,0.00005424,0.00
 011552,-0.00005336,0.00005186,0.00001344,0.00000973,-0.00000453,-0.000
 00552,0.00001316,0.00002187,0.00000867,-0.00000504,-0.00001405,0.00001
 036,0.00000939,0.00000864,0.00006157,-0.00003057,0.00004801,-0.0000697
 7,-0.00020803,0.00100149,-0.00060879,-0.00063439,0.01076648,-0.0198821
 7,0.00243043,-0.12716176,0.12125244,-0.00823281,0.00001400,0.00002914,
 -0.00001013,-0.00014936,-0.00041330,-0.00003462,-0.00001371,0.00001288
 ,0.00002606,0.00000870,0.00001631,-0.00000088,0.00000348,0.00000591,-0
 .00000212,0.00000211,0.00000379,0.00000047,0.00000925,0.00000029,0.000
 00156,-0.00002056,-0.00000095,0.00001785,-0.00001849,-0.00003090,0.000
 04542,0.00009960,0.00023145,0.00005325,0.00099923,0.00077050,-0.000203
 78,-0.00911417,0.01303224,-0.00253763,0.13743132,-0.00041856,0.0003828
 2,-0.00000056,-0.00457586,-0.00241379,0.00076509,0.00139646,-0.0010089
 1,-0.00011247,0.00012214,0.00000950,-0.00021372,0.00030901,-0.00003656
 ,0.00000970,-0.00005661,0.00011644,0.00002808,0.00000577,0.00000680,-0
 .00000367,-0.00005876,0.00004276,-0.00001597,-0.00001650,-0.00014250,-
 0.00002464,-0.00034228,0.00046575,-0.00005302,0.00131995,0.00012849,-0
 .00141904,0.01452852,-0.02259481,0.00185101,0.12004236,-0.23251896,0.0
 1210124,-0.00003495,0.00001362,-0.00002578,-0.00031462,-0.00054813,0.0
 0002151,-0.00001426,0.00002076,0.00002983,-0.00007129,0.00000014,0.000
 08014,0.00002870,0.00002338,-0.00000582,-0.00000962,0.00000787,0.00000
 059,-0.00001154,0.00000149,0.00000465,-0.00004949,0.00005927,0.0000345
 6,0.00000384,0.00021439,-0.00008228,-0.00059388,0.00085021,0.00091051,
 0.00000053,0.00090808,-0.00054298,0.00114464,-0.00207170,-0.00035901,-
 0.13026987,0.25446957,-0.00003777,-0.00007694,0.00062729,0.00085999,0.
 00051382,0.00028522,-0.00018282,0.00015618,0.00013669,-0.00003983,-0.0
 0002205,0.00003444,-0.00012266,-0.00002719,-0.00002017,0.00001063,-0.0
 0003984,-0.00000209,-0.00001285,-0.00001232,0.00000249,0.00001584,-0.0
 0001229,-0.00001861,-0.00002822,0.00003221,0.00000595,0.00018163,-0.00
 018790,0.00000527,-0.00094005,0.00117426,0.00022898,-0.00253672,0.0030
 0464,-0.00188192,-0.00770553,0.01166595,-0.05183529,-0.00000166,0.0000
 0398,-0.00000108,0.00006027,0.00007906,-0.00001190,0.00000231,-0.00000
 944,-0.00000064,0.00000253,-0.00000400,-0.00000394,-0.00001167,-0.0000
 1278,0.00000315,-0.00000258,-0.00000570,0.00000206,-0.00000733,0.00000
 090,0.00000309,0.00003320,-0.00001144,0.00001553,0.00009341,0.00003722
 ,0.00005661,0.00055081,-0.00002868,-0.00035291,0.00025196,-0.00036894,
 0.00019493,0.01467340,-0.02464017,0.00339959,0.00761590,-0.01352298,0.
 04955261,0.00109088,0.00069650,0.00033205,-0.00109529,0.00129989,0.000
 24030,-0.00001650,-0.00014122,-0.00012959,0.00002135,0.00001937,-0.000
 09441,0.00009435,0.00002464,0.00001059,0.00002086,0.00005821,0.0000006
 5,-0.00001472,0.00001998,-0.00000087,0.00001573,-0.00004230,-0.0000219
 7,0.00010576,0.00006266,0.00005818,0.00005062,0.00004105,0.00020803,0.
 00105263,0.00060663,-0.00113835,-0.01457919,-0.00287799,-0.01506583,-0
 .16279480,-0.01407432,-0.13151415,0.00004363,0.00003827,0.00006318,0.0
 0002610,-0.00007543,0.00005716,0.00001394,-0.00000887,0.00004747,-0.00
 000510,0.00000508,0.00003052,0.00001346,0.00000996,-0.00000306,-0.0000
 0105,0.00000133,0.00000141,0.00001054,0.00000658,-0.00000769,-0.000010
 26,-0.00001077,-0.00001505,-0.00008645,-0.00034516,0.00067543,-0.00033
 459,0.00022990,0.00006159,-0.00150156,-0.00356651,0.00109919,0.0127112
 6,0.00171333,0.01334218,-0.01122765,-0.00206384,-0.01272221,0.17639605
 ,0.00159762,-0.00019675,0.00058273,-0.00219696,0.00109573,-0.00096160,
 0.00017877,-0.00002884,-0.00004170,-0.00000307,0.00009957,0.00001791,-
 0.00007762,0.00006411,0.00002346,0.00006001,0.00001028,0.00000639,-0.0
 0002933,0.00001886,0.00000508,0.00001363,-0.00004895,-0.00001660,0.000
 10487,0.00001555,0.00002365,0.00018090,-0.00013949,0.00003430,0.000652
 50,0.00095426,-0.00085738,-0.01818539,-0.00247991,-0.02144211,-0.01337
 397,-0.05029518,-0.01487203,0.00014885,0.00016945,0.00008282,0.0000653
 4,-0.00007629,0.00006280,-0.00000443,-0.00002600,0.00005262,0.00003063
 ,0.00000880,-0.00001941,-0.00000312,-0.00000605,-0.00000148,0.00000196
 ,-0.00000017,0.00000023,0.00000374,0.00000254,-0.00000023,-0.00000135,
 -0.00000571,0.00000640,0.00000138,0.00000584,0.00057771,0.00015625,0.0
 0006109,0.00029255,-0.00301880,-0.00444448,0.00105904,-0.00233049,-0.0
 0094135,-0.00299058,0.01765502,0.00361403,0.02231443,0.01837304,0.0525
 6909,0.00113391,0.00128957,0.00039965,-0.00188117,0.00031405,0.0001456
 5,0.00032387,-0.00007704,-0.00021501,-0.00001171,0.00007540,0.00006550
 ,-0.00000722,0.00001866,-0.00004387,-0.00001964,-0.00002013,-0.0000164
 1,0.00000557,-0.00002734,0.00000754,0.00002158,0.00001735,-0.00001192,
 -0.00005205,-0.00001879,-0.00000846,0.00010981,0.00001730,0.00013664,0
 .00040076,-0.00021396,0.00107527,0.00439689,-0.00069010,0.00452439,-0.
 13143729,-0.01656100,-0.20096113,0.00003279,0.00001786,0.00001690,-0.0
 0002660,-0.00007249,-0.00000822,-0.00000918,0.00000165,0.00000589,0.00
 002048,0.00000196,-0.00002693,-0.00000752,-0.00000956,0.00000031,-0.00
 000162,-0.00000361,0.00000037,-0.00000743,-0.00000053,-0.00000483,0.00
 000964,-0.00000448,0.00000097,-0.00031920,0.00011131,0.00030081,-0.000
 12628,-0.00012996,0.00007713,0.00109572,0.00112864,0.00085978,-0.01908
 842,-0.00177079,-0.02062898,0.00095906,0.00054504,-0.00042535,0.144485
 25,0.01606099,0.21473435\\-0.00023302,0.00000315,0.00001164,0.00014967
 ,-0.00002167,-0.00007533,0.00002211,0.00009818,-0.00010018,-0.00002405
 ,-0.00000908,0.00005257,0.00006168,-0.00001156,0.00003391,-0.00003833,
 -0.00000701,0.00000099,-0.00002603,0.00004718,0.00000566,-0.00003378,-
 0.00004237,-0.00001339,-0.00002100,-0.00000008,0.00002065,0.00006412,-
 0.00002160,-0.00000580,-0.00002051,-0.00001743,0.00003204,-0.00002423,
 -0.00002325,0.00005665,0.00001682,0.00000123,0.00000767,0.00002854,0.0
 0001910,0.00004492,0.00001939,0.00000199,0.00000453,-0.00001246,0.0000
 0160,-0.00001700,0.00001255,0.00000594,-0.00000972,-0.00000822,0.00001
 802,0.00000202,-0.00000234,0.00000839,0.00000273,-0.00000418,-0.000011
 94,-0.00000226,-0.00000875,-0.00001591,-0.00000126,-0.00000545,-0.0000
 0279,-0.00000019,0.00000975,-0.00002007,-0.00000661,0.00003446,-0.0000
 2334,0.00000645,0.00003990,0.00001771,-0.00002887,0.00001025,0.0000097
 1,-0.00003599,-0.00000689,-0.00000409,0.00001418\\\@


 ... SUBJECTS WHICH DISCLOSE THEIR FULL POWER, MEANING AND BEAUTY AS SOON
 AS THEY ARE PRESENTED TO THE MIND HAVE VERY LITTLE OF THOSE QUALITIES
 TO DISCLOSE.
                           -- CHARLES DUTTON (1882)
 Job cpu time:       0 days  0 hours  2 minutes 37.0 seconds.
 Elapsed time:       0 days  0 hours  2 minutes 49.6 seconds.
 File lengths (MBytes):  RWF=    161 Int=      0 D2E=      0 Chk=     16 Scr=      1
 Normal termination of Gaussian 16 at Sat Feb 24 04:07:25 2024.
