 Entering Gaussian System, Link 0=g16
 Input=/Volumes/SSD-PMU3/b3lyp_6-31gd_freq/AFDCQVDEHZTFHC-BVVZNTARSA-N_calculating/gaussianinput2.gjf
 Output=/Volumes/SSD-PMU3/b3lyp_6-31gd_freq/AFDCQVDEHZTFHC-BVVZNTARSA-N_calculating/gaussianinput2.log
 Initial command:
 /Applications/g16/l1.exe "/Users/macmini_m1_2022/PycharmProjects/sphere_model/sphere_model_lib/Gau-90394.inp" -scrdir="/Users/macmini_m1_2022/PycharmProjects/sphere_model/sphere_model_lib/"
 Entering Link 1 = /Applications/g16/l1.exe PID=     90395.
  
 Copyright (c) 1988,1990,1992,1993,1995,1998,2003,2009,2016,
            Gaussian, Inc.  All Rights Reserved.
  
 This is part of the Gaussian(R) 16 program.  It is based on
 the Gaussian(R) 09 system (copyright 2009, Gaussian, Inc.),
 the Gaussian(R) 03 system (copyright 2003, Gaussian, Inc.),
 the Gaussian(R) 98 system (copyright 1998, Gaussian, Inc.),
 the Gaussian(R) 94 system (copyright 1995, Gaussian, Inc.),
 the Gaussian 92(TM) system (copyright 1992, Gaussian, Inc.),
 the Gaussian 90(TM) system (copyright 1990, Gaussian, Inc.),
 the Gaussian 88(TM) system (copyright 1988, Gaussian, Inc.),
 the Gaussian 86(TM) system (copyright 1986, Carnegie Mellon
 University), and the Gaussian 82(TM) system (copyright 1983,
 Carnegie Mellon University). Gaussian is a federally registered
 trademark of Gaussian, Inc.
  
 This software contains proprietary and confidential information,
 including trade secrets, belonging to Gaussian, Inc.
  
 This software is provided under written license and may be
 used, copied, transmitted, or stored only in accord with that
 written license.
  
 The following legend is applicable only to US Government
 contracts under FAR:
  
                    RESTRICTED RIGHTS LEGEND
  
 Use, reproduction and disclosure by the US Government is
 subject to restrictions as set forth in subparagraphs (a)
 and (c) of the Commercial Computer Software - Restricted
 Rights clause in FAR 52.227-19.
  
 Gaussian, Inc.
 340 Quinnipiac St., Bldg. 40, Wallingford CT 06492
  
  
 ---------------------------------------------------------------
 Warning -- This program may not be used in any manner that
 competes with the business of Gaussian, Inc. or will provide
 assistance to any competitor of Gaussian, Inc.  The licensee
 of this program is prohibited from giving any competitor of
 Gaussian, Inc. access to this program.  By using this program,
 the user acknowledges that Gaussian, Inc. is engaged in the
 business of creating and licensing software in the field of
 computational chemistry and represents and warrants to the
 licensee that it is not a competitor of Gaussian, Inc. and that
 it will not use this program in any manner prohibited above.
 ---------------------------------------------------------------
  

 Cite this work as:
 Gaussian 16, Revision A.03,
 M. J. Frisch, G. W. Trucks, H. B. Schlegel, G. E. Scuseria, 
 M. A. Robb, J. R. Cheeseman, G. Scalmani, V. Barone, 
 G. A. Petersson, H. Nakatsuji, X. Li, M. Caricato, A. V. Marenich, 
 J. Bloino, B. G. Janesko, R. Gomperts, B. Mennucci, H. P. Hratchian, 
 J. V. Ortiz, A. F. Izmaylov, J. L. Sonnenberg, D. Williams-Young, 
 F. Ding, F. Lipparini, F. Egidi, J. Goings, B. Peng, A. Petrone, 
 T. Henderson, D. Ranasinghe, V. G. Zakrzewski, J. Gao, N. Rega, 
 G. Zheng, W. Liang, M. Hada, M. Ehara, K. Toyota, R. Fukuda, 
 J. Hasegawa, M. Ishida, T. Nakajima, Y. Honda, O. Kitao, H. Nakai, 
 T. Vreven, K. Throssell, J. A. Montgomery, Jr., J. E. Peralta, 
 F. Ogliaro, M. J. Bearpark, J. J. Heyd, E. N. Brothers, K. N. Kudin, 
 V. N. Staroverov, T. A. Keith, R. Kobayashi, J. Normand, 
 K. Raghavachari, A. P. Rendell, J. C. Burant, S. S. Iyengar, 
 J. Tomasi, M. Cossi, J. M. Millam, M. Klene, C. Adamo, R. Cammi, 
 J. W. Ochterski, R. L. Martin, K. Morokuma, O. Farkas, 
 J. B. Foresman, and D. J. Fox, Gaussian, Inc., Wallingford CT, 2016.
 
 ******************************************
 Gaussian 16:  EM64M-G16RevA.03 25-Dec-2016
                24-Feb-2024 
 ******************************************
 %nprocshared=10
 Will use up to   10 processors via shared memory.
 %mem=12GB
 %chk= 2.chk
 ---------------------
 # freq b3lyp/6-31g(d)
 ---------------------
 1/10=4,30=1,38=1/1,3;
 2/12=2,17=6,18=5,40=1/2;
 3/5=1,6=6,7=1,11=2,25=1,30=1,71=2,74=-5,140=1/1,2,3;
 4//1;
 5/5=2,38=5,98=1/2;
 8/6=4,10=90,11=11/1;
 11/6=1,8=1,9=11,15=111,16=1/1,2,10;
 10/6=1/2;
 6/7=2,8=2,9=2,10=2,28=1/1;
 7/8=1,10=1,25=1/1,2,3,16;
 1/10=4,30=1/3;
 99//99;
 ---------
 good luck
 ---------
 Symbolic Z-matrix:
 Charge =  0 Multiplicity = 1
 O                     1.21319   0.        0. 
 C                     0.        0.        0. 
 C                    -0.8056   -1.29568   0.06146 
 O                    -2.13721  -1.1623   -0.4165 
 C                    -2.76991   0.        0.07857 
 C                    -4.22154  0.        -0.3448 
 C                    -4.90529  -1.20879  -0.51344 
 C                    -6.25861  -1.2071   -0.85239 
 C                    -6.9389    0.       -1.02187 
 C                    -6.25861   1.20709  -0.8524 
 C                    -4.90529   1.20879  -0.51345 
 O                    -2.13721   1.1623   -0.4165 
 C                    -0.8056    1.29568   0.06146 
 H                    -0.30974  -2.06153  -0.53968 
 H                    -0.79942  -1.63318   1.11416 
 H                    -2.68544  0.         1.18466 
 H                    -4.3714   -2.14482  -0.39034 
 H                    -6.78058  -2.15075  -0.98708 
 H                    -7.99308   0.       -1.28616 
 H                    -6.78057   2.15075  -0.9871 
 H                    -4.3714    2.14481  -0.39036 
 H                    -0.30974   2.06153  -0.53968 
 H                    -0.79942   1.63318   1.11416 
 

 GradGradGradGradGradGradGradGradGradGradGradGradGradGradGradGradGradGrad
 Berny optimization.
 Initialization pass.
 Trust Radius=3.00D-01 FncErr=1.00D-07 GrdErr=1.00D-07 EigMax=2.50D+02 EigMin=1.00D-04
 Number of steps in this run=      2 maximum allowed number of steps=      2.
 GradGradGradGradGradGradGradGradGradGradGradGradGradGradGradGradGradGrad

                          Input orientation:                          
 ---------------------------------------------------------------------
 Center     Atomic      Atomic             Coordinates (Angstroms)
 Number     Number       Type             X           Y           Z
 ---------------------------------------------------------------------
      1          8           0        1.213190    0.000000    0.000000
      2          6           0        0.000000    0.000000    0.000000
      3          6           0       -0.805602   -1.295679    0.061458
      4          8           0       -2.137208   -1.162297   -0.416499
      5          6           0       -2.769910    0.000000    0.078570
      6          6           0       -4.221537   -0.000001   -0.344801
      7          6           0       -4.905292   -1.208792   -0.513444
      8          6           0       -6.258615   -1.207095   -0.852385
      9          6           0       -6.938904    0.000000   -1.021868
     10          6           0       -6.258612    1.207094   -0.852396
     11          6           0       -4.905289    1.208791   -0.513454
     12          8           0       -2.137209    1.162298   -0.416498
     13          6           0       -0.805602    1.295679    0.061458
     14          1           0       -0.309735   -2.061533   -0.539680
     15          1           0       -0.799424   -1.633180    1.114163
     16          1           0       -2.685443   -0.000001    1.184658
     17          1           0       -4.371403   -2.144816   -0.390337
     18          1           0       -6.780576   -2.150747   -0.987078
     19          1           0       -7.993076    0.000000   -1.286164
     20          1           0       -6.780571    2.150746   -0.987097
     21          1           0       -4.371398    2.144815   -0.390355
     22          1           0       -0.309735    2.061533   -0.539681
     23          1           0       -0.799423    1.633181    1.114163
 ---------------------------------------------------------------------
                    Distance matrix (angstroms):
                    1          2          3          4          5
     1  O    0.000000
     2  C    1.213190   0.000000
     3  C    2.399600   1.526943   0.000000
     4  O    3.570654   2.468211   1.421059   0.000000
     5  C    3.983875   2.771024   2.353207   1.412919   0.000000
     6  C    5.445654   4.235595   3.675927   2.387572   1.512106
     7  C    6.257845   5.078060   4.140715   2.770171   2.524186
     8  C    7.616529   6.430700   5.529766   4.144635   3.807206
     9  C    8.215890   7.013744   6.361586   4.977318   4.311783
    10  C    7.616527   6.430698   6.069128   4.773886   3.807206
    11  C    6.257843   5.078058   4.838422   3.646057   2.524185
    12  O    3.570655   2.468212   2.836066   2.324595   1.412919
    13  C    2.399600   1.526943   2.591358   2.836065   2.353207
    14  H    2.619251   2.153395   1.092604   2.040455   3.268733
    15  H    2.821214   2.132537   1.105501   2.086701   2.760896
    16  H    4.074648   2.935135   2.544437   2.053095   1.109308
    17  H    5.995021   4.884850   3.693249   2.440831   2.717515
    18  H    8.336686   7.181660   6.126245   4.781575   4.674052
    19  H    9.295674   8.095893   7.426618   6.033112   5.398515
    20  H    8.336683   7.181658   6.976931   5.732596   4.674051
    21  H    5.995017   4.884847   4.975544   3.991150   2.717515
    22  H    2.619251   2.153395   3.446466   3.707818   3.268733
    23  H    2.821214   2.132538   3.112306   3.456486   2.760897
                    6          7          8          9         10
     6  C    0.000000
     7  C    1.398977   0.000000
     8  C    2.421653   1.395123   0.000000
     9  C    2.800447   2.419763   1.395921   0.000000
    10  C    2.421653   2.789779   2.414189   1.395920   0.000000
    11  C    1.398978   2.417583   2.789780   2.419762   1.395123
    12  O    2.387573   3.646059   4.773888   4.977317   4.144632
    13  C    3.675928   4.838424   6.069130   6.361586   5.529764
    14  H    4.426069   4.674077   6.018058   6.959045   6.794914
    15  H    4.062845   4.437044   5.818215   6.702471   6.460437
    16  H    2.167678   3.045071   4.286511   4.791731   4.286514
    17  H    2.150527   1.084589   2.157401   3.404575   3.874320
    18  H    3.403955   2.151348   1.086768   2.156847   3.400835
    19  H    3.887245   3.404803   2.157220   1.086799   2.157219
    20  H    3.403955   3.876534   3.400835   2.156846   1.086768
    21  H    2.150528   3.398069   3.874321   3.404574   2.157401
    22  H    4.426070   5.640466   6.794916   6.959045   6.018056
    23  H    4.062847   5.252054   6.460438   6.702472   5.818217
                   11         12         13         14         15
    11  C    0.000000
    12  O    2.770168   0.000000
    13  C    4.140713   1.421059   0.000000
    14  H    5.640463   3.707819   3.446465   0.000000
    15  H    5.252053   3.456485   3.112305   1.777211   0.000000
    16  H    3.045075   2.053095   2.544438   3.587094   2.495859
    17  H    3.398069   3.991154   4.975546   4.065266   3.909517
    18  H    3.876534   5.732599   6.976933   6.486903   6.360603
    19  H    3.404803   6.033111   7.426618   7.990049   7.757414
    20  H    2.151348   4.781571   6.126244   7.734028   7.382920
    21  H    1.084589   2.440824   3.693246   5.849168   5.412561
    22  H    4.674075   2.040456   1.092604   4.123066   4.077487
    23  H    4.437046   2.086702   1.105502   4.077487   3.266361
                   16         17         18         19         20
    16  H    0.000000
    17  H    3.150127   0.000000
    18  H    5.110016   2.481985   0.000000
    19  H    5.854565   4.303401   2.487031   0.000000
    20  H    5.110020   4.961055   4.301493   2.487030   0.000000
    21  H    3.150134   4.289631   4.961055   4.303401   2.481985
    22  H    3.587096   5.849173   7.734032   7.990049   6.486899
    23  H    2.495861   5.412562   7.382921   7.757415   6.360605
                   21         22         23
    21  H    0.000000
    22  H    4.065260   0.000000
    23  H    3.909520   1.777211   0.000000
 Stoichiometry    C10H10O3
 Framework group  C1[X(C10H10O3)]
 Deg. of freedom    63
 Full point group                 C1      NOp   1
 Largest Abelian subgroup         C1      NOp   1
 Largest concise Abelian subgroup C1      NOp   1
                         Standard orientation:                         
 ---------------------------------------------------------------------
 Center     Atomic      Atomic             Coordinates (Angstroms)
 Number     Number       Type             X           Y           Z
 ---------------------------------------------------------------------
      1          8           0        4.271956    0.000000   -0.240919
      2          6           0        3.069865   -0.000000   -0.077197
      3          6           0        2.279926   -1.295679    0.092413
      4          8           0        0.896000   -1.162297   -0.201468
      5          6           0        0.335896   -0.000001    0.374459
      6          6           0       -1.159586   -0.000001    0.150860
      7          6           0       -1.859845   -1.208792    0.076031
      8          6           0       -3.246529   -1.207094   -0.077176
      9          6           0       -3.943466    0.000001   -0.153299
     10          6           0       -3.246527    1.207095   -0.077181
     11          6           0       -1.859843    1.208791    0.076027
     12          8           0        0.895999    1.162298   -0.201462
     13          6           0        2.279926    1.295679    0.092419
     14          1           0        2.690132   -2.061532   -0.570145
     15          1           0        2.428112   -1.633183    1.134654
     16          1           0        0.568859   -0.000004    1.459030
     17          1           0       -1.314227   -2.144816    0.125961
     18          1           0       -3.781892   -2.150746   -0.140199
     19          1           0       -5.023662    0.000002   -0.272915
     20          1           0       -3.781889    2.150747   -0.140209
     21          1           0       -1.314223    2.144815    0.125952
     22          1           0        2.690132    2.061534   -0.570137
     23          1           0        2.428113    1.633178    1.134661
 ---------------------------------------------------------------------
 Rotational constants (GHZ):           2.5706406           0.4245194           0.3699578
 Standard basis: 6-31G(d) (6D, 7F)
 There are   215 symmetry adapted cartesian basis functions of A   symmetry.
 There are   215 symmetry adapted basis functions of A   symmetry.
   215 basis functions,   404 primitive gaussians,   215 cartesian basis functions
    47 alpha electrons       47 beta electrons
       nuclear repulsion energy       766.2245954403 Hartrees.
 NAtoms=   23 NActive=   23 NUniq=   23 SFac= 1.00D+00 NAtFMM=   60 NAOKFM=F Big=F
 Integral buffers will be    131072 words long.
 Raffenetti 2 integral format.
 Two-electron integral symmetry is turned on.
 One-electron integrals computed using PRISM.
 NBasis=   215 RedAO= T EigKep=  4.60D-04  NBF=   215
 NBsUse=   215 1.00D-06 EigRej= -1.00D+00 NBFU=   215
 ExpMin= 1.61D-01 ExpMax= 5.48D+03 ExpMxC= 8.25D+02 IAcc=3 IRadAn=         5 AccDes= 0.00D+00
 Harris functional with IExCor=  402 and IRadAn=       5 diagonalized for initial guess.
 HarFok:  IExCor=  402 AccDes= 0.00D+00 IRadAn=         5 IDoV= 1 UseB2=F ITyADJ=14
 ICtDFT=  3500011 ScaDFX=  1.000000  1.000000  1.000000  1.000000
 FoFCou: FMM=F IPFlag=           0 FMFlag=      100000 FMFlg1=           0
         NFxFlg=           0 DoJE=T BraDBF=F KetDBF=T FulRan=T
         wScrn=  0.000000 ICntrl=       500 IOpCl=  0 I1Cent=   200000004 NGrid=           0
         NMat0=    1 NMatS0=      1 NMatT0=    0 NMatD0=    1 NMtDS0=    0 NMtDT0=    0
 Petite list used in FoFCou.
 Requested convergence on RMS density matrix=1.00D-08 within 128 cycles.
 Requested convergence on MAX density matrix=1.00D-06.
 Requested convergence on             energy=1.00D-06.
 No special actions if energy rises.
 Integral accuracy reduced to 1.0D-05 until final iterations.
 Initial convergence to 1.0D-05 achieved.  Increase integral accuracy.
 SCF Done:  E(RB3LYP) =  -612.722572845     A.U. after   14 cycles
            NFock= 14  Conv=0.50D-08     -V/T= 2.0092
 DoSCS=F DFT=T ScalE2(SS,OS)=  1.000000  1.000000
 Range of M.O.s used for correlation:     1   215
 NBasis=   215 NAE=    47 NBE=    47 NFC=     0 NFV=     0
 NROrb=    215 NOA=    47 NOB=    47 NVA=   168 NVB=   168
 Symmetrizing basis deriv contribution to polar:
 IMax=3 JMax=2 DiffMx= 0.00D+00
 G2DrvN: will do    24 centers at a time, making    1 passes.
 Calling FoFCou, ICntrl=  3107 FMM=F I1Cent=   0 AccDes= 0.00D+00.
 End of G2Drv F.D. properties file   721 does not exist.
 End of G2Drv F.D. properties file   722 does not exist.
 End of G2Drv F.D. properties file   788 does not exist.
          IDoAtm=11111111111111111111111
          Differentiating once with respect to electric field.
                with respect to dipole field.
          Differentiating once with respect to nuclear coordinates.
 Keep R1 ints in memory in canonical form, NReq=280006534.
          There are    72 degrees of freedom in the 1st order CPHF.  IDoFFX=6 NUNeed=     3.
     69 vectors produced by pass  0 Test12= 1.10D-14 1.39D-09 XBig12= 1.35D+02 6.49D+00.
 AX will form    69 AO Fock derivatives at one time.
     69 vectors produced by pass  1 Test12= 1.10D-14 1.39D-09 XBig12= 2.86D+01 1.22D+00.
     69 vectors produced by pass  2 Test12= 1.10D-14 1.39D-09 XBig12= 3.03D-01 8.65D-02.
     69 vectors produced by pass  3 Test12= 1.10D-14 1.39D-09 XBig12= 1.60D-03 5.60D-03.
     69 vectors produced by pass  4 Test12= 1.10D-14 1.39D-09 XBig12= 2.22D-06 2.38D-04.
     57 vectors produced by pass  5 Test12= 1.10D-14 1.39D-09 XBig12= 2.12D-09 7.99D-06.
      6 vectors produced by pass  6 Test12= 1.10D-14 1.39D-09 XBig12= 2.07D-12 2.38D-07.
      3 vectors produced by pass  7 Test12= 1.10D-14 1.39D-09 XBig12= 1.51D-15 4.94D-09.
 InvSVY:  IOpt=1 It=  1 EMax= 1.60D-14
 Solved reduced A of dimension   411 with    72 vectors.
 Isotropic polarizability for W=    0.000000      105.54 Bohr**3.
 End of Minotr F.D. properties file   721 does not exist.
 End of Minotr F.D. properties file   722 does not exist.
 End of Minotr F.D. properties file   788 does not exist.

 **********************************************************************

            Population analysis using the SCF density.

 **********************************************************************

 Orbital symmetries:
       Occupied  (A) (A) (A) (A) (A) (A) (A) (A) (A) (A) (A) (A)
                 (A) (A) (A) (A) (A) (A) (A) (A) (A) (A) (A) (A)
                 (A) (A) (A) (A) (A) (A) (A) (A) (A) (A) (A) (A)
                 (A) (A) (A) (A) (A) (A) (A) (A) (A) (A) (A)
       Virtual   (A) (A) (A) (A) (A) (A) (A) (A) (A) (A) (A) (A)
                 (A) (A) (A) (A) (A) (A) (A) (A) (A) (A) (A) (A)
                 (A) (A) (A) (A) (A) (A) (A) (A) (A) (A) (A) (A)
                 (A) (A) (A) (A) (A) (A) (A) (A) (A) (A) (A) (A)
                 (A) (A) (A) (A) (A) (A) (A) (A) (A) (A) (A) (A)
                 (A) (A) (A) (A) (A) (A) (A) (A) (A) (A) (A) (A)
                 (A) (A) (A) (A) (A) (A) (A) (A) (A) (A) (A) (A)
                 (A) (A) (A) (A) (A) (A) (A) (A) (A) (A) (A) (A)
                 (A) (A) (A) (A) (A) (A) (A) (A) (A) (A) (A) (A)
                 (A) (A) (A) (A) (A) (A) (A) (A) (A) (A) (A) (A)
                 (A) (A) (A) (A) (A) (A) (A) (A) (A) (A) (A) (A)
                 (A) (A) (A) (A) (A) (A) (A) (A) (A) (A) (A) (A)
                 (A) (A) (A) (A) (A) (A) (A) (A) (A) (A) (A) (A)
                 (A) (A) (A) (A) (A) (A) (A) (A) (A) (A) (A) (A)
 The electronic state is 1-A.
 Alpha  occ. eigenvalues --  -19.17238 -19.17238 -19.15909 -10.30235 -10.29365
 Alpha  occ. eigenvalues --  -10.25688 -10.25688 -10.19955 -10.19149 -10.19082
 Alpha  occ. eigenvalues --  -10.19062 -10.18997 -10.18995  -1.09531  -1.05736
 Alpha  occ. eigenvalues --   -1.02606  -0.85694  -0.79539  -0.74515  -0.74225
 Alpha  occ. eigenvalues --   -0.71184  -0.66953  -0.60531  -0.59602  -0.56542
 Alpha  occ. eigenvalues --   -0.53394  -0.53111  -0.49628  -0.48435  -0.47339
 Alpha  occ. eigenvalues --   -0.46367  -0.45165  -0.44727  -0.42890  -0.42495
 Alpha  occ. eigenvalues --   -0.41729  -0.37529  -0.36907  -0.36095  -0.35914
 Alpha  occ. eigenvalues --   -0.34367  -0.34005  -0.31232  -0.29052  -0.25005
 Alpha  occ. eigenvalues --   -0.24915  -0.24425
 Alpha virt. eigenvalues --   -0.03834  -0.00769  -0.00050   0.08294   0.09645
 Alpha virt. eigenvalues --    0.11145   0.11372   0.13275   0.13780   0.14775
 Alpha virt. eigenvalues --    0.15928   0.15973   0.16534   0.17778   0.18888
 Alpha virt. eigenvalues --    0.20086   0.22556   0.23741   0.24237   0.27770
 Alpha virt. eigenvalues --    0.29636   0.30974   0.31137   0.32630   0.34386
 Alpha virt. eigenvalues --    0.36962   0.46516   0.50168   0.50384   0.52496
 Alpha virt. eigenvalues --    0.53508   0.54570   0.55793   0.56167   0.56815
 Alpha virt. eigenvalues --    0.57504   0.57748   0.59439   0.59449   0.61306
 Alpha virt. eigenvalues --    0.61477   0.61939   0.62472   0.65584   0.65607
 Alpha virt. eigenvalues --    0.67368   0.68101   0.69147   0.69810   0.70022
 Alpha virt. eigenvalues --    0.75413   0.79652   0.81708   0.81848   0.83189
 Alpha virt. eigenvalues --    0.83643   0.83656   0.84210   0.84695   0.85344
 Alpha virt. eigenvalues --    0.87360   0.90289   0.91065   0.91146   0.91421
 Alpha virt. eigenvalues --    0.94392   0.96637   0.97265   0.99759   1.00428
 Alpha virt. eigenvalues --    1.04794   1.08535   1.09327   1.10372   1.14642
 Alpha virt. eigenvalues --    1.15868   1.17333   1.18569   1.21214   1.22344
 Alpha virt. eigenvalues --    1.24983   1.29261   1.33368   1.37375   1.41963
 Alpha virt. eigenvalues --    1.43125   1.43501   1.44426   1.47805   1.48412
 Alpha virt. eigenvalues --    1.49225   1.51005   1.53386   1.55233   1.55850
 Alpha virt. eigenvalues --    1.65520   1.67872   1.69852   1.72272   1.73075
 Alpha virt. eigenvalues --    1.74820   1.78443   1.79772   1.83110   1.85064
 Alpha virt. eigenvalues --    1.86978   1.87602   1.90023   1.92255   1.93252
 Alpha virt. eigenvalues --    1.95190   1.97807   1.98223   1.99582   2.02499
 Alpha virt. eigenvalues --    2.05847   2.06695   2.07137   2.10622   2.13866
 Alpha virt. eigenvalues --    2.14131   2.14820   2.15047   2.15224   2.18703
 Alpha virt. eigenvalues --    2.24317   2.26683   2.29758   2.30813   2.31815
 Alpha virt. eigenvalues --    2.33886   2.40585   2.40636   2.44724   2.46723
 Alpha virt. eigenvalues --    2.55184   2.55471   2.58720   2.60204   2.62574
 Alpha virt. eigenvalues --    2.65455   2.69611   2.69900   2.72854   2.74507
 Alpha virt. eigenvalues --    2.77658   2.83213   2.84751   2.90521   2.91555
 Alpha virt. eigenvalues --    2.98344   3.02678   3.03754   3.13382   3.41530
 Alpha virt. eigenvalues --    3.94110   4.03232   4.05543   4.08994   4.11717
 Alpha virt. eigenvalues --    4.13244   4.19427   4.31455   4.32876   4.34046
 Alpha virt. eigenvalues --    4.47055   4.57263   4.71075
          Condensed to atoms (all electrons):
               1          2          3          4          5          6
     1  O    8.012689   0.528179  -0.061974   0.001498   0.000016  -0.000001
     2  C    0.528179   4.654531   0.302617  -0.015730  -0.020458  -0.000350
     3  C   -0.061974   0.302617   5.103808   0.204935  -0.021473   0.004342
     4  O    0.001498  -0.015730   0.204935   8.283626   0.208474  -0.037298
     5  C    0.000016  -0.020458  -0.021473   0.208474   4.747037   0.345499
     6  C   -0.000001  -0.000350   0.004342  -0.037298   0.345499   4.803414
     7  C   -0.000000   0.000022   0.000321   0.000113  -0.054682   0.529599
     8  C   -0.000000   0.000001   0.000006   0.000391   0.006152  -0.017047
     9  C    0.000000   0.000000   0.000000   0.000004   0.000428  -0.034520
    10  C   -0.000000   0.000001   0.000002  -0.000049   0.006152  -0.017048
    11  C   -0.000000   0.000022  -0.000135   0.003051  -0.054682   0.529599
    12  O    0.001498  -0.015729  -0.001205  -0.055687   0.208474  -0.037298
    13  C   -0.061974   0.302617  -0.125983  -0.001205  -0.021473   0.004342
    14  H    0.003031  -0.025835   0.365797  -0.030104   0.004252  -0.000075
    15  H    0.001275  -0.043721   0.341256  -0.037031  -0.007469  -0.000152
    16  H   -0.000076  -0.003744  -0.005345  -0.063715   0.354971  -0.050393
    17  H   -0.000000   0.000020  -0.000155   0.012436  -0.010960  -0.043117
    18  H    0.000000  -0.000000  -0.000000  -0.000002  -0.000193   0.003589
    19  H   -0.000000  -0.000000  -0.000000   0.000000   0.000008   0.000622
    20  H    0.000000  -0.000000  -0.000000   0.000000  -0.000193   0.003589
    21  H   -0.000000   0.000020  -0.000009   0.000213  -0.010960  -0.043117
    22  H    0.003031  -0.025835   0.004595  -0.000384   0.004252  -0.000075
    23  H    0.001275  -0.043721   0.002552  -0.001292  -0.007469  -0.000152
               7          8          9         10         11         12
     1  O   -0.000000  -0.000000   0.000000  -0.000000  -0.000000   0.001498
     2  C    0.000022   0.000001   0.000000   0.000001   0.000022  -0.015729
     3  C    0.000321   0.000006   0.000000   0.000002  -0.000135  -0.001205
     4  O    0.000113   0.000391   0.000004  -0.000049   0.003051  -0.055687
     5  C   -0.054682   0.006152   0.000428   0.006152  -0.054682   0.208474
     6  C    0.529599  -0.017047  -0.034520  -0.017048   0.529599  -0.037298
     7  C    4.962732   0.513088  -0.035512  -0.046751  -0.045262   0.003051
     8  C    0.513088   4.884896   0.547533  -0.025178  -0.046751  -0.000049
     9  C   -0.035512   0.547533   4.848382   0.547533  -0.035512   0.000004
    10  C   -0.046751  -0.025178   0.547533   4.884896   0.513088   0.000391
    11  C   -0.045262  -0.046751  -0.035512   0.513088   4.962732   0.000113
    12  O    0.003051  -0.000049   0.000004   0.000391   0.000113   8.283626
    13  C   -0.000135   0.000002   0.000000   0.000006   0.000321   0.204935
    14  H   -0.000023  -0.000001   0.000000  -0.000000   0.000005  -0.000384
    15  H   -0.000061  -0.000001  -0.000000  -0.000000   0.000009  -0.001292
    16  H   -0.001311  -0.000149   0.000022  -0.000149  -0.001311  -0.063715
    17  H    0.356649  -0.045092   0.004627   0.000278   0.005845   0.000213
    18  H   -0.039930   0.357931  -0.043137   0.004503   0.000933   0.000000
    19  H    0.004679  -0.043111   0.359511  -0.043111   0.004679   0.000000
    20  H    0.000933   0.004503  -0.043137   0.357931  -0.039930  -0.000002
    21  H    0.005845   0.000278   0.004627  -0.045092   0.356649   0.012436
    22  H    0.000005  -0.000000   0.000000  -0.000001  -0.000023  -0.030104
    23  H    0.000009  -0.000000  -0.000000  -0.000001  -0.000061  -0.037031
              13         14         15         16         17         18
     1  O   -0.061974   0.003031   0.001275  -0.000076  -0.000000   0.000000
     2  C    0.302617  -0.025835  -0.043721  -0.003744   0.000020  -0.000000
     3  C   -0.125983   0.365797   0.341256  -0.005345  -0.000155  -0.000000
     4  O   -0.001205  -0.030104  -0.037031  -0.063715   0.012436  -0.000002
     5  C   -0.021473   0.004252  -0.007469   0.354971  -0.010960  -0.000193
     6  C    0.004342  -0.000075  -0.000152  -0.050393  -0.043117   0.003589
     7  C   -0.000135  -0.000023  -0.000061  -0.001311   0.356649  -0.039930
     8  C    0.000002  -0.000001  -0.000001  -0.000149  -0.045092   0.357931
     9  C    0.000000   0.000000  -0.000000   0.000022   0.004627  -0.043137
    10  C    0.000006  -0.000000  -0.000000  -0.000149   0.000278   0.004503
    11  C    0.000321   0.000005   0.000009  -0.001311   0.005845   0.000933
    12  O    0.204935  -0.000384  -0.001292  -0.063715   0.000213   0.000000
    13  C    5.103808   0.004595   0.002552  -0.005345  -0.000009  -0.000000
    14  H    0.004595   0.516175  -0.028856  -0.000252   0.000022   0.000000
    15  H    0.002552  -0.028856   0.597198   0.012074  -0.000069   0.000000
    16  H   -0.005345  -0.000252   0.012074   0.696242   0.000661   0.000003
    17  H   -0.000009   0.000022  -0.000069   0.000661   0.578905  -0.005240
    18  H   -0.000000   0.000000   0.000000   0.000003  -0.005240   0.595655
    19  H   -0.000000  -0.000000  -0.000000  -0.000000  -0.000165  -0.005540
    20  H   -0.000000   0.000000  -0.000000   0.000003   0.000017  -0.000186
    21  H   -0.000155   0.000000   0.000001   0.000661  -0.000166   0.000017
    22  H    0.365797  -0.000176  -0.000101  -0.000252   0.000000   0.000000
    23  H    0.341256  -0.000101   0.000123   0.012074   0.000001  -0.000000
              19         20         21         22         23
     1  O   -0.000000   0.000000  -0.000000   0.003031   0.001275
     2  C   -0.000000  -0.000000   0.000020  -0.025835  -0.043721
     3  C   -0.000000  -0.000000  -0.000009   0.004595   0.002552
     4  O    0.000000   0.000000   0.000213  -0.000384  -0.001292
     5  C    0.000008  -0.000193  -0.010960   0.004252  -0.007469
     6  C    0.000622   0.003589  -0.043117  -0.000075  -0.000152
     7  C    0.004679   0.000933   0.005845   0.000005   0.000009
     8  C   -0.043111   0.004503   0.000278  -0.000000  -0.000000
     9  C    0.359511  -0.043137   0.004627   0.000000  -0.000000
    10  C   -0.043111   0.357931  -0.045092  -0.000001  -0.000001
    11  C    0.004679  -0.039930   0.356649  -0.000023  -0.000061
    12  O    0.000000  -0.000002   0.012436  -0.030104  -0.037031
    13  C   -0.000000  -0.000000  -0.000155   0.365797   0.341256
    14  H   -0.000000   0.000000   0.000000  -0.000176  -0.000101
    15  H   -0.000000  -0.000000   0.000001  -0.000101   0.000123
    16  H   -0.000000   0.000003   0.000661  -0.000252   0.012074
    17  H   -0.000165   0.000017  -0.000166   0.000000   0.000001
    18  H   -0.005540  -0.000186   0.000017   0.000000  -0.000000
    19  H    0.597524  -0.005540  -0.000165  -0.000000  -0.000000
    20  H   -0.005540   0.595655  -0.005240   0.000000   0.000000
    21  H   -0.000165  -0.005240   0.578904   0.000022  -0.000069
    22  H   -0.000000   0.000000   0.000022   0.516175  -0.028856
    23  H   -0.000000   0.000000  -0.000069  -0.028856   0.597197
 Mulliken charges:
               1
     1  O   -0.428469
     2  C    0.407093
     3  C   -0.113952
     4  O   -0.472244
     5  C    0.324298
     6  C    0.056048
     7  C   -0.153381
     8  C   -0.137401
     9  C   -0.120852
    10  C   -0.137401
    11  C   -0.153381
    12  O   -0.472244
    13  C   -0.113952
    14  H    0.191929
    15  H    0.164267
    16  H    0.119043
    17  H    0.145300
    18  H    0.131597
    19  H    0.130608
    20  H    0.131597
    21  H    0.145300
    22  H    0.191929
    23  H    0.164267
 Sum of Mulliken charges =  -0.00000
 Mulliken charges with hydrogens summed into heavy atoms:
               1
     1  O   -0.428469
     2  C    0.407093
     3  C    0.242245
     4  O   -0.472244
     5  C    0.443341
     6  C    0.056048
     7  C   -0.008081
     8  C   -0.005804
     9  C    0.009756
    10  C   -0.005804
    11  C   -0.008081
    12  O   -0.472244
    13  C    0.242245
 APT charges:
               1
     1  O   -0.649933
     2  C    0.658137
     3  C    0.396404
     4  O   -0.766359
     5  C    1.014702
     6  C   -0.034279
     7  C   -0.047093
     8  C   -0.013391
     9  C   -0.013509
    10  C   -0.013391
    11  C   -0.047094
    12  O   -0.766359
    13  C    0.396404
    14  H   -0.004105
    15  H   -0.052203
    16  H   -0.145582
    17  H    0.054942
    18  H    0.010382
    19  H    0.013308
    20  H    0.010382
    21  H    0.054943
    22  H   -0.004105
    23  H   -0.052203
 Sum of APT charges =   0.00000
 APT charges with hydrogens summed into heavy atoms:
               1
     1  O   -0.649933
     2  C    0.658137
     3  C    0.340096
     4  O   -0.766359
     5  C    0.869120
     6  C   -0.034279
     7  C    0.007849
     8  C   -0.003009
     9  C   -0.000201
    10  C   -0.003008
    11  C    0.007849
    12  O   -0.766359
    13  C    0.340096
 Electronic spatial extent (au):  <R**2>=           2840.5417
 Charge=             -0.0000 electrons
 Dipole moment (field-independent basis, Debye):
    X=             -1.2551    Y=             -0.0000    Z=              1.6371  Tot=              2.0629
 Quadrupole moment (field-independent basis, Debye-Ang):
   XX=            -79.9883   YY=            -68.7678   ZZ=            -75.4062
   XY=              0.0000   XZ=              3.3679   YZ=             -0.0000
 Traceless Quadrupole moment (field-independent basis, Debye-Ang):
   XX=             -5.2675   YY=              5.9529   ZZ=             -0.6854
   XY=              0.0000   XZ=              3.3679   YZ=             -0.0000
 Octapole moment (field-independent basis, Debye-Ang**2):
  XXX=            -81.9120  YYY=              0.0000  ZZZ=             -1.1177  XYY=              9.9643
  XXY=             -0.0000  XXZ=              2.0927  XZZ=             21.8629  YZZ=              0.0000
  YYZ=             -0.9776  XYZ=              0.0001
 Hexadecapole moment (field-independent basis, Debye-Ang**3):
 XXXX=          -3303.3849 YYYY=           -535.7397 ZZZZ=           -107.6019 XXXY=              0.0001
 XXXZ=             48.7570 YYYX=              0.0000 YYYZ=             -0.0001 ZZZX=             -5.0287
 ZZZY=              0.0001 XXYY=           -535.5704 XXZZ=           -539.2312 YYZZ=           -114.5658
 XXYZ=             -0.0001 YYXZ=             -2.8461 ZZXY=             -0.0000
 N-N= 7.662245954403D+02 E-N=-2.960592616373D+03  KE= 6.071519161694D+02
  Exact polarizability: 150.050   0.000 110.381   4.101  -0.000  56.177
 Approx polarizability: 205.713   0.000 180.273   7.221  -0.000  87.937
 Calling FoFJK, ICntrl=    100127 FMM=F ISym2X=0 I1Cent= 0 IOpClX= 0 NMat=1 NMatS=1 NMatT=0.
 Full mass-weighted force constant matrix:
 Low frequencies ---   -3.0160   -1.2022   -0.0011   -0.0009    0.0003    6.5709
 Low frequencies ---   31.5176   49.2834  123.5525
 Diagonal vibrational polarizability:
       13.6403477      15.1403487      44.4854399
 Harmonic frequencies (cm**-1), IR intensities (KM/Mole), Raman scattering
 activities (A**4/AMU), depolarization ratios for plane and unpolarized
 incident light, reduced masses (AMU), force constants (mDyne/A),
 and normal coordinates:
                      1                      2                      3
                      A                      A                      A
 Frequencies --     31.5071                49.2834               123.5525
 Red. masses --      3.8830                 7.5734                 3.4075
 Frc consts  --      0.0023                 0.0108                 0.0306
 IR Inten    --      0.1973                 2.2659                 7.8173
  Atom  AN      X      Y      Z        X      Y      Z        X      Y      Z
     1   8     0.00   0.02   0.00     0.07  -0.00   0.48     0.00  -0.00   0.10
     2   6     0.00   0.00   0.00     0.01  -0.00   0.10    -0.02  -0.00  -0.06
     3   6    -0.01  -0.01  -0.17    -0.01  -0.02  -0.15    -0.01  -0.02  -0.17
     4   8    -0.01   0.04  -0.15     0.00   0.01  -0.20    -0.05   0.00   0.04
     5   6     0.00  -0.03  -0.00     0.01   0.00  -0.18     0.02   0.00   0.12
     6   6     0.00  -0.01  -0.00     0.00   0.00  -0.09     0.00   0.00   0.19
     7   6    -0.02  -0.01   0.18    -0.01  -0.00  -0.02     0.01   0.00   0.13
     8   6    -0.02  -0.01   0.19    -0.02  -0.00   0.12     0.03  -0.00  -0.06
     9   6    -0.00  -0.01   0.00    -0.03   0.00   0.20     0.05  -0.00  -0.18
    10   6     0.02  -0.01  -0.19    -0.02   0.00   0.12     0.03   0.00  -0.06
    11   6     0.02  -0.01  -0.18    -0.01   0.00  -0.02     0.01  -0.00   0.13
    12   8     0.01   0.04   0.15     0.00  -0.01  -0.20    -0.05  -0.00   0.04
    13   6     0.01  -0.01   0.17    -0.01   0.02  -0.15    -0.01   0.02  -0.17
    14   1    -0.02   0.07  -0.27     0.03   0.09  -0.25    -0.10   0.09  -0.35
    15   1    -0.01  -0.15  -0.21    -0.06  -0.19  -0.20     0.15  -0.19  -0.25
    16   1     0.00  -0.17  -0.00     0.05   0.00  -0.19     0.12   0.00   0.09
    17   1    -0.04  -0.01   0.32     0.00   0.00  -0.07     0.01  -0.00   0.18
    18   1    -0.04  -0.01   0.33    -0.03  -0.00   0.18     0.04  -0.00  -0.13
    19   1    -0.00  -0.00   0.00    -0.04   0.00   0.32     0.07  -0.00  -0.36
    20   1     0.04  -0.01  -0.33    -0.03   0.00   0.18     0.04   0.00  -0.13
    21   1     0.04  -0.01  -0.32     0.00  -0.00  -0.07     0.01   0.00   0.18
    22   1     0.02   0.07   0.27     0.03  -0.09  -0.25    -0.10  -0.09  -0.35
    23   1     0.01  -0.15   0.21    -0.06   0.19  -0.20     0.15   0.19  -0.25
                      4                      5                      6
                      A                      A                      A
 Frequencies --    125.2563               185.7930               245.5784
 Red. masses --      5.5242                 2.8432                 3.8864
 Frc consts  --      0.0511                 0.0578                 0.1381
 IR Inten    --      0.1558                 0.4358                 4.5611
  Atom  AN      X      Y      Z        X      Y      Z        X      Y      Z
     1   8     0.00   0.24   0.00    -0.00   0.00  -0.00     0.08  -0.00   0.03
     2   6    -0.00   0.11  -0.00     0.00   0.01   0.00     0.07  -0.00  -0.06
     3   6     0.13   0.02  -0.03     0.00  -0.02  -0.14     0.07  -0.00  -0.10
     4   8     0.07  -0.17   0.07    -0.07  -0.05   0.18     0.01  -0.02   0.19
     5   6     0.00  -0.17   0.00    -0.00   0.07  -0.00    -0.02  -0.00   0.12
     6   6     0.00  -0.14   0.00    -0.00   0.06  -0.00    -0.02  -0.00  -0.11
     7   6    -0.13  -0.06   0.01     0.04   0.04  -0.00    -0.04   0.01  -0.16
     8   6    -0.14   0.10   0.01     0.04  -0.01  -0.00    -0.06   0.01  -0.02
     9   6     0.00   0.18  -0.00    -0.00  -0.04   0.00    -0.09   0.00   0.13
    10   6     0.14   0.10  -0.01    -0.04  -0.01   0.00    -0.06  -0.01  -0.02
    11   6     0.13  -0.06  -0.01    -0.04   0.04   0.00    -0.04  -0.01  -0.16
    12   8    -0.07  -0.17  -0.07     0.07  -0.05  -0.18     0.01   0.02   0.19
    13   6    -0.13   0.02   0.03    -0.00  -0.02   0.14     0.07   0.00  -0.10
    14   1     0.18   0.09  -0.08    -0.11   0.14  -0.40    -0.06   0.09  -0.29
    15   1     0.23  -0.01  -0.05     0.25  -0.25  -0.26     0.31  -0.16  -0.18
    16   1     0.00  -0.09   0.00    -0.00   0.25   0.00    -0.18  -0.00   0.15
    17   1    -0.24  -0.13   0.01     0.07   0.06   0.00    -0.05   0.00  -0.21
    18   1    -0.25   0.17   0.02     0.08  -0.03  -0.00    -0.06   0.00   0.02
    19   1     0.00   0.30  -0.00    -0.00  -0.08   0.00    -0.11   0.00   0.33
    20   1     0.25   0.17  -0.02    -0.08  -0.03   0.00    -0.06  -0.00   0.02
    21   1     0.24  -0.13  -0.01    -0.07   0.06  -0.00    -0.05  -0.00  -0.21
    22   1    -0.18   0.09   0.08     0.11   0.14   0.40    -0.06  -0.09  -0.29
    23   1    -0.23  -0.01   0.05    -0.25  -0.25   0.26     0.31   0.16  -0.18
                      7                      8                      9
                      A                      A                      A
 Frequencies --    285.7595               378.4688               417.4193
 Red. masses --      6.4746                 5.7209                 3.0209
 Frc consts  --      0.3115                 0.4828                 0.3101
 IR Inten    --      1.1592                 1.9801                 0.2280
  Atom  AN      X      Y      Z        X      Y      Z        X      Y      Z
     1   8     0.23  -0.00  -0.01     0.00   0.26   0.00    -0.00  -0.01  -0.00
     2   6     0.22  -0.00  -0.04    -0.00  -0.09  -0.00    -0.00   0.01   0.00
     3   6     0.14   0.04   0.01     0.05  -0.17   0.04    -0.00   0.01  -0.00
     4   8     0.12   0.03  -0.06     0.03  -0.14  -0.07    -0.01  -0.00  -0.00
     5   6     0.02   0.00  -0.05    -0.00  -0.10  -0.00    -0.00  -0.00  -0.00
     6   6    -0.10   0.00   0.06     0.00   0.21  -0.00     0.00  -0.00  -0.00
     7   6    -0.19   0.03   0.13     0.10   0.20   0.02    -0.03  -0.00   0.21
     8   6    -0.20   0.02   0.01     0.12   0.03  -0.00     0.02  -0.00  -0.21
     9   6    -0.22  -0.00  -0.16     0.00  -0.05  -0.00     0.00   0.00  -0.00
    10   6    -0.20  -0.02   0.01    -0.12   0.03   0.00    -0.02  -0.00   0.21
    11   6    -0.19  -0.03   0.13    -0.10   0.20  -0.02     0.03  -0.00  -0.21
    12   8     0.12  -0.03  -0.06    -0.03  -0.14   0.07     0.01  -0.00   0.00
    13   6     0.14  -0.04   0.01    -0.05  -0.17  -0.04     0.00   0.01   0.00
    14   1     0.13  -0.05   0.11     0.07  -0.23   0.12     0.01   0.02   0.00
    15   1     0.08   0.14   0.06    -0.03  -0.09   0.08    -0.00   0.02  -0.00
    16   1     0.02   0.00  -0.05    -0.00  -0.25  -0.00    -0.00  -0.01  -0.00
    17   1    -0.25  -0.00   0.19     0.21   0.26   0.05    -0.06  -0.01   0.45
    18   1    -0.17   0.00   0.00     0.24  -0.04  -0.01     0.04   0.00  -0.45
    19   1    -0.20  -0.00  -0.34     0.00  -0.17  -0.00     0.00   0.00  -0.00
    20   1    -0.17  -0.00   0.00    -0.24  -0.04   0.01    -0.04   0.00   0.45
    21   1    -0.25   0.00   0.19    -0.21   0.26  -0.05     0.06  -0.01  -0.45
    22   1     0.13   0.05   0.11    -0.07  -0.23  -0.12    -0.01   0.02  -0.00
    23   1     0.08  -0.14   0.06     0.03  -0.09  -0.08     0.00   0.02   0.00
                     10                     11                     12
                      A                      A                      A
 Frequencies --    429.6844               433.2149               474.1070
 Red. masses --      5.2515                 2.3341                 3.6945
 Frc consts  --      0.5713                 0.2581                 0.4893
 IR Inten    --     25.1396                 3.3536                 0.0270
  Atom  AN      X      Y      Z        X      Y      Z        X      Y      Z
     1   8    -0.00   0.18  -0.00    -0.08  -0.00  -0.10     0.02   0.00  -0.03
     2   6    -0.00  -0.21   0.00    -0.03   0.00   0.25     0.03   0.00   0.07
     3   6     0.06  -0.22   0.03     0.04  -0.08   0.01    -0.01   0.00   0.01
     4   8     0.09   0.20   0.05     0.04  -0.02  -0.01     0.01   0.07  -0.08
     5   6     0.00   0.17  -0.00     0.04  -0.00  -0.03     0.05  -0.00   0.09
     6   6     0.00  -0.08  -0.00     0.02   0.00  -0.03    -0.01   0.00   0.32
     7   6    -0.03  -0.08   0.01    -0.02   0.01   0.01    -0.01   0.02  -0.05
     8   6    -0.04   0.00  -0.02    -0.02   0.01   0.02    -0.01   0.02  -0.14
     9   6    -0.00   0.03  -0.00    -0.04  -0.00  -0.03    -0.07   0.00   0.21
    10   6     0.04   0.00   0.02    -0.02  -0.01   0.02    -0.01  -0.02  -0.14
    11   6     0.03  -0.08  -0.01    -0.02  -0.01   0.01    -0.01  -0.02  -0.05
    12   8    -0.09   0.20  -0.05     0.04   0.02  -0.01     0.01  -0.07  -0.08
    13   6    -0.06  -0.22  -0.03     0.04   0.08   0.01    -0.01  -0.00   0.01
    14   1    -0.18  -0.23  -0.11     0.09   0.23  -0.31     0.01   0.02  -0.00
    15   1     0.05  -0.40  -0.03     0.04  -0.51  -0.13    -0.10  -0.06   0.01
    16   1     0.00   0.29  -0.00     0.02  -0.00  -0.03     0.28  -0.00   0.05
    17   1    -0.08  -0.10   0.02    -0.04   0.00   0.04    -0.01   0.01  -0.31
    18   1    -0.09   0.03  -0.04    -0.01   0.00   0.04     0.04   0.01  -0.40
    19   1    -0.00   0.07  -0.00    -0.03  -0.00  -0.07    -0.09   0.00   0.37
    20   1     0.09   0.03   0.04    -0.01  -0.00   0.04     0.04  -0.01  -0.40
    21   1     0.08  -0.10  -0.02    -0.04  -0.00   0.04    -0.01  -0.01  -0.31
    22   1     0.18  -0.23   0.11     0.09  -0.23  -0.31     0.01  -0.02  -0.00
    23   1    -0.05  -0.40   0.03     0.04   0.51  -0.13    -0.10   0.06   0.01
                     13                     14                     15
                      A                      A                      A
 Frequencies --    507.6819               559.2629               634.4910
 Red. masses --      5.7298                 6.0641                 6.3896
 Frc consts  --      0.8701                 1.1175                 1.5156
 IR Inten    --      2.3697                 5.0511                 0.1790
  Atom  AN      X      Y      Z        X      Y      Z        X      Y      Z
     1   8    -0.00   0.28   0.00     0.21   0.00  -0.10     0.00   0.00  -0.00
     2   6    -0.00  -0.01   0.00     0.22  -0.00   0.18     0.00   0.00   0.00
     3   6    -0.24  -0.02  -0.01    -0.07   0.09   0.00    -0.01   0.00  -0.01
     4   8    -0.26  -0.04   0.00    -0.08   0.21  -0.03    -0.01  -0.02  -0.01
     5   6     0.00   0.04  -0.00    -0.21  -0.00   0.09    -0.00   0.01  -0.00
     6   6     0.00  -0.05  -0.00    -0.13  -0.00  -0.08    -0.00  -0.14   0.00
     7   6    -0.04  -0.07  -0.01     0.02  -0.08  -0.01     0.23  -0.22   0.03
     8   6    -0.05  -0.03  -0.01     0.04  -0.08   0.03     0.25   0.24   0.03
     9   6    -0.00   0.00  -0.00     0.16  -0.00  -0.02     0.00   0.15   0.00
    10   6     0.05  -0.03   0.01     0.04   0.08   0.03    -0.25   0.24  -0.03
    11   6     0.04  -0.07   0.01     0.02   0.08  -0.01    -0.23  -0.22  -0.03
    12   8     0.26  -0.04  -0.00    -0.08  -0.21  -0.03     0.01  -0.02   0.01
    13   6     0.24  -0.02   0.01    -0.07  -0.09   0.00     0.01   0.00   0.01
    14   1    -0.28  -0.19   0.17    -0.21   0.17  -0.18     0.00  -0.01   0.02
    15   1    -0.35   0.16   0.07    -0.17  -0.21  -0.09    -0.02   0.03   0.00
    16   1    -0.00   0.02  -0.00    -0.34  -0.00   0.12    -0.00  -0.01  -0.00
    17   1    -0.08  -0.09  -0.01     0.12  -0.01   0.07     0.09  -0.30   0.01
    18   1    -0.09  -0.01  -0.01    -0.07  -0.02   0.10     0.10   0.33   0.01
    19   1    -0.00   0.06  -0.00     0.16  -0.00  -0.03     0.00  -0.28   0.00
    20   1     0.09  -0.01   0.01    -0.07   0.02   0.10    -0.10   0.33  -0.01
    21   1     0.08  -0.09   0.01     0.12   0.01   0.07    -0.09  -0.30  -0.01
    22   1     0.28  -0.19  -0.17    -0.21  -0.17  -0.18    -0.00  -0.01  -0.02
    23   1     0.35   0.16  -0.07    -0.17   0.21  -0.09     0.02   0.03  -0.00
                     16                     17                     18
                      A                      A                      A
 Frequencies --    647.4055               693.1189               712.7550
 Red. masses --      6.9306                 5.7416                 2.1609
 Frc consts  --      1.7115                 1.6252                 0.6468
 IR Inten    --      5.9106                 8.9153                19.8582
  Atom  AN      X      Y      Z        X      Y      Z        X      Y      Z
     1   8    -0.15  -0.00   0.04     0.21   0.00  -0.05     0.02   0.00  -0.01
     2   6    -0.13   0.00  -0.05     0.19  -0.00   0.05     0.02  -0.00   0.01
     3   6    -0.03   0.10  -0.02    -0.11  -0.12   0.02    -0.02   0.00  -0.00
     4   8     0.09   0.27  -0.03    -0.16  -0.10  -0.01    -0.02   0.01   0.00
     5   6     0.12  -0.00   0.24     0.06   0.00   0.02     0.00   0.00  -0.00
     6   6     0.18  -0.00  -0.05     0.16   0.00   0.06     0.06  -0.00  -0.13
     7   6     0.03   0.12  -0.09     0.05   0.13  -0.08     0.00   0.04   0.09
     8   6    -0.01   0.11   0.09     0.03   0.14   0.08     0.03   0.04  -0.15
     9   6    -0.16   0.00  -0.15    -0.15  -0.00  -0.11    -0.06   0.00   0.08
    10   6    -0.01  -0.11   0.09     0.03  -0.14   0.08     0.03  -0.04  -0.15
    11   6     0.03  -0.12  -0.09     0.05  -0.13  -0.08     0.00  -0.04   0.09
    12   8     0.09  -0.27  -0.03    -0.16   0.10  -0.01    -0.02  -0.01   0.00
    13   6    -0.03  -0.10  -0.02    -0.11   0.12   0.02    -0.02  -0.00  -0.00
    14   1    -0.07   0.06  -0.00    -0.17  -0.19   0.06    -0.04  -0.00  -0.00
    15   1    -0.04   0.13  -0.01    -0.25  -0.13   0.03    -0.03  -0.01  -0.00
    16   1     0.12  -0.00   0.25     0.24   0.00  -0.02    -0.05   0.00   0.01
    17   1    -0.11   0.04   0.06    -0.08   0.06  -0.10    -0.08   0.01   0.50
    18   1     0.10   0.03   0.39     0.18   0.04   0.22     0.05   0.01   0.16
    19   1    -0.17  -0.00  -0.08    -0.15  -0.00  -0.12    -0.11   0.00   0.55
    20   1     0.10  -0.03   0.39     0.18  -0.04   0.22     0.05  -0.01   0.16
    21   1    -0.11  -0.04   0.06    -0.08  -0.06  -0.10    -0.08  -0.01   0.50
    22   1    -0.07  -0.06  -0.00    -0.17   0.19   0.06    -0.04   0.00  -0.00
    23   1    -0.04  -0.13  -0.01    -0.25   0.13   0.03    -0.03   0.01  -0.00
                     19                     20                     21
                      A                      A                      A
 Frequencies --    758.0280               812.1482               823.4476
 Red. masses --      1.7127                 3.6773                 1.5460
 Frc consts  --      0.5798                 1.4291                 0.6176
 IR Inten    --     42.9429                 1.3298                 0.0092
  Atom  AN      X      Y      Z        X      Y      Z        X      Y      Z
     1   8    -0.00  -0.00   0.00    -0.01   0.00  -0.02    -0.00  -0.01  -0.00
     2   6    -0.00   0.00  -0.01    -0.00  -0.00   0.12    -0.00  -0.07   0.00
     3   6     0.01  -0.05   0.00     0.04   0.27  -0.03     0.03   0.00  -0.14
     4   8     0.01  -0.02  -0.02    -0.04  -0.08   0.02     0.03  -0.00   0.03
     5   6     0.03  -0.00   0.05    -0.07   0.00  -0.12     0.00   0.04   0.00
     6   6    -0.05   0.00   0.11    -0.00   0.00   0.13     0.00   0.00  -0.00
     7   6    -0.01  -0.05  -0.08     0.03   0.04  -0.03    -0.00   0.00  -0.00
     8   6    -0.03  -0.06  -0.01     0.03   0.06   0.00    -0.00  -0.00  -0.00
     9   6     0.07  -0.00  -0.09    -0.04  -0.00  -0.07     0.00   0.00   0.00
    10   6    -0.03   0.06  -0.01     0.03  -0.06   0.00     0.00  -0.00   0.00
    11   6    -0.01   0.05  -0.08     0.03  -0.04  -0.03     0.00   0.00   0.00
    12   8     0.01   0.02  -0.02    -0.04   0.08   0.02    -0.03  -0.00  -0.03
    13   6     0.01   0.05   0.00     0.04  -0.27  -0.03    -0.03   0.00   0.14
    14   1     0.03  -0.07   0.04     0.21   0.40  -0.07    -0.01  -0.36   0.27
    15   1    -0.01  -0.01   0.02     0.09   0.20  -0.06     0.02   0.52   0.05
    16   1     0.17  -0.00   0.02    -0.02   0.00  -0.13     0.00   0.06   0.00
    17   1    -0.01  -0.03   0.19    -0.00   0.03  -0.04     0.00   0.00   0.00
    18   1    -0.16  -0.02   0.51     0.08   0.02   0.25    -0.00  -0.00   0.00
    19   1     0.00   0.00   0.49    -0.07   0.00   0.27     0.00   0.01  -0.00
    20   1    -0.16   0.02   0.51     0.08  -0.02   0.25     0.00  -0.00  -0.00
    21   1    -0.01   0.03   0.19    -0.00  -0.03  -0.04    -0.00   0.00  -0.00
    22   1     0.03   0.07   0.04     0.21  -0.40  -0.07     0.01  -0.36  -0.27
    23   1    -0.01   0.01   0.02     0.09  -0.20  -0.06    -0.02   0.52  -0.05
                     22                     23                     24
                      A                      A                      A
 Frequencies --    866.9011               912.8883               955.7743
 Red. masses --      1.2457                 1.9142                 2.1635
 Frc consts  --      0.5516                 0.9399                 1.1644
 IR Inten    --      0.1209                 2.4012                 4.4721
  Atom  AN      X      Y      Z        X      Y      Z        X      Y      Z
     1   8    -0.00   0.00   0.00    -0.01  -0.00   0.01     0.01   0.00  -0.01
     2   6    -0.00  -0.00  -0.00    -0.01   0.00  -0.06     0.02  -0.00   0.06
     3   6     0.00   0.00   0.00     0.01  -0.06   0.03    -0.05   0.05  -0.03
     4   8     0.00   0.00   0.00     0.03   0.05   0.02    -0.02  -0.01   0.01
     5   6    -0.00  -0.00  -0.00    -0.10   0.00  -0.11     0.15  -0.00   0.05
     6   6    -0.00  -0.00   0.00    -0.05   0.00   0.05     0.09  -0.00  -0.11
     7   6     0.01   0.00  -0.07     0.01   0.03   0.06    -0.02  -0.02   0.09
     8   6     0.01   0.00  -0.08     0.04   0.06  -0.00    -0.05  -0.07   0.00
     9   6    -0.00  -0.00   0.00    -0.02  -0.00  -0.10     0.03  -0.00  -0.09
    10   6    -0.01   0.00   0.08     0.04  -0.06  -0.00    -0.05   0.07   0.00
    11   6    -0.01   0.00   0.07     0.01  -0.03   0.06    -0.02   0.02   0.09
    12   8    -0.00   0.00  -0.00     0.03  -0.05   0.02    -0.02   0.01   0.01
    13   6    -0.00   0.00  -0.00     0.01   0.06   0.03    -0.05  -0.05  -0.03
    14   1    -0.00  -0.00  -0.00    -0.11  -0.06  -0.05     0.01   0.02   0.04
    15   1     0.00  -0.00  -0.00     0.08  -0.11   0.00    -0.12   0.09  -0.01
    16   1     0.00  -0.00  -0.00    -0.33  -0.00  -0.06     0.27   0.00   0.03
    17   1    -0.06  -0.01   0.47     0.08   0.05  -0.43     0.02  -0.03  -0.45
    18   1    -0.05  -0.00   0.51     0.08   0.03   0.12    -0.10  -0.04  -0.12
    19   1     0.00  -0.00  -0.00    -0.09   0.00   0.54    -0.04   0.00   0.55
    20   1     0.05  -0.00  -0.51     0.08  -0.03   0.12    -0.10   0.04  -0.12
    21   1     0.06  -0.01  -0.47     0.08  -0.05  -0.43     0.02   0.03  -0.45
    22   1     0.00  -0.00   0.00    -0.11   0.06  -0.05     0.01  -0.02   0.04
    23   1    -0.00  -0.00   0.00     0.08   0.11   0.00    -0.12  -0.09  -0.01
                     25                     26                     27
                      A                      A                      A
 Frequencies --    976.4817               996.7619              1005.7028
 Red. masses --      1.3450                 1.8734                 2.0491
 Frc consts  --      0.7556                 1.0966                 1.2211
 IR Inten    --      0.1899                16.2417                12.2996
  Atom  AN      X      Y      Z        X      Y      Z        X      Y      Z
     1   8     0.00   0.00  -0.00    -0.01   0.00   0.00    -0.01   0.00  -0.00
     2   6     0.00  -0.00   0.00    -0.01  -0.00   0.01    -0.01  -0.00   0.03
     3   6    -0.00   0.00  -0.00     0.07  -0.02  -0.01     0.07  -0.02  -0.02
     4   8     0.00   0.00   0.00    -0.02  -0.03  -0.06    -0.03  -0.04  -0.06
     5   6     0.00  -0.01  -0.00    -0.09  -0.00   0.14    -0.08  -0.00   0.18
     6   6     0.00  -0.00  -0.00    -0.04  -0.00  -0.04    -0.03  -0.00  -0.07
     7   6     0.01   0.00  -0.09     0.00   0.01  -0.02     0.01  -0.02   0.06
     8   6    -0.01   0.00   0.08     0.02   0.04   0.07     0.03   0.03  -0.06
     9   6     0.00  -0.00  -0.00     0.00  -0.00  -0.09    -0.03  -0.00   0.05
    10   6     0.01   0.00  -0.08     0.02  -0.04   0.07     0.03  -0.03  -0.06
    11   6    -0.01   0.00   0.09     0.00  -0.01  -0.02     0.01   0.02   0.06
    12   8    -0.00   0.00  -0.00    -0.02   0.03  -0.06    -0.03   0.04  -0.06
    13   6     0.00   0.00   0.00     0.07   0.02  -0.01     0.07   0.02  -0.02
    14   1    -0.01  -0.00  -0.00     0.18  -0.02   0.06     0.22  -0.03   0.08
    15   1    -0.00   0.00  -0.00     0.03   0.04   0.02    -0.00   0.07   0.02
    16   1     0.00  -0.00  -0.00    -0.11  -0.00   0.14    -0.09  -0.00   0.17
    17   1    -0.07  -0.01   0.51    -0.02   0.01   0.20     0.07   0.00  -0.38
    18   1     0.06   0.00  -0.46     0.09   0.03  -0.46    -0.01   0.03   0.40
    19   1    -0.00  -0.01   0.00    -0.06   0.00   0.54     0.01  -0.00  -0.36
    20   1    -0.06   0.00   0.46     0.09  -0.03  -0.46    -0.01  -0.03   0.40
    21   1     0.07  -0.01  -0.51    -0.02  -0.01   0.20     0.07  -0.00  -0.38
    22   1     0.01  -0.00   0.00     0.18   0.02   0.06     0.22   0.03   0.08
    23   1     0.00   0.00   0.00     0.03  -0.04   0.02    -0.00  -0.07   0.02
                     28                     29                     30
                      A                      A                      A
 Frequencies --   1009.4126              1019.6976              1060.2869
 Red. masses --      4.3934                 6.0861                 2.1425
 Frc consts  --      2.6375                 3.7285                 1.4191
 IR Inten    --     72.7402                 1.4611                10.8361
  Atom  AN      X      Y      Z        X      Y      Z        X      Y      Z
     1   8    -0.00  -0.02  -0.00    -0.01   0.00   0.00    -0.00  -0.00  -0.00
     2   6    -0.00   0.03   0.00    -0.00  -0.00  -0.01     0.00   0.00   0.02
     3   6     0.12  -0.04   0.03     0.03  -0.01   0.01    -0.02   0.00  -0.02
     4   8    -0.08  -0.11  -0.10    -0.01  -0.00  -0.01     0.01   0.00   0.01
     5   6    -0.00   0.41   0.00    -0.02   0.00   0.03     0.04   0.00  -0.01
     6   6    -0.00   0.05  -0.00     0.01   0.00  -0.00    -0.01  -0.00  -0.01
     7   6     0.02  -0.06  -0.01    -0.19   0.35  -0.01    -0.05  -0.07  -0.00
     8   6    -0.04  -0.03  -0.00    -0.01  -0.04  -0.01     0.02   0.18   0.00
     9   6    -0.00   0.04   0.00     0.37  -0.00   0.05     0.14  -0.00   0.02
    10   6     0.04  -0.03   0.00    -0.01   0.04  -0.01     0.02  -0.18   0.00
    11   6    -0.02  -0.06   0.01    -0.19  -0.35  -0.01    -0.05   0.07  -0.00
    12   8     0.08  -0.11   0.10    -0.01   0.00  -0.01     0.01  -0.00   0.01
    13   6    -0.12  -0.04  -0.03     0.03   0.01   0.01    -0.02  -0.00  -0.02
    14   1     0.47   0.10   0.07     0.04   0.00   0.01    -0.02  -0.04   0.02
    15   1     0.10  -0.02   0.03     0.02  -0.00   0.01    -0.05   0.04  -0.00
    16   1    -0.00   0.32   0.00    -0.04   0.00   0.03     0.07   0.00  -0.01
    17   1     0.08  -0.02   0.06    -0.13   0.39  -0.09    -0.35  -0.24  -0.06
    18   1    -0.14   0.02  -0.03     0.02  -0.05   0.07    -0.31   0.38  -0.03
    19   1    -0.00   0.22  -0.00     0.39  -0.00  -0.02     0.16  -0.00   0.02
    20   1     0.14   0.02   0.03     0.02   0.05   0.07    -0.31  -0.38  -0.03
    21   1    -0.08  -0.02  -0.06    -0.13  -0.39  -0.09    -0.35   0.24  -0.06
    22   1    -0.47   0.10  -0.07     0.04  -0.00   0.01    -0.02   0.04   0.02
    23   1    -0.10  -0.02  -0.03     0.02   0.00   0.01    -0.05  -0.04  -0.00
                     31                     32                     33
                      A                      A                      A
 Frequencies --   1085.6463              1088.1945              1118.2523
 Red. masses --      8.2105                 2.3857                 1.6267
 Frc consts  --      5.7016                 1.6645                 1.1985
 IR Inten    --     60.0072                 6.1244                 2.9671
  Atom  AN      X      Y      Z        X      Y      Z        X      Y      Z
     1   8     0.00   0.05   0.00    -0.04   0.00  -0.03     0.00  -0.00   0.00
     2   6    -0.00  -0.12  -0.00     0.02  -0.00   0.20    -0.00   0.02  -0.00
     3   6    -0.36   0.08  -0.03     0.00  -0.05  -0.17     0.02  -0.00   0.00
     4   8     0.30  -0.14   0.00     0.04   0.02   0.06    -0.02   0.02   0.01
     5   6     0.00   0.25   0.00    -0.02   0.00  -0.05     0.00  -0.09   0.00
     6   6     0.00   0.02  -0.00    -0.05   0.00   0.03    -0.00   0.05  -0.00
     7   6     0.05  -0.02   0.00     0.00   0.02  -0.01     0.10  -0.04   0.01
     8   6    -0.04  -0.03  -0.00     0.01  -0.00   0.00    -0.05  -0.05  -0.01
     9   6     0.00   0.04   0.00    -0.02   0.00  -0.00     0.00   0.08  -0.00
    10   6     0.04  -0.03   0.00     0.01   0.00   0.00     0.05  -0.05   0.01
    11   6    -0.05  -0.02  -0.00     0.00  -0.02  -0.01    -0.10  -0.04  -0.01
    12   8    -0.30  -0.14  -0.00     0.04  -0.02   0.06     0.02   0.02  -0.01
    13   6     0.36   0.08   0.03     0.00   0.05  -0.17    -0.02  -0.00  -0.00
    14   1    -0.06   0.25  -0.07     0.04  -0.39   0.25    -0.09  -0.05  -0.01
    15   1    -0.04  -0.08  -0.09    -0.23   0.36   0.01     0.00   0.01   0.01
    16   1     0.00  -0.06  -0.00    -0.19  -0.00  -0.00     0.00  -0.09   0.00
    17   1     0.23   0.08   0.05     0.07   0.06   0.06     0.46   0.16   0.06
    18   1    -0.14   0.02  -0.02     0.08  -0.05   0.01    -0.26   0.06  -0.03
    19   1     0.00   0.29  -0.00    -0.02   0.00  -0.00     0.00   0.54  -0.00
    20   1     0.14   0.02   0.02     0.08   0.05   0.01     0.26   0.06   0.03
    21   1    -0.23   0.08  -0.05     0.07  -0.06   0.06    -0.46   0.16  -0.06
    22   1     0.06   0.25   0.07     0.04   0.39   0.25     0.09  -0.05   0.01
    23   1     0.04  -0.08   0.09    -0.23  -0.36   0.01    -0.00   0.01  -0.01
                     34                     35                     36
                      A                      A                      A
 Frequencies --   1167.9834              1193.5072              1211.5635
 Red. masses --      7.7905                 1.1017                 1.1334
 Frc consts  --      6.2616                 0.9246                 0.9802
 IR Inten    --    266.4358                 0.0054                 9.2466
  Atom  AN      X      Y      Z        X      Y      Z        X      Y      Z
     1   8     0.07   0.00  -0.01    -0.00   0.00  -0.00     0.00   0.00   0.00
     2   6     0.02  -0.00  -0.03    -0.00  -0.00   0.00     0.00  -0.00  -0.00
     3   6    -0.32   0.07  -0.02     0.00   0.00   0.00     0.00   0.00   0.00
     4   8     0.29  -0.18  -0.03     0.00   0.00   0.00    -0.00   0.00   0.00
     5   6    -0.11   0.00   0.19    -0.00  -0.00   0.00     0.02  -0.00  -0.00
     6   6    -0.14   0.00  -0.02     0.00  -0.00   0.00    -0.03   0.00  -0.01
     7   6    -0.02   0.02  -0.00    -0.00  -0.01  -0.00     0.04   0.03   0.00
     8   6     0.04   0.03   0.01     0.04  -0.02   0.00    -0.04   0.03  -0.00
     9   6    -0.01   0.00  -0.00     0.00   0.06  -0.00    -0.01   0.00  -0.00
    10   6     0.04  -0.03   0.01    -0.04  -0.02  -0.00    -0.04  -0.03  -0.00
    11   6    -0.02  -0.02  -0.00     0.00  -0.01   0.00     0.04  -0.03   0.00
    12   8     0.29   0.18  -0.03    -0.00   0.00  -0.00    -0.00  -0.00   0.00
    13   6    -0.32  -0.07  -0.02    -0.00   0.00  -0.00     0.00  -0.00   0.00
    14   1    -0.23   0.15  -0.07    -0.01   0.00  -0.00     0.00   0.01  -0.00
    15   1    -0.22  -0.17  -0.09     0.01   0.00  -0.00    -0.01  -0.00   0.00
    16   1    -0.05  -0.00   0.15    -0.00  -0.01   0.00     0.08  -0.00  -0.02
    17   1     0.14   0.12   0.01    -0.15  -0.09  -0.02     0.45   0.27   0.06
    18   1     0.16  -0.04   0.02     0.42  -0.24   0.05    -0.39   0.24  -0.05
    19   1    -0.01  -0.00  -0.00     0.00   0.68  -0.00    -0.01   0.00   0.00
    20   1     0.16   0.04   0.02    -0.42  -0.24  -0.05    -0.39  -0.24  -0.05
    21   1     0.14  -0.12   0.01     0.15  -0.09   0.02     0.45  -0.27   0.06
    22   1    -0.23  -0.15  -0.07     0.01   0.00   0.00     0.00  -0.01  -0.00
    23   1    -0.22   0.17  -0.09    -0.01   0.00   0.00    -0.01   0.00   0.00
                     37                     38                     39
                      A                      A                      A
 Frequencies --   1226.9724              1244.5211              1256.8974
 Red. masses --      2.6323                 2.2982                 1.4501
 Frc consts  --      2.3348                 2.0972                 1.3498
 IR Inten    --     24.6380                21.6880                30.8689
  Atom  AN      X      Y      Z        X      Y      Z        X      Y      Z
     1   8     0.00  -0.04  -0.00     0.00  -0.00  -0.00    -0.00  -0.02  -0.00
     2   6    -0.00   0.31   0.00     0.00   0.00   0.01     0.00   0.16   0.00
     3   6    -0.04  -0.13  -0.05    -0.01  -0.00  -0.01    -0.02  -0.05   0.03
     4   8     0.05   0.01   0.03     0.03  -0.02  -0.02     0.01  -0.01  -0.03
     5   6     0.00  -0.00  -0.00    -0.13   0.00   0.01    -0.00   0.05   0.00
     6   6    -0.00  -0.02   0.00     0.26  -0.00   0.07    -0.00   0.02  -0.00
     7   6     0.00   0.01  -0.00     0.06   0.01   0.00    -0.01  -0.01  -0.00
     8   6    -0.00   0.00  -0.00    -0.08  -0.05  -0.01     0.00  -0.00   0.00
     9   6    -0.00  -0.00  -0.00     0.01   0.00   0.00    -0.00   0.00  -0.00
    10   6     0.00   0.00   0.00    -0.08   0.05  -0.01    -0.00  -0.00  -0.00
    11   6    -0.00   0.01   0.00     0.06  -0.01   0.00     0.01  -0.01   0.00
    12   8    -0.05   0.01  -0.03     0.03   0.02  -0.02    -0.01  -0.01   0.03
    13   6     0.04  -0.13   0.05    -0.01   0.00  -0.01     0.02  -0.05  -0.03
    14   1     0.23  -0.14   0.12    -0.02  -0.03   0.02    -0.46  -0.21  -0.05
    15   1    -0.54  -0.10   0.02     0.01   0.01  -0.01     0.45   0.09   0.03
    16   1     0.00   0.26   0.00    -0.72  -0.00   0.13     0.00  -0.14  -0.00
    17   1     0.03   0.03   0.01    -0.15  -0.12  -0.00    -0.04  -0.03  -0.01
    18   1     0.04  -0.02   0.00    -0.35   0.10  -0.03    -0.01   0.00  -0.00
    19   1    -0.00   0.03  -0.00     0.01   0.00  -0.00    -0.00  -0.03   0.00
    20   1    -0.04  -0.02  -0.00    -0.35  -0.10  -0.03     0.01   0.00   0.00
    21   1    -0.03   0.03  -0.01    -0.15   0.12  -0.00     0.04  -0.03   0.01
    22   1    -0.23  -0.14  -0.12    -0.02   0.03   0.02     0.46  -0.21   0.05
    23   1     0.54  -0.10  -0.02     0.01  -0.01  -0.01    -0.45   0.09  -0.03
                     40                     41                     42
                      A                      A                      A
 Frequencies --   1282.2922              1344.4828              1363.3217
 Red. masses --      1.1356                 2.1523                 1.6450
 Frc consts  --      1.1002                 2.2923                 1.8014
 IR Inten    --     19.3485                 0.1943                 1.0539
  Atom  AN      X      Y      Z        X      Y      Z        X      Y      Z
     1   8    -0.02   0.00  -0.01    -0.00  -0.00  -0.00     0.00   0.00  -0.00
     2   6     0.01  -0.00   0.07     0.00   0.00   0.00     0.00   0.01   0.00
     3   6     0.01   0.01   0.01     0.01   0.00  -0.01    -0.05  -0.06  -0.00
     4   8     0.00  -0.02  -0.03     0.01   0.00   0.02    -0.01   0.03   0.02
     5   6    -0.03  -0.00   0.02     0.00  -0.01   0.00     0.00  -0.01  -0.00
     6   6     0.01  -0.00  -0.01    -0.00   0.24  -0.00    -0.00   0.02  -0.00
     7   6     0.00   0.00   0.00    -0.04  -0.05  -0.00    -0.10  -0.04  -0.01
     8   6    -0.00  -0.00   0.00     0.10  -0.08   0.01     0.05  -0.02   0.01
     9   6    -0.00  -0.00  -0.00     0.00   0.06  -0.00     0.00   0.10  -0.00
    10   6    -0.00   0.00   0.00    -0.10  -0.08  -0.01    -0.05  -0.02  -0.01
    11   6     0.00  -0.00   0.00     0.04  -0.05   0.00     0.10  -0.04   0.01
    12   8     0.00   0.02  -0.03    -0.01   0.00  -0.02     0.01   0.03  -0.02
    13   6     0.01  -0.01   0.01    -0.01   0.00   0.01     0.05  -0.06   0.00
    14   1    -0.45  -0.19  -0.03     0.02  -0.02   0.02     0.33   0.16  -0.01
    15   1     0.47   0.14   0.00    -0.13  -0.05  -0.01     0.25   0.17   0.04
    16   1     0.20   0.00  -0.04    -0.00  -0.31  -0.00     0.00  -0.34  -0.00
    17   1     0.00  -0.00  -0.01    -0.37  -0.25  -0.05     0.31   0.20   0.05
    18   1    -0.01   0.00  -0.00    -0.37   0.18  -0.04     0.12  -0.06   0.01
    19   1    -0.00   0.00  -0.00     0.00   0.07  -0.00    -0.00  -0.24   0.00
    20   1    -0.01  -0.00  -0.00     0.37   0.18   0.04    -0.12  -0.06  -0.01
    21   1     0.00   0.00  -0.01     0.37  -0.25   0.05    -0.31   0.20  -0.05
    22   1    -0.45   0.19  -0.03    -0.02  -0.02  -0.02    -0.33   0.16   0.01
    23   1     0.47  -0.14   0.00     0.13  -0.05   0.01    -0.25   0.17  -0.04
                     43                     44                     45
                      A                      A                      A
 Frequencies --   1364.8442              1387.9244              1413.4479
 Red. masses --      1.6391                 1.3592                 1.2209
 Frc consts  --      1.7989                 1.5426                 1.4371
 IR Inten    --      0.0839                39.6688                 5.0855
  Atom  AN      X      Y      Z        X      Y      Z        X      Y      Z
     1   8     0.00   0.00  -0.00     0.04  -0.00  -0.01    -0.00   0.00   0.00
     2   6     0.00   0.01   0.00    -0.00  -0.00   0.03    -0.00  -0.01  -0.00
     3   6    -0.05  -0.07  -0.00    -0.09  -0.07  -0.00    -0.03  -0.02   0.01
     4   8    -0.01   0.04   0.02    -0.00   0.03  -0.00     0.01   0.00  -0.03
     5   6     0.00  -0.02  -0.00     0.01  -0.00  -0.01    -0.00  -0.09  -0.00
     6   6     0.00  -0.02   0.00    -0.00   0.00   0.00     0.00   0.03  -0.00
     7   6     0.09   0.04   0.01     0.00   0.00  -0.00    -0.02   0.00  -0.00
     8   6    -0.05   0.02  -0.01    -0.00   0.00  -0.00     0.04  -0.02   0.00
     9   6    -0.00  -0.10   0.00     0.00   0.00   0.00    -0.00   0.01  -0.00
    10   6     0.05   0.02   0.01    -0.00  -0.00  -0.00    -0.04  -0.02  -0.00
    11   6    -0.09   0.04  -0.01     0.00  -0.00  -0.00     0.02   0.00   0.00
    12   8     0.01   0.04  -0.02    -0.00  -0.03  -0.00    -0.01   0.00   0.03
    13   6     0.05  -0.07   0.00    -0.09   0.07  -0.00     0.03  -0.02  -0.01
    14   1     0.37   0.17  -0.02     0.41   0.21  -0.02     0.04   0.10  -0.08
    15   1     0.28   0.19   0.04     0.44   0.28   0.05     0.16   0.16   0.04
    16   1    -0.00  -0.28  -0.00    -0.03   0.00  -0.01     0.00   0.90   0.00
    17   1    -0.27  -0.18  -0.04     0.00   0.00   0.00    -0.03  -0.01  -0.00
    18   1    -0.12   0.06  -0.01    -0.00   0.00   0.00    -0.11   0.06  -0.01
    19   1     0.00   0.23  -0.00     0.00   0.00   0.00     0.00   0.08  -0.00
    20   1     0.12   0.06   0.01    -0.00  -0.00   0.00     0.11   0.06   0.01
    21   1     0.27  -0.18   0.04     0.00  -0.00   0.00     0.03  -0.01   0.00
    22   1    -0.37   0.17   0.02     0.41  -0.21  -0.02    -0.04   0.10   0.08
    23   1    -0.28   0.19  -0.04     0.44  -0.28   0.05    -0.16   0.16  -0.04
                     46                     47                     48
                      A                      A                      A
 Frequencies --   1421.9431              1485.6339              1489.7218
 Red. masses --      1.6466                 1.1179                 1.0912
 Frc consts  --      1.9616                 1.4537                 1.4268
 IR Inten    --    145.5242                 6.4690                 5.3867
  Atom  AN      X      Y      Z        X      Y      Z        X      Y      Z
     1   8     0.00  -0.00   0.00     0.00  -0.00  -0.00     0.00   0.00  -0.00
     2   6    -0.00   0.00  -0.01    -0.00   0.01  -0.00    -0.00  -0.00  -0.00
     3   6     0.00  -0.01  -0.01    -0.03   0.04  -0.01    -0.03   0.05  -0.01
     4   8     0.02   0.02   0.03    -0.01   0.01  -0.00    -0.01   0.01  -0.00
     5   6    -0.21   0.00  -0.01     0.00  -0.02  -0.00     0.03   0.00  -0.01
     6   6     0.06  -0.00  -0.02    -0.00  -0.03   0.00    -0.01   0.00   0.00
     7   6     0.02   0.02   0.01    -0.02   0.01  -0.00    -0.00  -0.00  -0.00
     8   6    -0.01  -0.02  -0.00     0.03  -0.00   0.00    -0.00   0.00  -0.00
     9   6    -0.01  -0.00  -0.00     0.00  -0.02   0.00     0.00   0.00   0.00
    10   6    -0.01   0.02  -0.00    -0.03  -0.00  -0.00    -0.00  -0.00  -0.00
    11   6     0.02  -0.02   0.01     0.02   0.01   0.00    -0.00   0.00  -0.00
    12   8     0.02  -0.02   0.03     0.01   0.01   0.00    -0.01  -0.01  -0.00
    13   6     0.00   0.01  -0.01     0.03   0.04   0.01    -0.03  -0.05  -0.01
    14   1     0.15  -0.02   0.07     0.17  -0.23   0.40     0.17  -0.23   0.41
    15   1    -0.06  -0.07  -0.02     0.26  -0.36  -0.17     0.24  -0.39  -0.18
    16   1     0.88  -0.00  -0.25    -0.00   0.08   0.00    -0.07  -0.00   0.00
    17   1    -0.09  -0.05  -0.02     0.02   0.03   0.00     0.01   0.01   0.00
    18   1    -0.08   0.02  -0.01    -0.06   0.06  -0.01     0.01  -0.00   0.00
    19   1    -0.01   0.00  -0.00     0.00   0.12  -0.00     0.00  -0.00   0.00
    20   1    -0.08  -0.02  -0.01     0.06   0.06   0.01     0.01   0.00   0.00
    21   1    -0.09   0.05  -0.02    -0.02   0.03  -0.00     0.01  -0.01   0.00
    22   1     0.15   0.02   0.07    -0.17  -0.23  -0.40     0.17   0.23   0.41
    23   1    -0.06   0.07  -0.02    -0.26  -0.36   0.17     0.24   0.39  -0.18
                     49                     50                     51
                      A                      A                      A
 Frequencies --   1499.2073              1547.8421              1646.8543
 Red. masses --      2.0943                 2.2981                 5.7443
 Frc consts  --      2.7734                 3.2439                 9.1790
 IR Inten    --     19.5001                 3.9821                 0.0005
  Atom  AN      X      Y      Z        X      Y      Z        X      Y      Z
     1   8     0.00  -0.00  -0.00     0.00   0.00   0.00     0.00  -0.00  -0.00
     2   6    -0.00  -0.00  -0.00    -0.00  -0.00  -0.00     0.00   0.00   0.00
     3   6     0.02  -0.01   0.01     0.00  -0.00  -0.00     0.01   0.00   0.00
     4   8    -0.00  -0.01   0.00     0.00   0.00   0.00    -0.01  -0.00  -0.00
     5   6     0.00   0.05  -0.00    -0.05  -0.00  -0.01    -0.00   0.04  -0.00
     6   6     0.00  -0.15   0.00     0.15   0.00   0.02     0.00  -0.31   0.00
     7   6    -0.08   0.05  -0.01    -0.07  -0.10  -0.01     0.10   0.19   0.01
     8   6     0.13   0.01   0.01    -0.12   0.11  -0.01     0.07  -0.21   0.01
     9   6     0.00  -0.13   0.00     0.11   0.00   0.01    -0.00   0.37  -0.00
    10   6    -0.13   0.01  -0.01    -0.12  -0.11  -0.01    -0.07  -0.21  -0.01
    11   6     0.08   0.05   0.01    -0.07   0.10  -0.01    -0.10   0.19  -0.01
    12   8     0.00  -0.01  -0.00     0.00  -0.00   0.00     0.01  -0.00   0.00
    13   6    -0.02  -0.01  -0.01     0.00   0.00  -0.00    -0.01   0.00  -0.00
    14   1    -0.09   0.06  -0.14     0.01   0.00  -0.00    -0.02  -0.00  -0.01
    15   1    -0.11   0.10   0.06    -0.01   0.00   0.00    -0.01   0.00   0.01
    16   1    -0.00  -0.20  -0.00     0.03   0.00  -0.02    -0.00  -0.09  -0.00
    17   1     0.10   0.18   0.02     0.41   0.16   0.05    -0.30  -0.03  -0.04
    18   1    -0.28   0.26  -0.03     0.44  -0.20   0.05    -0.25  -0.05  -0.03
    19   1     0.00   0.61  -0.00     0.13  -0.00   0.01    -0.00  -0.50   0.00
    20   1     0.28   0.26   0.03     0.44   0.20   0.05     0.25  -0.05   0.03
    21   1    -0.10   0.18  -0.02     0.41  -0.16   0.05     0.30  -0.03   0.04
    22   1     0.09   0.06   0.14     0.01  -0.00  -0.00     0.02  -0.00   0.01
    23   1     0.11   0.10  -0.06    -0.01  -0.00   0.00     0.01   0.00  -0.01
                     52                     53                     54
                      A                      A                      A
 Frequencies --   1668.2546              1834.8134              2909.6177
 Red. masses --      5.6041                12.1689                 1.0805
 Frc consts  --      9.1892                24.1371                 5.3893
 IR Inten    --      0.2115               157.0540                60.3805
  Atom  AN      X      Y      Z        X      Y      Z        X      Y      Z
     1   8    -0.00  -0.00   0.00    -0.52  -0.00   0.07     0.00   0.00  -0.00
     2   6    -0.00   0.00  -0.00     0.79   0.00  -0.11     0.00   0.00  -0.00
     3   6     0.00   0.00   0.00    -0.05  -0.01   0.01    -0.00  -0.00   0.00
     4   8    -0.00  -0.00  -0.00    -0.01  -0.01   0.00     0.00  -0.00  -0.00
     5   6     0.04   0.00   0.01    -0.00   0.00   0.00    -0.02   0.00  -0.08
     6   6    -0.22  -0.00  -0.03     0.00  -0.00   0.00    -0.00  -0.00  -0.00
     7   6     0.29   0.09   0.03     0.00  -0.00   0.00     0.00   0.00   0.00
     8   6    -0.27   0.07  -0.03    -0.00   0.00   0.00    -0.00  -0.00  -0.00
     9   6     0.14   0.00   0.02     0.00  -0.00   0.00     0.00  -0.00  -0.00
    10   6    -0.27  -0.07  -0.03    -0.00  -0.00   0.00    -0.00   0.00  -0.00
    11   6     0.29  -0.09   0.03     0.00   0.00   0.00     0.00  -0.00   0.00
    12   8    -0.00   0.00  -0.00    -0.01   0.01   0.00     0.00   0.00  -0.00
    13   6     0.00  -0.00   0.00    -0.05   0.01   0.01    -0.00   0.00   0.00
    14   1    -0.01  -0.00  -0.00     0.16   0.12  -0.03    -0.00   0.00   0.01
    15   1     0.00  -0.00   0.00     0.04   0.01  -0.00     0.00   0.01  -0.05
    16   1     0.02  -0.00   0.01    -0.00   0.00  -0.00     0.21  -0.00   0.97
    17   1    -0.31  -0.27  -0.04    -0.00  -0.00  -0.00    -0.00   0.00  -0.00
    18   1     0.23  -0.23   0.03     0.00  -0.00   0.00     0.00   0.00  -0.00
    19   1     0.15  -0.00   0.02     0.00  -0.00  -0.00     0.00  -0.00   0.00
    20   1     0.23   0.23   0.03     0.00   0.00   0.00     0.00  -0.00  -0.00
    21   1    -0.31   0.27  -0.04    -0.00   0.00  -0.00    -0.00  -0.00  -0.00
    22   1    -0.01   0.00  -0.00     0.16  -0.12  -0.03    -0.00  -0.00   0.01
    23   1     0.00   0.00   0.00     0.04  -0.01  -0.00     0.00  -0.01  -0.05
                     55                     56                     57
                      A                      A                      A
 Frequencies --   2970.0015              2975.0736              3136.1624
 Red. masses --      1.0706                 1.0725                 1.0902
 Frc consts  --      5.5641                 5.5927                 6.3177
 IR Inten    --      9.8355                64.5102                 4.8328
  Atom  AN      X      Y      Z        X      Y      Z        X      Y      Z
     1   8    -0.00  -0.00   0.00    -0.00   0.00   0.00     0.00   0.00  -0.00
     2   6     0.00   0.00  -0.00     0.00  -0.00  -0.00    -0.00   0.00   0.00
     3   6     0.01  -0.02   0.05    -0.01   0.02  -0.05     0.02  -0.04  -0.04
     4   8     0.00  -0.00   0.00    -0.00  -0.00  -0.00     0.00  -0.00   0.00
     5   6    -0.00   0.00  -0.00    -0.00  -0.00  -0.01     0.00   0.00  -0.00
     6   6     0.00  -0.00   0.00     0.00   0.00   0.00     0.00  -0.00  -0.00
     7   6     0.00  -0.00   0.00    -0.00   0.00  -0.00     0.00  -0.00   0.00
     8   6     0.00  -0.00  -0.00    -0.00  -0.00  -0.00     0.00   0.00   0.00
     9   6    -0.00   0.00  -0.00    -0.00  -0.00  -0.00    -0.00  -0.00  -0.00
    10   6    -0.00  -0.00   0.00    -0.00   0.00  -0.00    -0.00   0.00  -0.00
    11   6    -0.00  -0.00  -0.00    -0.00  -0.00  -0.00    -0.00  -0.00  -0.00
    12   8    -0.00  -0.00  -0.00    -0.00   0.00  -0.00    -0.00  -0.00  -0.00
    13   6    -0.01  -0.02  -0.05    -0.01  -0.02  -0.05    -0.02  -0.04   0.04
    14   1    -0.04   0.06   0.08     0.04  -0.06  -0.07    -0.25   0.49   0.43
    15   1    -0.08   0.22  -0.66     0.08  -0.21   0.66     0.01  -0.04   0.08
    16   1     0.00  -0.01   0.00     0.01   0.00   0.07     0.00   0.00   0.00
    17   1    -0.00   0.00   0.00     0.00   0.00  -0.00    -0.00   0.00  -0.00
    18   1    -0.00  -0.00   0.00     0.00   0.00   0.00    -0.00  -0.00  -0.00
    19   1     0.00  -0.00   0.00     0.00   0.00   0.00     0.00  -0.00   0.00
    20   1     0.00  -0.00  -0.00     0.00  -0.00   0.00     0.00  -0.00   0.00
    21   1     0.00   0.00  -0.00     0.00  -0.00  -0.00     0.00   0.00   0.00
    22   1     0.04   0.06  -0.08     0.04   0.06  -0.07     0.26   0.49  -0.43
    23   1     0.08   0.22   0.66     0.08   0.21   0.66    -0.01  -0.04  -0.08
                     58                     59                     60
                      A                      A                      A
 Frequencies --   3137.1355              3182.4172              3193.2554
 Red. masses --      1.0916                 1.0853                 1.0897
 Frc consts  --      6.3296                 6.4761                 6.5469
 IR Inten    --     15.7181                 0.0107                17.3192
  Atom  AN      X      Y      Z        X      Y      Z        X      Y      Z
[...]
 018661,-0.00308841,-0.00227076,0.00088386,0.11627876,0.00014776,0.0048
 0760,0.00277019,0.01383330,-0.02489571,-0.01742158,0.08290535,-0.18281
 417,-0.11300445,0.00427060,0.00001622,0.00153286,-0.00084903,0.0015146
 0,0.00078138,-0.00008931,-0.00006322,-0.00011736,0.00002585,0.00001822
 ,-0.00000724,0.00000693,-0.00000141,0.00000488,0.00001175,0.00000070,0
 .00000770,-0.00000681,-0.00000732,-0.00000104,0.00002169,0.00002821,0.
 00002654,0.00046746,0.00048169,-0.00022450,-0.00424633,-0.00192691,0.0
 0252325,-0.09227241,0.19462690,-0.00118311,-0.00027447,-0.00022467,-0.
 00002121,0.00558361,0.00282496,0.07117765,-0.11442896,-0.13865599,-0.0
 0960119,0.01257218,0.00919546,-0.00245622,-0.00058742,-0.00047961,-0.0
 0011863,0.00057571,0.00045434,0.00009268,0.00004058,-0.00002042,-0.000
 01681,-0.00000931,-0.00003501,-0.00000081,-0.00001806,0.00000684,0.000
 02200,0.00006260,-0.00004366,-0.00020264,-0.00005295,-0.00003559,0.000
 33838,0.00019387,0.00024551,0.00004161,0.00068162,-0.00072019,-0.07001
 342,0.11724784,0.14366633,-0.00058828,-0.00071756,-0.00270252,0.000696
 92,-0.00325965,0.01650055,-0.04652538,-0.00478750,0.01904644,-0.017877
 80,0.01631269,-0.03859063,0.00360072,-0.00689455,-0.00548028,-0.000292
 05,0.00006182,0.00041337,-0.00005912,0.00006600,0.00002258,0.00010788,
 0.00000851,0.00003332,-0.00004073,0.00011086,-0.00000961,-0.00011509,-
 0.00007117,-0.00007267,0.00009738,-0.00018846,0.00009578,0.00086050,0.
 00191537,0.00058892,-0.00113660,-0.00052010,-0.00160770,0.00139268,-0.
 00490096,0.01220805,0.05899032,-0.00130701,-0.00044102,-0.00360891,-0.
 00282048,-0.00886016,0.03073822,-0.00360575,-0.07462317,0.07588326,0.0
 0494943,0.00291186,0.00128163,-0.00066462,0.00043549,0.00309510,0.0002
 0771,-0.00003869,-0.00021360,-0.00002794,0.00006763,-0.00003436,-0.000
 02502,-0.00001312,0.00002839,-0.00000845,-0.00001671,-0.00000414,0.000
 01467,0.00000058,0.00001993,-0.00004849,-0.00002256,-0.00003166,0.0001
 6312,0.00081957,-0.00015588,-0.00092386,-0.00088221,-0.00505378,0.0010
 3230,0.00913572,-0.02225184,0.00297252,0.07285918,0.00028732,0.0005062
 4,0.00114105,0.00173060,0.00158160,-0.00219732,0.01393910,0.06689529,-
 0.26123502,-0.01737590,0.00463636,-0.00909590,0.00217050,-0.00401303,-
 0.00030041,0.00003410,0.00019601,0.00046136,-0.00000718,0.00000504,-0.
 00001007,0.00002817,0.00002861,0.00001192,-0.00002317,0.00000936,0.000
 00175,-0.00000723,0.00002488,-0.00003962,-0.00010495,-0.00009373,0.000
 01145,0.00014578,0.00104957,0.00012206,-0.00017805,-0.00038926,-0.0016
 0477,0.00202673,0.00649966,-0.01688951,-0.00220460,-0.07889606,0.28855
 085,-0.00036664,0.,0.00003834,-0.00012763,0.,-0.00015226,0.00252055,-0
 .00093561,0.00351698,0.00001982,0.01165630,0.01943839,-0.05938724,-0.0
 0000001,-0.03218967,-0.00639057,0.00000002,-0.02927779,-0.00025583,0.0
 0137594,-0.00004329,-0.00065111,0.00044295,0.00116985,-0.00051937,0.,-
 0.00027559,-0.00065112,-0.00044294,0.00116986,-0.00025586,-0.00137594,
 -0.00004330,0.00001984,-0.01165628,0.01943834,0.00252055,0.00093561,0.
 00351696,0.00003901,0.00000706,-0.00022634,0.00046527,-0.00011981,-0.0
 0062002,0.06258916,0.,0.00097848,0.,0.,-0.00178835,0.,-0.00555066,0.00
 139191,-0.00290787,0.01190400,-0.01495515,-0.03807999,-0.00000001,-0.0
 4466031,0.00000020,0.,0.00478913,0.,-0.00016260,-0.00034806,0.00032958
 ,0.00057228,-0.00006465,0.00005215,0.,0.00054322,0.,-0.00057228,-0.000
 06464,-0.00005215,0.00016259,-0.00034807,-0.00032958,-0.01190395,-0.01
 495520,0.03807997,0.00555066,0.00139191,0.00290786,0.00010196,-0.00007
 296,0.00045491,0.00031942,0.00002155,0.00163767,-0.00000003,0.06816370
 ,0.00066529,0.,-0.00004717,0.00062298,0.,-0.00026944,-0.00319810,0.000
 97591,0.00068196,0.00519867,-0.01486347,-0.01643901,-0.02126115,0.0000
 0018,-0.26435664,-0.00474161,0.,-0.00625805,0.00009662,0.00073023,0.00
 032734,-0.00052261,-0.00003858,0.00018313,0.00019954,0.,-0.00001426,-0
 .00052260,0.00003859,0.00018313,0.00009660,-0.00073022,0.00032733,0.00
 519863,0.01486344,-0.01643889,-0.00319808,-0.00097590,0.00068195,0.000
 34718,-0.00010406,0.00050544,0.00178815,-0.00082000,0.00068259,0.01694
 289,-0.00000016,0.29985516,0.00026173,0.00020212,-0.00002778,-0.000117
 29,-0.00041069,0.00010245,-0.00061129,0.00044178,-0.00023208,-0.002495
 58,-0.00065068,-0.00010352,0.00033302,-0.00110290,0.00059926,0.0122768
 4,-0.01291199,0.00234011,-0.12576342,0.12150674,-0.02187045,-0.0099965
 4,0.02756135,-0.00287275,-0.00457117,-0.00158389,-0.00291196,-0.000679
 87,-0.00078018,-0.00010063,-0.00131298,-0.00307195,-0.00175011,0.00024
 323,0.00068707,0.00013251,-0.00010418,0.00002826,-0.00011899,0.0000245
 5,-0.00001849,0.00001128,0.00007848,-0.00003099,0.00009903,0.00008161,
 0.00008787,0.00015932,0.13136128,0.00024509,0.00027495,-0.00004044,0.0
 0009129,-0.00051854,0.00013364,-0.00069697,0.00092200,-0.00017163,0.00
 134198,0.00135277,0.00021666,0.00233354,-0.00190636,0.00008511,0.01471
 190,-0.01983825,0.00334569,0.11925714,-0.27288373,0.02782895,-0.002133
 03,0.00475848,-0.00067636,-0.00062243,0.00146851,-0.00031133,-0.000779
 67,0.00024182,-0.00017874,-0.00411052,-0.00290778,-0.00112569,-0.00018
 378,0.00058538,-0.00004717,-0.00000329,-0.00001054,-0.00005511,0.00001
 004,-0.00001309,-0.00003303,0.00006490,-0.00001457,0.00011921,-0.00039
 658,0.00001801,-0.00007052,-0.13022958,0.28853867,0.00001878,-0.000044
 72,-0.00000136,-0.00006201,0.00009702,-0.00002157,-0.00020943,-0.00022
 714,-0.00011515,0.00053484,0.00014039,-0.00029366,0.00063214,-0.000190
 06,-0.00323819,0.00203741,-0.00327669,0.00425459,-0.02133054,0.0267410
 0,-0.04245241,-0.00318051,0.00734495,0.00197144,-0.00315515,-0.0003699
 5,0.00650672,-0.00014942,-0.00028219,-0.00030472,-0.00165412,-0.000747
 55,0.00572983,0.00053957,0.00008892,0.00003050,-0.00002668,0.00005354,
 -0.00001911,0.00007646,0.00000479,0.00004086,-0.00005134,-0.00003770,-
 0.00002798,-0.00065675,-0.00003021,-0.00033957,0.02527275,-0.02941305,
 0.03244207,-0.00011684,0.00003361,0.00001399,0.00008974,-0.00006682,-0
 .00004414,0.00014328,-0.00002547,0.00007209,-0.00017752,0.00021583,0.0
 0007744,0.00061103,-0.00154262,0.00002202,-0.00493363,0.00155757,-0.00
 326101,-0.01044997,-0.02859500,-0.00332559,-0.12300219,-0.11583462,-0.
 02229276,0.01164478,0.01484655,0.00234664,-0.00076057,0.00289683,-0.00
 193869,-0.00078595,0.00088763,-0.00009153,-0.00072049,-0.00011756,-0.0
 0017028,0.00013356,-0.00005397,0.00017440,-0.00004366,0.00000886,-0.00
 000236,-0.00001651,-0.00001169,-0.00002264,-0.00012627,0.00004788,-0.0
 0007992,0.00085758,0.00030784,0.00122025,0.12659973,-0.00008416,0.0000
 0396,0.00000728,0.00005977,-0.00000786,-0.00002808,0.00009650,-0.00002
 632,0.00004673,-0.00020398,0.00006253,-0.00000672,0.00047272,0.0000700
 0,0.00004479,0.00053990,0.00159866,0.00012950,0.00182954,0.00382647,0.
 00047742,-0.11590055,-0.27041960,-0.03000693,-0.01588435,-0.01910859,-
 0.00407624,0.00421644,-0.00294040,0.00103449,0.00086708,0.00021246,0.0
 0020239,-0.00015524,-0.00001825,-0.00001142,0.00011341,0.00002794,0.00
 004666,-0.00001985,0.00000629,-0.00000187,-0.00001461,-0.00000283,-0.0
 0001460,-0.00009244,-0.00000949,-0.00001789,-0.00031223,0.00084472,-0.
 00008063,0.12520471,0.28595290,-0.00002380,0.00001712,-0.00000072,0.00
 001517,-0.00003492,-0.00000437,0.00001890,0.00001540,0.00003565,0.0000
 6178,-0.00003307,-0.00003075,0.00003318,-0.00017461,0.00039058,-0.0028
 8711,0.00048882,0.00651405,-0.00316248,-0.00735268,0.00139775,-0.02240
 562,-0.03015946,-0.04129847,0.00229552,0.00382450,0.00297824,-0.001989
 96,0.00070088,0.00648109,-0.00004696,0.00024626,-0.00038071,-0.0002684
 6,-0.00012268,-0.00007341,-0.00000283,-0.00002406,0.00001616,-0.000006
 80,-0.00000009,0.00000062,-0.00000544,0.00000091,-0.00001108,-0.000035
 65,-0.00003749,-0.00001900,0.00111303,0.00018008,-0.00372303,0.0258663
 5,0.03242692,0.03212403,-0.00011785,0.,0.00001036,0.00007515,0.,-0.000
 03580,0.00014527,-0.00004414,0.00006604,-0.00028694,0.00001806,-0.0000
 1535,0.00015568,0.,0.00030676,0.00069132,0.,0.00025259,0.00101445,0.00
 314149,-0.00155212,-0.01092191,-0.00263608,-0.00336722,-0.32078306,-0.
 00000003,-0.07139420,-0.01092198,0.00263610,-0.00336727,0.00101444,-0.
 00314152,-0.00155209,-0.00028694,-0.00001805,-0.00001535,0.00014527,0.
 00004414,0.00006604,-0.00002204,0.00000801,-0.00000353,-0.00001470,-0.
 00000036,-0.00001969,0.00001622,0.,-0.00000656,-0.00058020,-0.00021453
 ,-0.00023189,0.00060756,0.00025615,0.00111913,0.34007963,0.,0.00003624
 ,0.,0.,-0.00007201,0.,-0.00005218,0.00005602,0.00000073,0.00005082,0.0
 0014810,0.00001305,0.,-0.00013525,0.,0.,-0.00139885,0.,0.00192575,-0.0
 0479515,0.00045829,0.02814332,0.00506658,0.00705665,-0.00000002,-0.060
 82519,0.00000012,-0.02814331,0.00506658,-0.00705668,-0.00192578,-0.004
 79514,-0.00045818,-0.00005082,0.00014810,-0.00001306,0.00005218,0.0000
 5602,-0.00000073,-0.00000438,0.00000084,-0.00000163,0.00000514,-0.0000
 0255,0.00000474,0.,0.00001186,0.,0.00136906,0.00013470,0.00039150,-0.0
 0049338,0.00103093,-0.00011887,0.00000003,0.05910428,-0.00002955,0.,0.
 00000221,0.00000705,0.,-0.00001785,0.00000975,-0.00004923,0.00001189,0
 .00008052,0.00004435,-0.00000951,0.00022943,0.,-0.00102801,0.00023390,
 0.,-0.00038654,-0.00156574,0.00070641,0.00685045,-0.00330106,-0.000676
 53,0.00156323,-0.07145313,0.00000012,-0.05381468,-0.00330081,0.0006764
 9,0.00156330,-0.00156572,-0.00070631,0.00685047,0.00008052,-0.00004435
 ,-0.00000951,0.00000975,0.00004923,0.00001189,0.00000185,0.00000119,0.
 00000590,-0.00000062,-0.00000662,-0.00000495,-0.00017220,0.,-0.0000754
 4,-0.00019517,-0.00003737,0.00018243,0.00112452,0.00008033,-0.00356638
 ,0.07887613,-0.00000016,0.04525412,-0.00011684,-0.00003361,0.00001399,
 0.00008974,0.00006682,-0.00004414,0.00013356,0.00005397,0.00017440,-0.
 00072049,0.00011756,-0.00017028,0.00061103,0.00154262,0.00002201,-0.00
 493363,-0.00155759,-0.00326100,-0.00078596,-0.00088763,-0.00009152,-0.
 00076058,-0.00289686,-0.00193867,0.01164478,-0.01484663,0.00234677,-0.
 12300168,0.11583409,-0.02229367,-0.01044990,0.02859499,-0.00332583,-0.
 00017752,-0.00021583,0.00007744,0.00014328,0.00002547,0.00007209,-0.00
 007733,0.00001032,-0.00001762,-0.00001632,-0.00000692,-0.00002322,-0.0
 0012627,-0.00004788,-0.00007992,0.00003663,0.00011613,0.00032046,0.000
 50338,-0.00085334,0.00003163,0.00060756,0.00049338,0.00112452,0.126599
 16,0.00008416,0.00000396,-0.00000728,-0.00005977,-0.00000786,0.0000280
 8,-0.00011341,0.00002794,-0.00004666,0.00015524,-0.00001825,0.00001142
 ,-0.00047272,0.00007000,-0.00004479,-0.00053991,0.00159866,-0.00012945
 ,-0.00086707,0.00021246,-0.00020239,-0.00421646,-0.00294039,-0.0010344
 0,0.01588430,-0.01910865,0.00407642,0.11589996,-0.27041950,0.03000891,
 -0.00182953,0.00382647,-0.00047743,0.00020398,0.00006253,0.00000672,-0
 .00009650,-0.00002632,-0.00004673,0.00001230,-0.00000371,0.00000228,0.
 00001189,0.00000276,0.00001224,0.00009244,-0.00000949,0.00001789,0.000
 11129,-0.00000017,0.00002937,0.00085334,-0.00110240,0.00020822,-0.0002
 5614,0.00103093,-0.00008037,-0.12520408,0.28595285,-0.00002380,-0.0000
 1712,-0.00000072,0.00001517,0.00003492,-0.00000437,-0.00000283,0.00002
 406,0.00001616,-0.00026846,0.00012268,-0.00007341,0.00003318,0.0001746
 1,0.00039058,-0.00288712,-0.00048877,0.00651405,-0.00004695,-0.0002462
 7,-0.00038071,-0.00198991,-0.00070079,0.00648112,0.00229537,-0.0038243
 0,0.00297827,-0.02240652,0.03016142,-0.04129903,-0.00316246,0.00735268
 ,0.00139770,0.00006178,0.00003307,-0.00003075,0.00001890,-0.00001540,0
 .00003565,-0.00001600,-0.00000058,-0.00000531,-0.00000797,-0.00000026,
 -0.00001165,-0.00003565,0.00003749,-0.00001900,0.00030439,0.00005199,-
 0.00116961,0.00003162,-0.00020821,0.00035628,0.00111914,0.00011883,-0.
 00356639,0.02586734,-0.03242912,0.03212460,0.00026173,-0.00020212,-0.0
 0002778,-0.00011730,0.00041070,0.00010245,-0.00010418,-0.00002826,-0.0
 0011899,0.00024322,-0.00068707,0.00013251,0.00033302,0.00110290,0.0005
 9925,0.01227683,0.01291191,0.00233999,-0.00131297,0.00307193,-0.001750
 14,-0.00067986,0.00078018,-0.00010064,-0.00457116,0.00158388,-0.002911
 97,-0.00999659,-0.02756130,-0.00287250,-0.12576389,-0.12150723,-0.0218
 6947,-0.00249566,0.00065071,-0.00010353,-0.00061130,-0.00044178,-0.000
 23208,0.00003739,-0.00002065,0.00000866,0.00000816,0.00000329,0.000024
 65,0.00008161,-0.00008788,0.00015932,0.00063203,0.00090930,0.00001601,
 0.00003663,-0.00011129,0.00030439,-0.00058020,-0.00136906,-0.00019516,
 0.00085758,0.00031224,0.00111303,0.13136187,-0.00024509,0.00027495,0.0
 0004044,-0.00009129,-0.00051855,-0.00013364,0.00000329,-0.00001054,0.0
 0005511,0.00018379,0.00058538,0.00004716,-0.00233353,-0.00190637,-0.00
 008514,-0.01471194,-0.01983817,-0.00334548,0.00411049,-0.00290778,0.00
 112576,0.00077967,0.00024182,0.00017874,0.00062242,0.00146851,0.000311
 38,0.00213304,0.00475849,0.00067635,-0.11925760,-0.27288365,-0.0278269
 4,-0.00134199,0.00135277,-0.00021668,0.00069697,0.00092202,0.00017163,
 0.00000444,0.00000796,-0.00000227,0.00001432,-0.00000323,-0.00000375,0
 .00039657,0.00001801,0.00007051,-0.00090930,-0.00105170,-0.00019309,-0
 .00011613,-0.00000017,-0.00005200,0.00021453,0.00013470,0.00003737,-0.
 00030783,0.00084472,-0.00018012,0.13023010,0.28853850,0.00001879,0.000
 04472,-0.00000136,-0.00006201,-0.00009701,-0.00002156,-0.00002668,-0.0
 0005354,-0.00001911,0.00053958,-0.00008893,0.00003050,0.00063216,0.000
 19007,-0.00323821,0.00203754,0.00327686,0.00425457,-0.00165414,0.00074
 763,0.00572980,-0.00014943,0.00028219,-0.00030472,-0.00315516,0.000370
 00,0.00650670,-0.00318054,-0.00734497,0.00197149,-0.02132956,-0.026738
 97,-0.04245195,0.00053484,-0.00014041,-0.00029365,-0.00020945,0.000227
 12,-0.00011516,0.00002695,-0.00000522,0.00001905,0.00001223,0.00000372
 ,0.00001013,-0.00065676,0.00003022,-0.00033957,0.00001601,0.00019310,0
 .00051874,0.00032046,-0.00002939,-0.00116960,-0.00023190,-0.00039150,0
 .00018243,0.00122025,0.00008059,-0.00372302,0.02527169,0.02941082,0.03
 244161,0.00064802,-0.00098067,0.00093827,0.00953538,0.01151550,-0.0101
 6708,-0.00308841,0.00227076,0.00088385,0.00124291,-0.00177001,-0.00018
 661,-0.00483457,0.00524955,-0.00240876,0.00010561,-0.00181127,0.000631
 48,-0.00060423,0.00031004,-0.00014549,0.00001643,-0.00017566,-0.000056
 88,-0.00003502,0.00001282,-0.00000256,-0.00000007,0.00002204,-0.000027
 10,0.00003235,-0.00014366,-0.00007328,-0.02615169,-0.02879001,0.014569
 63,-0.09519600,-0.07727308,0.06356104,0.00065731,0.00064634,0.00000014
 ,0.00004282,-0.00021782,0.00004015,0.00003901,-0.00010196,0.00034719,0
 .00003739,-0.00000444,0.00002695,-0.00007733,-0.00001230,-0.00001600,-
 0.00002204,0.00000438,0.00000185,-0.00004366,0.00001985,-0.00000680,0.
 00002455,-0.00001004,0.00007646,0.11627856,-0.00014776,0.00480759,-0.0
 0277019,-0.01383329,-0.02489570,0.01742159,0.00424633,-0.00192691,-0.0
 0252325,-0.00046746,0.00048169,0.00022450,0.00084903,0.00151460,-0.000
 78138,0.00008931,-0.00006322,0.00011736,-0.00002169,0.00002821,-0.0000
 2654,0.00000681,-0.00000732,0.00000104,-0.00001175,0.00000070,-0.00000
 770,-0.00000693,-0.00000141,-0.00000488,-0.00002585,0.00001822,0.00000
 724,-0.00427059,0.00001623,-0.00153285,-0.08290486,-0.18281353,0.11300
 404,-0.00064634,-0.00104611,0.00018023,-0.00003271,0.00019967,0.000333
 94,-0.00000706,-0.00007296,0.00010406,0.00002065,0.00000796,0.00000522
 ,-0.00001032,-0.00000371,0.00000058,-0.00000801,0.00000084,-0.00000119
 ,-0.00000886,0.00000629,0.00000009,0.00001849,-0.00001309,-0.00000479,
 0.09227191,0.19462626,-0.00118311,0.00027446,-0.00022467,-0.00002121,-
 0.00558360,0.00282495,0.00004161,-0.00068162,-0.00072019,0.00033838,-0
 .00019387,0.00024551,-0.00245622,0.00058742,-0.00047960,-0.00011863,-0
 .00057571,0.00045434,-0.00020264,0.00005295,-0.00003559,0.00002200,-0.
 00006260,-0.00004366,-0.00000081,0.00001806,0.00000684,-0.00001681,0.0
 0000931,-0.00003501,0.00009268,-0.00004058,-0.00002042,-0.00960116,-0.
 01257213,0.00919545,0.07117738,0.11442853,-0.13865589,0.00000014,-0.00
 018023,0.00004328,-0.00003656,-0.00006637,0.00010136,-0.00022633,-0.00
 045491,0.00050543,0.00000866,0.00000227,0.00001905,-0.00001762,-0.0000
 0228,-0.00000531,-0.00000353,0.00000163,0.00000590,-0.00000236,0.00000
 187,0.00000062,0.00001128,0.00003303,0.00004086,-0.07001317,-0.1172474
 4,0.14366627,-0.00058827,0.00071756,-0.00270251,0.00069694,0.00325966,
 0.01650051,-0.00113661,0.00052010,-0.00160769,0.00086051,-0.00191537,0
 .00058892,0.00360071,0.00689456,-0.00548027,-0.00029206,-0.00006183,0.
 00041337,0.00009738,0.00018846,0.00009578,-0.00011509,0.00007117,-0.00
 007268,-0.00004073,-0.00011086,-0.00000961,0.00010788,-0.00000851,0.00
 003332,-0.00005912,-0.00006600,0.00002258,-0.01787784,-0.01631268,-0.0
 3859057,-0.04652538,0.00478745,0.01904620,0.00004282,0.00003271,-0.000
 03656,0.00034144,0.00047616,0.00006055,0.00046527,-0.00031943,0.001788
 15,0.00000816,-0.00001432,0.00001223,-0.00001632,-0.00001189,-0.000007
 97,-0.00001470,-0.00000514,-0.00000062,-0.00001651,0.00001461,-0.00000
 544,0.00007848,-0.00006490,-0.00005135,0.00139269,0.00490096,0.0122080
 3,0.05899036,0.00130700,-0.00044101,0.00360891,0.00282044,-0.00886018,
 -0.03073820,0.00092387,-0.00088222,0.00505377,-0.00016311,0.00081957,0
 .00015588,0.00066462,0.00043549,-0.00309509,-0.00020771,-0.00003869,0.
 00021360,0.00004849,-0.00002256,0.00003166,-0.00001467,0.00000058,-0.0
 0001993,0.00000845,-0.00001671,0.00000414,0.00002502,-0.00001312,-0.00
 002839,0.00002794,0.00006763,0.00003436,-0.00494941,0.00291186,-0.0012
 8161,0.00360571,-0.07462327,-0.07588326,0.00021782,0.00019967,0.000066
 37,-0.00047616,-0.00153320,-0.00013000,0.00011980,0.00002155,0.0008200
 0,-0.00000329,-0.00000323,-0.00000372,0.00000692,0.00000276,0.00000026
 ,0.00000036,-0.00000255,0.00000662,0.00001169,-0.00000283,-0.00000091,
 0.00003099,-0.00001457,0.00003770,-0.00103228,0.00913572,0.02225181,-0
 .00297247,0.07285930,0.00028732,-0.00050624,0.00114105,0.00173059,-0.0
 0158159,-0.00219732,-0.00017805,0.00038926,-0.00160477,0.00014578,-0.0
 0104956,0.00012206,0.00217048,0.00401302,-0.00030042,0.00003410,-0.000
 19602,0.00046136,-0.00010495,0.00009373,0.00001145,-0.00000723,-0.0000
 2488,-0.00003962,-0.00002317,-0.00000936,0.00000175,0.00002817,-0.0000
 2861,0.00001192,-0.00000717,-0.00000504,-0.00001007,-0.01737587,-0.004
 63632,-0.00909582,0.01393888,-0.06689532,-0.26123445,0.00004015,-0.000
 33394,0.00010136,0.00006055,0.00013000,0.00033377,-0.00062002,-0.00163
 767,0.00068258,0.00002465,0.00000375,0.00001013,-0.00002322,-0.0000122
 4,-0.00001165,-0.00001969,-0.00000474,-0.00000495,-0.00002264,0.000014
 60,-0.00001108,0.00009903,-0.00011921,-0.00002798,0.00202672,-0.006499
 66,-0.01688954,-0.00220439,0.07889606,0.28855023\\0.00004191,-0.000000
 04,0.00000480,0.00003077,0.00000006,-0.00001785,-0.00011389,-0.0000239
 3,-0.00000182,0.00004613,0.00001236,0.00001839,0.00004532,0.00000015,0
 .00001427,-0.00003114,-0.00000072,-0.00001437,0.00000662,-0.00000174,-
 0.00001007,0.00000479,-0.00001462,0.00000340,-0.00000206,0.00000052,0.
 00000040,0.00000451,0.00001409,0.00000319,0.00000670,0.00000219,-0.000
 00994,0.00004585,-0.00001218,0.00001818,-0.00011385,0.00002347,-0.0000
 0171,0.00000099,0.00000186,-0.00000277,0.00000968,0.00000622,-0.000004
 12,-0.00000838,-0.00000007,-0.00000661,0.00000410,0.00001203,0.0000012
 0,-0.00000012,0.00001048,0.00000296,0.00000729,-0.00000001,0.00000521,
 -0.00000017,-0.00001050,0.00000298,0.00000412,-0.00001190,0.00000118,0
 .00000115,-0.00000161,-0.00000296,0.00000969,-0.00000612,-0.00000393\\
 \@


 When I told the people of Northern Ireland that I was
 an atheist, a woman in the audience stood up and said,
 "Yes, but is it the God of the Catholics or the God
 of the Protestants in whom you don't believe?"
                               -- Quentin Crisp
 Job cpu time:       0 days  0 hours  1 minutes 51.5 seconds.
 Elapsed time:       0 days  0 hours  1 minutes 59.8 seconds.
 File lengths (MBytes):  RWF=    135 Int=      0 D2E=      0 Chk=     11 Scr=      1
 Normal termination of Gaussian 16 at Sat Feb 24 03:52:07 2024.
