 Entering Gaussian System, Link 0=g16
 Input=/Volumes/SSD-PMU3/b3lyp_6-31gd_freq/AFDCQVDEHZTFHC-BVVZNTARSA-N_calculating/gaussianinput0.gjf
 Output=/Volumes/SSD-PMU3/b3lyp_6-31gd_freq/AFDCQVDEHZTFHC-BVVZNTARSA-N_calculating/gaussianinput0.log
 Initial command:
 /Applications/g16/l1.exe "/Users/macmini_m1_2022/PycharmProjects/sphere_model/sphere_model_lib/Gau-90091.inp" -scrdir="/Users/macmini_m1_2022/PycharmProjects/sphere_model/sphere_model_lib/"
 Entering Link 1 = /Applications/g16/l1.exe PID=     90092.
  
 Copyright (c) 1988,1990,1992,1993,1995,1998,2003,2009,2016,
            Gaussian, Inc.  All Rights Reserved.
  
 This is part of the Gaussian(R) 16 program.  It is based on
 the Gaussian(R) 09 system (copyright 2009, Gaussian, Inc.),
 the Gaussian(R) 03 system (copyright 2003, Gaussian, Inc.),
 the Gaussian(R) 98 system (copyright 1998, Gaussian, Inc.),
 the Gaussian(R) 94 system (copyright 1995, Gaussian, Inc.),
 the Gaussian 92(TM) system (copyright 1992, Gaussian, Inc.),
 the Gaussian 90(TM) system (copyright 1990, Gaussian, Inc.),
 the Gaussian 88(TM) system (copyright 1988, Gaussian, Inc.),
 the Gaussian 86(TM) system (copyright 1986, Carnegie Mellon
 University), and the Gaussian 82(TM) system (copyright 1983,
 Carnegie Mellon University). Gaussian is a federally registered
 trademark of Gaussian, Inc.
  
 This software contains proprietary and confidential information,
 including trade secrets, belonging to Gaussian, Inc.
  
 This software is provided under written license and may be
 used, copied, transmitted, or stored only in accord with that
 written license.
  
 The following legend is applicable only to US Government
 contracts under FAR:
  
                    RESTRICTED RIGHTS LEGEND
  
 Use, reproduction and disclosure by the US Government is
 subject to restrictions as set forth in subparagraphs (a)
 and (c) of the Commercial Computer Software - Restricted
 Rights clause in FAR 52.227-19.
  
 Gaussian, Inc.
 340 Quinnipiac St., Bldg. 40, Wallingford CT 06492
  
  
 ---------------------------------------------------------------
 Warning -- This program may not be used in any manner that
 competes with the business of Gaussian, Inc. or will provide
 assistance to any competitor of Gaussian, Inc.  The licensee
 of this program is prohibited from giving any competitor of
 Gaussian, Inc. access to this program.  By using this program,
 the user acknowledges that Gaussian, Inc. is engaged in the
 business of creating and licensing software in the field of
 computational chemistry and represents and warrants to the
 licensee that it is not a competitor of Gaussian, Inc. and that
 it will not use this program in any manner prohibited above.
 ---------------------------------------------------------------
  

 Cite this work as:
 Gaussian 16, Revision A.03,
 M. J. Frisch, G. W. Trucks, H. B. Schlegel, G. E. Scuseria, 
 M. A. Robb, J. R. Cheeseman, G. Scalmani, V. Barone, 
 G. A. Petersson, H. Nakatsuji, X. Li, M. Caricato, A. V. Marenich, 
 J. Bloino, B. G. Janesko, R. Gomperts, B. Mennucci, H. P. Hratchian, 
 J. V. Ortiz, A. F. Izmaylov, J. L. Sonnenberg, D. Williams-Young, 
 F. Ding, F. Lipparini, F. Egidi, J. Goings, B. Peng, A. Petrone, 
 T. Henderson, D. Ranasinghe, V. G. Zakrzewski, J. Gao, N. Rega, 
 G. Zheng, W. Liang, M. Hada, M. Ehara, K. Toyota, R. Fukuda, 
 J. Hasegawa, M. Ishida, T. Nakajima, Y. Honda, O. Kitao, H. Nakai, 
 T. Vreven, K. Throssell, J. A. Montgomery, Jr., J. E. Peralta, 
 F. Ogliaro, M. J. Bearpark, J. J. Heyd, E. N. Brothers, K. N. Kudin, 
 V. N. Staroverov, T. A. Keith, R. Kobayashi, J. Normand, 
 K. Raghavachari, A. P. Rendell, J. C. Burant, S. S. Iyengar, 
 J. Tomasi, M. Cossi, J. M. Millam, M. Klene, C. Adamo, R. Cammi, 
 J. W. Ochterski, R. L. Martin, K. Morokuma, O. Farkas, 
 J. B. Foresman, and D. J. Fox, Gaussian, Inc., Wallingford CT, 2016.
 
 ******************************************
 Gaussian 16:  EM64M-G16RevA.03 25-Dec-2016
                24-Feb-2024 
 ******************************************
 %nprocshared=10
 Will use up to   10 processors via shared memory.
 %mem=12GB
 %chk= 0.chk
 ---------------------
 # freq b3lyp/6-31g(d)
 ---------------------
 1/10=4,30=1,38=1/1,3;
 2/12=2,17=6,18=5,40=1/2;
 3/5=1,6=6,7=1,11=2,25=1,30=1,71=2,74=-5,140=1/1,2,3;
 4//1;
 5/5=2,38=5,98=1/2;
 8/6=4,10=90,11=11/1;
 11/6=1,8=1,9=11,15=111,16=1/1,2,10;
 10/6=1/2;
 6/7=2,8=2,9=2,10=2,28=1/1;
 7/8=1,10=1,25=1/1,2,3,16;
 1/10=4,30=1/3;
 99//99;
 ---------
 good luck
 ---------
 Symbolic Z-matrix:
 Charge =  0 Multiplicity = 1
 O                     1.21348   0.        0. 
 C                     0.        0.        0. 
 C                    -0.80755  -1.29327   0.06032 
 O                    -2.13512  -1.16196  -0.43081 
 C                    -2.78436   0.        0.05299 
 C                    -4.20555   0.       -0.44442 
 C                    -5.2723    0.00001   0.45595 
 C                    -6.58853   0.00001  -0.01094 
 C                    -6.83975   0.       -1.38288 
 C                    -5.77327  -0.00001  -2.28695 
 C                    -4.4605   -0.00001  -1.8209 
 O                    -2.13512   1.16196  -0.43081 
 C                    -0.80755   1.29327   0.06032 
 H                    -0.8128   -1.62559   1.11494 
 H                    -0.30686  -2.06461  -0.52999 
 H                    -2.7521    0.        1.15911 
 H                    -5.07601   0.00001   1.52571 
 H                    -7.41352   0.00002   0.69621 
 H                    -7.86304   0.       -1.7489 
 H                    -5.967    -0.00001  -3.35623 
 H                    -3.62674  -0.00001  -2.51558 
 H                    -0.8128    1.62559   1.11494 
 H                    -0.30686   2.06461  -0.52999 
 

 GradGradGradGradGradGradGradGradGradGradGradGradGradGradGradGradGradGrad
 Berny optimization.
 Initialization pass.
 Trust Radius=3.00D-01 FncErr=1.00D-07 GrdErr=1.00D-07 EigMax=2.50D+02 EigMin=1.00D-04
 Number of steps in this run=      2 maximum allowed number of steps=      2.
 GradGradGradGradGradGradGradGradGradGradGradGradGradGradGradGradGradGrad

                          Input orientation:                          
 ---------------------------------------------------------------------
 Center     Atomic      Atomic             Coordinates (Angstroms)
 Number     Number       Type             X           Y           Z
 ---------------------------------------------------------------------
      1          8           0        1.213476    0.000000    0.000000
      2          6           0        0.000000    0.000000    0.000000
      3          6           0       -0.807551   -1.293265    0.060321
      4          8           0       -2.135123   -1.161957   -0.430809
      5          6           0       -2.784363    0.000000    0.052991
      6          6           0       -4.205546    0.000000   -0.444417
      7          6           0       -5.272300    0.000008    0.455949
      8          6           0       -6.588531    0.000010   -0.010942
      9          6           0       -6.839746    0.000003   -1.382875
     10          6           0       -5.773266   -0.000005   -2.286945
     11          6           0       -4.460500   -0.000005   -1.820895
     12          8           0       -2.135123    1.161957   -0.430810
     13          6           0       -0.807551    1.293265    0.060321
     14          1           0       -0.812803   -1.625590    1.114935
     15          1           0       -0.306855   -2.064606   -0.529992
     16          1           0       -2.752098    0.000000    1.159105
     17          1           0       -5.076008    0.000014    1.525705
     18          1           0       -7.413521    0.000016    0.696207
     19          1           0       -7.863037    0.000004   -1.748898
     20          1           0       -5.966996   -0.000010   -3.356228
     21          1           0       -3.626743   -0.000011   -2.515576
     22          1           0       -0.812803    1.625589    1.114935
     23          1           0       -0.306855    2.064606   -0.529992
 ---------------------------------------------------------------------
                    Distance matrix (angstroms):
                    1          2          3          4          5
     1  O    0.000000
     2  C    1.213476   0.000000
     3  C    2.400151   1.525881   0.000000
     4  O    3.570554   2.468702   1.421583   0.000000
     5  C    3.998190   2.784867   2.362281   1.416234   0.000000
     6  C    5.437215   4.228962   3.670649   2.374233   1.505714
     7  C    6.501783   5.291979   4.665090   3.460980   2.520358
     8  C    7.802015   6.588540   5.924303   4.621612   3.804705
     9  C    8.171091   6.978142   6.335829   4.938629   4.302074
    10  C    7.351509   6.209728   5.642739   4.246346   3.795898
    11  C    5.958998   4.817854   4.307613   2.947855   2.514137
    12  O    3.570554   2.468702   2.834038   2.323914   1.416234
    13  C    2.400151   1.525881   2.586530   2.834038   2.362281
    14  H    2.826912   2.132199   1.105748   2.086339   2.767186
    15  H    2.618186   2.153520   1.092764   2.041366   3.277272
    16  H    4.131501   2.986230   2.580915   2.063645   1.106584
    17  H    6.471892   5.300343   4.694640   3.718458   2.724064
    18  H    8.655044   7.446140   6.761344   5.521035   4.673631
    19  H    9.243470   8.055184   7.397682   5.991370   5.388853
    20  H    7.926124   6.846116   6.321803   4.958976   4.663896
    21  H    5.454892   4.413772   4.031823   2.814481   2.703172
    22  H    2.826911   2.132198   3.103538   3.450836   2.767185
    23  H    2.618186   2.153520   3.445934   3.709867   3.277272
                    6          7          8          9         10
     6  C    0.000000
     7  C    1.395931   0.000000
     8  C    2.422090   1.396586   0.000000
     9  C    2.796375   2.416229   1.394743   0.000000
    10  C    2.419226   2.788267   2.417612   1.398114   0.000000
    11  C    1.399890   2.417238   2.793644   2.419230   1.393039
    12  O    2.374233   3.460975   4.621607   4.938628   4.246349
    13  C    3.670649   4.665085   5.924299   6.335828   5.642741
    14  H    4.072447   4.792071   6.104851   6.723515   6.230691
    15  H    4.412450   5.467207   6.632609   6.904251   6.101730
    16  H    2.164207   2.616457   4.010889   4.813578   4.582872
    17  H    2.153853   1.087616   2.156156   3.401560   3.875883
    18  H    3.404721   2.154658   1.086586   2.156803   3.404355
    19  H    3.883157   3.401951   2.155193   1.086783   2.157924
    20  H    3.403138   3.874958   3.402535   2.157734   1.086691
    21  H    2.150514   3.396736   3.878837   3.406817   2.158665
    22  H    4.072447   4.792065   6.104846   6.723513   6.230693
    23  H    4.412450   5.467201   6.632603   6.904249   6.101733
                   11         12         13         14         15
    11  C    0.000000
    12  O    2.947859   0.000000
    13  C    4.307616   1.421583   0.000000
    14  H    4.956543   3.450837   3.103539   0.000000
    15  H    4.814746   3.709867   3.445934   1.776092   0.000000
    16  H    3.434973   2.063645   2.580915   2.530881   3.618682
    17  H    3.402731   3.718450   4.694632   4.581074   5.588682
    18  H    3.880224   5.521029   6.761337   6.810830   7.501395
    19  H    3.403299   5.991368   7.397681   7.781381   7.927435
    20  H    2.150995   4.958981   6.321807   7.014237   6.654875
    21  H    1.085234   2.814489   4.031830   4.872512   4.384832
    22  H    4.956546   2.086339   1.105747   3.251179   4.071770
    23  H    4.814750   2.041366   1.092764   4.071770   4.129212
                   16         17         18         19         20
    16  H    0.000000
    17  H    2.352648   0.000000
    18  H    4.684350   2.480329   0.000000
    19  H    5.880321   4.300065   2.486082   0.000000
    20  H    5.542905   4.962573   4.302867   2.485655   0.000000
    21  H    3.777338   4.293288   4.965404   4.305111   2.486660
    22  H    2.530880   4.581064   6.810822   7.781379   7.014241
    23  H    3.618682   5.588672   7.501386   7.927433   6.654881
                   21         22         23
    21  H    0.000000
    22  H    4.872519   0.000000
    23  H    4.384842   1.776092   0.000000
 Stoichiometry    C10H10O3
 Framework group  C1[X(C10H10O3)]
 Deg. of freedom    63
 Full point group                 C1      NOp   1
 Largest Abelian subgroup         C1      NOp   1
 Largest concise Abelian subgroup C1      NOp   1
                         Standard orientation:                         
 ---------------------------------------------------------------------
 Center     Atomic      Atomic             Coordinates (Angstroms)
 Number     Number       Type             X           Y           Z
 ---------------------------------------------------------------------
      1          8           0       -4.255931    0.274115   -0.000015
      2          6           0       -3.059729    0.070093   -0.000004
      3          6           0       -2.273816   -0.125081    1.293271
      4          8           0       -0.882568    0.135847    1.161951
      5          6           0       -0.323911   -0.450279    0.000022
      6          6           0        1.160671   -0.198895    0.000011
      7          6           0        2.060861   -1.265798    0.000055
      8          6           0        3.436853   -1.026851    0.000042
      9          6           0        3.915155    0.283316   -0.000014
     10          6           0        3.015858    1.353823   -0.000058
     11          6           0        1.643423    1.115123   -0.000047
     12          8           0       -0.882567    0.135736   -1.161963
     13          6           0       -2.273814   -0.125205   -1.293259
     14          1           0       -2.445951   -1.165549    1.625646
     15          1           0       -2.668135    0.541048    2.064579
     16          1           0       -0.541688   -1.535222    0.000074
     17          1           0        1.687505   -2.287323    0.000098
     18          1           0        4.131206   -1.862639    0.000077
     19          1           0        4.985419    0.472082   -0.000023
     20          1           0        3.386609    2.375313   -0.000101
     21          1           0        0.938331    1.940095   -0.000081
     22          1           0       -2.445949   -1.165706   -1.625533
     23          1           0       -2.668133    0.540850   -2.064633
 ---------------------------------------------------------------------
 Rotational constants (GHZ):           2.5747992           0.3985248           0.3979665
 Standard basis: 6-31G(d) (6D, 7F)
 There are   215 symmetry adapted cartesian basis functions of A   symmetry.
 There are   215 symmetry adapted basis functions of A   symmetry.
   215 basis functions,   404 primitive gaussians,   215 cartesian basis functions
    47 alpha electrons       47 beta electrons
       nuclear repulsion energy       765.8979760458 Hartrees.
 NAtoms=   23 NActive=   23 NUniq=   23 SFac= 1.00D+00 NAtFMM=   60 NAOKFM=F Big=F
 Integral buffers will be    131072 words long.
 Raffenetti 2 integral format.
 Two-electron integral symmetry is turned on.
 One-electron integrals computed using PRISM.
 NBasis=   215 RedAO= T EigKep=  4.65D-04  NBF=   215
 NBsUse=   215 1.00D-06 EigRej= -1.00D+00 NBFU=   215
 ExpMin= 1.61D-01 ExpMax= 5.48D+03 ExpMxC= 8.25D+02 IAcc=3 IRadAn=         5 AccDes= 0.00D+00
 Harris functional with IExCor=  402 and IRadAn=       5 diagonalized for initial guess.
 HarFok:  IExCor=  402 AccDes= 0.00D+00 IRadAn=         5 IDoV= 1 UseB2=F ITyADJ=14
 ICtDFT=  3500011 ScaDFX=  1.000000  1.000000  1.000000  1.000000
 FoFCou: FMM=F IPFlag=           0 FMFlag=      100000 FMFlg1=           0
         NFxFlg=           0 DoJE=T BraDBF=F KetDBF=T FulRan=T
         wScrn=  0.000000 ICntrl=       500 IOpCl=  0 I1Cent=   200000004 NGrid=           0
         NMat0=    1 NMatS0=      1 NMatT0=    0 NMatD0=    1 NMtDS0=    0 NMtDT0=    0
 Petite list used in FoFCou.
 Requested convergence on RMS density matrix=1.00D-08 within 128 cycles.
 Requested convergence on MAX density matrix=1.00D-06.
 Requested convergence on             energy=1.00D-06.
 No special actions if energy rises.
 Integral accuracy reduced to 1.0D-05 until final iterations.
 Initial convergence to 1.0D-05 achieved.  Increase integral accuracy.
 SCF Done:  E(RB3LYP) =  -612.722037569     A.U. after   14 cycles
            NFock= 14  Conv=0.52D-08     -V/T= 2.0091
 DoSCS=F DFT=T ScalE2(SS,OS)=  1.000000  1.000000
 Range of M.O.s used for correlation:     1   215
 NBasis=   215 NAE=    47 NBE=    47 NFC=     0 NFV=     0
 NROrb=    215 NOA=    47 NOB=    47 NVA=   168 NVB=   168

 **** Warning!!: The largest alpha MO coefficient is  0.10274577D+02

 Symmetrizing basis deriv contribution to polar:
 IMax=3 JMax=2 DiffMx= 0.00D+00
 G2DrvN: will do    24 centers at a time, making    1 passes.
 Calling FoFCou, ICntrl=  3107 FMM=F I1Cent=   0 AccDes= 0.00D+00.
 End of G2Drv F.D. properties file   721 does not exist.
 End of G2Drv F.D. properties file   722 does not exist.
 End of G2Drv F.D. properties file   788 does not exist.
          IDoAtm=11111111111111111111111
          Differentiating once with respect to electric field.
                with respect to dipole field.
          Differentiating once with respect to nuclear coordinates.
 Keep R1 ints in memory in canonical form, NReq=280006527.
          There are    72 degrees of freedom in the 1st order CPHF.  IDoFFX=6 NUNeed=     3.
     69 vectors produced by pass  0 Test12= 1.10D-14 1.39D-09 XBig12= 1.37D+02 5.69D+00.
 AX will form    69 AO Fock derivatives at one time.
     69 vectors produced by pass  1 Test12= 1.10D-14 1.39D-09 XBig12= 2.93D+01 1.40D+00.
     69 vectors produced by pass  2 Test12= 1.10D-14 1.39D-09 XBig12= 3.39D-01 6.89D-02.
     69 vectors produced by pass  3 Test12= 1.10D-14 1.39D-09 XBig12= 1.66D-03 6.15D-03.
     69 vectors produced by pass  4 Test12= 1.10D-14 1.39D-09 XBig12= 2.44D-06 1.82D-04.
     55 vectors produced by pass  5 Test12= 1.10D-14 1.39D-09 XBig12= 2.22D-09 5.24D-06.
      6 vectors produced by pass  6 Test12= 1.10D-14 1.39D-09 XBig12= 1.73D-12 1.81D-07.
      3 vectors produced by pass  7 Test12= 1.10D-14 1.39D-09 XBig12= 1.20D-15 4.22D-09.
 InvSVY:  IOpt=1 It=  1 EMax= 4.94D-15
 Solved reduced A of dimension   409 with    72 vectors.
 Isotropic polarizability for W=    0.000000      105.98 Bohr**3.
 End of Minotr F.D. properties file   721 does not exist.
 End of Minotr F.D. properties file   722 does not exist.
 End of Minotr F.D. properties file   788 does not exist.

 **********************************************************************

            Population analysis using the SCF density.

 **********************************************************************

 Orbital symmetries:
       Occupied  (A) (A) (A) (A) (A) (A) (A) (A) (A) (A) (A) (A)
                 (A) (A) (A) (A) (A) (A) (A) (A) (A) (A) (A) (A)
                 (A) (A) (A) (A) (A) (A) (A) (A) (A) (A) (A) (A)
                 (A) (A) (A) (A) (A) (A) (A) (A) (A) (A) (A)
       Virtual   (A) (A) (A) (A) (A) (A) (A) (A) (A) (A) (A) (A)
                 (A) (A) (A) (A) (A) (A) (A) (A) (A) (A) (A) (A)
                 (A) (A) (A) (A) (A) (A) (A) (A) (A) (A) (A) (A)
                 (A) (A) (A) (A) (A) (A) (A) (A) (A) (A) (A) (A)
                 (A) (A) (A) (A) (A) (A) (A) (A) (A) (A) (A) (A)
                 (A) (A) (A) (A) (A) (A) (A) (A) (A) (A) (A) (A)
                 (A) (A) (A) (A) (A) (A) (A) (A) (A) (A) (A) (A)
                 (A) (A) (A) (A) (A) (A) (A) (A) (A) (A) (A) (A)
                 (A) (A) (A) (A) (A) (A) (A) (A) (A) (A) (A) (A)
                 (A) (A) (A) (A) (A) (A) (A) (A) (A) (A) (A) (A)
                 (A) (A) (A) (A) (A) (A) (A) (A) (A) (A) (A) (A)
                 (A) (A) (A) (A) (A) (A) (A) (A) (A) (A) (A) (A)
                 (A) (A) (A) (A) (A) (A) (A) (A) (A) (A) (A) (A)
                 (A) (A) (A) (A) (A) (A) (A) (A) (A) (A) (A) (A)
 The electronic state is 1-A.
 Alpha  occ. eigenvalues --  -19.16883 -19.16883 -19.15749 -10.29982 -10.29160
 Alpha  occ. eigenvalues --  -10.25442 -10.25441 -10.19958 -10.19645 -10.19435
 Alpha  occ. eigenvalues --  -10.19373 -10.19274 -10.19184  -1.09122  -1.05542
 Alpha  occ. eigenvalues --   -1.02123  -0.85951  -0.79529  -0.74874  -0.74262
 Alpha  occ. eigenvalues --   -0.70924  -0.66834  -0.61232  -0.59706  -0.56030
 Alpha  occ. eigenvalues --   -0.53204  -0.53125  -0.49871  -0.48361  -0.47115
 Alpha  occ. eigenvalues --   -0.46141  -0.45537  -0.43747  -0.43210  -0.42356
 Alpha  occ. eigenvalues --   -0.42175  -0.37698  -0.36961  -0.36489  -0.35121
 Alpha  occ. eigenvalues --   -0.34674  -0.33983  -0.30996  -0.28812  -0.25565
 Alpha  occ. eigenvalues --   -0.25209  -0.23978
 Alpha virt. eigenvalues --   -0.03674  -0.01076  -0.00253   0.08021   0.09217
 Alpha virt. eigenvalues --    0.11010   0.11976   0.12465   0.13489   0.15118
 Alpha virt. eigenvalues --    0.16178   0.16337   0.16926   0.17686   0.18715
 Alpha virt. eigenvalues --    0.19329   0.22417   0.23071   0.25506   0.26885
 Alpha virt. eigenvalues --    0.30307   0.30585   0.31269   0.32715   0.34442
 Alpha virt. eigenvalues --    0.36670   0.46224   0.50258   0.50626   0.52479
 Alpha virt. eigenvalues --    0.53464   0.53961   0.54623   0.55747   0.56748
 Alpha virt. eigenvalues --    0.57601   0.57787   0.59128   0.59584   0.60115
 Alpha virt. eigenvalues --    0.61137   0.61751   0.62867   0.63661   0.66218
 Alpha virt. eigenvalues --    0.67987   0.68160   0.69333   0.69882   0.70212
 Alpha virt. eigenvalues --    0.76414   0.79760   0.81369   0.81853   0.82187
 Alpha virt. eigenvalues --    0.82889   0.83652   0.83956   0.84578   0.86271
 Alpha virt. eigenvalues --    0.89648   0.90369   0.90948   0.91620   0.93163
 Alpha virt. eigenvalues --    0.95243   0.97872   0.98396   0.98991   0.99714
 Alpha virt. eigenvalues --    1.06690   1.08557   1.09182   1.09404   1.12488
 Alpha virt. eigenvalues --    1.15659   1.16155   1.18100   1.18176   1.23006
 Alpha virt. eigenvalues --    1.24020   1.26897   1.28949   1.33555   1.42236
 Alpha virt. eigenvalues --    1.43369   1.43765   1.44620   1.48097   1.48326
 Alpha virt. eigenvalues --    1.49781   1.50879   1.53679   1.58810   1.60647
 Alpha virt. eigenvalues --    1.62066   1.66898   1.68740   1.70900   1.72098
 Alpha virt. eigenvalues --    1.74624   1.79432   1.80366   1.80793   1.85183
 Alpha virt. eigenvalues --    1.86848   1.88146   1.89319   1.92875   1.93826
 Alpha virt. eigenvalues --    1.95542   1.96829   1.97358   1.99516   2.02985
 Alpha virt. eigenvalues --    2.04514   2.06852   2.08120   2.11025   2.11064
 Alpha virt. eigenvalues --    2.13081   2.14624   2.15254   2.18244   2.19136
 Alpha virt. eigenvalues --    2.24743   2.29847   2.29849   2.30637   2.31636
 Alpha virt. eigenvalues --    2.32311   2.36320   2.42520   2.45943   2.47399
 Alpha virt. eigenvalues --    2.54047   2.58768   2.59717   2.60519   2.63081
 Alpha virt. eigenvalues --    2.65388   2.70001   2.73075   2.74601   2.75722
 Alpha virt. eigenvalues --    2.77244   2.77353   2.83575   2.88520   2.90188
 Alpha virt. eigenvalues --    2.97750   3.05276   3.06426   3.09967   3.41113
 Alpha virt. eigenvalues --    3.85697   3.97834   4.03965   4.08773   4.11204
 Alpha virt. eigenvalues --    4.15279   4.17686   4.31773   4.33298   4.39574
 Alpha virt. eigenvalues --    4.48332   4.56910   4.71507
          Condensed to atoms (all electrons):
               1          2          3          4          5          6
     1  O    8.013828   0.528364  -0.062370   0.001499   0.000042  -0.000001
     2  C    0.528364   4.655373   0.303032  -0.016302  -0.019698   0.000189
     3  C   -0.062370   0.303032   5.102645   0.207260  -0.023076   0.004852
     4  O    0.001499  -0.016302   0.207260   8.303005   0.195335  -0.038357
     5  C    0.000042  -0.019698  -0.023076   0.195335   4.790048   0.363649
     6  C   -0.000001   0.000189   0.004852  -0.038357   0.363649   4.709290
     7  C    0.000000   0.000010  -0.000109   0.000626  -0.038478   0.548217
     8  C    0.000000  -0.000000   0.000003  -0.000102   0.006255  -0.017553
     9  C   -0.000000  -0.000000  -0.000000   0.000008   0.000443  -0.033744
    10  C    0.000000   0.000001   0.000002   0.000172   0.005873  -0.019108
    11  C   -0.000000  -0.000079   0.000101   0.000853  -0.042825   0.506496
    12  O    0.001499  -0.016302   0.000262  -0.061092   0.195336  -0.038358
    13  C   -0.062370   0.303032  -0.127293   0.000262  -0.023076   0.004852
    14  H    0.001299  -0.044100   0.341459  -0.038183  -0.006708  -0.000492
    15  H    0.003145  -0.025852   0.364751  -0.029735   0.004027  -0.000079
    16  H   -0.000064  -0.003394  -0.005173  -0.060278   0.348032  -0.055068
    17  H   -0.000000  -0.000002  -0.000015   0.000097  -0.010988  -0.042490
    18  H   -0.000000   0.000000  -0.000000   0.000000  -0.000170   0.003653
    19  H   -0.000000   0.000000   0.000000   0.000000   0.000006   0.000638
    20  H   -0.000000  -0.000000  -0.000000  -0.000001  -0.000187   0.003537
    21  H    0.000000  -0.000014  -0.000170   0.003831  -0.006840  -0.046114
    22  H    0.001299  -0.044100   0.002672  -0.001297  -0.006708  -0.000492
    23  H    0.003145  -0.025852   0.004673  -0.000368   0.004027  -0.000079
               7          8          9         10         11         12
     1  O    0.000000   0.000000  -0.000000   0.000000  -0.000000   0.001499
     2  C    0.000010  -0.000000  -0.000000   0.000001  -0.000079  -0.016302
     3  C   -0.000109   0.000003  -0.000000   0.000002   0.000101   0.000262
     4  O    0.000626  -0.000102   0.000008   0.000172   0.000853  -0.061092
     5  C   -0.038478   0.006255   0.000443   0.005873  -0.042825   0.195336
     6  C    0.548217  -0.017553  -0.033744  -0.019108   0.506496  -0.038358
     7  C    4.972172   0.519805  -0.036675  -0.045520  -0.053333   0.000626
     8  C    0.519805   4.865291   0.553976  -0.025888  -0.044264  -0.000102
     9  C   -0.036675   0.553976   4.847865   0.542752  -0.035029   0.000008
    10  C   -0.045520  -0.025888   0.542752   4.884762   0.515759   0.000172
    11  C   -0.053333  -0.044264  -0.035029   0.515759   4.954600   0.000853
    12  O    0.000626  -0.000102   0.000008   0.000172   0.000853   8.303005
    13  C   -0.000109   0.000003  -0.000000   0.000002   0.000101   0.207260
    14  H   -0.000015   0.000000  -0.000000   0.000000   0.000067  -0.001297
    15  H    0.000003  -0.000000   0.000000  -0.000000  -0.000029  -0.000368
    16  H   -0.008934   0.000116  -0.000011  -0.000109   0.009631  -0.060278
    17  H    0.351583  -0.044776   0.004693   0.000333   0.006169   0.000097
    18  H   -0.039578   0.357771  -0.042514   0.004473   0.000852   0.000000
    19  H    0.004827  -0.042936   0.359498  -0.042931   0.004553   0.000000
    20  H    0.000915   0.004489  -0.043017   0.357897  -0.039029  -0.000001
    21  H    0.005664   0.000371   0.004595  -0.044008   0.359173   0.003831
    22  H   -0.000015   0.000000  -0.000000   0.000000   0.000067  -0.038182
    23  H    0.000003  -0.000000   0.000000  -0.000000  -0.000029  -0.029735
              13         14         15         16         17         18
     1  O   -0.062370   0.001299   0.003145  -0.000064  -0.000000  -0.000000
     2  C    0.303032  -0.044100  -0.025852  -0.003394  -0.000002   0.000000
     3  C   -0.127293   0.341459   0.364751  -0.005173  -0.000015  -0.000000
     4  O    0.000262  -0.038183  -0.029735  -0.060278   0.000097   0.000000
     5  C   -0.023076  -0.006708   0.004027   0.348032  -0.010988  -0.000170
     6  C    0.004852  -0.000492  -0.000079  -0.055068  -0.042490   0.003653
     7  C   -0.000109  -0.000015   0.000003  -0.008934   0.351583  -0.039578
     8  C    0.000003   0.000000  -0.000000   0.000116  -0.044776   0.357771
     9  C   -0.000000  -0.000000   0.000000  -0.000011   0.004693  -0.042514
    10  C    0.000002   0.000000  -0.000000  -0.000109   0.000333   0.004473
    11  C    0.000101   0.000067  -0.000029   0.009631   0.006169   0.000852
    12  O    0.207260  -0.001297  -0.000368  -0.060278   0.000097   0.000000
    13  C    5.102645   0.002672   0.004673  -0.005173  -0.000015  -0.000000
    14  H    0.002672   0.600527  -0.029371   0.011489  -0.000000   0.000000
    15  H    0.004673  -0.029371   0.518360  -0.000285   0.000000   0.000000
    16  H   -0.005173   0.011489  -0.000285   0.703578   0.007859  -0.000003
    17  H   -0.000015  -0.000000   0.000000   0.007859   0.604521  -0.005392
    18  H   -0.000000   0.000000   0.000000  -0.000003  -0.005392   0.594211
    19  H    0.000000   0.000000  -0.000000  -0.000000  -0.000178  -0.005559
    20  H   -0.000000  -0.000000   0.000000   0.000002   0.000017  -0.000183
    21  H   -0.000170   0.000013   0.000003   0.000430  -0.000167   0.000017
    22  H    0.341459   0.000196  -0.000107   0.011489  -0.000000   0.000000
    23  H    0.364751  -0.000107  -0.000178  -0.000285   0.000000   0.000000
              19         20         21         22         23
     1  O   -0.000000  -0.000000   0.000000   0.001299   0.003145
     2  C    0.000000  -0.000000  -0.000014  -0.044100  -0.025852
     3  C    0.000000  -0.000000  -0.000170   0.002672   0.004673
     4  O    0.000000  -0.000001   0.003831  -0.001297  -0.000368
     5  C    0.000006  -0.000187  -0.006840  -0.006708   0.004027
     6  C    0.000638   0.003537  -0.046114  -0.000492  -0.000079
     7  C    0.004827   0.000915   0.005664  -0.000015   0.000003
     8  C   -0.042936   0.004489   0.000371   0.000000  -0.000000
     9  C    0.359498  -0.043017   0.004595  -0.000000   0.000000
    10  C   -0.042931   0.357897  -0.044008   0.000000  -0.000000
    11  C    0.004553  -0.039029   0.359173   0.000067  -0.000029
    12  O    0.000000  -0.000001   0.003831  -0.038182  -0.029735
    13  C    0.000000  -0.000000  -0.000170   0.341459   0.364751
    14  H    0.000000  -0.000000   0.000013   0.000196  -0.000107
    15  H   -0.000000   0.000000   0.000003  -0.000107  -0.000178
    16  H   -0.000000   0.000002   0.000430   0.011489  -0.000285
    17  H   -0.000178   0.000017  -0.000167  -0.000000   0.000000
    18  H   -0.005559  -0.000183   0.000017   0.000000   0.000000
    19  H    0.595118  -0.005468  -0.000164   0.000000  -0.000000
    20  H   -0.005468   0.592091  -0.005261  -0.000000   0.000000
    21  H   -0.000164  -0.005261   0.577317   0.000013   0.000003
    22  H    0.000000  -0.000000   0.000013   0.600527  -0.029371
    23  H   -0.000000   0.000000   0.000003  -0.029371   0.518360
 Mulliken charges:
               1
     1  O   -0.429313
     2  C    0.405691
     3  C   -0.113508
     4  O   -0.467231
     5  C    0.265681
     6  C    0.146565
     7  C   -0.181684
     8  C   -0.132459
     9  C   -0.122847
    10  C   -0.134635
    11  C   -0.144657
    12  O   -0.467231
    13  C   -0.113508
    14  H    0.162550
    15  H    0.191044
    16  H    0.106433
    17  H    0.128653
    18  H    0.132422
    19  H    0.132595
    20  H    0.134199
    21  H    0.147646
    22  H    0.162550
    23  H    0.191044
 Sum of Mulliken charges =  -0.00000
 Mulliken charges with hydrogens summed into heavy atoms:
               1
     1  O   -0.429313
     2  C    0.405691
     3  C    0.240086
     4  O   -0.467231
     5  C    0.372113
     6  C    0.146565
     7  C   -0.053031
     8  C   -0.000037
     9  C    0.009748
    10  C   -0.000436
    11  C    0.002989
    12  O   -0.467231
    13  C    0.240086
 APT charges:
               1
     1  O   -0.654357
     2  C    0.661239
     3  C    0.386742
     4  O   -0.792192
     5  C    1.084673
     6  C   -0.059439
     7  C   -0.026065
     8  C   -0.024430
     9  C   -0.007815
    10  C   -0.010452
    11  C   -0.028141
    12  O   -0.792192
    13  C    0.386741
    14  H   -0.050929
    15  H   -0.009238
    16  H   -0.110699
    17  H    0.020885
    18  H    0.012313
    19  H    0.014061
    20  H    0.012271
    21  H    0.047195
    22  H   -0.050929
    23  H   -0.009238
 Sum of APT charges =   0.00000
 APT charges with hydrogens summed into heavy atoms:
               1
     1  O   -0.654357
     2  C    0.661239
     3  C    0.326575
     4  O   -0.792192
     5  C    0.973974
     6  C   -0.059439
     7  C   -0.005180
     8  C   -0.012118
     9  C    0.006245
    10  C    0.001818
    11  C    0.019053
    12  O   -0.792192
    13  C    0.326575
 Electronic spatial extent (au):  <R**2>=           2822.9234
 Charge=             -0.0000 electrons
 Dipole moment (field-independent basis, Debye):
    X=              1.4964    Y=             -1.4813    Z=              0.0001  Tot=              2.1056
 Quadrupole moment (field-independent basis, Debye-Ang):
   XX=            -79.3487   YY=            -68.0382   ZZ=            -76.2895
   XY=              3.1693   XZ=             -0.0002   YZ=             -0.0004
 Traceless Quadrupole moment (field-independent basis, Debye-Ang):
   XX=             -4.7899   YY=              6.5206   ZZ=             -1.7307
   XY=              3.1693   XZ=             -0.0002   YZ=             -0.0004
 Octapole moment (field-independent basis, Debye-Ang**2):
  XXX=             85.4432  YYY=              2.2436  ZZZ=             -0.0001  XYY=             -2.8427
  XXY=             -7.7162  XXZ=              0.0004  XZZ=            -28.5678  YZZ=              0.7976
  YYZ=             -0.0000  XYZ=             -0.0011
 Hexadecapole moment (field-independent basis, Debye-Ang**3):
 XXXX=          -3264.2973 YYYY=           -334.8559 ZZZZ=           -309.2885 XXXY=             37.3464
 XXXZ=             -0.0022 YYYX=             -1.4590 YYYZ=             -0.0009 ZZZX=              0.0007
 ZZZY=              0.0009 XXYY=           -518.0355 XXZZ=           -550.6096 YYZZ=           -114.7675
 XXYZ=             -0.0014 YYXZ=             -0.0004 ZZXY=             -4.6884
 N-N= 7.658979760458D+02 E-N=-2.959976058375D+03  KE= 6.071665677411D+02
  Exact polarizability: 150.736  -0.790 101.773  -0.000  -0.001  65.431
 Approx polarizability: 207.327  -2.806 173.585   0.000  -0.003  94.389
 Calling FoFJK, ICntrl=    100127 FMM=F ISym2X=0 I1Cent= 0 IOpClX= 0 NMat=1 NMatS=1 NMatT=0.
 Full mass-weighted force constant matrix:
 Low frequencies ---   -4.1930   -2.3481    0.0002    0.0008    0.0011    5.7464
 Low frequencies ---   22.7108   48.5627   90.9985
 Diagonal vibrational polarizability:
       15.6786075      39.7463551      43.0345717
 Harmonic frequencies (cm**-1), IR intensities (KM/Mole), Raman scattering
 activities (A**4/AMU), depolarization ratios for plane and unpolarized
 incident light, reduced masses (AMU), force constants (mDyne/A),
 and normal coordinates:
                      1                      2                      3
                      A                      A                      A
 Frequencies --     22.6508                48.5626                90.9981
 Red. masses --      3.8095                 7.4744                 5.4489
 Frc consts  --      0.0012                 0.0104                 0.0266
 IR Inten    --      0.5184                 2.5663                 0.4714
  Atom  AN      X      Y      Z        X      Y      Z        X      Y      Z
     1   8    -0.00   0.00   0.07     0.09   0.49  -0.00    -0.00   0.00   0.18
     2   6    -0.00   0.00   0.03     0.02   0.11  -0.00    -0.00   0.00   0.08
     3   6     0.02  -0.16  -0.01    -0.01  -0.14  -0.02     0.12   0.08   0.01
     4   8     0.01  -0.13  -0.00     0.00  -0.19   0.01     0.10   0.07  -0.15
     5   6     0.00  -0.00  -0.07     0.02  -0.16   0.00    -0.00  -0.00  -0.17
     6   6    -0.00  -0.00  -0.06     0.00  -0.07   0.00    -0.00  -0.00  -0.20
     7   6     0.00   0.00   0.16     0.08  -0.00   0.00     0.00  -0.00  -0.13
     8   6     0.00   0.00   0.21     0.06   0.11  -0.00     0.00   0.00   0.11
     9   6     0.00   0.00   0.05    -0.04   0.15  -0.00     0.00   0.00   0.28
    10   6    -0.00  -0.00  -0.16    -0.12   0.08  -0.00    -0.00   0.00   0.17
    11   6    -0.00  -0.00  -0.21    -0.10  -0.03   0.00    -0.00  -0.00  -0.07
    12   8    -0.01   0.13  -0.00     0.00  -0.19  -0.01    -0.10  -0.07  -0.15
    13   6    -0.02   0.16  -0.01    -0.01  -0.14   0.02    -0.12  -0.08   0.01
    14   1     0.03  -0.20  -0.14    -0.06  -0.19  -0.19     0.15   0.10   0.10
    15   1     0.03  -0.26   0.08     0.03  -0.24   0.08     0.20   0.13   0.01
    16   1     0.00  -0.00  -0.19     0.06  -0.17   0.00     0.00  -0.00  -0.09
    17   1     0.00   0.00   0.28     0.16  -0.03   0.00     0.00  -0.00  -0.22
    18   1     0.00   0.00   0.38     0.13   0.17  -0.00     0.00   0.00   0.18
    19   1     0.00   0.00   0.10    -0.05   0.23  -0.00     0.00   0.00   0.50
    20   1    -0.00  -0.00  -0.29    -0.20   0.11  -0.00    -0.00   0.00   0.30
    21   1    -0.00  -0.00  -0.38    -0.17  -0.09   0.00    -0.00  -0.00  -0.11
    22   1    -0.03   0.20  -0.14    -0.06  -0.19   0.19    -0.15  -0.10   0.10
    23   1    -0.03   0.26   0.08     0.03  -0.24  -0.08    -0.20  -0.13   0.01
                      4                      5                      6
                      A                      A                      A
 Frequencies --    137.8169               175.6297               262.3059
 Red. masses --      3.1244                 2.9943                 5.9427
 Frc consts  --      0.0350                 0.0544                 0.2409
 IR Inten    --      7.0023                 1.0457                 2.2010
  Atom  AN      X      Y      Z        X      Y      Z        X      Y      Z
     1   8    -0.01  -0.09   0.00    -0.00  -0.00  -0.05     0.21   0.01  -0.00
     2   6     0.02   0.08  -0.00    -0.00  -0.00  -0.03     0.19  -0.07   0.00
     3   6     0.02   0.18   0.02    -0.02   0.14   0.02     0.16  -0.07   0.02
     4   8     0.06  -0.06   0.00     0.05  -0.19   0.08     0.09   0.15  -0.00
     5   6    -0.01  -0.12   0.00     0.00  -0.00  -0.04    -0.01   0.07  -0.00
     6   6    -0.00  -0.13   0.00     0.00  -0.00  -0.05    -0.08  -0.07   0.00
     7   6     0.07  -0.07   0.00    -0.00  -0.00  -0.04    -0.13  -0.08   0.00
     8   6     0.05   0.05  -0.00    -0.00  -0.00   0.01    -0.15  -0.03   0.00
     9   6    -0.05   0.08  -0.00     0.00   0.00   0.03    -0.22  -0.00   0.00
    10   6    -0.13   0.02  -0.00     0.00  -0.00  -0.01    -0.22  -0.00   0.00
    11   6    -0.10  -0.09   0.00     0.00  -0.00  -0.04    -0.19  -0.04   0.00
    12   8     0.06  -0.06  -0.00    -0.05   0.19   0.08     0.09   0.15   0.00
    13   6     0.02   0.18  -0.02     0.02  -0.14   0.02     0.16  -0.07  -0.02
    14   1    -0.16   0.27   0.21    -0.28   0.26   0.25     0.33  -0.12  -0.06
    15   1     0.12   0.38  -0.10     0.08   0.40  -0.15     0.03  -0.18   0.06
    16   1    -0.07  -0.10   0.00     0.00  -0.00  -0.24    -0.17   0.11  -0.00
    17   1     0.14  -0.10   0.00    -0.00  -0.00  -0.05    -0.14  -0.08   0.00
    18   1     0.12   0.10  -0.00    -0.00   0.00   0.03    -0.10   0.01  -0.00
    19   1    -0.06   0.16  -0.00     0.00   0.00   0.07    -0.23   0.02  -0.00
    20   1    -0.21   0.04  -0.00     0.00  -0.00  -0.00    -0.22  -0.00   0.00
    21   1    -0.17  -0.16   0.00     0.00  -0.00  -0.06    -0.26  -0.10   0.00
    22   1    -0.16   0.27  -0.21     0.28  -0.26   0.25     0.33  -0.12   0.06
    23   1     0.12   0.38   0.10    -0.08  -0.40  -0.15     0.03  -0.18  -0.06
                      7                      8                      9
                      A                      A                      A
 Frequencies --    292.0215               320.7237               415.5583
 Red. masses --      4.4432                 4.5379                 3.0451
 Frc consts  --      0.2232                 0.2750                 0.3098
 IR Inten    --      0.1331                 5.1246                 0.9954
  Atom  AN      X      Y      Z        X      Y      Z        X      Y      Z
     1   8    -0.00   0.00   0.13    -0.11   0.01  -0.00    -0.00  -0.00  -0.05
     2   6    -0.00  -0.00  -0.00    -0.10   0.01  -0.00    -0.00   0.00   0.04
     3   6     0.06   0.04  -0.05    -0.03  -0.04  -0.04    -0.01  -0.01   0.05
     4   8     0.04  -0.06  -0.14    -0.06   0.18  -0.06    -0.01  -0.01  -0.03
     5   6    -0.00  -0.00  -0.16    -0.03   0.05  -0.00     0.00  -0.00  -0.03
     6   6     0.00   0.00   0.08     0.05  -0.20   0.00     0.00  -0.00  -0.01
     7   6     0.00   0.00   0.24     0.18  -0.13   0.00     0.00   0.00   0.21
     8   6     0.00   0.00   0.07     0.18   0.03  -0.00    -0.00  -0.00  -0.20
     9   6     0.00  -0.00  -0.22     0.08   0.07  -0.00    -0.00  -0.00  -0.02
    10   6     0.00   0.00   0.05    -0.03  -0.03   0.00     0.00   0.00   0.22
    11   6     0.00   0.00   0.25     0.00  -0.19   0.00    -0.00  -0.00  -0.20
    12   8    -0.04   0.06  -0.14    -0.06   0.18   0.06     0.01   0.01  -0.03
    13   6    -0.06  -0.04  -0.05    -0.03  -0.04   0.04     0.01   0.01   0.05
    14   1    -0.00   0.08   0.04     0.16  -0.13  -0.21    -0.01   0.00   0.08
    15   1     0.14   0.12  -0.08    -0.10  -0.23   0.10     0.03   0.02   0.05
    16   1    -0.00  -0.00  -0.26    -0.21   0.09  -0.00     0.00  -0.00  -0.04
    17   1     0.00   0.00   0.34     0.32  -0.18   0.00     0.00   0.00   0.46
    18   1     0.00   0.00   0.07     0.26   0.10  -0.00    -0.00  -0.00  -0.43
    19   1    -0.00  -0.00  -0.53     0.06   0.17  -0.00    -0.00  -0.00  -0.05
    20   1    -0.00   0.00   0.02    -0.16   0.02  -0.00     0.00   0.00   0.45
    21   1     0.00   0.00   0.38    -0.07  -0.25   0.00    -0.00  -0.00  -0.44
    22   1     0.00  -0.08   0.04     0.16  -0.13   0.21     0.01  -0.00   0.08
    23   1    -0.14  -0.12  -0.08    -0.10  -0.23  -0.10    -0.03  -0.02   0.05
                     10                     11                     12
                      A                      A                      A
 Frequencies --    418.7985               432.6970               471.0943
 Red. masses --      5.3749                 2.4103                 5.1381
 Frc consts  --      0.5554                 0.2659                 0.6718
 IR Inten    --     25.7266                 4.3879                 1.3379
  Atom  AN      X      Y      Z        X      Y      Z        X      Y      Z
     1   8    -0.00   0.00   0.26    -0.09  -0.10   0.00    -0.00   0.00   0.26
     2   6     0.00  -0.00  -0.23    -0.02   0.26  -0.00    -0.00  -0.00   0.01
     3   6     0.06   0.04  -0.26     0.04   0.01  -0.08    -0.16   0.01  -0.02
     4   8     0.08   0.02   0.13     0.05  -0.03  -0.00    -0.20  -0.04  -0.12
     5   6     0.00   0.00   0.14     0.05  -0.02   0.00    -0.00  -0.00  -0.02
     6   6     0.00   0.00   0.02     0.01   0.02  -0.00     0.00   0.00   0.20
     7   6     0.00   0.00   0.06    -0.03  -0.00  -0.00     0.00  -0.00  -0.03
     8   6    -0.00  -0.00  -0.08    -0.03  -0.02   0.00     0.00  -0.00  -0.09
     9   6    -0.00   0.00   0.02    -0.04  -0.01   0.00     0.00   0.00   0.14
    10   6     0.00   0.00   0.06    -0.02   0.01  -0.00     0.00  -0.00  -0.09
    11   6    -0.00  -0.00  -0.08    -0.02   0.03  -0.00     0.00  -0.00  -0.04
    12   8    -0.08  -0.02   0.13     0.05  -0.03   0.00     0.20   0.04  -0.12
    13   6    -0.06  -0.04  -0.26     0.04   0.01   0.08     0.16  -0.01  -0.02
    14   1     0.02   0.01  -0.38     0.02  -0.13  -0.51    -0.27   0.09   0.18
    15   1    -0.16  -0.04  -0.30     0.09  -0.31   0.23    -0.12   0.20  -0.16
    16   1    -0.00   0.00   0.18     0.06  -0.02   0.00    -0.00  -0.00  -0.12
    17   1     0.00   0.00   0.15    -0.06   0.01  -0.00     0.00  -0.00  -0.20
    18   1    -0.00  -0.00  -0.16    -0.03  -0.01   0.00    -0.00  -0.00  -0.26
    19   1     0.00   0.00   0.04    -0.04  -0.02   0.00     0.00   0.00   0.24
    20   1    -0.00   0.00   0.14     0.01  -0.00  -0.00    -0.00  -0.00  -0.26
    21   1    -0.00  -0.00  -0.15    -0.03   0.02  -0.00    -0.00  -0.00  -0.23
    22   1    -0.02  -0.01  -0.38     0.02  -0.13   0.51     0.27  -0.09   0.18
    23   1     0.16   0.04  -0.30     0.09  -0.31  -0.23     0.12  -0.20  -0.16
                     13                     14                     15
                      A                      A                      A
 Frequencies --    558.2118               561.8270               633.4255
 Red. masses --      3.6871                 6.1973                 6.5013
 Frc consts  --      0.6769                 1.1525                 1.5369
 IR Inten    --      0.7070                 3.3334                 0.0514
  Atom  AN      X      Y      Z        X      Y      Z        X      Y      Z
     1   8    -0.00  -0.00  -0.10     0.21  -0.11   0.00    -0.05   0.02  -0.00
     2   6    -0.00  -0.00   0.01     0.23   0.18  -0.00    -0.05  -0.02   0.00
     3   6     0.12   0.01  -0.00    -0.07   0.01   0.09     0.00  -0.01   0.01
     4   8     0.11  -0.02  -0.03    -0.09  -0.03   0.21     0.04  -0.02   0.04
     5   6     0.00  -0.00  -0.03    -0.21   0.09  -0.00     0.03   0.04  -0.00
     6   6     0.00   0.00   0.29    -0.13  -0.05   0.00     0.06  -0.14   0.00
     7   6    -0.00   0.00   0.07     0.00   0.04  -0.00    -0.18  -0.28   0.00
     8   6    -0.00  -0.00  -0.14     0.03   0.10  -0.00    -0.28   0.17  -0.00
     9   6    -0.00   0.00   0.19     0.16   0.05   0.00    -0.06   0.14  -0.00
    10   6    -0.00  -0.00  -0.13     0.06  -0.06   0.00     0.19   0.30  -0.00
    11   6    -0.00   0.00   0.06     0.04  -0.12   0.00     0.26  -0.15   0.00
    12   8    -0.11   0.02  -0.03    -0.09  -0.03  -0.21     0.04  -0.02  -0.04
    13   6    -0.12  -0.01  -0.00    -0.07   0.01  -0.09     0.00  -0.01  -0.01
    14   1     0.17  -0.02  -0.07    -0.17  -0.08  -0.22     0.01   0.00   0.04
    15   1     0.16  -0.06   0.07    -0.22  -0.17   0.17     0.02   0.01   0.00
    16   1     0.00  -0.00  -0.08    -0.33   0.12  -0.00     0.00   0.05  -0.00
    17   1    -0.00  -0.00  -0.19     0.15  -0.01  -0.00    -0.06  -0.32   0.00
    18   1    -0.00  -0.00  -0.49    -0.04   0.05  -0.00    -0.12   0.30  -0.00
    19   1    -0.00   0.00   0.23     0.16   0.04   0.00     0.01  -0.27   0.00
    20   1     0.00  -0.00  -0.48    -0.08  -0.00  -0.00     0.06   0.35  -0.00
    21   1    -0.00  -0.00  -0.24     0.13  -0.05  -0.00     0.12  -0.28   0.00
    22   1    -0.17   0.02  -0.07    -0.17  -0.08   0.22     0.01   0.00  -0.04
    23   1    -0.16   0.06   0.07    -0.22  -0.17  -0.17     0.02   0.01  -0.00
                     16                     17                     18
                      A                      A                      A
 Frequencies --    650.8158               693.8588               710.8918
 Red. masses --      8.5860                 6.0070                 1.8347
 Frc consts  --      2.1427                 1.7039                 0.5463
 IR Inten    --      0.2741                14.6182                24.7750
  Atom  AN      X      Y      Z        X      Y      Z        X      Y      Z
     1   8    -0.14   0.04  -0.00     0.22  -0.06   0.00    -0.00   0.00   0.00
     2   6    -0.13  -0.04   0.00     0.20   0.05  -0.00    -0.00  -0.00  -0.00
     3   6    -0.06  -0.03   0.13    -0.12   0.02  -0.12    -0.01  -0.00   0.00
     4   8     0.09  -0.02   0.33    -0.17  -0.00  -0.08    -0.01   0.00   0.00
     5   6     0.13   0.27  -0.00     0.07   0.03  -0.00    -0.00  -0.00  -0.00
     6   6     0.20   0.03  -0.00     0.19   0.02  -0.00    -0.00  -0.00  -0.12
     7   6     0.13  -0.14   0.00     0.08  -0.18   0.00    -0.00   0.00   0.08
     8   6     0.14  -0.19   0.00     0.07  -0.15   0.00    -0.00  -0.00  -0.15
     9   6    -0.20  -0.05   0.00    -0.20  -0.02   0.00     0.00   0.00   0.08
    10   6    -0.10   0.05  -0.00     0.01   0.17  -0.00    -0.00  -0.00  -0.14
    11   6    -0.06   0.10  -0.00     0.03   0.12  -0.00     0.00   0.00   0.07
    12   8     0.09  -0.02  -0.33    -0.17  -0.00   0.08     0.01  -0.00   0.00
    13   6    -0.06  -0.03  -0.13    -0.12   0.02   0.12     0.01   0.00   0.00
    14   1    -0.06  -0.02   0.13    -0.27   0.04  -0.13    -0.01  -0.00   0.01
    15   1    -0.13  -0.02   0.09    -0.19   0.06  -0.20    -0.02   0.00  -0.01
    16   1     0.13   0.28  -0.00     0.22   0.00   0.00    -0.00   0.00   0.01
    17   1    -0.03  -0.08   0.00    -0.06  -0.13   0.00     0.00   0.00   0.52
    18   1     0.31  -0.05  -0.00     0.27   0.02  -0.00    -0.00   0.00   0.19
    19   1    -0.22   0.10  -0.00    -0.20  -0.03   0.00     0.00   0.00   0.56
    20   1     0.07  -0.01  -0.00     0.20   0.10  -0.00    -0.00   0.00   0.19
    21   1    -0.21  -0.02   0.00    -0.12  -0.01   0.00     0.00   0.00   0.52
    22   1    -0.06  -0.02  -0.13    -0.27   0.04   0.13     0.01   0.00   0.01
    23   1    -0.13  -0.02  -0.09    -0.19   0.06   0.20     0.02  -0.00  -0.01
                     19                     20                     21
                      A                      A                      A
 Frequencies --    776.6799               810.9759               821.9776
 Red. masses --      1.8831                 4.2001                 1.5520
 Frc consts  --      0.6693                 1.6275                 0.6178
 IR Inten    --     46.2138                 2.6685                 0.6360
  Atom  AN      X      Y      Z        X      Y      Z        X      Y      Z
     1   8     0.00  -0.00  -0.01    -0.02  -0.02   0.00     0.00  -0.00  -0.01
     2   6     0.00   0.00   0.01    -0.00   0.13  -0.00     0.00  -0.00  -0.07
     3   6     0.03   0.01  -0.01     0.04  -0.03   0.29     0.03  -0.14   0.00
     4   8     0.01  -0.02  -0.03    -0.05   0.02  -0.08     0.03   0.02  -0.00
     5   6     0.00   0.00   0.03    -0.10  -0.15   0.00     0.00   0.00   0.05
     6   6     0.00   0.00   0.20     0.02   0.00  -0.00    -0.00   0.00   0.01
     7   6    -0.00  -0.00  -0.09     0.04  -0.04   0.00    -0.00   0.00  -0.00
     8   6     0.00  -0.00  -0.00     0.05  -0.08   0.00    -0.00   0.00   0.00
     9   6    -0.00  -0.00  -0.12    -0.07  -0.02   0.00     0.00  -0.00  -0.00
    10   6     0.00   0.00   0.01     0.05   0.11  -0.00    -0.00  -0.00   0.00
    11   6     0.00  -0.00  -0.09     0.02   0.10  -0.00    -0.00  -0.00  -0.00
    12   8    -0.01   0.02  -0.03    -0.05   0.02   0.08    -0.03  -0.02  -0.00
    13   6    -0.03  -0.01  -0.01     0.04  -0.03  -0.29    -0.03   0.14   0.00
    14   1     0.04   0.00  -0.03     0.10  -0.07   0.20     0.03   0.05   0.52
    15   1     0.06  -0.01   0.03     0.21  -0.09   0.44     0.01   0.27  -0.36
    16   1    -0.00  -0.00  -0.02    -0.15  -0.14   0.00     0.00   0.00   0.06
    17   1    -0.00   0.00   0.12    -0.01  -0.03   0.00     0.00   0.00   0.01
    18   1     0.00   0.00   0.57     0.13  -0.01   0.00    -0.00   0.00   0.02
    19   1     0.00   0.00   0.51    -0.06  -0.05   0.00     0.00   0.00   0.01
    20   1     0.00   0.00   0.54     0.20   0.07  -0.00    -0.00  -0.00   0.00
    21   1     0.00   0.00   0.09    -0.00   0.09  -0.00     0.00  -0.00  -0.01
    22   1    -0.04  -0.00  -0.03     0.10  -0.07  -0.20    -0.03  -0.05   0.52
    23   1    -0.06   0.01   0.03     0.21  -0.09  -0.44    -0.01  -0.27  -0.36
                     22                     23                     24
                      A                      A                      A
 Frequencies --    858.6737               918.6930               925.5191
 Red. masses --      1.2511                 3.5002                 1.4257
 Frc consts  --      0.5435                 1.7405                 0.7195
 IR Inten    --      0.0372                 6.5742                14.4162
  Atom  AN      X      Y      Z        X      Y      Z        X      Y      Z
     1   8     0.00  -0.00  -0.00     0.01  -0.03   0.00     0.00  -0.00  -0.00
     2   6     0.00   0.00  -0.00     0.03   0.11  -0.00     0.00   0.00   0.00
     3   6     0.00  -0.00   0.00    -0.03  -0.05   0.11     0.02   0.00  -0.00
     4   8     0.00   0.00   0.00    -0.06  -0.02  -0.07    -0.01  -0.02  -0.02
     5   6     0.00  -0.00  -0.00     0.22   0.19  -0.00     0.00   0.00   0.06
     6   6     0.00   0.00   0.01     0.09   0.04  -0.00     0.00   0.00   0.05
     7   6     0.00   0.00   0.08    -0.03   0.01   0.00    -0.00  -0.00  -0.10
     8   6    -0.00   0.00   0.07    -0.08   0.09  -0.00    -0.00   0.00   0.02
     9   6     0.00   0.00  -0.00     0.04   0.03  -0.00     0.00   0.00   0.10
    10   6    -0.00  -0.00  -0.07    -0.08  -0.15   0.00    -0.00  -0.00   0.00
    11   6    -0.00  -0.00  -0.08    -0.00  -0.13   0.00    -0.00  -0.00  -0.09
    12   8    -0.00  -0.00   0.00    -0.06  -0.02   0.07     0.01   0.02  -0.02
    13   6    -0.00   0.00   0.00    -0.03  -0.05  -0.11    -0.02  -0.00  -0.00
    14   1     0.00   0.00   0.01    -0.16  -0.00   0.20     0.02   0.00  -0.01
    15   1    -0.00   0.00  -0.00     0.18   0.08   0.10     0.07   0.01   0.02
    16   1     0.00   0.00   0.00     0.62   0.11  -0.00     0.00   0.00   0.03
    17   1    -0.00  -0.00  -0.50    -0.04   0.02  -0.00     0.00   0.00   0.59
    18   1    -0.00  -0.00  -0.48    -0.13   0.05   0.00    -0.00  -0.00  -0.12
    19   1     0.00   0.00   0.01     0.02   0.09   0.00    -0.00  -0.00  -0.57
    20   1     0.00   0.00   0.48    -0.27  -0.09   0.00    -0.00  -0.00  -0.03
    21   1     0.00   0.00   0.51    -0.03  -0.17  -0.00     0.00   0.00   0.50
    22   1    -0.00  -0.00   0.01    -0.16  -0.00  -0.20    -0.02  -0.00  -0.01
    23   1     0.00  -0.00  -0.00     0.18   0.08  -0.10    -0.07  -0.01   0.02
                     25                     26                     27
                      A                      A                      A
 Frequencies --    966.7544               992.0341               995.6947
 Red. masses --      1.3562                 2.7122                 4.7769
 Frc consts  --      0.7468                 1.5726                 2.7903
 IR Inten    --      0.1933                70.0097                29.0987
  Atom  AN      X      Y      Z        X      Y      Z        X      Y      Z
     1   8     0.00   0.00   0.00     0.00  -0.00  -0.01    -0.03   0.01  -0.00
     2   6    -0.00  -0.00  -0.00     0.00   0.00   0.02    -0.03   0.01   0.00
     3   6    -0.00  -0.00   0.00     0.06   0.02  -0.02     0.16  -0.01  -0.05
     4   8     0.00   0.00   0.00    -0.04  -0.07  -0.08    -0.05  -0.13  -0.07
     5   6    -0.00  -0.00  -0.01     0.00  -0.00   0.29    -0.23   0.35   0.00
     6   6     0.00   0.00   0.01     0.00  -0.00  -0.09    -0.10   0.02  -0.00
     7   6     0.00   0.00   0.08    -0.00   0.00   0.03     0.00  -0.04   0.00
     8   6    -0.00  -0.00  -0.09    -0.00   0.00   0.05     0.11  -0.10   0.00
     9   6    -0.00   0.00   0.02     0.00  -0.00  -0.08    -0.03   0.03  -0.00
    10   6     0.00   0.00   0.09    -0.00  -0.00   0.07     0.00   0.06   0.00
    11   6    -0.00  -0.00  -0.09    -0.00   0.00   0.00     0.03  -0.04  -0.00
    12   8    -0.00  -0.00   0.00     0.04   0.07  -0.08    -0.05  -0.13   0.07
    13   6     0.00   0.00   0.00    -0.06  -0.02  -0.02     0.16  -0.01   0.05
    14   1    -0.00  -0.00   0.00     0.05   0.01  -0.03     0.09   0.04   0.07
    15   1    -0.01  -0.00  -0.00     0.31   0.03   0.09     0.42   0.11  -0.03
    16   1    -0.00  -0.00  -0.00     0.00  -0.00   0.25    -0.25   0.33   0.00
    17   1    -0.00  -0.00  -0.44     0.00  -0.00  -0.06    -0.05  -0.03   0.00
    18   1     0.00   0.00   0.54    -0.00  -0.00  -0.32     0.22  -0.02  -0.00
    19   1    -0.00  -0.00  -0.11     0.00   0.00   0.52    -0.05   0.18   0.00
    20   1    -0.00  -0.00  -0.48     0.00  -0.00  -0.43    -0.04   0.07  -0.00
    21   1     0.00   0.00   0.50    -0.00   0.00   0.08     0.09   0.02   0.00
    22   1     0.00   0.00   0.00    -0.05  -0.01  -0.03     0.09   0.04  -0.07
    23   1     0.01   0.00  -0.00    -0.31  -0.03   0.09     0.42   0.11   0.03
                     28                     29                     30
                      A                      A                      A
 Frequencies --    998.5751              1020.0833              1058.1139
 Red. masses --      1.4963                 6.2710                 2.1575
 Frc consts  --      0.8791                 3.8446                 1.4232
 IR Inten    --     19.0641                 1.1804                 5.3824
  Atom  AN      X      Y      Z        X      Y      Z        X      Y      Z
     1   8     0.00   0.00   0.01     0.00   0.00  -0.00     0.00  -0.00   0.00
     2   6     0.00  -0.00  -0.01     0.00  -0.01   0.00     0.00   0.02  -0.00
     3   6    -0.03  -0.01   0.01    -0.01   0.01   0.00    -0.02  -0.02   0.00
     4   8     0.02   0.03   0.03     0.01   0.01   0.01     0.01   0.01   0.00
     5   6     0.00  -0.00  -0.12    -0.00  -0.03   0.00     0.04  -0.01   0.00
     6   6     0.00   0.00   0.04    -0.03  -0.01  -0.00    -0.02  -0.00   0.00
     7   6     0.00  -0.00  -0.04     0.13   0.38  -0.00    -0.06   0.06  -0.00
     8   6    -0.00   0.00   0.07     0.02  -0.05   0.00     0.05  -0.17   0.00
     9   6     0.00  -0.00  -0.08    -0.38  -0.06   0.00     0.14   0.02  -0.00
    10   6    -0.00   0.00   0.08     0.02   0.06  -0.00    -0.01   0.19  -0.00
    11   6    -0.00  -0.00  -0.05     0.24  -0.31   0.00    -0.04  -0.08   0.00
    12   8    -0.02  -0.03   0.03     0.01   0.01  -0.01     0.01   0.01  -0.00
    13   6     0.03   0.01   0.01    -0.01   0.01  -0.00    -0.02  -0.02  -0.00
    14   1    -0.02  -0.01   0.01     0.01  -0.00  -0.02    -0.04  -0.00   0.03
    15   1    -0.13  -0.01  -0.03    -0.04  -0.02   0.01    -0.02   0.02  -0.02
    16   1     0.00  -0.00  -0.11     0.05  -0.04   0.00     0.08  -0.01   0.00
    17   1     0.00   0.00   0.31     0.10   0.41  -0.00    -0.37   0.17  -0.00
    18   1    -0.00  -0.00  -0.44    -0.01  -0.06   0.00    -0.25  -0.43   0.00
    19   1     0.00   0.00   0.52    -0.39  -0.08   0.00     0.16  -0.00   0.00
    20   1     0.00  -0.00  -0.50    -0.01   0.05   0.00    -0.36   0.33  -0.00
    21   1    -0.00   0.00   0.33     0.23  -0.35   0.00    -0.33  -0.31   0.00
    22   1     0.02   0.01   0.01     0.01  -0.00   0.02    -0.04  -0.00  -0.03
    23   1     0.13   0.01  -0.03    -0.04  -0.02  -0.01    -0.02   0.02   0.02
                     31                     32                     33
                      A                      A                      A
 Frequencies --   1078.2354              1085.7130              1116.5878
 Red. masses --     10.5084                 2.3088                 1.6180
 Frc consts  --      7.1980                 1.6035                 1.1885
 IR Inten    --     58.7515                12.0354                 5.8051
  Atom  AN      X      Y      Z        X      Y      Z        X      Y      Z
     1   8    -0.00   0.00   0.05    -0.04  -0.03   0.00     0.00  -0.00   0.00
     2   6    -0.00  -0.00  -0.13     0.02   0.19  -0.00     0.01   0.02  -0.00
     3   6    -0.42  -0.03   0.09     0.00  -0.17  -0.05    -0.03  -0.02   0.00
     4   8     0.35  -0.00  -0.16     0.04   0.05   0.02     0.03   0.02  -0.00
     5   6     0.00   0.00   0.26    -0.02  -0.02   0.00     0.00  -0.05   0.00
     6   6     0.00   0.00   0.02    -0.04  -0.03   0.00    -0.03   0.04  -0.00
     7   6    -0.00   0.00   0.00     0.02   0.01  -0.00    -0.10  -0.06   0.00
     8   6    -0.00  -0.00  -0.00    -0.00   0.01  -0.00     0.08  -0.05   0.00
     9   6     0.00   0.00   0.00    -0.02  -0.02   0.00    -0.02   0.08  -0.00
    10   6    -0.00   0.00   0.00     0.02   0.02  -0.00    -0.04  -0.05   0.00
    11   6     0.00  -0.00  -0.00    -0.02   0.03  -0.00     0.11  -0.01   0.00
    12   8    -0.35   0.00  -0.16     0.04   0.05  -0.02     0.03   0.02   0.00
    13   6     0.42   0.03   0.09     0.00  -0.17   0.05    -0.03  -0.02  -0.00
    14   1    -0.05  -0.10  -0.10    -0.23   0.02   0.36    -0.03  -0.01   0.02
    15   1    -0.11  -0.09   0.27     0.07   0.26  -0.38    -0.06   0.01  -0.04
    16   1     0.00  -0.00  -0.08    -0.20   0.02  -0.00     0.02  -0.05   0.00
    17   1    -0.00   0.00  -0.02     0.13  -0.03   0.00    -0.46   0.07  -0.00
    18   1    -0.00  -0.00   0.02     0.00   0.02  -0.00     0.28   0.11  -0.00
    19   1     0.00   0.00  -0.02    -0.00  -0.10   0.00    -0.09   0.53  -0.00
    20   1    -0.00   0.00   0.03     0.13  -0.02   0.00    -0.26   0.02  -0.00
    21   1    -0.00  -0.00  -0.01     0.00   0.05  -0.00     0.44   0.26  -0.00
    22   1     0.05   0.10  -0.10    -0.23   0.02  -0.36    -0.03  -0.01  -0.02
    23   1     0.11   0.09   0.27     0.07   0.26   0.38    -0.06   0.01   0.04
                     34                     35                     36
                      A                      A                      A
 Frequencies --   1163.4159              1194.1016              1211.8375
 Red. masses --      7.5378                 1.1037                 1.1321
 Frc consts  --      6.0112                 0.9272                 0.9795
 IR Inten    --    301.8182                 0.1375                 0.4912
  Atom  AN      X      Y      Z        X      Y      Z        X      Y      Z
     1   8     0.07  -0.01   0.00    -0.00  -0.00   0.00     0.00   0.00  -0.00
     2   6     0.02  -0.03  -0.00     0.00   0.00  -0.00     0.00  -0.00   0.00
     3   6    -0.31  -0.01   0.07     0.00  -0.00  -0.00    -0.01   0.00   0.00
     4   8     0.28  -0.05  -0.18     0.00   0.00   0.00     0.00  -0.00  -0.00
     5   6    -0.14   0.22  -0.00    -0.00  -0.00   0.00     0.00   0.01  -0.00
     6   6    -0.06  -0.02   0.00     0.00  -0.00   0.00    -0.02  -0.00   0.00
     7   6     0.01   0.00  -0.00     0.00  -0.01   0.00     0.05  -0.02   0.00
     8   6     0.02   0.01  -0.00    -0.03  -0.03   0.00    -0.04  -0.04   0.00
     9   6    -0.01  -0.03   0.00    -0.01   0.07  -0.00    -0.01  -0.00   0.00
    10   6     0.03   0.02  -0.00     0.04  -0.02   0.00    -0.04   0.02  -0.00
    11   6    -0.04   0.01  -0.00    -0.00  -0.01   0.00     0.04   0.03  -0.00
    12   8     0.28  -0.05   0.18     0.00   0.00  -0.00     0.00  -0.00   0.00
    13   6    -0.31  -0.01  -0.07     0.00  -0.00   0.00    -0.01   0.00  -0.00
    14   1    -0.20  -0.08  -0.17     0.00  -0.00   0.00    -0.02  -0.00  -0.01
    15   1    -0.21  -0.06   0.14    -0.00   0.00  -0.00     0.00  -0.00   0.01
    16   1    -0.19   0.20  -0.00    -0.01  -0.00   0.00     0.03   0.00  -0.00
    17   1     0.16  -0.05   0.00     0.14  -0.06   0.00     0.49  -0.18   0.00
    18   1     0.07   0.05  -0.00    -0.37  -0.31   0.00    -0.37  -0.31   0.00
    19   1     0.01  -0.14   0.00    -0.12   0.67  -0.00    -0.01  -0.00   0.00
    20   1     0.23  -0.05   0.00     0.45  -0.17   0.00    -0.43   0.16  -0.00
    21   1    -0.11  -0.04   0.00    -0.13  -0.12   0.00     0.39   0.34  -0.00
    22   1    -0.20  -0.08   0.17     0.00  -0.00  -0.00    -0.02  -0.00   0.01
    23   1    -0.21  -0.06  -0.14    -0.00   0.00   0.00     0.00  -0.00  -0.01
                     37                     38                     39
                      A                      A                      A
 Frequencies --   1228.5146              1242.0687              1256.6685
 Red. masses --      2.5258                 2.1443                 1.4691
 Frc consts  --      2.2460                 1.9491                 1.3669
 IR Inten    --     22.1704                16.7879                34.0413
  Atom  AN      X      Y      Z        X      Y      Z        X      Y      Z
     1   8     0.00  -0.00  -0.04    -0.00  -0.00  -0.00     0.00  -0.00  -0.02
     2   6    -0.00   0.00   0.29     0.00   0.01   0.00    -0.00   0.00   0.17
     3   6    -0.04  -0.05  -0.13    -0.00  -0.01  -0.00    -0.02   0.03  -0.05
     4   8     0.05   0.03   0.01     0.00  -0.02  -0.01     0.01  -0.03  -0.01
     5   6     0.00  -0.00  -0.01    -0.10  -0.01   0.00     0.00   0.00   0.04
     6   6    -0.00   0.00   0.01     0.27   0.00  -0.00    -0.00  -0.00  -0.01
     7   6    -0.00  -0.00  -0.00     0.04   0.03  -0.00    -0.00   0.00   0.00
     8   6     0.00  -0.00  -0.00    -0.07   0.05  -0.00     0.00  -0.00   0.00
     9   6    -0.00  -0.00   0.00     0.01  -0.00  -0.00    -0.00  -0.00  -0.00
    10   6     0.00   0.00  -0.00    -0.07  -0.06   0.00     0.00   0.00   0.00
    11   6    -0.00  -0.00  -0.00     0.06   0.03  -0.00    -0.00  -0.00   0.00
    12   8    -0.05  -0.03   0.01     0.00  -0.02   0.01    -0.01   0.03  -0.01
    13   6     0.04   0.05  -0.13    -0.00  -0.01   0.00     0.02  -0.03  -0.05
    14   1    -0.55   0.03  -0.10     0.01  -0.00   0.01     0.44   0.02   0.09
    15   1     0.23   0.11  -0.14    -0.01   0.01  -0.03    -0.47  -0.04  -0.21
    16   1     0.00   0.00   0.26    -0.71   0.10  -0.00     0.00  -0.00  -0.13
    17   1     0.00  -0.00   0.01    -0.37   0.19  -0.00     0.00  -0.00  -0.01
    18   1     0.00   0.00   0.00    -0.30  -0.13   0.00     0.00   0.00  -0.00
    19   1     0.00  -0.00   0.00    -0.00   0.03  -0.00    -0.00  -0.00  -0.00
    20   1     0.00  -0.00   0.00    -0.29   0.02  -0.00     0.00  -0.00   0.00
    21   1     0.00   0.00   0.01    -0.07  -0.09   0.00     0.00   0.00  -0.01
    22   1     0.55  -0.03  -0.10     0.01  -0.00  -0.01    -0.44  -0.02   0.09
    23   1    -0.23  -0.11  -0.14    -0.01   0.01   0.03     0.47   0.04  -0.21
                     40                     41                     42
                      A                      A                      A
 Frequencies --   1280.2026              1349.5173              1359.1953
 Red. masses --      1.1529                 2.5427                 1.2961
 Frc consts  --      1.1133                 2.7283                 1.4108
 IR Inten    --     12.0190                13.3035                 1.6114
  Atom  AN      X      Y      Z        X      Y      Z        X      Y      Z
     1   8    -0.02  -0.01   0.00    -0.00   0.00  -0.00     0.00  -0.00  -0.00
     2   6     0.01   0.07  -0.00    -0.00  -0.02   0.00     0.00  -0.00  -0.02
     3   6     0.01   0.01   0.01     0.01  -0.01  -0.01     0.06   0.00   0.08
     4   8     0.00  -0.03  -0.02     0.02   0.02   0.01     0.02  -0.02  -0.04
     5   6    -0.03   0.01  -0.00    -0.10  -0.06   0.00    -0.00   0.00   0.00
     6   6     0.01   0.03  -0.00     0.01   0.25  -0.00     0.00  -0.00   0.00
     7   6     0.01  -0.01   0.00     0.07  -0.05   0.00    -0.00   0.00  -0.00
     8   6    -0.01  -0.01   0.00    -0.11  -0.10   0.00     0.00   0.00   0.00
     9   6     0.00   0.00  -0.00    -0.01   0.07  -0.00     0.00  -0.00   0.00
    10   6     0.00  -0.01   0.00     0.12  -0.08   0.00    -0.00   0.00  -0.00
    11   6     0.00  -0.01   0.00    -0.03  -0.05   0.00     0.00   0.00   0.00
    12   8     0.00  -0.03   0.02     0.02   0.02  -0.01    -0.02   0.02  -0.04
    13   6     0.01   0.01  -0.01     0.01  -0.01   0.01    -0.06  -0.00   0.08
    14   1     0.46  -0.01   0.14    -0.17  -0.00  -0.06    -0.31  -0.04  -0.21
    15   1    -0.45  -0.01  -0.19     0.09   0.02   0.00    -0.43   0.02  -0.19
    16   1     0.17  -0.04   0.00     0.08  -0.09   0.00     0.00   0.00   0.51
    17   1     0.06  -0.03   0.00     0.33  -0.15   0.00     0.00  -0.00   0.00
    18   1     0.01   0.01  -0.00     0.29   0.23  -0.00    -0.00  -0.00  -0.00
    19   1     0.00  -0.01   0.00    -0.01   0.08  -0.00    -0.00   0.00  -0.00
    20   1    -0.06   0.01  -0.00    -0.48   0.13  -0.00    -0.00  -0.00  -0.00
    21   1    -0.05  -0.05   0.00    -0.36  -0.34   0.00    -0.00  -0.00  -0.00
    22   1     0.46  -0.01  -0.14    -0.17  -0.00   0.06     0.31   0.04  -0.21
    23   1    -0.45  -0.01   0.19     0.09   0.02  -0.00     0.43  -0.02  -0.19
                     43                     44                     45
                      A                      A                      A
 Frequencies --   1367.3371              1387.2821              1400.8435
 Red. masses --      2.0848                 1.3644                 1.1879
 Frc consts  --      2.2965                 1.5472                 1.3734
 IR Inten    --      2.4672                47.8837                11.5903
  Atom  AN      X      Y      Z        X      Y      Z        X      Y      Z
     1   8    -0.00  -0.00  -0.00     0.04  -0.01   0.00     0.00   0.00   0.01
     2   6     0.00   0.00  -0.00     0.00   0.03  -0.00    -0.00  -0.00  -0.01
     3   6    -0.00   0.00   0.00    -0.09  -0.00  -0.07    -0.04   0.01  -0.03
     4   8    -0.00  -0.00  -0.00    -0.00   0.00   0.03     0.00  -0.03   0.01
     5   6     0.01   0.01  -0.00     0.00  -0.02   0.00    -0.00  -0.00  -0.09
     6   6    -0.01   0.02  -0.00    -0.00   0.01  -0.00     0.00   0.00   0.01
     7   6     0.16  -0.04   0.00     0.01  -0.00   0.00     0.00  -0.00  -0.00
     8   6    -0.07  -0.05   0.00    -0.01  -0.01   0.00    -0.00   0.00  -0.00
     9   6    -0.02   0.16  -0.00    -0.00   0.00  -0.00    -0.00   0.00   0.00
    10   6     0.08  -0.01   0.00     0.01  -0.00   0.00    -0.00  -0.00  -0.00
    11   6    -0.15  -0.09   0.00    -0.00   0.00  -0.00    -0.00   0.00   0.00
    12   8    -0.00  -0.00   0.00    -0.00   0.00  -0.03    -0.00   0.03   0.01
    13   6    -0.00   0.00  -0.00    -0.09  -0.00   0.07     0.04  -0.01  -0.03
    14   1     0.01   0.00   0.00     0.44   0.03   0.27     0.22   0.03   0.18
    15   1    -0.02  -0.00  -0.00     0.41  -0.03   0.21     0.10  -0.08   0.12
    16   1    -0.02   0.01  -0.00    -0.00  -0.02  -0.00     0.00   0.00   0.87
    17   1    -0.52   0.21  -0.00     0.01  -0.00  -0.00    -0.00   0.00   0.01
    18   1    -0.15  -0.12   0.00     0.02   0.02  -0.00    -0.00  -0.00   0.00
    19   1     0.07  -0.38   0.00    -0.00   0.02  -0.00     0.00  -0.00   0.00
    20   1     0.23  -0.06   0.00    -0.04   0.01  -0.00     0.00  -0.00  -0.00
    21   1     0.43   0.40  -0.00    -0.01  -0.01   0.00     0.00   0.00  -0.00
    22   1     0.01   0.00  -0.00     0.44   0.03  -0.27    -0.22  -0.03   0.18
    23   1    -0.02  -0.00   0.00     0.41  -0.03  -0.21    -0.10   0.08   0.12
                     46                     47                     48
                      A                      A                      A
 Frequencies --   1440.1580              1486.5113              1489.8202
 Red. masses --      1.6361                 1.0826                 1.1136
 Frc consts  --      1.9993                 1.4095                 1.4562
 IR Inten    --     84.6768                14.0440                 7.7607
  Atom  AN      X      Y      Z        X      Y      Z        X      Y      Z
     1   8    -0.00   0.00  -0.00     0.00  -0.00   0.00     0.00  -0.00   0.00
     2   6    -0.00  -0.01   0.00    -0.00  -0.00  -0.01    -0.00  -0.00   0.00
     3   6     0.00  -0.01  -0.01     0.03   0.01  -0.04    -0.03  -0.01   0.05
     4   8     0.02   0.03   0.02     0.01   0.00  -0.01    -0.01  -0.00   0.01
     5   6    -0.19  -0.02   0.00     0.00   0.00   0.03     0.02  -0.00  -0.00
     6   6     0.05   0.01  -0.00     0.00  -0.00  -0.00     0.00  -0.02   0.00
     7   6     0.01  -0.04   0.00     0.00   0.00   0.00     0.01   0.01  -0.00
     8   6     0.05   0.05  -0.00    -0.00  -0.00   0.00    -0.02  -0.01   0.00
     9   6    -0.01   0.01  -0.00     0.00  -0.00  -0.00     0.01  -0.02   0.00
    10   6    -0.08  -0.01   0.00     0.00   0.00   0.00     0.02   0.01  -0.00
    11   6     0.05   0.01  -0.00    -0.00   0.00  -0.00    -0.02   0.01  -0.00
    12   8     0.02   0.03  -0.02    -0.01  -0.00  -0.01    -0.01  -0.00  -0.01
    13   6     0.00  -0.01   0.01    -0.03  -0.01  -0.04    -0.03  -0.01  -0.05
    14   1    -0.03  -0.02  -0.08    -0.26   0.18   0.37     0.23  -0.18  -0.39
    15   1     0.12   0.08  -0.03    -0.19  -0.41   0.23     0.17   0.40  -0.23
    16   1     0.80  -0.22   0.00    -0.00  -0.00  -0.10    -0.02  -0.00   0.00
    17   1    -0.18   0.03  -0.00    -0.00   0.00  -0.00    -0.01   0.02  -0.00
    18   1    -0.24  -0.19   0.00     0.00   0.00   0.00     0.05   0.06  -0.00
    19   1     0.03  -0.21   0.00    -0.00   0.00  -0.00    -0.02   0.10  -0.00
    20   1     0.12  -0.08   0.00    -0.00   0.00   0.00    -0.05   0.03  -0.00
    21   1    -0.02  -0.06   0.00     0.00   0.00  -0.00     0.02   0.04  -0.00
    22   1    -0.03  -0.02   0.08     0.26  -0.18   0.37     0.23  -0.18   0.39
    23   1     0.12   0.08   0.03     0.19   0.41   0.23     0.17   0.40   0.23
                     49                     50                     51
                      A                      A                      A
 Frequencies --   1507.8875              1550.4272              1650.5238
 Red. masses --      2.0516                 2.3430                 5.5892
 Frc consts  --      2.7484                 3.3184                 8.9711
 IR Inten    --     12.8514                 0.3670                 0.4244
  Atom  AN      X      Y      Z        X      Y      Z        X      Y      Z
     1   8    -0.00   0.00  -0.00     0.00   0.00  -0.00    -0.00   0.00  -0.00
     2   6    -0.00  -0.00   0.00    -0.00  -0.00   0.00    -0.00  -0.00   0.00
     3   6     0.01   0.00  -0.01     0.00  -0.00  -0.00     0.00   0.00  -0.00
     4   8     0.01   0.00   0.00     0.00   0.00   0.00    -0.00  -0.00   0.00
     5   6    -0.07   0.03  -0.00    -0.06  -0.01   0.00    -0.02   0.04  -0.00
     6   6     0.03  -0.15   0.00     0.15   0.03  -0.00     0.04  -0.31   0.00
     7   6     0.09   0.05  -0.00    -0.07   0.08  -0.00    -0.10   0.17  -0.00
     8   6    -0.12   0.01  -0.00    -0.10  -0.12   0.00    -0.07  -0.23   0.00
     9   6     0.02  -0.13   0.00     0.11   0.00  -0.00    -0.03   0.35  -0.00
    10   6     0.11   0.03  -0.00    -0.15   0.09  -0.00     0.06  -0.18   0.00
    11   6    -0.08   0.04  -0.00    -0.04  -0.11   0.00     0.10   0.22  -0.00
    12   8     0.01   0.00  -0.00     0.00   0.00  -0.00    -0.00  -0.00  -0.00
    13   6     0.01   0.00   0.01     0.00  -0.00   0.00     0.00   0.00   0.00
    14   1    -0.08   0.05   0.09    -0.01   0.01   0.01    -0.01   0.01   0.00
    15   1    -0.04  -0.10   0.05     0.01  -0.01   0.01    -0.01  -0.01   0.00
    16   1     0.41  -0.07   0.00     0.05  -0.03   0.00     0.23  -0.02   0.00
    17   1    -0.22   0.18  -0.00     0.40  -0.08   0.00     0.27   0.05  -0.00
    18   1     0.16   0.27  -0.00     0.39   0.28  -0.00     0.29   0.05  -0.00
    19   1    -0.10   0.56  -0.00     0.13   0.06  -0.00     0.11  -0.46   0.00
    20   1    -0.30   0.20  -0.00     0.49  -0.13   0.00    -0.17  -0.12   0.00
    21   1     0.06   0.18  -0.00     0.38   0.23  -0.00    -0.29  -0.10   0.00
    22   1    -0.08   0.05  -0.09    -0.01   0.01  -0.01    -0.01   0.01  -0.00
    23   1    -0.04  -0.10  -0.05     0.01  -0.01  -0.01    -0.01  -0.01  -0.00
                     52                     53                     54
                      A                      A                      A
 Frequencies --   1670.6758              1834.2958              2944.8025
 Red. masses --      5.5991                12.1378                 1.0829
 Frc consts  --      9.2077                24.0619                 5.5326
 IR Inten    --      0.7898               155.2767                44.3337
  Atom  AN      X      Y      Z        X      Y      Z        X      Y      Z
     1   8     0.00  -0.00   0.00    -0.52   0.09  -0.00     0.00  -0.00   0.00
     2   6    -0.00   0.00  -0.00     0.78  -0.14   0.00     0.00   0.00  -0.00
     3   6    -0.00   0.00   0.00    -0.05   0.01  -0.01     0.00   0.01  -0.00
     4   8     0.00  -0.00  -0.00    -0.01   0.00  -0.01     0.00  -0.00  -0.00
     5   6     0.05   0.00  -0.00    -0.00   0.00  -0.00    -0.02  -0.08   0.00
     6   6    -0.24   0.01  -0.00     0.00  -0.00   0.00     0.00  -0.00   0.00
     7   6     0.32  -0.07   0.00     0.00   0.00  -0.00     0.00   0.00  -0.00
     8   6    -0.24  -0.08   0.00    -0.00  -0.00   0.00    -0.00   0.00  -0.00
     9   6     0.13  -0.01   0.00     0.00   0.00  -0.00     0.00   0.00  -0.00
    10   6    -0.28   0.04  -0.00    -0.00   0.00  -0.00     0.00  -0.00   0.00
    11   6     0.27   0.12  -0.00     0.00  -0.00   0.00     0.00   0.00  -0.00
    12   8     0.00  -0.00   0.00    -0.01   0.00   0.01     0.00  -0.00   0.00
    13   6    -0.00   0.00  -0.00    -0.05   0.01   0.01     0.00   0.01   0.00
    14   1     0.00  -0.00  -0.00     0.04  -0.01   0.01    -0.01  -0.11   0.03
    15   1    -0.01   0.00  -0.00     0.16  -0.03   0.12    -0.00   0.02   0.01
    16   1    -0.08   0.03  -0.00    -0.00  -0.00   0.00     0.20   0.96  -0.00
    17   1    -0.40   0.19  -0.00    -0.00   0.00  -0.00    -0.01  -0.01   0.00
    18   1     0.14   0.24  -0.00     0.00   0.00  -0.00    -0.00   0.00  -0.00
    19   1     0.14   0.07  -0.00     0.00  -0.00   0.00    -0.00   0.00  -0.00
    20   1     0.28  -0.18   0.00     0.00  -0.00   0.00    -0.00   0.00  -0.00
    21   1    -0.24  -0.33   0.00    -0.00  -0.00   0.00     0.00   0.00  -0.00
    22   1     0.00  -0.00   0.00     0.04  -0.01  -0.01    -0.01  -0.11  -0.03
    23   1    -0.01   0.00   0.00     0.16  -0.03  -0.12    -0.00   0.02  -0.01
                     55                     56                     57
                      A                      A                      A
 Frequencies --   2966.9248              2972.6908              3133.9193
 Red. masses --      1.0707                 1.0727                 1.0901
 Frc consts  --      5.5528                 5.5850                 6.3080
 IR Inten    --     10.6511                74.9353                 5.4824
  Atom  AN      X      Y      Z        X      Y      Z        X      Y      Z
     1   8    -0.00   0.00   0.00    -0.00   0.00  -0.00    -0.00   0.00   0.00
     2   6     0.00  -0.00  -0.00     0.00  -0.00   0.00     0.00  -0.00   0.00
     3   6    -0.01  -0.05   0.02    -0.01  -0.05   0.02     0.02  -0.04  -0.04
     4   8    -0.00  -0.00   0.00    -0.00  -0.00  -0.00     0.00   0.00  -0.00
     5   6    -0.00  -0.00  -0.00    -0.00  -0.01   0.00    -0.00   0.00   0.00
     6   6     0.00   0.00   0.00     0.00   0.00  -0.00     0.00   0.00   0.00
     7   6     0.00   0.00  -0.00     0.00   0.00  -0.00    -0.00  -0.00  -0.00
     8   6    -0.00   0.00  -0.00    -0.00   0.00   0.00     0.00  -0.00   0.00
     9   6    -0.00   0.00  -0.00    -0.00  -0.00   0.00     0.00   0.00   0.00
    10   6     0.00  -0.00  -0.00    -0.00  -0.00   0.00     0.00   0.00   0.00
    11   6    -0.00   0.00   0.00    -0.00   0.00  -0.00     0.00  -0.00  -0.00
    12   8     0.00   0.00   0.00    -0.00  -0.00   0.00    -0.00  -0.00  -0.00
    13   6     0.01   0.05   0.02    -0.01  -0.05  -0.02    -0.02   0.04  -0.04
    14   1     0.09   0.66  -0.21     0.09   0.65  -0.21     0.01   0.08  -0.04
    15   1     0.04  -0.08  -0.06     0.03  -0.07  -0.06    -0.24   0.43   0.49
    16   1     0.00   0.00   0.01     0.03   0.16  -0.00    -0.00  -0.00   0.00
    17   1    -0.00  -0.00   0.00    -0.00  -0.00   0.00     0.00   0.00   0.00
    18   1     0.00  -0.00   0.00     0.00  -0.00   0.00    -0.00   0.00   0.00
    19   1     0.00   0.00   0.00     0.00   0.00  -0.00    -0.00  -0.00  -0.00
    20   1     0.00   0.00   0.00     0.00   0.00  -0.00    -0.00  -0.00  -0.00
    21   1     0.00  -0.00  -0.00     0.00  -0.00   0.00    -0.00   0.00   0.00
    22   1    -0.09  -0.66  -0.21     0.09   0.65   0.21    -0.01  -0.08  -0.04
    23   1    -0.04   0.08  -0.06     0.03  -0.07   0.06     0.24  -0.43   0.49
                     58                     59                     60
                      A                      A                      A
 Frequencies --   3134.9201              3178.4922              3186.5253
 Red. masses --      1.0914                 1.0863                 1.0877
 Frc consts  --      6.3198                 6.4659                 6.5074
 IR Inten    --     14.2814                 5.4944                 2.6400
[...]
 ,-0.00053059,-0.00006764,-0.00035480,-0.00009220,0.00016544,0.00019244
 ,0.00009462,-0.00004978,-0.00003435,-0.00018250,0.00014340,-0.00013692
 ,0.00007612,0.00023676,0.00026236,0.00368018,-0.08201768,0.01970496,0.
 06630070,0.53674471,0.00348913,-0.00058165,0.01927389,0.00323740,0.002
 78026,-0.08742557,0.00086377,0.00091852,0.02971796,-0.00070740,0.00549
 714,-0.00302756,0.01251824,-0.00558864,0.00180124,0.00016522,0.0035464
 0,-0.00047755,0.00084275,-0.00026897,0.00062653,-0.00014533,-0.0003777
 3,-0.00008160,0.00016115,0.00002089,0.00027219,0.00027860,-0.00037611,
 -0.00015319,0.00002271,-0.00001615,0.00000637,-0.06518605,0.00960645,-
 0.09016548,-0.04310080,-0.05317127,0.52740103,-0.00060664,-0.00074682,
 -0.00276076,0.00049724,-0.00319555,0.01669607,-0.04674441,-0.00540414,
 0.02153996,-0.01742236,0.01606565,-0.03905456,0.00369417,-0.00685463,-
 0.00536429,-0.00018998,-0.00007117,0.00042112,0.00003044,0.00005124,-0
 .00015854,-0.00009533,-0.00001178,-0.00000947,-0.00004721,-0.00000655,
 0.00005245,0.00006161,0.00006209,0.00007823,-0.00001606,0.00000465,-0.
 00006491,0.00091194,0.00204241,0.00060246,-0.00112333,-0.00049850,-0.0
 0161913,0.05899707,-0.00134298,-0.00053518,-0.00359494,-0.00314686,-0.
 00852590,0.03076765,-0.00435301,-0.07397084,0.07463723,0.00503874,0.00
 294474,0.00137685,-0.00082314,0.00049532,0.00307918,0.00015440,0.00000
 741,-0.00028322,-0.00000421,-0.00001570,0.00004386,0.00001852,-0.00000
 261,-0.00001274,0.00000053,-0.00000187,-0.00001755,-0.00002145,-0.0000
 0650,-0.00003613,-0.00006564,-0.00002614,0.00002883,0.00010465,0.00073
 180,-0.00006621,-0.00079043,-0.00085805,-0.00508737,0.00373021,0.07202
 962,0.00028870,0.00054798,0.00109734,0.00181527,0.00159953,-0.00220036
 ,0.01642423,0.06558919,-0.26090921,-0.01768139,0.00497468,-0.00984085,
 0.00238489,-0.00406009,-0.00025226,-0.00012390,0.00011383,0.00048901,-
 0.00006388,0.00001349,-0.00019582,-0.00003020,-0.00004137,0.00000663,-
 0.00004848,-0.00000840,-0.00001031,-0.00000640,0.00000806,0.00011783,0
 .00016843,-0.00000810,-0.00004859,0.00022358,0.00109789,0.00014626,-0.
 00017871,-0.00038447,-0.00162691,-0.00477660,-0.07759527,0.28869127,0.
 00069665,0.00101037,0.00092931,0.00970202,-0.01166679,-0.01009391,-0.0
 9618260,0.07872849,0.06317251,-0.02624535,0.02894434,0.01401095,-0.004
 36835,-0.00522721,-0.00247693,-0.00015310,0.00150422,0.00066402,-0.000
 26179,0.00003301,-0.00033850,-0.00003574,-0.00014356,0.00001396,-0.000
 06965,0.00001040,-0.00002961,-0.00003810,-0.00009799,-0.00000328,-0.00
 015112,-0.00005502,0.00012999,0.00129428,0.00180683,-0.00014235,-0.003
 14202,-0.00234750,0.00084139,0.00123546,0.00130799,0.00224350,0.117042
 96,0.00008774,0.00484667,0.00274014,0.01412621,-0.02499849,-0.01714061
 ,0.08409450,-0.18451991,-0.11177244,0.00439003,-0.00001739,0.00159841,
 -0.00118037,0.00159418,0.00078805,0.00002798,0.00003296,-0.00006615,-0
 .00001207,-0.00001548,0.00008683,0.00002179,-0.00000227,0.00001369,0.0
 0000588,0.00000055,-0.00001165,-0.00001417,0.00000260,0.00001129,0.000
 07055,-0.00002530,-0.00007222,0.00053076,0.00048505,-0.00020211,-0.004
 36205,-0.00191586,0.00248280,-0.00485391,0.00902125,0.00629444,-0.0936
 8065,0.19646677,-0.00120240,-0.00029983,-0.00025689,0.00003915,0.00566
 407,0.00273933,0.07055357,-0.11325157,-0.13549554,-0.00978190,0.012931
 42,0.00927016,-0.00242003,-0.00055489,-0.00052277,-0.00022459,0.000560
 26,0.00049895,-0.00011202,0.00000063,-0.00014680,-0.00001426,-0.000059
 46,0.00000772,-0.00002027,0.00000815,-0.00000666,-0.00001743,-0.000028
 37,0.00002010,0.00003536,-0.00006353,0.00008130,0.00037508,0.00023204,
 0.00024409,0.00000323,0.00063363,-0.00067902,0.01239463,-0.02244269,-0
 .01674653,-0.06926369,0.11587333,0.14042998,-0.00025677,0.,0.00003115,
 -0.00027862,0.,-0.00014177,0.00268480,-0.00116752,0.00344811,-0.000666
 15,0.01122816,0.01955354,-0.06223744,0.00000001,-0.01807057,-0.0014032
 2,0.,-0.02955249,0.00115670,-0.00000003,-0.00244658,-0.00013582,0.,0.0
 0015625,0.00000429,0.,0.00017402,0.00055925,-0.00000002,-0.00156959,-0
 .00585109,0.00000002,0.00005323,-0.00066613,-0.01122812,0.01955352,0.0
 0268485,0.00116752,0.00344806,0.00046146,-0.00006468,-0.00073402,0.000
 03194,0.00002252,-0.00029078,0.06412786,0.,0.00102155,0.,0.,-0.0019014
 5,0.,-0.00557646,0.00144078,-0.00282396,0.01236887,-0.01315571,-0.0362
 4195,0.00000002,-0.04599734,0.00000002,-0.00000001,0.00302381,-0.00000
 002,0.,-0.00034182,0.00000001,0.,-0.00000166,0.,0.,0.00009007,0.,0.,-0
 .00016009,0.,0.,0.00140366,0.,-0.01236884,-0.01315564,0.03624190,0.005
 57645,0.00144079,0.00282396,0.00031669,0.00003438,0.00166587,0.0001354
 9,-0.00008349,0.00046136,-0.00000002,0.06672814,0.00068119,0.,-0.00006
 113,0.00049135,0.,-0.00020915,-0.00297685,0.00084427,0.00085254,0.0056
 7901,-0.01343568,-0.01454224,-0.01639258,0.,-0.27427409,-0.00075749,-0
 .00000002,-0.01015250,0.00221425,-0.00000001,0.00003028,-0.00056049,0.
 ,0.00032392,0.00003070,0.,0.00036586,0.00056274,0.,-0.00042199,-0.0017
 1743,0.,0.00048702,0.00567900,0.01343564,-0.01454223,-0.00297685,-0.00
 084428,0.00085256,0.00180870,-0.00077009,0.00065898,0.00033239,-0.0001
 1255,0.00043835,0.00652340,0.00000005,0.30780917,0.00012427,0.,-0.0000
 1138,-0.00012472,0.,0.00004725,-0.00019153,0.00001445,-0.00000476,0.00
 021126,-0.00031857,-0.00046835,0.00100383,0.,0.00284664,0.00809661,0.0
 0000012,0.02335805,-0.06931999,-0.00000018,-0.04808450,-0.00041167,-0.
 00000018,-0.03129488,-0.00553476,0.00000004,-0.00069430,-0.00110463,0.
 ,0.00030986,-0.00376935,0.00000005,0.00258725,0.00021126,0.00031856,-0
 .00046835,-0.00019153,-0.00001445,-0.00000476,-0.00000298,0.00002848,0
 .00000726,0.00002478,-0.00000588,-0.00000614,-0.00036492,0.,-0.0006346
 6,0.06994907,0.,0.00001606,0.,0.,-0.00001701,0.,0.00001695,-0.00007061
 ,-0.00023186,0.00081075,-0.00029747,0.00000196,-0.00000003,-0.00354275
 ,0.,-0.00000005,0.00326168,-0.00000016,-0.00000020,-0.03537721,-0.0000
 0166,0.00000002,0.00228492,0.00000007,0.00000003,0.00701248,-0.0000000
 2,0.00000002,-0.00022930,0.,0.00000004,0.00616012,-0.00000005,-0.00081
 075,-0.00029748,-0.00000194,-0.00001695,-0.00007061,0.00023185,0.00001
 060,0.00000677,0.00003130,0.00006807,-0.00000074,0.00003085,0.,0.00013
 117,0.00000002,0.00000018,0.02521488,-0.00003421,0.,0.00000610,0.00004
 052,0.,-0.00000856,0.00009490,-0.00002867,-0.00003954,0.00001480,0.000
 06901,0.00065409,-0.00229094,0.00000003,-0.00090229,-0.00573997,-0.000
 00009,-0.01739123,-0.04787869,-0.00000162,-0.32630026,0.00038433,-0.00
 000005,-0.00668834,-0.00210124,-0.00000003,0.00157634,0.00043195,0.,0.
 00063180,0.00410908,-0.00000005,-0.00055106,0.00001481,-0.00006900,0.0
 0065408,0.00009490,0.00002868,-0.00003954,0.00002938,-0.00002456,0.000
 02321,0.00000575,-0.00000049,0.00000367,0.00099302,-0.00000001,0.00105
 048,0.05250873,0.00000179,0.34789374,-0.00013458,0.,0.00001027,0.00010
 878,0.,-0.00004425,0.00015331,0.00002966,0.00012690,-0.00058196,0.0001
 6826,-0.00011331,0.00025436,0.00000001,0.00136453,-0.00402800,0.,-0.00
 386908,-0.01805816,0.00000018,0.02186249,-0.22123073,0.00000125,0.1377
 4352,0.00840413,-0.00000005,-0.00547900,0.00085667,0.,-0.00163722,-0.0
 0009837,0.,-0.00098493,-0.00058196,-0.00016826,-0.00011331,0.00015331,
 -0.00002966,0.00012690,-0.00002838,-0.00000483,-0.00003464,-0.00005846
 ,0.00000966,-0.00001291,-0.00005751,0.,-0.00005868,0.00105988,-0.00000
 002,-0.00026301,0.23276297,0.,-0.00002844,0.,0.,0.00006190,0.,-0.00002
 724,0.00001990,-0.00004206,-0.00015518,0.00004654,-0.00002526,0.,0.000
 30834,0.,0.00000002,0.00706612,-0.00000001,0.00000004,0.00192774,-0.00
 000003,0.00000122,-0.03512938,-0.00000113,0.00000013,0.00238384,-0.000
 00009,0.,0.00712702,-0.00000007,-0.00000001,-0.00049578,0.,0.00015518,
 0.00004655,0.00002526,0.00002724,0.00001990,0.00004206,-0.00001007,0.0
 0000208,-0.00000051,-0.00000329,0.00000145,-0.00000301,0.,-0.00001492,
 0.,-0.00000001,-0.00378007,0.00000003,-0.00000137,0.02530496,0.0000312
 1,0.,0.00000080,-0.00001480,0.,0.00000805,-0.00005279,0.00003487,-0.00
 002705,-0.00000508,-0.00001756,-0.00001036,-0.00047145,0.,0.00045400,-
 0.00249502,-0.00000003,0.00009046,-0.00981667,0.00000008,0.01088418,0.
 13777886,-0.00000115,-0.17851790,0.02621427,-0.00000017,-0.01519289,-0
 .00299021,-0.00000006,-0.00502873,-0.00101005,0.,-0.00048611,-0.000005
 08,0.00001756,-0.00001036,-0.00005279,-0.00003487,-0.00002705,0.000001
 73,0.00000303,0.00000714,-0.00000049,0.00000148,-0.00000316,0.00000926
 ,0.,-0.00001006,0.00044348,0.00000002,0.00089878,-0.14875465,0.0000012
 8,0.18668732,-0.00009933,0.,0.00000580,0.00007672,0.,-0.00002369,0.000
 13333,-0.00003408,0.00004845,-0.00018246,0.00007915,-0.00005235,0.0001
 9342,0.,0.00001340,0.00051602,0.,0.00068754,0.00166783,0.00000001,-0.0
 0088158,-0.00147348,0.00000001,0.00032008,-0.30739026,0.00000031,-0.08
 819088,-0.01811226,0.,-0.01096390,-0.00169789,0.00000005,0.00432335,-0
 .00018246,-0.00007915,-0.00005235,0.00013333,0.00003408,0.00004846,-0.
 00002078,-0.00000491,-0.00002363,-0.00001930,0.00000301,0.00000206,-0.
 00004506,0.,-0.00002207,-0.00017411,0.,0.00008534,0.00083937,-0.000000
 02,-0.00032530,0.32585163,0.,0.00000917,0.,0.,-0.00001695,0.,-0.000000
 62,-0.00001377,-0.00008188,0.00020998,-0.00005297,0.00000586,0.,-0.001
 03766,0.,0.,-0.00052582,-0.00000002,0.,0.00744717,-0.00000007,-0.00000
 016,0.00253671,-0.00000003,0.00000032,-0.03610280,-0.00000007,0.000000
 16,0.00247569,0.00000009,0.00000005,0.00709913,-0.00000006,-0.00020998
 ,-0.00005297,-0.00000586,0.00000062,-0.00001377,0.00008188,-0.00000441
 ,0.00000204,0.00000713,0.00002351,-0.00000092,0.00000659,0.,-0.0000084
 1,0.,0.,0.00028337,0.,-0.00000001,-0.00396147,0.00000003,-0.00000035,0
 .02552258,-0.00003050,0.,0.00000371,0.00002648,0.,-0.00001190,0.000026
 83,0.00000624,0.00001702,-0.00010010,0.00004265,0.00009841,0.00008867,
 0.,-0.00007993,0.00061724,0.,-0.00114675,0.00031598,-0.00000008,-0.005
 74374,-0.03138891,0.00000005,-0.00534474,-0.08811747,-0.00000006,-0.09
 231757,0.02071815,0.,0.01145983,0.00316435,-0.00000006,-0.00252578,-0.
 00010010,-0.00004265,0.00009841,0.00002683,-0.00000624,0.00001702,0.00
 000339,-0.00000523,-0.00000027,-0.00001137,0.00000231,-0.00000199,0.00
 006070,0.,0.00008581,-0.00163915,0.,-0.00044636,0.00041624,0.00000003,
 0.00109754,0.09538183,0.00000010,0.09338160,-0.00008781,0.,0.00001733,
 0.00009254,0.,-0.00004248,0.00010408,-0.00000735,0.00004370,-0.0000897
 6,0.00006298,0.00011900,0.00062907,0.,-0.00175066,-0.00546972,0.000000
 02,-0.00082382,-0.00131766,0.,0.00036672,-0.00374269,0.00000004,0.0027
 1825,0.00897863,0.00000011,0.02536288,-0.06931533,-0.00000019,-0.04864
 518,-0.00077236,-0.00000014,-0.03127618,-0.00008976,-0.00006298,0.0001
 1900,0.00010408,0.00000735,0.00004370,-0.00000931,-0.00001089,-0.00000
 107,-0.00003478,0.00001085,-0.00000073,-0.00050235,0.,-0.00018219,0.00
 018483,0.,-0.00006486,0.00032290,0.,0.00138200,0.00097651,-0.00000001,
 -0.00051753,0.06896705,0.,-0.00001198,0.,0.,0.00002314,0.,-0.00002729,
 0.00000683,0.00000760,0.00008499,-0.00012673,-0.00002739,0.,0.00043914
 ,0.,0.00000002,0.00757074,-0.00000004,0.,-0.00026803,0.00000001,0.0000
 0006,0.00682570,-0.00000004,-0.00000004,0.00236835,-0.00000018,-0.0000
 0019,-0.03598139,-0.00000136,0.00000002,0.00244896,0.00000002,-0.00008
 499,-0.00012673,0.00002739,0.00002729,0.00000683,-0.00000760,-0.000001
 59,0.00000285,0.00000629,0.00000329,0.00000032,0.00000178,0.,-0.000117
 21,0.,0.,-0.00124753,0.,0.,0.00033932,-0.00000001,-0.00000001,-0.00375
 625,0.00000003,0.00000018,0.02562636,-0.00011615,0.,0.00001569,0.00008
 972,0.,-0.00004095,0.00012733,-0.00001964,0.00006308,-0.00025529,0.000
 12074,0.00003063,0.00076609,0.,-0.00044130,-0.00198624,-0.00000003,0.0
 0143282,0.00036351,0.,0.00070685,0.00399634,-0.00000005,-0.00043043,-0
 .00634216,-0.00000008,-0.01585414,-0.04865081,-0.00000139,-0.33037243,
 0.00017119,-0.00000004,-0.00654117,-0.00025529,-0.00012074,0.00003063,
 0.00012733,0.00001964,0.00006308,-0.00001516,-0.00000781,-0.00001604,-
 0.00003675,0.00000735,-0.00000419,-0.00019379,0.,-0.00004491,-0.000075
 36,0.,-0.00007917,-0.00036455,0.,-0.00090750,0.00024246,0.00000002,0.0
 0093229,0.05268771,0.00000154,0.35061949,0.00008823,0.,0.00000281,-0.0
 0008975,0.,-0.00002448,-0.00016104,0.00001344,-0.00003653,-0.00025474,
 -0.00019929,-0.00038966,-0.00006178,-0.00000002,-0.00025126,0.00873572
 ,-0.00000002,-0.00396065,0.00060785,0.,-0.00174361,-0.00007969,0.,-0.0
 0092513,-0.00390766,0.,-0.00356868,-0.01735451,0.00000017,0.02096983,-
 0.22693421,0.00000124,0.13993527,-0.00025472,0.00019929,-0.00038964,-0
 .00016103,-0.00001344,-0.00003653,0.00002419,-0.00000494,0.00003108,0.
 00002007,0.00000881,-0.00000344,0.00026058,0.,0.00013547,0.00030262,0.
 ,-0.00046971,0.00002928,0.,0.00013234,-0.00095069,0.,0.00106642,0.0011
 1593,-0.00000002,-0.00022822,0.23898108,0.,-0.00014445,0.,0.,0.0003172
 1,0.,0.00027504,-0.00018323,-0.00030814,0.00059025,-0.00047975,-0.0000
 7771,0.00000001,-0.00204224,0.,0.00000009,0.00312040,-0.00000006,0.000
 00002,0.00629303,-0.00000004,0.,-0.00032722,0.,0.,0.00739606,-0.000000
 04,-0.00000002,0.00279019,0.,0.00000128,-0.03624957,-0.00000118,-0.000
 59025,-0.00047975,0.00007773,-0.00027505,-0.00018323,0.00030814,-0.000
 11186,0.00001241,-0.00007145,0.00008668,-0.00000827,0.00004719,0.,-0.0
 0032751,0.,0.,0.00055329,0.,0.,-0.00124913,0.,0.,0.00016678,0.,0.,-0.0
 0402585,0.00000003,-0.00000137,0.02504670,0.00023358,0.,-0.00002033,-0
 .00014652,0.,0.00003615,-0.00066915,0.00027950,0.00007701,-0.00015621,
 -0.00002430,0.00076629,0.00263284,-0.00000001,-0.00074238,0.02564358,-
 0.00000017,-0.01601458,-0.00298224,-0.00000004,-0.00492567,-0.00086412
 ,0.,-0.00033118,-0.00256153,-0.00000003,-0.00008779,-0.01020876,0.0000
 0007,0.01139945,0.13857930,-0.00000112,-0.17727674,-0.00015620,0.00002
 432,0.00076629,-0.00066914,-0.00027950,0.00007700,0.00018552,-0.000032
 13,0.00013842,-0.00002062,-0.00001053,-0.00003075,0.00002011,0.,0.0002
 0601,0.00127695,-0.00000001,-0.00097282,0.00012623,0.,0.00008891,-0.00
 060143,0.,0.00042966,0.00044621,0.00000002,0.00085791,-0.15027331,0.00
 000126,0.18545144,-0.00060664,0.00074682,-0.00276076,0.00049723,0.0031
 9556,0.01669610,-0.00112334,0.00049851,-0.00161913,0.00091194,-0.00204
 241,0.00060246,0.00369418,0.00685463,-0.00536429,-0.00018998,0.0000711
 7,0.00042112,0.00003044,-0.00005124,-0.00015854,-0.00009533,0.00001178
 ,-0.00000947,-0.00004721,0.00000655,0.00005245,0.00006161,-0.00006209,
 0.00007823,-0.00001606,-0.00000465,-0.00006491,-0.01742228,-0.01606561
 ,-0.03905452,-0.04674438,0.00540410,0.02153998,0.00036435,0.00047173,0
 .00005921,0.00002884,0.00004083,-0.00004943,0.00046142,-0.00031670,0.0
 0180871,-0.00000298,-0.00001060,0.00002938,-0.00002838,0.00001007,0.00
 000173,-0.00002078,0.00000441,0.00000339,-0.00000931,0.00000160,-0.000
 01516,0.00002419,0.00011186,0.00018552,0.05899703,0.00134298,-0.000535
 19,0.00359494,0.00314690,-0.00852590,-0.03076769,0.00079040,-0.0008580
 6,0.00508738,-0.00010465,0.00073180,0.00006621,0.00082314,0.00049532,-
 0.00307918,-0.00015440,0.00000741,0.00028322,0.00000421,-0.00001570,-0
 .00004386,-0.00001852,-0.00000261,0.00001274,-0.00000053,-0.00000187,0
 .00001755,0.00002145,-0.00000649,0.00003613,0.00006564,-0.00002614,-0.
 00002883,-0.00503872,0.00294473,-0.00137682,0.00435298,-0.07397071,-0.
 07463727,-0.00047173,-0.00154226,-0.00012093,0.00021729,0.00019437,0.0
 0008163,0.00006468,0.00003438,0.00077010,-0.00002848,0.00000677,0.0000
 2456,0.00000483,0.00000208,-0.00000303,0.00000491,0.00000204,0.0000052
 3,0.00001089,0.00000285,0.00000781,0.00000494,0.00001241,0.00003212,-0
 .00373022,0.07202951,0.00028870,-0.00054798,0.00109734,0.00181529,-0.0
 0159955,-0.00220040,-0.00017871,0.00038446,-0.00162691,0.00022358,-0.0
 0109789,0.00014626,0.00238489,0.00406009,-0.00025225,-0.00012390,-0.00
 011383,0.00048901,-0.00006388,-0.00001349,-0.00019582,-0.00003020,0.00
 004137,0.00000663,-0.00004848,0.00000840,-0.00001031,-0.00000640,-0.00
 000805,0.00011783,0.00016843,0.00000810,-0.00004859,-0.01768134,-0.004
 97467,-0.00984084,0.01642424,-0.06558921,-0.26090988,0.00005921,0.0001
 2093,0.00036004,0.00005675,-0.00034093,0.00011100,-0.00073399,-0.00166
 586,0.00065898,0.00000726,-0.00003130,0.00002321,-0.00003464,0.0000005
 1,0.00000714,-0.00002363,-0.00000713,-0.00000027,-0.00000107,-0.000006
 29,-0.00001604,0.00003108,0.00007145,0.00013842,-0.00477669,0.07759529
 ,0.28869192,0.00069665,-0.00101037,0.00092932,0.00970202,0.01166680,-0
 .01009390,-0.00314202,0.00234750,0.00084139,0.00129429,-0.00180683,-0.
 00014235,-0.00436835,0.00522720,-0.00247694,-0.00015310,-0.00150422,0.
 00066401,-0.00026179,-0.00003301,-0.00033850,-0.00003574,0.00014356,0.
 00001396,-0.00006965,-0.00001040,-0.00002961,-0.00003810,0.00009799,-0
 .00000328,-0.00015113,0.00005503,0.00012999,-0.02624535,-0.02894433,0.
 01401094,-0.09618259,-0.07872851,0.06317253,0.00002884,-0.00021729,0.0
 0005675,0.00068337,0.00065798,0.00001695,0.00003194,-0.00013549,0.0003
 3239,0.00002478,-0.00006808,0.00000575,-0.00005846,0.00000329,-0.00000
 049,-0.00001930,-0.00002351,-0.00001137,-0.00003478,-0.00000329,-0.000
 03675,0.00002007,-0.00008668,-0.00002062,0.00123545,-0.00130799,0.0022
 4350,0.11704296,-0.00008774,0.00484667,-0.00274014,-0.01412622,-0.0249
 9849,0.01714061,0.00436205,-0.00191586,-0.00248280,-0.00053076,0.00048
 505,0.00020212,0.00118037,0.00159418,-0.00078805,-0.00002798,0.0000329
 6,0.00006614,0.00001207,-0.00001548,-0.00008683,-0.00002179,-0.0000022
 7,-0.00001369,-0.00000588,0.00000055,0.00001165,0.00001417,0.00000260,
 -0.00001129,-0.00007055,-0.00002530,0.00007222,-0.00439004,-0.00001740
 ,-0.00159840,-0.08409451,-0.18451990,0.11177241,-0.00004083,0.00019437
 ,0.00034093,-0.00065798,-0.00105803,0.00017043,-0.00002252,-0.00008349
 ,0.00011255,0.00000588,-0.00000074,0.00000049,-0.00000966,0.00000145,-
 0.00000148,-0.00000301,-0.00000092,-0.00000231,-0.00001085,0.00000032,
 -0.00000735,-0.00000881,-0.00000828,0.00001053,0.00485391,0.00902125,-
 0.00629443,0.09368067,0.19646677,-0.00120240,0.00029984,-0.00025689,0.
 00003915,-0.00566407,0.00273933,0.00000324,-0.00063363,-0.00067902,0.0
 0037509,-0.00023204,0.00024409,-0.00242003,0.00055489,-0.00052277,-0.0
 0022459,-0.00056026,0.00049895,-0.00011202,-0.00000063,-0.00014680,-0.
 00001426,0.00005946,0.00000772,-0.00002027,-0.00000815,-0.00000666,-0.
 00001744,0.00002838,0.00002010,0.00003536,0.00006353,0.00008130,-0.009
 78192,-0.01293142,0.00927015,0.07055358,0.11325154,-0.13549552,-0.0000
 4943,-0.00008163,0.00011100,0.00001695,-0.00017043,0.00004964,-0.00029
 078,-0.00046136,0.00043835,-0.00000614,-0.00003085,0.00000367,-0.00001
 291,0.00000301,-0.00000316,0.00000206,-0.00000659,-0.00000199,-0.00000
 073,-0.00000178,-0.00000419,-0.00000344,-0.00004719,-0.00003075,0.0123
 9463,0.02244270,-0.01674649,-0.06926368,-0.11587331,0.14042994\\0.0000
 4929,0.,-0.00001433,-0.00004581,0.,0.00000155,-0.00000072,0.00000241,0
 .00000005,0.00000044,-0.00001703,0.00000880,-0.00001287,-0.00000002,0.
 00002392,-0.00000205,-0.00000019,-0.00001172,0.00000388,-0.00000006,0.
 00000140,-0.00002420,0.00000009,0.00000767,0.00000568,0.,0.00002068,0.
 00001207,-0.00000015,-0.00001102,0.00002225,0.00000025,-0.00001756,0.0
 0000033,0.00001717,0.00000851,-0.00000067,-0.00000231,0.00000036,0.000
 00133,0.00000351,-0.00000156,-0.00000272,0.00000120,-0.00000288,-0.000
 01615,-0.00000007,-0.00000778,-0.00000457,0.00000006,-0.00001434,0.000
 00935,-0.00000003,-0.00000434,0.00000894,0.00000001,0.00000324,-0.0000
 0090,0.,0.00000846,-0.00000155,-0.00000002,0.00000551,0.00000141,-0.00
 000363,-0.00000169,-0.00000274,-0.00000121,-0.00000294\\\@


 The hours that make us happy make us wise.
                         -- John Masefield
 Job cpu time:       0 days  0 hours  1 minutes 52.6 seconds.
 Elapsed time:       0 days  0 hours  2 minutes  0.8 seconds.
 File lengths (MBytes):  RWF=    135 Int=      0 D2E=      0 Chk=     16 Scr=      1
 Normal termination of Gaussian 16 at Sat Feb 24 03:47:44 2024.
