 Entering Gaussian System, Link 0=g16
 Input=/Volumes/SSD-PMU3/b3lyp_6-31gd_freq/AFDCQVDEHZTFHC-BVVZNTARSA-N_calculating/gaussianinput1.gjf
 Output=/Volumes/SSD-PMU3/b3lyp_6-31gd_freq/AFDCQVDEHZTFHC-BVVZNTARSA-N_calculating/gaussianinput1.log
 Initial command:
 /Applications/g16/l1.exe "/Users/macmini_m1_2022/PycharmProjects/sphere_model/sphere_model_lib/Gau-90245.inp" -scrdir="/Users/macmini_m1_2022/PycharmProjects/sphere_model/sphere_model_lib/"
 Entering Link 1 = /Applications/g16/l1.exe PID=     90246.
  
 Copyright (c) 1988,1990,1992,1993,1995,1998,2003,2009,2016,
            Gaussian, Inc.  All Rights Reserved.
  
 This is part of the Gaussian(R) 16 program.  It is based on
 the Gaussian(R) 09 system (copyright 2009, Gaussian, Inc.),
 the Gaussian(R) 03 system (copyright 2003, Gaussian, Inc.),
 the Gaussian(R) 98 system (copyright 1998, Gaussian, Inc.),
 the Gaussian(R) 94 system (copyright 1995, Gaussian, Inc.),
 the Gaussian 92(TM) system (copyright 1992, Gaussian, Inc.),
 the Gaussian 90(TM) system (copyright 1990, Gaussian, Inc.),
 the Gaussian 88(TM) system (copyright 1988, Gaussian, Inc.),
 the Gaussian 86(TM) system (copyright 1986, Carnegie Mellon
 University), and the Gaussian 82(TM) system (copyright 1983,
 Carnegie Mellon University). Gaussian is a federally registered
 trademark of Gaussian, Inc.
  
 This software contains proprietary and confidential information,
 including trade secrets, belonging to Gaussian, Inc.
  
 This software is provided under written license and may be
 used, copied, transmitted, or stored only in accord with that
 written license.
  
 The following legend is applicable only to US Government
 contracts under FAR:
  
                    RESTRICTED RIGHTS LEGEND
  
 Use, reproduction and disclosure by the US Government is
 subject to restrictions as set forth in subparagraphs (a)
 and (c) of the Commercial Computer Software - Restricted
 Rights clause in FAR 52.227-19.
  
 Gaussian, Inc.
 340 Quinnipiac St., Bldg. 40, Wallingford CT 06492
  
  
 ---------------------------------------------------------------
 Warning -- This program may not be used in any manner that
 competes with the business of Gaussian, Inc. or will provide
 assistance to any competitor of Gaussian, Inc.  The licensee
 of this program is prohibited from giving any competitor of
 Gaussian, Inc. access to this program.  By using this program,
 the user acknowledges that Gaussian, Inc. is engaged in the
 business of creating and licensing software in the field of
 computational chemistry and represents and warrants to the
 licensee that it is not a competitor of Gaussian, Inc. and that
 it will not use this program in any manner prohibited above.
 ---------------------------------------------------------------
  

 Cite this work as:
 Gaussian 16, Revision A.03,
 M. J. Frisch, G. W. Trucks, H. B. Schlegel, G. E. Scuseria, 
 M. A. Robb, J. R. Cheeseman, G. Scalmani, V. Barone, 
 G. A. Petersson, H. Nakatsuji, X. Li, M. Caricato, A. V. Marenich, 
 J. Bloino, B. G. Janesko, R. Gomperts, B. Mennucci, H. P. Hratchian, 
 J. V. Ortiz, A. F. Izmaylov, J. L. Sonnenberg, D. Williams-Young, 
 F. Ding, F. Lipparini, F. Egidi, J. Goings, B. Peng, A. Petrone, 
 T. Henderson, D. Ranasinghe, V. G. Zakrzewski, J. Gao, N. Rega, 
 G. Zheng, W. Liang, M. Hada, M. Ehara, K. Toyota, R. Fukuda, 
 J. Hasegawa, M. Ishida, T. Nakajima, Y. Honda, O. Kitao, H. Nakai, 
 T. Vreven, K. Throssell, J. A. Montgomery, Jr., J. E. Peralta, 
 F. Ogliaro, M. J. Bearpark, J. J. Heyd, E. N. Brothers, K. N. Kudin, 
 V. N. Staroverov, T. A. Keith, R. Kobayashi, J. Normand, 
 K. Raghavachari, A. P. Rendell, J. C. Burant, S. S. Iyengar, 
 J. Tomasi, M. Cossi, J. M. Millam, M. Klene, C. Adamo, R. Cammi, 
 J. W. Ochterski, R. L. Martin, K. Morokuma, O. Farkas, 
 J. B. Foresman, and D. J. Fox, Gaussian, Inc., Wallingford CT, 2016.
 
 ******************************************
 Gaussian 16:  EM64M-G16RevA.03 25-Dec-2016
                24-Feb-2024 
 ******************************************
 %nprocshared=10
 Will use up to   10 processors via shared memory.
 %mem=12GB
 %chk= 1.chk
 ---------------------
 # freq b3lyp/6-31g(d)
 ---------------------
 1/10=4,30=1,38=1/1,3;
 2/12=2,17=6,18=5,40=1/2;
 3/5=1,6=6,7=1,11=2,25=1,30=1,71=2,74=-5,140=1/1,2,3;
 4//1;
 5/5=2,38=5,98=1/2;
 8/6=4,10=90,11=11/1;
 11/6=1,8=1,9=11,15=111,16=1/1,2,10;
 10/6=1/2;
 6/7=2,8=2,9=2,10=2,28=1/1;
 7/8=1,10=1,25=1/1,2,3,16;
 1/10=4,30=1/3;
 99//99;
 ---------
 good luck
 ---------
 Symbolic Z-matrix:
 Charge =  0 Multiplicity = 1
 O                     1.21383   0.        0. 
 C                     0.        0.        0. 
 C                    -0.80442  -1.2913   -0.06134 
 O                    -2.12731  -1.17025   0.45718 
 C                    -2.81373   0.        0.05375 
 C                    -3.18526   0.       -1.42875 
 C                    -3.40382  -1.20728  -2.10349 
 C                    -3.81262  -1.20721  -3.43781 
 C                    -4.01439  0.        -4.10942 
 C                    -3.81262   1.20721  -3.43781 
 C                    -3.40382   1.20728  -2.10349 
 O                    -2.12731   1.17025   0.45718 
 C                    -0.80442   1.2913   -0.06134 
 H                    -0.29871  -2.06325   0.52363 
 H                    -0.8181   -1.61498  -1.11537 
 H                    -3.72186   0.        0.66378 
 H                    -3.25949  -2.14486  -1.57475 
 H                    -3.97578  -2.15074  -3.95181 
 H                    -4.33233  0.        -5.1485 
 H                    -3.97578   2.15073  -3.95181 
 H                    -3.2595    2.14486  -1.57476 
 H                    -0.29871   2.06325   0.52363 
 H                    -0.8181    1.61497  -1.11537 
 

 GradGradGradGradGradGradGradGradGradGradGradGradGradGradGradGradGradGrad
 Berny optimization.
 Initialization pass.
 Trust Radius=3.00D-01 FncErr=1.00D-07 GrdErr=1.00D-07 EigMax=2.50D+02 EigMin=1.00D-04
 Number of steps in this run=      2 maximum allowed number of steps=      2.
 GradGradGradGradGradGradGradGradGradGradGradGradGradGradGradGradGradGrad

                          Input orientation:                          
 ---------------------------------------------------------------------
 Center     Atomic      Atomic             Coordinates (Angstroms)
 Number     Number       Type             X           Y           Z
 ---------------------------------------------------------------------
      1          8           0        1.213828    0.000000    0.000000
      2          6           0        0.000000    0.000000    0.000000
      3          6           0       -0.804421   -1.291299   -0.061339
      4          8           0       -2.127309   -1.170247    0.457182
      5          6           0       -2.813727    0.000000    0.053750
      6          6           0       -3.185255    0.000000   -1.428748
      7          6           0       -3.403817   -1.207279   -2.103490
      8          6           0       -3.812623   -1.207211   -3.437811
      9          6           0       -4.014389   -0.000003   -4.109419
     10          6           0       -3.812624    1.207206   -3.437813
     11          6           0       -3.403818    1.207277   -2.103491
     12          8           0       -2.127309    1.170247    0.457183
     13          6           0       -0.804422    1.291299   -0.061339
     14          1           0       -0.298712   -2.063245    0.523629
     15          1           0       -0.818097   -1.614975   -1.115368
     16          1           0       -3.721862    0.000000    0.663783
     17          1           0       -3.259494   -2.144858   -1.574754
     18          1           0       -3.975783   -2.150739   -3.951809
     19          1           0       -4.332330   -0.000003   -5.148500
     20          1           0       -3.975784    2.150734   -3.951811
     21          1           0       -3.259495    2.144856   -1.574757
     22          1           0       -0.298712    2.063245    0.523629
     23          1           0       -0.818097    1.614974   -1.115368
 ---------------------------------------------------------------------
                    Distance matrix (angstroms):
                    1          2          3          4          5
     1  O    0.000000
     2  C    1.213828   0.000000
     3  C    2.396778   1.522599   0.000000
     4  O    3.569550   2.470615   1.426026   0.000000
     5  C    4.027914   2.814240   2.391236   1.415417   0.000000
     6  C    4.625284   3.491013   3.034078   2.458752   1.528343
     7  C    5.215826   4.179493   3.306705   2.861448   2.541538
     8  C    6.208149   5.273708   4.522932   4.244128   3.827029
     9  C    6.649931   5.744793   5.325250   5.077833   4.332847
    10  C    6.208150   5.273709   5.166468   4.864520   3.827029
    11  C    5.215827   4.179494   4.143686   3.720100   2.541538
    12  O    3.569551   2.470615   2.842201   2.340494   1.415417
    13  C    2.396779   1.522600   2.582598   2.842200   2.391235
    14  H    2.611311   2.149511   1.092625   2.036081   3.286802
    15  H    2.825050   2.126375   1.102692   2.093975   2.820908
    16  H    4.980125   3.780591   3.271806   1.988658   1.094006
    17  H    5.204890   4.207680   3.007719   2.521998   2.729679
    18  H    6.868372   6.004109   5.092340   4.880310   4.692606
    19  H    7.567491   6.728754   6.323986   6.136388   5.419369
    20  H    6.868372   6.004109   6.086124   5.821082   4.692606
    21  H    5.204891   4.207680   4.486088   4.049757   2.729680
    22  H    2.611311   2.149511   3.442513   3.715327   3.286802
    23  H    2.825050   2.126375   3.091535   3.456068   2.820907
                    6          7          8          9         10
     6  C    0.000000
     7  C    1.400203   0.000000
     8  C    2.426372   1.395541   0.000000
     9  C    2.805969   2.419517   1.396108   0.000000
    10  C    2.426372   2.788777   2.414417   1.396108   0.000000
    11  C    1.400202   2.414556   2.788778   2.419518   1.395542
    12  O    2.458752   3.720101   4.864521   5.077835   4.244131
    13  C    3.034077   4.143685   5.166468   5.325251   4.522934
    14  H    4.049801   4.156454   5.364082   6.287158   6.223861
    15  H    2.882670   2.797954   3.811456   4.667843   4.725002
    16  H    2.160239   3.035865   4.276525   4.782157   4.276526
    17  H    2.151103   1.086023   2.157803   3.405113   3.874697
    18  H    3.408291   2.152567   1.086766   2.156849   3.400972
    19  H    3.892600   3.404664   2.157291   1.086635   2.157289
    20  H    3.408290   3.875524   3.400972   2.156850   1.086766
    21  H    2.151101   3.396645   3.874697   3.405113   2.157804
    22  H    4.049801   5.219172   6.223862   6.287160   5.364085
    23  H    2.882670   3.953156   4.725003   4.667845   3.811459
                   11         12         13         14         15
    11  C    0.000000
    12  O    2.861450   0.000000
    13  C    3.306706   1.426025   0.000000
    14  H    5.219172   3.715327   3.442513   0.000000
    15  H    3.953157   3.456069   3.091536   1.776800   0.000000
    16  H    3.035865   1.988658   3.271805   3.999322   3.769002
    17  H    3.396646   4.049757   4.486087   3.629890   2.540124
    18  H    3.875525   5.821084   6.086125   5.792931   4.278250
    19  H    3.404664   6.136390   6.323986   7.259483   5.587855
    20  H    2.152567   4.880312   5.092341   7.162963   5.674237
    21  H    1.086022   2.522001   3.007720   5.556759   4.506417
    22  H    4.156456   2.036081   1.092626   4.126490   4.060219
    23  H    2.797956   2.093976   1.102692   4.060218   3.229949
                   16         17         18         19         20
    16  H    0.000000
    17  H    3.134525   0.000000
    18  H    5.098416   2.482639   0.000000
    19  H    5.844254   4.303840   2.486938   0.000000
    20  H    5.098416   4.961409   4.301473   2.486938   0.000000
    21  H    3.134526   4.289714   4.961409   4.303839   2.482638
    22  H    3.999322   5.556759   7.162964   7.259484   5.792933
    23  H    3.769001   4.506417   5.674238   5.587856   4.278251
                   21         22         23
    21  H    0.000000
    22  H    3.629893   0.000000
    23  H    2.540125   1.776800   0.000000
 Stoichiometry    C10H10O3
 Framework group  C1[X(C10H10O3)]
 Deg. of freedom    63
 Full point group                 C1      NOp   1
 Largest Abelian subgroup         C1      NOp   1
 Largest concise Abelian subgroup C1      NOp   1
                         Standard orientation:                         
 ---------------------------------------------------------------------
 Center     Atomic      Atomic             Coordinates (Angstroms)
 Number     Number       Type             X           Y           Z
 ---------------------------------------------------------------------
      1          8           0        3.223525   -0.000002   -1.587711
      2          6           0        2.367411   -0.000001   -0.727219
      3          6           0        1.756568   -1.291299   -0.200220
      4          8           0        1.191117   -1.170246    1.103299
      5          6           0        0.420990    0.000002    1.305364
      6          6           0       -0.892003    0.000002    0.523136
      7          6           0       -1.524486   -1.207277    0.202181
      8          6           0       -2.758728   -1.207209   -0.449111
      9          6           0       -3.377141   -0.000001   -0.779765
     10          6           0       -2.758729    1.207208   -0.449114
     11          6           0       -1.524486    1.207279    0.202179
     12          8           0        1.191119    1.170248    1.103298
     13          6           0        1.756568    1.291299   -0.200221
     14          1           0        2.527933   -2.063246   -0.146141
     15          1           0        0.999712   -1.614976   -0.933932
     16          1           0        0.212939    0.000003    2.379405
     17          1           0       -1.047870   -2.144856    0.472788
     18          1           0       -3.238183   -2.150737   -0.695968
     19          1           0       -4.337998   -0.000001   -1.287239
     20          1           0       -3.238183    2.150736   -0.695973
     21          1           0       -1.047871    2.144858    0.472783
     22          1           0        2.527935    2.063244   -0.146145
     23          1           0        0.999714    1.614973   -0.933935
 ---------------------------------------------------------------------
 Rotational constants (GHZ):           1.5785394           0.5428590           0.5139931
 Standard basis: 6-31G(d) (6D, 7F)
 There are   215 symmetry adapted cartesian basis functions of A   symmetry.
 There are   215 symmetry adapted basis functions of A   symmetry.
   215 basis functions,   404 primitive gaussians,   215 cartesian basis functions
    47 alpha electrons       47 beta electrons
       nuclear repulsion energy       786.9735121283 Hartrees.
 NAtoms=   23 NActive=   23 NUniq=   23 SFac= 1.00D+00 NAtFMM=   60 NAOKFM=F Big=F
 Integral buffers will be    131072 words long.
 Raffenetti 2 integral format.
 Two-electron integral symmetry is turned on.
 One-electron integrals computed using PRISM.
 NBasis=   215 RedAO= T EigKep=  4.63D-04  NBF=   215
 NBsUse=   215 1.00D-06 EigRej= -1.00D+00 NBFU=   215
 ExpMin= 1.61D-01 ExpMax= 5.48D+03 ExpMxC= 8.25D+02 IAcc=3 IRadAn=         5 AccDes= 0.00D+00
 Harris functional with IExCor=  402 and IRadAn=       5 diagonalized for initial guess.
 HarFok:  IExCor=  402 AccDes= 0.00D+00 IRadAn=         5 IDoV= 1 UseB2=F ITyADJ=14
 ICtDFT=  3500011 ScaDFX=  1.000000  1.000000  1.000000  1.000000
 FoFCou: FMM=F IPFlag=           0 FMFlag=      100000 FMFlg1=           0
         NFxFlg=           0 DoJE=T BraDBF=F KetDBF=T FulRan=T
         wScrn=  0.000000 ICntrl=       500 IOpCl=  0 I1Cent=   200000004 NGrid=           0
         NMat0=    1 NMatS0=      1 NMatT0=    0 NMatD0=    1 NMtDS0=    0 NMtDT0=    0
 Petite list used in FoFCou.
 Requested convergence on RMS density matrix=1.00D-08 within 128 cycles.
 Requested convergence on MAX density matrix=1.00D-06.
 Requested convergence on             energy=1.00D-06.
 No special actions if energy rises.
 Integral accuracy reduced to 1.0D-05 until final iterations.
 Initial convergence to 1.0D-05 achieved.  Increase integral accuracy.
 SCF Done:  E(RB3LYP) =  -612.721005886     A.U. after   15 cycles
            NFock= 15  Conv=0.41D-08     -V/T= 2.0092
 DoSCS=F DFT=T ScalE2(SS,OS)=  1.000000  1.000000
 Range of M.O.s used for correlation:     1   215
 NBasis=   215 NAE=    47 NBE=    47 NFC=     0 NFV=     0
 NROrb=    215 NOA=    47 NOB=    47 NVA=   168 NVB=   168
 Symmetrizing basis deriv contribution to polar:
 IMax=3 JMax=2 DiffMx= 0.00D+00
 G2DrvN: will do    24 centers at a time, making    1 passes.
 Calling FoFCou, ICntrl=  3107 FMM=F I1Cent=   0 AccDes= 0.00D+00.
 End of G2Drv F.D. properties file   721 does not exist.
 End of G2Drv F.D. properties file   722 does not exist.
 End of G2Drv F.D. properties file   788 does not exist.
          IDoAtm=11111111111111111111111
          Differentiating once with respect to electric field.
                with respect to dipole field.
          Differentiating once with respect to nuclear coordinates.
 Keep R1 ints in memory in canonical form, NReq=280006471.
          There are    72 degrees of freedom in the 1st order CPHF.  IDoFFX=6 NUNeed=     3.
     69 vectors produced by pass  0 Test12= 1.10D-14 1.39D-09 XBig12= 1.14D+02 5.79D+00.
 AX will form    69 AO Fock derivatives at one time.
     69 vectors produced by pass  1 Test12= 1.10D-14 1.39D-09 XBig12= 1.86D+01 8.72D-01.
     69 vectors produced by pass  2 Test12= 1.10D-14 1.39D-09 XBig12= 1.98D-01 5.66D-02.
     69 vectors produced by pass  3 Test12= 1.10D-14 1.39D-09 XBig12= 1.05D-03 5.34D-03.
     69 vectors produced by pass  4 Test12= 1.10D-14 1.39D-09 XBig12= 1.42D-06 1.32D-04.
     55 vectors produced by pass  5 Test12= 1.10D-14 1.39D-09 XBig12= 1.18D-09 6.05D-06.
      7 vectors produced by pass  6 Test12= 1.10D-14 1.39D-09 XBig12= 1.09D-12 1.60D-07.
      3 vectors produced by pass  7 Test12= 1.10D-14 1.39D-09 XBig12= 8.14D-16 4.00D-09.
 InvSVY:  IOpt=1 It=  1 EMax= 8.88D-15
 Solved reduced A of dimension   410 with    72 vectors.
 Isotropic polarizability for W=    0.000000      102.32 Bohr**3.
 End of Minotr F.D. properties file   721 does not exist.
 End of Minotr F.D. properties file   722 does not exist.
 End of Minotr F.D. properties file   788 does not exist.

 **********************************************************************

            Population analysis using the SCF density.

 **********************************************************************

 Orbital symmetries:
       Occupied  (A) (A) (A) (A) (A) (A) (A) (A) (A) (A) (A) (A)
                 (A) (A) (A) (A) (A) (A) (A) (A) (A) (A) (A) (A)
                 (A) (A) (A) (A) (A) (A) (A) (A) (A) (A) (A) (A)
                 (A) (A) (A) (A) (A) (A) (A) (A) (A) (A) (A)
       Virtual   (A) (A) (A) (A) (A) (A) (A) (A) (A) (A) (A) (A)
                 (A) (A) (A) (A) (A) (A) (A) (A) (A) (A) (A) (A)
                 (A) (A) (A) (A) (A) (A) (A) (A) (A) (A) (A) (A)
                 (A) (A) (A) (A) (A) (A) (A) (A) (A) (A) (A) (A)
                 (A) (A) (A) (A) (A) (A) (A) (A) (A) (A) (A) (A)
                 (A) (A) (A) (A) (A) (A) (A) (A) (A) (A) (A) (A)
                 (A) (A) (A) (A) (A) (A) (A) (A) (A) (A) (A) (A)
                 (A) (A) (A) (A) (A) (A) (A) (A) (A) (A) (A) (A)
                 (A) (A) (A) (A) (A) (A) (A) (A) (A) (A) (A) (A)
                 (A) (A) (A) (A) (A) (A) (A) (A) (A) (A) (A) (A)
                 (A) (A) (A) (A) (A) (A) (A) (A) (A) (A) (A) (A)
                 (A) (A) (A) (A) (A) (A) (A) (A) (A) (A) (A) (A)
                 (A) (A) (A) (A) (A) (A) (A) (A) (A) (A) (A) (A)
                 (A) (A) (A) (A) (A) (A) (A) (A) (A) (A) (A) (A)
 The electronic state is 1-A.
 Alpha  occ. eigenvalues --  -19.17061 -19.17061 -19.15428 -10.30006 -10.28918
 Alpha  occ. eigenvalues --  -10.25162 -10.25162 -10.20490 -10.20011 -10.19983
 Alpha  occ. eigenvalues --  -10.19933 -10.19879 -10.19875  -1.08944  -1.05250
 Alpha  occ. eigenvalues --   -1.02133  -0.86304  -0.79185  -0.75497  -0.75303
 Alpha  occ. eigenvalues --   -0.70920  -0.66808  -0.61374  -0.60513  -0.55626
 Alpha  occ. eigenvalues --   -0.53138  -0.52993  -0.50627  -0.48059  -0.47249
 Alpha  occ. eigenvalues --   -0.45788  -0.44803  -0.44252  -0.43447  -0.43070
 Alpha  occ. eigenvalues --   -0.42509  -0.38029  -0.37194  -0.36385  -0.35886
 Alpha  occ. eigenvalues --   -0.35426  -0.34096  -0.30836  -0.28206  -0.25991
 Alpha  occ. eigenvalues --   -0.25722  -0.24159
 Alpha virt. eigenvalues --   -0.03423  -0.01593  -0.01167   0.08704   0.10091
 Alpha virt. eigenvalues --    0.11361   0.11746   0.12696   0.13102   0.14494
 Alpha virt. eigenvalues --    0.15051   0.16472   0.16874   0.17584   0.19292
 Alpha virt. eigenvalues --    0.19416   0.22048   0.23819   0.24423   0.27004
 Alpha virt. eigenvalues --    0.29521   0.29764   0.31186   0.33381   0.34446
 Alpha virt. eigenvalues --    0.34505   0.45644   0.48930   0.50595   0.51251
 Alpha virt. eigenvalues --    0.52548   0.53509   0.54492   0.55202   0.55653
 Alpha virt. eigenvalues --    0.57551   0.58018   0.58643   0.59894   0.60366
 Alpha virt. eigenvalues --    0.61047   0.61621   0.62771   0.64270   0.65393
 Alpha virt. eigenvalues --    0.67433   0.68559   0.69773   0.70560   0.72150
 Alpha virt. eigenvalues --    0.76030   0.79230   0.82481   0.82484   0.83390
 Alpha virt. eigenvalues --    0.83459   0.84711   0.86017   0.86332   0.86630
 Alpha virt. eigenvalues --    0.88015   0.89605   0.91122   0.91569   0.93037
 Alpha virt. eigenvalues --    0.95477   0.95493   0.98734   0.98755   1.03079
 Alpha virt. eigenvalues --    1.06006   1.07553   1.08528   1.11068   1.11070
 Alpha virt. eigenvalues --    1.16055   1.17848   1.20494   1.22268   1.22513
 Alpha virt. eigenvalues --    1.24667   1.27256   1.27286   1.37594   1.40766
 Alpha virt. eigenvalues --    1.42504   1.43550   1.44510   1.46977   1.47965
 Alpha virt. eigenvalues --    1.50246   1.50716   1.52667   1.53512   1.58382
 Alpha virt. eigenvalues --    1.64846   1.66993   1.67982   1.72456   1.73575
 Alpha virt. eigenvalues --    1.73599   1.76815   1.76919   1.82757   1.83190
 Alpha virt. eigenvalues --    1.86283   1.87695   1.88238   1.90201   1.93163
 Alpha virt. eigenvalues --    1.93381   1.96426   1.97192   1.98825   2.03125
 Alpha virt. eigenvalues --    2.04404   2.05343   2.09369   2.12737   2.13360
 Alpha virt. eigenvalues --    2.13744   2.14299   2.15406   2.16643   2.19635
 Alpha virt. eigenvalues --    2.25282   2.29483   2.29866   2.30161   2.31611
 Alpha virt. eigenvalues --    2.32003   2.37425   2.40319   2.44755   2.47658
 Alpha virt. eigenvalues --    2.53418   2.57303   2.58128   2.59054   2.63273
 Alpha virt. eigenvalues --    2.64332   2.66543   2.68558   2.73963   2.74199
 Alpha virt. eigenvalues --    2.75218   2.83988   2.87770   2.90888   2.91729
 Alpha virt. eigenvalues --    2.96309   3.00232   3.06414   3.08964   3.40051
 Alpha virt. eigenvalues --    3.95254   4.00731   4.02958   4.08302   4.11346
 Alpha virt. eigenvalues --    4.16694   4.19610   4.32896   4.35731   4.36490
 Alpha virt. eigenvalues --    4.47852   4.58167   4.70543
          Condensed to atoms (all electrons):
               1          2          3          4          5          6
     1  O    8.011441   0.537620  -0.063985   0.001471  -0.000029  -0.000006
     2  C    0.537620   4.618474   0.305381  -0.016018  -0.015590  -0.004261
     3  C   -0.063985   0.305381   5.126568   0.200284  -0.023696  -0.008390
     4  O    0.001471  -0.016018   0.200284   8.244783   0.245628  -0.058323
     5  C   -0.000029  -0.015590  -0.023696   0.245628   4.762809   0.254503
     6  C   -0.000006  -0.004261  -0.008390  -0.058323   0.254503   4.992770
     7  C   -0.000005   0.000173  -0.001725   0.001081  -0.050669   0.511274
     8  C   -0.000000   0.000025  -0.000153   0.000573   0.005131  -0.019896
     9  C    0.000000   0.000005  -0.000010  -0.000008   0.000173  -0.037456
    10  C   -0.000000   0.000025  -0.000004  -0.000041   0.005131  -0.019896
    11  C   -0.000005   0.000173  -0.000029   0.003566  -0.050669   0.511275
    12  O    0.001471  -0.016018  -0.001075  -0.051257   0.245628  -0.058323
    13  C   -0.063985   0.305381  -0.122213  -0.001075  -0.023696  -0.008390
    14  H    0.003099  -0.025738   0.365425  -0.031286   0.003604   0.000012
    15  H    0.001228  -0.040682   0.335557  -0.038855  -0.006326   0.011282
    16  H    0.000002  -0.000095   0.006156  -0.041568   0.396113  -0.060006
    17  H   -0.000001   0.000196  -0.000591   0.011689  -0.010090  -0.045840
    18  H    0.000000  -0.000000   0.000002   0.000001  -0.000133   0.003839
    19  H   -0.000000  -0.000000   0.000000   0.000000   0.000008   0.000640
    20  H    0.000000  -0.000000   0.000000   0.000000  -0.000133   0.003839
    21  H   -0.000001   0.000196   0.000011   0.000172  -0.010090  -0.045840
    22  H    0.003099  -0.025738   0.004936  -0.000394   0.003604   0.000012
    23  H    0.001228  -0.040682   0.002718  -0.000981  -0.006326   0.011282
               7          8          9         10         11         12
     1  O   -0.000005  -0.000000   0.000000  -0.000000  -0.000005   0.001471
     2  C    0.000173   0.000025   0.000005   0.000025   0.000173  -0.016018
     3  C   -0.001725  -0.000153  -0.000010  -0.000004  -0.000029  -0.001075
     4  O    0.001081   0.000573  -0.000008  -0.000041   0.003566  -0.051257
     5  C   -0.050669   0.005131   0.000173   0.005131  -0.050669   0.245628
     6  C    0.511274  -0.019896  -0.037456  -0.019896   0.511275  -0.058323
     7  C    4.998640   0.510651  -0.034035  -0.042937  -0.055298   0.003566
     8  C    0.510651   4.882023   0.546573  -0.027622  -0.042937  -0.000041
     9  C   -0.034035   0.546573   4.852223   0.546573  -0.034035  -0.000008
    10  C   -0.042937  -0.027622   0.546573   4.882024   0.510650   0.000573
    11  C   -0.055298  -0.042937  -0.034035   0.510650   4.998640   0.001081
    12  O    0.003566  -0.000041  -0.000008   0.000573   0.001081   8.244783
    13  C   -0.000029  -0.000004  -0.000010  -0.000153  -0.001725   0.200284
    14  H    0.000068   0.000001  -0.000000  -0.000000   0.000017  -0.000394
    15  H    0.004479  -0.000560   0.000022  -0.000015  -0.000295  -0.000981
    16  H   -0.001332  -0.000124   0.000014  -0.000124  -0.001332  -0.041568
    17  H    0.356248  -0.041955   0.004550   0.000335   0.005886   0.000172
    18  H   -0.040499   0.359083  -0.042910   0.004612   0.000782   0.000000
    19  H    0.004672  -0.042734   0.360295  -0.042734   0.004672   0.000000
    20  H    0.000782   0.004612  -0.042910   0.359083  -0.040499   0.000001
    21  H    0.005886   0.000335   0.004551  -0.041955   0.356248   0.011689
    22  H    0.000017  -0.000000  -0.000000   0.000001   0.000068  -0.031286
    23  H   -0.000295  -0.000015   0.000022  -0.000560   0.004479  -0.038855
              13         14         15         16         17         18
     1  O   -0.063985   0.003099   0.001228   0.000002  -0.000001   0.000000
     2  C    0.305381  -0.025738  -0.040682  -0.000095   0.000196  -0.000000
     3  C   -0.122213   0.365425   0.335557   0.006156  -0.000591   0.000002
     4  O   -0.001075  -0.031286  -0.038855  -0.041568   0.011689   0.000001
     5  C   -0.023696   0.003604  -0.006326   0.396113  -0.010090  -0.000133
     6  C   -0.008390   0.000012   0.011282  -0.060006  -0.045840   0.003839
     7  C   -0.000029   0.000068   0.004479  -0.001332   0.356248  -0.040499
     8  C   -0.000004   0.000001  -0.000560  -0.000124  -0.041955   0.359083
     9  C   -0.000010  -0.000000   0.000022   0.000014   0.004550  -0.042910
    10  C   -0.000153  -0.000000  -0.000015  -0.000124   0.000335   0.004612
    11  C   -0.001725   0.000017  -0.000295  -0.001332   0.005886   0.000782
    12  O    0.200284  -0.000394  -0.000981  -0.041568   0.000172   0.000000
    13  C    5.126568   0.004936   0.002718   0.006156   0.000011   0.000000
    14  H    0.004936   0.520686  -0.029164  -0.000125   0.000002   0.000000
    15  H    0.002718  -0.029164   0.592472  -0.000218  -0.001055  -0.000014
    16  H    0.006156  -0.000125  -0.000218   0.565662   0.000363   0.000004
    17  H    0.000011   0.000002  -0.001055   0.000363   0.577371  -0.005174
    18  H    0.000000   0.000000  -0.000014   0.000004  -0.005174   0.590220
    19  H    0.000000  -0.000000  -0.000000  -0.000000  -0.000165  -0.005503
    20  H    0.000002   0.000000  -0.000001   0.000004   0.000017  -0.000180
    21  H   -0.000591   0.000001  -0.000002   0.000363  -0.000164   0.000017
    22  H    0.365425  -0.000170  -0.000117  -0.000125   0.000001   0.000000
    23  H    0.335557  -0.000117  -0.000030  -0.000218  -0.000002  -0.000001
              19         20         21         22         23
     1  O   -0.000000   0.000000  -0.000001   0.003099   0.001228
     2  C   -0.000000  -0.000000   0.000196  -0.025738  -0.040682
     3  C    0.000000   0.000000   0.000011   0.004936   0.002718
     4  O    0.000000   0.000000   0.000172  -0.000394  -0.000981
     5  C    0.000008  -0.000133  -0.010090   0.003604  -0.006326
     6  C    0.000640   0.003839  -0.045840   0.000012   0.011282
     7  C    0.004672   0.000782   0.005886   0.000017  -0.000295
     8  C   -0.042734   0.004612   0.000335  -0.000000  -0.000015
     9  C    0.360295  -0.042910   0.004551  -0.000000   0.000022
    10  C   -0.042734   0.359083  -0.041955   0.000001  -0.000560
    11  C    0.004672  -0.040499   0.356248   0.000068   0.004479
    12  O    0.000000   0.000001   0.011689  -0.031286  -0.038855
    13  C    0.000000   0.000002  -0.000591   0.365425   0.335557
    14  H   -0.000000   0.000000   0.000001  -0.000170  -0.000117
    15  H   -0.000000  -0.000001  -0.000002  -0.000117  -0.000030
    16  H   -0.000000   0.000004   0.000363  -0.000125  -0.000218
    17  H   -0.000165   0.000017  -0.000164   0.000001  -0.000002
    18  H   -0.005503  -0.000180   0.000017   0.000000  -0.000001
    19  H    0.591353  -0.005503  -0.000165  -0.000000  -0.000000
    20  H   -0.005503   0.590221  -0.005174   0.000000  -0.000014
    21  H   -0.000165  -0.005174   0.577371   0.000002  -0.001055
    22  H   -0.000000   0.000000   0.000002   0.520686  -0.029164
    23  H   -0.000000  -0.000014  -0.001055  -0.029164   0.592472
 Mulliken charges:
               1
     1  O   -0.432642
     2  C    0.417173
     3  C   -0.125168
     4  O   -0.469442
     5  C    0.275116
     6  C    0.065900
     7  C   -0.170714
     8  C   -0.132968
     9  C   -0.123620
    10  C   -0.132968
    11  C   -0.170714
    12  O   -0.469441
    13  C   -0.125168
    14  H    0.189141
    15  H    0.170557
    16  H    0.171999
    17  H    0.148195
    18  H    0.135853
    19  H    0.135164
    20  H    0.135853
    21  H    0.148195
    22  H    0.189141
    23  H    0.170557
 Sum of Mulliken charges =  -0.00000
 Mulliken charges with hydrogens summed into heavy atoms:
               1
     1  O   -0.432642
     2  C    0.417173
     3  C    0.234530
     4  O   -0.469442
     5  C    0.447114
     6  C    0.065900
     7  C   -0.022518
     8  C    0.002885
     9  C    0.011545
    10  C    0.002885
    11  C   -0.022518
    12  O   -0.469441
    13  C    0.234530
 APT charges:
               1
     1  O   -0.632603
     2  C    0.658109
     3  C    0.327746
     4  O   -0.730423
     5  C    0.993153
     6  C   -0.121538
     7  C   -0.052252
     8  C   -0.003262
     9  C   -0.014501
    10  C   -0.003262
    11  C   -0.052251
    12  O   -0.730423
    13  C    0.327746
    14  H   -0.000428
    15  H   -0.019891
    16  H   -0.070725
    17  H    0.048703
    18  H    0.014677
    19  H    0.018367
    20  H    0.014677
    21  H    0.048703
    22  H   -0.000429
    23  H   -0.019891
 Sum of APT charges =   0.00000
 APT charges with hydrogens summed into heavy atoms:
               1
     1  O   -0.632603
     2  C    0.658109
     3  C    0.307426
     4  O   -0.730423
     5  C    0.922427
     6  C   -0.121538
     7  C   -0.003548
     8  C    0.011414
     9  C    0.003866
    10  C    0.011414
    11  C   -0.003548
    12  O   -0.730423
    13  C    0.307426
 Electronic spatial extent (au):  <R**2>=           2340.1001
 Charge=             -0.0000 electrons
 Dipole moment (field-independent basis, Debye):
    X=             -2.6185    Y=             -0.0000    Z=             -0.1835  Tot=              2.6249
 Quadrupole moment (field-independent basis, Debye-Ang):
   XX=            -78.0883   YY=            -69.1283   ZZ=            -79.4526
   XY=              0.0000   XZ=              5.8380   YZ=             -0.0000
 Traceless Quadrupole moment (field-independent basis, Debye-Ang):
   XX=             -2.5319   YY=              6.4281   ZZ=             -3.8962
   XY=              0.0000   XZ=              5.8380   YZ=             -0.0000
 Octapole moment (field-independent basis, Debye-Ang**2):
  XXX=            -23.6702  YYY=             -0.0000  ZZZ=             12.8592  XYY=              5.3691
  XXY=             -0.0000  XXZ=              7.8140  XZZ=             -7.5713  YZZ=              0.0000
  YYZ=             -7.2998  XYZ=             -0.0000
 Hexadecapole moment (field-independent basis, Debye-Ang**3):
 XXXX=          -2103.9544 YYYY=           -536.8609 ZZZZ=           -384.9432 XXXY=              0.0002
 XXXZ=            132.9180 YYYX=             -0.0001 YYYZ=             -0.0001 ZZZX=              6.0861
 ZZZY=              0.0000 XXYY=           -394.9719 XXZZ=           -466.0666 YYZZ=           -170.1763
 XXYZ=             -0.0001 YYXZ=             -4.8488 ZZXY=              0.0000
 N-N= 7.869735121283D+02 E-N=-3.001949900438D+03  KE= 6.071487533959D+02
  Exact polarizability: 125.095   0.000 108.104  11.767  -0.000  73.757
 Approx polarizability: 175.623   0.000 180.219  23.332  -0.000 120.941
 Calling FoFJK, ICntrl=    100127 FMM=F ISym2X=0 I1Cent= 0 IOpClX= 0 NMat=1 NMatS=1 NMatT=0.
 Full mass-weighted force constant matrix:
 Low frequencies ---    0.0006    0.0007    0.0009    4.8076    5.2446    9.1557
 Low frequencies ---   47.5497   60.5259  126.0623
 Diagonal vibrational polarizability:
       35.7108724       9.4541108      21.3943801
 Harmonic frequencies (cm**-1), IR intensities (KM/Mole), Raman scattering
 activities (A**4/AMU), depolarization ratios for plane and unpolarized
 incident light, reduced masses (AMU), force constants (mDyne/A),
 and normal coordinates:
                      1                      2                      3
                      A                      A                      A
 Frequencies --     47.5496                60.5250               126.0622
 Red. masses --      8.2226                 3.6634                 3.4446
 Frc consts  --      0.0110                 0.0079                 0.0323
 IR Inten    --      2.1790                 0.0101                 5.1440
  Atom  AN      X      Y      Z        X      Y      Z        X      Y      Z
     1   8     0.45   0.00   0.30     0.00  -0.09   0.00     0.06  -0.00   0.08
     2   6     0.18   0.00   0.04     0.00  -0.05   0.00    -0.07  -0.00  -0.04
     3   6     0.00   0.02  -0.13     0.07  -0.04   0.12    -0.16   0.02  -0.11
     4   8    -0.03  -0.00  -0.13    -0.00   0.03   0.08     0.01  -0.00  -0.03
     5   6    -0.01  -0.00  -0.11    -0.00   0.05  -0.00     0.03   0.00   0.07
     6   6    -0.05  -0.00  -0.05     0.00   0.02  -0.00    -0.02   0.00   0.16
     7   6    -0.07  -0.00  -0.00     0.09   0.02  -0.17     0.01  -0.00   0.12
     8   6    -0.13  -0.00   0.11     0.10   0.02  -0.18     0.09  -0.00  -0.03
     9   6    -0.17  -0.00   0.17    -0.00   0.02   0.00     0.14  -0.00  -0.13
    10   6    -0.13   0.00   0.11    -0.10   0.02   0.18     0.09   0.00  -0.03
    11   6    -0.07   0.00  -0.00    -0.09   0.02   0.17     0.01   0.00   0.12
    12   8    -0.03   0.00  -0.13     0.00   0.03  -0.08     0.01   0.00  -0.03
    13   6     0.00  -0.02  -0.13    -0.07  -0.04  -0.12    -0.16  -0.02  -0.11
    14   1    -0.10  -0.09  -0.16     0.13   0.03   0.23    -0.26  -0.08  -0.26
    15   1    -0.02   0.19  -0.18     0.14  -0.17   0.11    -0.30   0.18  -0.05
    16   1     0.02  -0.00  -0.11    -0.00   0.12  -0.00     0.15   0.00   0.09
    17   1    -0.05   0.00  -0.05     0.16   0.02  -0.29    -0.01   0.00   0.17
    18   1    -0.16  -0.00   0.15     0.17   0.02  -0.33     0.12  -0.00  -0.09
    19   1    -0.22  -0.00   0.26    -0.00   0.02   0.00     0.22  -0.00  -0.28
    20   1    -0.16   0.00   0.15    -0.17   0.02   0.33     0.12   0.00  -0.09
    21   1    -0.05  -0.00  -0.05    -0.16   0.02   0.29    -0.01  -0.00   0.17
    22   1    -0.10   0.09  -0.16    -0.13   0.03  -0.23    -0.26   0.08  -0.26
    23   1    -0.02  -0.19  -0.18    -0.14  -0.17  -0.11    -0.30  -0.18  -0.05
                      4                      5                      6
                      A                      A                      A
 Frequencies --    136.3058               226.5393               231.4539
 Red. masses --      2.9261                 4.6215                 4.1312
 Frc consts  --      0.0320                 0.1397                 0.1304
 IR Inten    --      0.1586                 0.5603                 8.2028
  Atom  AN      X      Y      Z        X      Y      Z        X      Y      Z
     1   8     0.00   0.10   0.00    -0.00  -0.04   0.00    -0.04   0.00   0.11
     2   6     0.00   0.04  -0.00    -0.00  -0.02   0.00    -0.13   0.00   0.02
     3   6     0.19  -0.03   0.09    -0.08   0.03  -0.01    -0.16  -0.00  -0.02
     4   8     0.04  -0.05   0.03     0.21   0.12   0.10     0.03   0.00   0.06
     5   6    -0.00  -0.07   0.00    -0.00  -0.02  -0.00     0.01   0.00   0.01
     6   6    -0.00  -0.06   0.00     0.00  -0.18  -0.00     0.13   0.00  -0.16
     7   6    -0.08  -0.02   0.03    -0.09  -0.13  -0.05     0.15  -0.00  -0.17
     8   6    -0.09   0.05   0.04    -0.09   0.03  -0.07     0.06  -0.00   0.01
     9   6    -0.00   0.09   0.00    -0.00   0.10   0.00    -0.03  -0.00   0.18
    10   6     0.09   0.05  -0.04     0.09   0.03   0.07     0.06   0.00   0.01
    11   6     0.08  -0.02  -0.03     0.09  -0.13   0.05     0.15   0.00  -0.17
    12   8    -0.04  -0.05  -0.03    -0.21   0.12  -0.10     0.03  -0.00   0.06
    13   6    -0.19  -0.03  -0.09     0.08   0.03   0.01    -0.16   0.00  -0.02
    14   1     0.34   0.13   0.23    -0.19  -0.09  -0.18    -0.22  -0.07  -0.17
    15   1     0.32  -0.24   0.05    -0.28   0.19   0.13    -0.30   0.12   0.07
    16   1     0.00  -0.06   0.00    -0.00   0.05  -0.00    -0.12  -0.00  -0.02
    17   1    -0.14  -0.05   0.03    -0.18  -0.19  -0.10     0.17  -0.00  -0.21
    18   1    -0.16   0.08   0.07    -0.17   0.08  -0.13     0.02  -0.00   0.07
    19   1    -0.00   0.14   0.00    -0.00   0.20   0.00    -0.14  -0.00   0.39
    20   1     0.16   0.08  -0.07     0.17   0.08   0.13     0.02   0.00   0.07
    21   1     0.14  -0.05  -0.03     0.18  -0.19   0.10     0.17   0.00  -0.21
    22   1    -0.34   0.13  -0.23     0.19  -0.09   0.18    -0.22   0.07  -0.17
    23   1    -0.32  -0.24  -0.05     0.28   0.19  -0.13    -0.30  -0.12   0.07
                      7                      8                      9
                      A                      A                      A
 Frequencies --    353.5448               384.1843               423.3286
 Red. masses --      5.0420                 6.2850                 3.0871
 Frc consts  --      0.3713                 0.5466                 0.3260
 IR Inten    --     13.9071                16.3615                 0.0053
  Atom  AN      X      Y      Z        X      Y      Z        X      Y      Z
     1   8     0.03  -0.00  -0.06    -0.00  -0.18   0.00     0.00  -0.03   0.00
     2   6     0.07   0.00  -0.02    -0.00   0.23  -0.00    -0.00  -0.01  -0.00
     3   6    -0.02   0.05   0.01    -0.04   0.26   0.11     0.00  -0.01  -0.02
     4   8     0.24   0.08   0.13    -0.21  -0.08   0.05     0.02   0.02  -0.02
     5   6     0.10   0.00   0.06    -0.00   0.01  -0.00     0.00   0.00  -0.00
     6   6    -0.01  -0.00  -0.02     0.00  -0.13   0.00     0.00   0.00  -0.00
     7   6    -0.12   0.04  -0.03    -0.05  -0.12  -0.04     0.11   0.00  -0.20
     8   6    -0.13   0.03  -0.05    -0.07  -0.03  -0.02    -0.10   0.00   0.18
     9   6    -0.15   0.00  -0.12     0.00   0.02   0.00     0.00  -0.00  -0.00
    10   6    -0.13  -0.03  -0.05     0.07  -0.03   0.02     0.10   0.00  -0.18
    11   6    -0.12  -0.04  -0.03     0.05  -0.12   0.04    -0.11   0.00   0.20
    12   8     0.24  -0.08   0.13     0.21  -0.08  -0.05    -0.02   0.02   0.02
    13   6    -0.02  -0.05   0.01     0.04   0.26  -0.11    -0.00  -0.01   0.02
    14   1    -0.19  -0.13  -0.22     0.01   0.32   0.03     0.01  -0.00  -0.01
    15   1    -0.26   0.29   0.15     0.04   0.31  -0.01     0.01  -0.02  -0.02
    16   1     0.00   0.00   0.04     0.00   0.20  -0.00     0.00  -0.02  -0.00
    17   1    -0.19  -0.00  -0.04    -0.09  -0.16  -0.10     0.21  -0.00  -0.40
    18   1    -0.10   0.01  -0.02    -0.14   0.01  -0.03    -0.20  -0.00   0.40
    19   1    -0.14   0.00  -0.16     0.00   0.09   0.00     0.00  -0.00  -0.00
    20   1    -0.10  -0.01  -0.02     0.14   0.01   0.03     0.20  -0.00  -0.40
    21   1    -0.19   0.00  -0.04     0.09  -0.16   0.10    -0.21  -0.00   0.40
    22   1    -0.19   0.13  -0.22    -0.01   0.32  -0.03    -0.01  -0.00   0.01
    23   1    -0.26  -0.29   0.15    -0.04   0.31   0.01    -0.01  -0.01   0.02
                     10                     11                     12
                      A                      A                      A
 Frequencies --    424.3804               464.6089               470.5881
 Red. masses --      2.7804                 6.0106                 3.2889
 Frc consts  --      0.2950                 0.7644                 0.4291
 IR Inten    --      2.7530                 4.3495                 3.5394
  Atom  AN      X      Y      Z        X      Y      Z        X      Y      Z
     1   8    -0.00  -0.00  -0.16    -0.00   0.39  -0.00     0.04   0.00   0.01
     2   6     0.24  -0.00   0.10     0.00  -0.08   0.00    -0.06  -0.00  -0.08
     3   6    -0.00   0.09   0.02    -0.14  -0.12   0.11     0.02  -0.01  -0.02
     4   8    -0.08   0.01   0.00    -0.15  -0.04   0.15     0.01  -0.00  -0.01
     5   6    -0.07   0.00   0.06    -0.00   0.08  -0.00     0.03   0.00   0.13
     6   6    -0.04   0.00   0.06     0.00  -0.05  -0.00    -0.10  -0.00   0.27
     7   6     0.03  -0.01  -0.02    -0.00  -0.05  -0.04     0.01   0.02  -0.06
     8   6     0.04  -0.01  -0.02    -0.04  -0.01   0.01     0.03   0.02  -0.13
     9   6     0.00  -0.00   0.08     0.00   0.01  -0.00    -0.15   0.00   0.15
    10   6     0.04   0.01  -0.02     0.04  -0.01  -0.01     0.03  -0.02  -0.13
    11   6     0.03   0.01  -0.02     0.00  -0.05   0.04     0.01  -0.02  -0.06
    12   8    -0.08  -0.01   0.00     0.15  -0.04  -0.15     0.01   0.00  -0.01
    13   6    -0.00  -0.09   0.02     0.14  -0.12  -0.11     0.02   0.01  -0.02
    14   1    -0.29  -0.21  -0.09    -0.30  -0.28   0.11     0.13   0.10   0.07
    15   1    -0.09   0.49  -0.08    -0.23   0.02   0.15     0.08  -0.20   0.01
    16   1    -0.04  -0.00   0.06    -0.00   0.31  -0.00     0.24   0.00   0.17
    17   1     0.07  -0.00  -0.07    -0.02  -0.07  -0.08     0.07  -0.01  -0.26
    18   1     0.05  -0.00  -0.07    -0.08   0.00   0.02     0.16   0.00  -0.32
    19   1    -0.03  -0.00   0.14     0.00   0.04  -0.00    -0.23   0.00   0.30
    20   1     0.05   0.00  -0.07     0.08   0.00  -0.02     0.16  -0.00  -0.32
    21   1     0.07   0.00  -0.07     0.02  -0.07   0.08     0.07   0.01  -0.26
    22   1    -0.29   0.21  -0.09     0.30  -0.28  -0.11     0.13  -0.10   0.07
    23   1    -0.09  -0.49  -0.08     0.23   0.02  -0.15     0.08   0.20   0.01
                     13                     14                     15
                      A                      A                      A
 Frequencies --    506.1736               546.9468               633.2853
 Red. masses --      5.1434                 6.0989                 6.4074
 Frc consts  --      0.7764                 1.0750                 1.5140
 IR Inten    --      6.2682                 8.2753                 0.2370
  Atom  AN      X      Y      Z        X      Y      Z        X      Y      Z
     1   8    -0.00  -0.00  -0.00    -0.22  -0.00   0.11     0.00  -0.00  -0.00
     2   6     0.00  -0.09   0.00     0.03   0.00   0.32     0.00   0.00  -0.00
     3   6     0.01  -0.07  -0.07     0.05  -0.08  -0.03     0.00  -0.00  -0.00
     4   8    -0.13   0.20  -0.18     0.02  -0.22  -0.09    -0.00  -0.02  -0.00
     5   6     0.00   0.18  -0.00     0.23  -0.00  -0.03     0.00   0.01   0.00
     6   6     0.00  -0.11  -0.00     0.09   0.00   0.07     0.00  -0.14   0.00
     7   6    -0.06  -0.14  -0.01    -0.02   0.07  -0.01     0.21  -0.22   0.11
     8   6    -0.06  -0.02  -0.05    -0.03   0.06  -0.02     0.22   0.24   0.12
     9   6     0.00   0.03  -0.00    -0.12  -0.00  -0.06    -0.00   0.15  -0.00
    10   6     0.06  -0.02   0.05    -0.03  -0.06  -0.02    -0.22   0.24  -0.12
    11   6     0.06  -0.14   0.01    -0.02  -0.07  -0.01    -0.21  -0.22  -0.11
    12   8     0.13   0.20   0.18     0.02   0.22  -0.09     0.00  -0.02   0.00
    13   6    -0.01  -0.07   0.07     0.05   0.08  -0.03    -0.00  -0.00   0.00
    14   1     0.08   0.02   0.28    -0.03  -0.17  -0.26    -0.00  -0.00  -0.02
    15   1     0.20  -0.33  -0.15     0.03   0.25  -0.17     0.00   0.01  -0.01
    16   1    -0.00   0.08  -0.00     0.40  -0.00  -0.01     0.00   0.01   0.00
    17   1    -0.13  -0.18  -0.04    -0.08   0.01  -0.09     0.08  -0.30   0.04
    18   1    -0.13   0.02  -0.10     0.05   0.02  -0.01     0.09   0.33   0.04
    19   1     0.00   0.11  -0.00    -0.12  -0.00  -0.07    -0.00  -0.28   0.00
    20   1     0.13   0.02   0.10     0.05  -0.02  -0.01    -0.09   0.33  -0.04
    21   1     0.13  -0.18   0.04    -0.08  -0.01  -0.09    -0.08  -0.30  -0.04
    22   1    -0.08   0.02  -0.28    -0.03   0.17  -0.26     0.00  -0.00   0.02
    23   1    -0.20  -0.33   0.15     0.03  -0.25  -0.17    -0.00   0.01   0.01
                     16                     17                     18
                      A                      A                      A
 Frequencies --    640.8473               707.5905               721.7767
 Red. masses --      6.5439                 5.1294                 2.8924
 Frc consts  --      1.5834                 1.5131                 0.8878
 IR Inten    --      5.0277                 2.2707                18.5346
  Atom  AN      X      Y      Z        X      Y      Z        X      Y      Z
     1   8     0.18  -0.00  -0.13    -0.09  -0.00   0.08    -0.02   0.00   0.02
     2   6     0.04  -0.00  -0.22    -0.05   0.00   0.09    -0.01   0.00   0.02
     3   6    -0.04  -0.04   0.00     0.02   0.17  -0.01     0.00   0.07   0.01
     4   8    -0.14  -0.14   0.08    -0.00   0.17  -0.10    -0.02   0.08  -0.04
     5   6     0.07   0.00   0.23    -0.02   0.00   0.07    -0.01   0.00  -0.02
     6   6     0.21   0.00   0.02     0.02   0.00   0.15     0.14  -0.00  -0.08
     7   6     0.06   0.13  -0.07     0.09   0.07  -0.11    -0.02   0.09   0.10
     8   6    -0.04   0.13   0.08    -0.05   0.08   0.15     0.09   0.09  -0.11
     9   6    -0.11  -0.00  -0.20    -0.02  -0.00  -0.17    -0.12  -0.00   0.02
    10   6    -0.04  -0.13   0.08    -0.05  -0.08   0.15     0.09  -0.09  -0.11
    11   6     0.06  -0.13  -0.07     0.09  -0.07  -0.11    -0.02  -0.09   0.10
    12   8    -0.14   0.14   0.08    -0.00  -0.17  -0.10    -0.02  -0.08  -0.04
    13   6    -0.04   0.04   0.00     0.02  -0.17  -0.01     0.00  -0.07   0.01
    14   1    -0.02  -0.01   0.10     0.08   0.24   0.09     0.01   0.09   0.06
    15   1    -0.02  -0.15   0.04     0.14   0.09  -0.10     0.04   0.03  -0.02
    16   1     0.10   0.00   0.24     0.12  -0.00   0.11    -0.07  -0.00  -0.02
    17   1    -0.14   0.05   0.01     0.11   0.03  -0.31    -0.25   0.05   0.39
    18   1    -0.03   0.04   0.40     0.03   0.02   0.20     0.06   0.03   0.19
    19   1    -0.14   0.00  -0.13     0.08  -0.00  -0.34    -0.33   0.00   0.42
    20   1    -0.03  -0.04   0.40     0.03  -0.02   0.20     0.06  -0.03   0.19
    21   1    -0.14  -0.05   0.01     0.11  -0.03  -0.31    -0.25  -0.05   0.39
    22   1    -0.02   0.01   0.10     0.08  -0.24   0.09     0.01  -0.09   0.06
    23   1    -0.02   0.15   0.04     0.14  -0.09  -0.10     0.04  -0.03  -0.02
                     19                     20                     21
                      A                      A                      A
 Frequencies --    754.1401               820.5538               827.6331
 Red. masses --      1.5044                 3.6684                 1.5657
 Frc consts  --      0.5041                 1.4553                 0.6319
 IR Inten    --     46.4174                 0.5104                 0.1776
  Atom  AN      X      Y      Z        X      Y      Z        X      Y      Z
     1   8    -0.01  -0.00   0.01     0.00   0.00  -0.03    -0.00  -0.00   0.00
     2   6    -0.01   0.00   0.01     0.10  -0.00   0.06    -0.00  -0.07  -0.00
     3   6     0.02   0.01  -0.02    -0.06  -0.24   0.03     0.12   0.01   0.06
     4   8     0.01  -0.02  -0.01     0.02   0.10  -0.03    -0.01   0.01  -0.05
     5   6     0.01   0.00   0.07    -0.04   0.00  -0.14     0.00   0.04   0.00
     6   6    -0.07   0.00   0.05    -0.07  -0.00   0.13     0.00   0.00  -0.00
     7   6     0.01  -0.05  -0.06     0.04   0.05  -0.02    -0.00  -0.01   0.00
     8   6    -0.01  -0.05  -0.04     0.03   0.07   0.02    -0.01  -0.00   0.00
     9   6     0.08  -0.00  -0.05    -0.01  -0.00  -0.08     0.00   0.00   0.00
    10   6    -0.01   0.05  -0.04     0.03  -0.07   0.02     0.01  -0.00  -0.00
    11   6     0.01   0.05  -0.06     0.04  -0.05  -0.02     0.00  -0.01  -0.00
    12   8     0.01   0.02  -0.01     0.02  -0.10  -0.03     0.01   0.01   0.05
    13   6     0.02  -0.01  -0.02    -0.06   0.24   0.03    -0.12   0.01  -0.06
    14   1     0.04   0.03  -0.03    -0.20  -0.38   0.18    -0.23  -0.36  -0.14
    15   1     0.03   0.01  -0.03    -0.09  -0.20   0.05    -0.03   0.52  -0.04
    16   1     0.12  -0.00   0.09    -0.02  -0.00  -0.14     0.00  -0.04   0.00
    17   1    -0.10  -0.02   0.22     0.02   0.03  -0.05     0.01  -0.01  -0.02
    18   1    -0.32  -0.01   0.41    -0.01   0.03   0.26    -0.00   0.00  -0.02
    19   1    -0.19   0.00   0.47    -0.17   0.00   0.22     0.00   0.01  -0.00
    20   1    -0.32   0.01   0.41    -0.01  -0.03   0.26     0.00   0.00   0.02
    21   1    -0.10   0.02   0.22     0.02  -0.03  -0.05    -0.01  -0.01   0.02
    22   1     0.04  -0.03  -0.03    -0.20   0.38   0.18     0.23  -0.36   0.14
    23   1     0.03  -0.01  -0.03    -0.09   0.20   0.05     0.03   0.52   0.04
                     22                     23                     24
                      A                      A                      A
 Frequencies --    876.3056               909.7921               952.0183
 Red. masses --      1.2426                 2.4747                 1.8563
 Frc consts  --      0.5622                 1.2069                 0.9913
 IR Inten    --      0.2564                13.6812                19.5934
  Atom  AN      X      Y      Z        X      Y      Z        X      Y      Z
     1   8     0.00  -0.00   0.00    -0.01   0.00  -0.01     0.01   0.00  -0.01
     2   6    -0.00  -0.00  -0.00     0.06  -0.00   0.05     0.01  -0.00  -0.01
     3   6     0.01   0.00   0.00    -0.04  -0.07  -0.00    -0.04   0.01   0.05
     4   8    -0.00   0.00  -0.00    -0.02   0.08  -0.06    -0.03   0.03  -0.03
     5   6    -0.00  -0.01  -0.00     0.10   0.00   0.18     0.13  -0.00   0.02
     6   6    -0.00   0.00  -0.00     0.10   0.00  -0.06     0.09   0.00  -0.04
     7   6     0.03  -0.00  -0.06     0.00  -0.03  -0.04    -0.05  -0.01   0.07
     8   6     0.04  -0.00  -0.07    -0.05  -0.08  -0.02    -0.04  -0.05  -0.01
     9   6     0.00   0.00  -0.00    -0.01   0.00   0.10     0.07  -0.00  -0.07
    10   6    -0.04  -0.00   0.07    -0.05   0.08  -0.02    -0.04   0.05  -0.01
    11   6    -0.03  -0.00   0.06     0.00   0.03  -0.04    -0.05   0.01   0.07
    12   8     0.00   0.00   0.00    -0.02  -0.08  -0.06    -0.03  -0.03  -0.03
    13   6    -0.01   0.00  -0.00    -0.04   0.07  -0.00    -0.04  -0.01   0.05
    14   1    -0.01  -0.01  -0.00    -0.07  -0.09   0.21    -0.06  -0.01   0.13
    15   1    -0.00   0.02   0.01     0.04  -0.14  -0.05    -0.01  -0.03   0.03
    16   1    -0.00  -0.01  -0.00     0.28  -0.00   0.22     0.16  -0.00   0.03
    17   1    -0.21   0.01   0.40    -0.19  -0.03   0.32     0.19  -0.04  -0.45
    18   1    -0.25   0.00   0.47    -0.06  -0.04  -0.16    -0.04  -0.03  -0.10
    19   1    -0.00   0.00   0.00     0.26  -0.00  -0.42    -0.25  -0.00   0.53
    20   1     0.25   0.00  -0.47    -0.06   0.04  -0.16    -0.04   0.03  -0.10
    21   1     0.21   0.01  -0.40    -0.19   0.03   0.32     0.20   0.04  -0.45
    22   1     0.01  -0.01   0.00    -0.07   0.09   0.21    -0.06   0.01   0.13
    23   1     0.00   0.02  -0.01     0.04   0.14  -0.05    -0.01   0.03   0.03
                     25                     26                     27
                      A                      A                      A
 Frequencies --    964.3629               987.2845               988.8439
 Red. masses --      3.7168                 1.3442                 3.1113
 Frc consts  --      2.0366                 0.7719                 1.7924
 IR Inten    --     47.0187                 0.1753                12.3743
  Atom  AN      X      Y      Z        X      Y      Z        X      Y      Z
     1   8    -0.00  -0.03   0.00     0.00   0.00  -0.00    -0.04   0.00   0.01
     2   6     0.00   0.03   0.00    -0.00  -0.00  -0.00     0.06  -0.00   0.09
     3   6     0.09  -0.04  -0.18    -0.01   0.00   0.01     0.03  -0.07  -0.16
     4   8     0.00  -0.08   0.10     0.00   0.00  -0.01     0.04   0.01   0.03
     5   6     0.00   0.32   0.00     0.00  -0.01  -0.00    -0.20  -0.00   0.20
     6   6     0.00   0.02  -0.00    -0.00  -0.00   0.00     0.02  -0.00  -0.10
     7   6     0.00  -0.03   0.01    -0.05   0.00   0.08    -0.01   0.01   0.03
     8   6    -0.02  -0.02  -0.03     0.04   0.00  -0.07    -0.01   0.02   0.05
     9   6     0.00   0.02  -0.00     0.00  -0.00  -0.00     0.03  -0.00  -0.08
    10   6     0.02  -0.02   0.03    -0.04   0.00   0.07    -0.01  -0.02   0.05
    11   6    -0.00  -0.03  -0.01     0.05   0.00  -0.08    -0.01  -0.01   0.03
    12   8    -0.00  -0.08  -0.10    -0.00   0.00   0.01     0.04  -0.01   0.03
    13   6    -0.09  -0.04   0.18     0.01   0.00  -0.01     0.03   0.07  -0.16
    14   1     0.17   0.02  -0.35    -0.01   0.00   0.02     0.10   0.01  -0.06
    15   1     0.07   0.03  -0.18     0.00  -0.01   0.00     0.14  -0.13  -0.25
    16   1     0.00   0.57   0.00     0.00  -0.03  -0.00    -0.26  -0.00   0.20
    17   1     0.08   0.00  -0.04     0.24  -0.01  -0.48     0.07   0.02  -0.06
    18   1    -0.11   0.01   0.04    -0.19  -0.00   0.39     0.18   0.01  -0.27
    19   1    -0.00   0.12   0.00    -0.00  -0.02   0.00    -0.24  -0.00   0.44
    20   1     0.11   0.01  -0.04     0.19  -0.00  -0.39     0.18  -0.01  -0.27
    21   1    -0.08   0.00   0.04    -0.24  -0.01   0.48     0.06  -0.02  -0.06
    22   1    -0.17   0.02   0.35     0.01   0.00  -0.02     0.10  -0.01  -0.06
    23   1    -0.07   0.03   0.18    -0.00  -0.01  -0.00     0.14   0.13  -0.25
                     28                     29                     30
                      A                      A                      A
 Frequencies --   1007.5980              1018.9417              1057.9225
 Red. masses --      1.3554                 5.9464                 2.1865
 Frc consts  --      0.8108                 3.6375                 1.4418
 IR Inten    --      3.0098                 0.4487                 4.0432
  Atom  AN      X      Y      Z        X      Y      Z        X      Y      Z
     1   8    -0.01   0.00   0.00    -0.00  -0.00   0.00    -0.00  -0.00   0.00
     2   6     0.02  -0.00   0.02    -0.01   0.00  -0.01    -0.01   0.00  -0.00
     3   6     0.00  -0.02  -0.04     0.01   0.00  -0.00     0.01  -0.00  -0.01
     4   8     0.01   0.00   0.01     0.00  -0.01   0.01    -0.00   0.00   0.01
     5   6    -0.04  -0.00   0.05    -0.00  -0.00  -0.02    -0.02  -0.00  -0.02
     6   6     0.01  -0.00  -0.02    -0.01  -0.00   0.03     0.01  -0.00   0.02
     7   6    -0.03   0.02   0.04    -0.15   0.35  -0.10     0.05   0.07   0.02
     8   6     0.03  -0.00  -0.06    -0.02  -0.04   0.01    -0.02  -0.18  -0.01
     9   6    -0.01  -0.00   0.07     0.33   0.00   0.16    -0.13  -0.00  -0.07
    10   6     0.03   0.00  -0.06    -0.02   0.04   0.01    -0.02   0.18  -0.01
    11   6    -0.03  -0.02   0.04    -0.15  -0.35  -0.10     0.05  -0.07   0.02
    12   8     0.01  -0.00   0.01     0.00   0.01   0.01    -0.00  -0.00   0.01
    13   6     0.00   0.02  -0.04     0.01  -0.00  -0.00     0.01   0.00  -0.01
    14   1     0.02   0.01   0.00     0.01  -0.00  -0.04     0.00  -0.01  -0.03
    15   1     0.04  -0.04  -0.07    -0.02   0.02   0.02    -0.00   0.02  -0.00
    16   1    -0.06  -0.00   0.05    -0.02   0.00  -0.03    -0.06   0.00  -0.03
    17   1     0.18   0.01  -0.35    -0.18   0.39   0.04     0.32   0.24   0.17
    18   1    -0.21  -0.00   0.42     0.07  -0.05  -0.06     0.26  -0.38   0.15
    19   1     0.22  -0.00  -0.38     0.30   0.00   0.24    -0.14  -0.00  -0.07
    20   1    -0.21   0.00   0.42     0.07   0.05  -0.06     0.26   0.38   0.15
    21   1     0.18  -0.01  -0.35    -0.18  -0.39   0.04     0.32  -0.24   0.17
    22   1     0.02  -0.01   0.00     0.01   0.00  -0.04     0.00   0.01  -0.03
    23   1     0.04   0.04  -0.07    -0.02  -0.02   0.02    -0.00  -0.02  -0.00
                     31                     32                     33
                      A                      A                      A
 Frequencies --   1077.2366              1096.4429              1115.3888
 Red. masses --      6.1321                 2.4450                 1.6639
 Frc consts  --      4.1926                 1.7318                 1.2196
 IR Inten    --     80.9055                 1.0718                 3.4328
  Atom  AN      X      Y      Z        X      Y      Z        X      Y      Z
     1   8    -0.00   0.03  -0.00    -0.01   0.00   0.06    -0.00  -0.00   0.00
     2   6     0.00  -0.08   0.00    -0.15  -0.00  -0.12    -0.00   0.02  -0.00
     3   6    -0.14   0.04   0.22     0.16  -0.07   0.05     0.01  -0.01  -0.02
     4   8     0.14  -0.14  -0.17    -0.03   0.03  -0.04    -0.02   0.03   0.02
     5   6    -0.00   0.34   0.00    -0.05   0.00   0.10    -0.00  -0.09  -0.00
     6   6    -0.00   0.05  -0.00     0.02  -0.00  -0.04     0.00   0.05   0.00
     7   6     0.05  -0.04   0.02    -0.01  -0.00   0.01     0.09  -0.04   0.05
     8   6    -0.04  -0.04  -0.02     0.00   0.01  -0.00    -0.05  -0.05  -0.03
     9   6    -0.00   0.06  -0.00     0.00  -0.00  -0.00    -0.00   0.08  -0.00
    10   6     0.04  -0.04   0.02     0.00  -0.01  -0.00     0.05  -0.05   0.03
    11   6    -0.05  -0.04  -0.02    -0.01   0.00   0.01    -0.09  -0.04  -0.05
    12   8    -0.14  -0.14   0.17    -0.03  -0.03  -0.04     0.02   0.03  -0.02
    13   6     0.14   0.04  -0.22     0.16   0.07   0.05    -0.01  -0.01   0.02
    14   1     0.12   0.25  -0.10    -0.17  -0.42  -0.24    -0.04  -0.05   0.06
    15   1     0.00  -0.11   0.10    -0.11   0.37   0.12    -0.02   0.01   0.01
    16   1    -0.00  -0.17   0.00     0.04  -0.00   0.12    -0.00  -0.07  -0.00
    17   1     0.21   0.06   0.14     0.02  -0.00  -0.05     0.43   0.17   0.19
    18   1    -0.16   0.03  -0.08    -0.01   0.01  -0.00    -0.24   0.06  -0.12
    19   1    -0.00   0.36  -0.00     0.00  -0.00   0.00    -0.00   0.53  -0.00
    20   1     0.16   0.03   0.08    -0.01  -0.01  -0.00     0.24   0.06   0.12
    21   1    -0.21   0.06  -0.14     0.02   0.00  -0.05    -0.43   0.17  -0.19
    22   1    -0.12   0.25   0.10    -0.17   0.42  -0.24     0.04  -0.05  -0.06
    23   1    -0.00  -0.11  -0.10    -0.11  -0.37   0.12     0.02   0.01  -0.01
                     34                     35                     36
                      A                      A                      A
 Frequencies --   1156.0449              1193.4610              1207.0297
 Red. masses --      5.7862                 1.1044                 1.1925
 Frc consts  --      4.5561                 0.9268                 1.0236
 IR Inten    --    170.2305                 0.0031                27.1414
  Atom  AN      X      Y      Z        X      Y      Z        X      Y      Z
     1   8    -0.03   0.00   0.03    -0.00  -0.00   0.00    -0.00  -0.00   0.00
     2   6    -0.01   0.00   0.01     0.00   0.00   0.00     0.00   0.00   0.00
     3   6     0.11  -0.03  -0.20     0.00  -0.00  -0.00     0.00  -0.00  -0.01
     4   8    -0.15   0.12   0.19    -0.00   0.00   0.00    -0.01   0.01   0.01
     5   6     0.19  -0.00  -0.17     0.00  -0.00   0.00     0.05  -0.00   0.01
     6   6     0.17   0.00   0.17    -0.00   0.00  -0.00    -0.05  -0.00  -0.03
     7   6     0.02  -0.03  -0.01    -0.00  -0.01  -0.00     0.03   0.03   0.02
     8   6    -0.06  -0.04  -0.03     0.03  -0.02   0.02    -0.02   0.04  -0.01
     9   6     0.03   0.00   0.02     0.00   0.07   0.00    -0.01  -0.00  -0.00
    10   6    -0.06   0.04  -0.03    -0.03  -0.02  -0.02    -0.02  -0.04  -0.01
    11   6     0.02   0.03  -0.01     0.00  -0.01   0.00     0.03  -0.03   0.02
    12   8    -0.15  -0.12   0.19     0.00   0.00  -0.00    -0.01  -0.01   0.01
    13   6     0.11   0.03  -0.20    -0.00  -0.00   0.00     0.00   0.00  -0.01
    14   1     0.10  -0.02  -0.17     0.00  -0.00  -0.01     0.00   0.00   0.01
    15   1     0.02   0.10  -0.13    -0.00  -0.00   0.01    -0.01   0.00   0.00
    16   1    -0.33  -0.00  -0.25     0.00  -0.01   0.00     0.06  -0.00   0.01
    17   1    -0.24  -0.18  -0.05    -0.13  -0.09  -0.06     0.43   0.28   0.21
    18   1    -0.22   0.05  -0.11     0.37  -0.24   0.19    -0.32   0.23  -0.17
    19   1     0.03  -0.00   0.01     0.00   0.69  -0.00    -0.01  -0.00  -0.00
    20   1    -0.22  -0.05  -0.11    -0.37  -0.24  -0.19    -0.32  -0.23  -0.17
    21   1    -0.24   0.18  -0.05     0.13  -0.09   0.06     0.43  -0.28   0.21
    22   1     0.10   0.02  -0.17    -0.00  -0.00   0.01     0.00  -0.00   0.01
    23   1     0.02  -0.10  -0.13     0.00  -0.00  -0.01    -0.01  -0.00   0.00
                     37                     38                     39
                      A                      A                      A
 Frequencies --   1232.7593              1238.5876              1263.7709
 Red. masses --      3.5260                 2.5502                 1.4832
 Frc consts  --      3.1571                 2.3050                 1.3957
 IR Inten    --    106.3739                27.4115                22.1916
  Atom  AN      X      Y      Z        X      Y      Z        X      Y      Z
     1   8     0.01  -0.00  -0.01     0.00  -0.04  -0.00    -0.00  -0.02   0.00
     2   6    -0.00   0.00  -0.01     0.00   0.30  -0.00    -0.00   0.17  -0.00
     3   6    -0.03   0.01   0.06     0.02  -0.13   0.04    -0.04  -0.05   0.01
     4   8     0.06  -0.05  -0.06    -0.02   0.02  -0.04     0.04  -0.02  -0.01
     5   6    -0.23   0.00  -0.04     0.00   0.03   0.00     0.00   0.03  -0.00
     6   6     0.27   0.00   0.17    -0.00   0.03  -0.00     0.00  -0.01   0.00
     7   6     0.06   0.02   0.03    -0.01  -0.01  -0.00    -0.00   0.00  -0.00
     8   6    -0.09  -0.05  -0.05     0.00  -0.00   0.00    -0.00   0.00  -0.00
     9   6     0.02   0.00   0.01    -0.00   0.00  -0.00     0.00  -0.00   0.00
    10   6    -0.09   0.05  -0.05    -0.00  -0.00  -0.00     0.00   0.00   0.00
    11   6     0.06  -0.02   0.03     0.01  -0.01   0.00     0.00   0.00   0.00
    12   8     0.06   0.05  -0.06     0.02   0.02   0.04    -0.04  -0.02   0.01
    13   6    -0.03  -0.01   0.06    -0.02  -0.13  -0.04     0.04  -0.05  -0.01
    14   1    -0.03  -0.01  -0.00     0.06  -0.13  -0.30    -0.26  -0.23   0.42
    15   1     0.02  -0.02   0.01    -0.34  -0.10   0.42     0.23   0.07  -0.34
    16   1    -0.38  -0.00  -0.08     0.00  -0.15   0.00    -0.00   0.12  -0.00
    17   1    -0.05  -0.06  -0.01    -0.04  -0.03  -0.03     0.01   0.01   0.02
    18   1    -0.47   0.18  -0.24    -0.03   0.01  -0.01     0.02  -0.01   0.01
    19   1     0.02  -0.00   0.00    -0.00  -0.05   0.00     0.00  -0.00   0.00
    20   1    -0.47  -0.18  -0.24     0.03   0.01   0.01    -0.02  -0.01  -0.01
    21   1    -0.05   0.06  -0.01     0.04  -0.03   0.03    -0.01   0.01  -0.02
    22   1    -0.03   0.01  -0.00    -0.06  -0.13   0.30     0.26  -0.23  -0.42
    23   1     0.02   0.02   0.01     0.34  -0.10  -0.42    -0.23   0.07   0.34
                     40                     41                     42
                      A                      A                      A
 Frequencies --   1290.5922              1337.2180              1361.8742
 Red. masses --      1.1414                 2.0581                 2.2036
 Frc consts  --      1.1201                 2.1683                 2.4080
 IR Inten    --      0.0022                 1.5179                 0.5149
  Atom  AN      X      Y      Z        X      Y      Z        X      Y      Z
     1   8    -0.01   0.00   0.02    -0.00   0.00   0.00     0.00   0.00  -0.00
     2   6    -0.05  -0.00  -0.05     0.00  -0.01   0.00    -0.00  -0.00  -0.00
     3   6    -0.01   0.02  -0.01    -0.00   0.01  -0.01    -0.00   0.00  -0.00
     4   8     0.03  -0.02   0.02     0.00  -0.00   0.03    -0.00   0.00   0.01
     5   6     0.02   0.00  -0.02     0.00   0.00   0.00    -0.00   0.01  -0.00
     6   6    -0.01   0.00   0.01    -0.00   0.24  -0.00    -0.00   0.03  -0.00
     7   6    -0.00  -0.00  -0.00    -0.03  -0.05  -0.02    -0.14  -0.07  -0.08
     8   6     0.00   0.00   0.00     0.08  -0.08   0.04     0.07  -0.03   0.04
     9   6     0.00  -0.00   0.00     0.00   0.06   0.00     0.00   0.17  -0.00
    10   6     0.00  -0.00   0.00    -0.08  -0.08  -0.04    -0.07  -0.03  -0.04
    11   6    -0.00   0.00  -0.00     0.03  -0.05   0.02     0.14  -0.07   0.08
    12   8     0.03   0.02   0.02    -0.00  -0.00  -0.03     0.00   0.00  -0.01
    13   6    -0.01  -0.02  -0.01     0.00   0.01   0.01     0.00   0.00   0.00
    14   1    -0.26  -0.19   0.40    -0.03  -0.01   0.07    -0.00  -0.00   0.00
    15   1     0.27   0.14  -0.37     0.05   0.02  -0.08     0.01  -0.01  -0.01
    16   1    -0.09  -0.00  -0.04     0.00  -0.40   0.00     0.00  -0.09   0.00
    17   1    -0.00   0.01   0.02    -0.33  -0.25  -0.17     0.42   0.30   0.22
    18   1     0.01  -0.00   0.00    -0.32   0.17  -0.17     0.18  -0.09   0.09
    19   1     0.00   0.00   0.00     0.00   0.06   0.00     0.00  -0.38   0.00
    20   1     0.01   0.00   0.00     0.32   0.17   0.17    -0.18  -0.09  -0.09
    21   1    -0.00  -0.01   0.02     0.33  -0.25   0.17    -0.42   0.30  -0.22
    22   1    -0.26   0.19   0.40     0.03  -0.01  -0.07     0.00  -0.00  -0.00
    23   1     0.27  -0.14  -0.37    -0.05   0.02   0.08    -0.01  -0.01   0.01
                     43                     44                     45
                      A                      A                      A
 Frequencies --   1364.5827              1366.2542              1397.9183
 Red. masses --      1.2531                 1.2967                 1.3770
 Frc consts  --      1.3748                 1.4261                 1.5854
 IR Inten    --     57.3563                 0.1164                19.6091
  Atom  AN      X      Y      Z        X      Y      Z        X      Y      Z
     1   8     0.01  -0.00  -0.01    -0.00  -0.00   0.00    -0.03   0.00   0.02
     2   6    -0.01   0.00  -0.01     0.00  -0.02   0.00     0.02  -0.00   0.01
     3   6    -0.02  -0.02   0.02     0.04   0.07  -0.04     0.05   0.06  -0.07
     4   8    -0.00   0.02   0.04     0.02  -0.04  -0.03     0.00  -0.02   0.02
     5   6    -0.09  -0.00  -0.06     0.00   0.00   0.00    -0.06   0.00  -0.04
     6   6     0.03  -0.00  -0.01    -0.00   0.03   0.00     0.02  -0.00  -0.01
     7   6     0.00   0.00   0.00    -0.01  -0.01  -0.00     0.00   0.00   0.00
     8   6    -0.00  -0.00  -0.00     0.01  -0.01   0.01    -0.00  -0.00  -0.00
     9   6    -0.00  -0.00  -0.00     0.00   0.01   0.00    -0.00  -0.00  -0.00
    10   6    -0.00   0.00  -0.00    -0.01  -0.01  -0.01    -0.00   0.00  -0.00
    11   6     0.00  -0.00   0.00     0.01  -0.01   0.00     0.00  -0.00   0.00
    12   8    -0.00  -0.02   0.04    -0.02  -0.04   0.03     0.00   0.02   0.02
    13   6    -0.02   0.02   0.02    -0.04   0.07   0.04     0.05  -0.06  -0.07
    14   1     0.09   0.07  -0.14    -0.23  -0.18   0.28    -0.23  -0.18   0.29
    15   1     0.14   0.12  -0.22    -0.20  -0.24   0.36    -0.20  -0.24   0.33
    16   1     0.86   0.00   0.11    -0.00   0.43  -0.00     0.46  -0.00   0.06
    17   1    -0.01  -0.01  -0.01    -0.03  -0.02  -0.02    -0.01  -0.01  -0.02
    18   1    -0.02   0.01  -0.01    -0.03   0.02  -0.02    -0.01   0.00  -0.01
    19   1    -0.00   0.00  -0.00     0.00   0.01   0.00    -0.00  -0.00  -0.00
    20   1    -0.02  -0.01  -0.01     0.03   0.02   0.02    -0.01  -0.00  -0.01
    21   1    -0.01   0.01  -0.01     0.03  -0.02   0.02    -0.01   0.01  -0.02
    22   1     0.09  -0.07  -0.14     0.23  -0.18  -0.28    -0.23   0.18   0.29
    23   1     0.14  -0.12  -0.22     0.20  -0.24  -0.36    -0.20   0.24   0.33
                     46                     47                     48
                      A                      A                      A
 Frequencies --   1408.9037              1486.6013              1493.2013
 Red. masses --      1.3224                 1.1492                 1.0817
 Frc consts  --      1.5466                 1.4963                 1.4210
 IR Inten    --      1.1458                 5.2013                 1.7213
  Atom  AN      X      Y      Z        X      Y      Z        X      Y      Z
     1   8    -0.00   0.00   0.00     0.00   0.00  -0.00     0.00   0.00   0.00
     2   6     0.00   0.00   0.00    -0.00  -0.01  -0.00     0.00  -0.00   0.00
     3   6    -0.02  -0.04   0.04     0.00  -0.04  -0.03    -0.00   0.05   0.03
     4   8     0.01   0.01  -0.04     0.01  -0.01  -0.01    -0.01   0.01   0.01
     5   6    -0.00  -0.10  -0.00    -0.00   0.01  -0.00     0.02  -0.00   0.00
     6   6    -0.00   0.03  -0.00     0.00   0.04   0.00    -0.01   0.00  -0.00
     7   6    -0.02  -0.00  -0.01     0.02  -0.02   0.01     0.00   0.00  -0.00
     8   6     0.04  -0.03   0.02    -0.03   0.00  -0.02     0.00  -0.00   0.00
     9   6     0.00   0.02   0.00     0.00   0.03  -0.00    -0.00   0.00  -0.00
    10   6    -0.04  -0.03  -0.02     0.03   0.00   0.02     0.00   0.00   0.00
    11   6     0.02  -0.00   0.01    -0.02  -0.02  -0.01     0.00  -0.00  -0.00
    12   8    -0.01   0.01   0.04    -0.01  -0.01   0.01    -0.01  -0.01   0.01
    13   6     0.02  -0.04  -0.04    -0.00  -0.04   0.03    -0.00  -0.05   0.03
    14   1     0.14   0.11  -0.14     0.22   0.23   0.37    -0.23  -0.23  -0.38
    15   1     0.04   0.12  -0.10    -0.27   0.37   0.09     0.27  -0.41  -0.07
    16   1     0.00   0.88  -0.00    -0.00   0.01   0.00    -0.03   0.00  -0.01
    17   1    -0.03  -0.01  -0.02    -0.02  -0.05  -0.01    -0.00  -0.00   0.00
    18   1    -0.10   0.07  -0.06     0.08  -0.08   0.04    -0.00   0.00  -0.00
    19   1     0.00   0.08   0.00    -0.00  -0.17   0.00    -0.00  -0.00  -0.00
    20   1     0.10   0.07   0.06    -0.08  -0.08  -0.04    -0.00  -0.00  -0.00
    21   1     0.03  -0.01   0.02     0.02  -0.05   0.01    -0.00   0.00   0.00
    22   1    -0.14   0.11   0.14    -0.22   0.23  -0.37    -0.23   0.23  -0.38
    23   1    -0.04   0.12   0.10     0.27   0.37  -0.09     0.27   0.41  -0.07
                     49                     50                     51
                      A                      A                      A
 Frequencies --   1497.3679              1541.2967              1643.3816
 Red. masses --      1.9467                 2.1990                 5.6464
 Frc consts  --      2.5717                 3.0779                 8.9846
 IR Inten    --     21.1279                 4.5182                 0.0727
  Atom  AN      X      Y      Z        X      Y      Z        X      Y      Z
     1   8     0.00  -0.00  -0.00     0.00  -0.00  -0.00     0.00  -0.00  -0.00
     2   6     0.00  -0.00   0.00     0.00  -0.00   0.00    -0.00   0.00   0.00
     3   6     0.01  -0.02  -0.02    -0.00   0.00   0.00     0.00  -0.00  -0.01
     4   8    -0.00  -0.01   0.00    -0.00   0.00  -0.00    -0.01  -0.00  -0.00
     5   6     0.00   0.05   0.00    -0.02   0.00  -0.01    -0.00   0.04  -0.00
     6   6    -0.00  -0.14  -0.00     0.12  -0.00   0.07    -0.00  -0.30   0.00
     7   6    -0.07   0.05  -0.04    -0.07  -0.10  -0.03     0.09   0.19   0.05
     8   6     0.11   0.01   0.06    -0.10   0.11  -0.05     0.06  -0.21   0.03
     9   6    -0.00  -0.12   0.00     0.09  -0.00   0.05     0.00   0.37   0.00
    10   6    -0.11   0.01  -0.06    -0.10  -0.11  -0.05    -0.06  -0.21  -0.03
    11   6     0.07   0.05   0.04    -0.07   0.10  -0.03    -0.09   0.19  -0.05
    12   8     0.00  -0.01  -0.00    -0.00  -0.00  -0.00     0.01  -0.00   0.00
    13   6    -0.01  -0.02   0.02    -0.00  -0.00   0.00    -0.00  -0.00   0.01
    14   1     0.10   0.10   0.20    -0.00  -0.00  -0.01     0.00   0.00   0.02
    15   1    -0.15   0.17   0.07     0.00  -0.01   0.00    -0.02   0.01   0.02
    16   1    -0.00  -0.18   0.00    -0.03  -0.00  -0.01     0.00  -0.10   0.00
    17   1     0.08   0.16   0.04     0.37   0.17   0.19    -0.27  -0.03  -0.14
    18   1    -0.23   0.25  -0.12     0.39  -0.20   0.21    -0.22  -0.05  -0.11
    19   1     0.00   0.57  -0.00     0.11   0.00   0.06     0.00  -0.51   0.00
    20   1     0.23   0.25   0.12     0.39   0.20   0.21     0.22  -0.05   0.11
    21   1    -0.08   0.16  -0.04     0.37  -0.17   0.19     0.27  -0.03   0.14
    22   1    -0.10   0.10  -0.20    -0.00   0.00  -0.01    -0.00   0.00  -0.02
    23   1     0.15   0.17  -0.07     0.00   0.01   0.00     0.02   0.01  -0.02
                     52                     53                     54
                      A                      A                      A
 Frequencies --   1663.1450              1832.6729              3000.7099
 Red. masses --      5.5356                12.1097                 1.0692
 Frc consts  --      9.0214                23.9637                 5.6720
 IR Inten    --      0.0343               158.7868                 4.7844
  Atom  AN      X      Y      Z        X      Y      Z        X      Y      Z
     1   8    -0.00   0.00   0.00    -0.37   0.00   0.37     0.00  -0.00  -0.00
     2   6     0.00  -0.00   0.00     0.56  -0.00  -0.56    -0.00  -0.00  -0.00
     3   6     0.00   0.00  -0.00    -0.04  -0.01   0.04    -0.03  -0.02  -0.03
     4   8    -0.00  -0.00   0.00    -0.00  -0.01   0.00     0.00  -0.00  -0.00
     5   6     0.02  -0.00   0.01    -0.00   0.00  -0.00    -0.00   0.00  -0.00
     6   6    -0.18   0.00  -0.10     0.00  -0.00  -0.00    -0.00  -0.00   0.00
     7   6     0.26   0.08   0.14     0.00  -0.00  -0.00    -0.00  -0.00   0.00
     8   6    -0.24   0.07  -0.13    -0.00   0.00  -0.00     0.00  -0.00   0.00
     9   6     0.13  -0.00   0.07     0.00   0.00   0.00     0.00   0.00  -0.00
    10   6    -0.24  -0.07  -0.13    -0.00  -0.00  -0.00    -0.00  -0.00  -0.00
    11   6     0.26  -0.08   0.14     0.00   0.00  -0.00     0.00  -0.00  -0.00
    12   8    -0.00   0.00   0.00    -0.00   0.01   0.00    -0.00  -0.00   0.00
    13   6     0.00  -0.00  -0.00    -0.04   0.01   0.04     0.03  -0.02   0.03
    14   1    -0.00  -0.00   0.01     0.12   0.12  -0.11    -0.10   0.08  -0.01
    15   1    -0.00  -0.00  -0.00     0.02   0.01  -0.03     0.49   0.20   0.45
    16   1     0.05   0.00   0.01     0.01  -0.00   0.00    -0.00  -0.00   0.00
    17   1    -0.26  -0.27  -0.14    -0.00  -0.00   0.00    -0.00   0.00   0.00
    18   1     0.22  -0.24   0.12     0.00  -0.00  -0.00     0.00   0.00  -0.00
    19   1     0.14   0.00   0.07    -0.00  -0.00  -0.00    -0.00   0.00  -0.00
    20   1     0.22   0.24   0.12     0.00   0.00  -0.00    -0.00   0.00   0.00
    21   1    -0.26   0.27  -0.14    -0.00   0.00   0.00     0.00   0.00  -0.00
    22   1    -0.00   0.00   0.01     0.12  -0.12  -0.11     0.10   0.08   0.01
    23   1    -0.00   0.00  -0.00     0.02  -0.01  -0.03    -0.49   0.20  -0.45
                     55                     56                     57
                      A                      A                      A
 Frequencies --   3004.7499              3097.8790              3134.9170
 Red. masses --      1.0708                 1.0868                 1.0918
 Frc consts  --      5.6961                 6.1454                 6.3219
 IR Inten    --     36.8251                22.6973                 6.1043
  Atom  AN      X      Y      Z        X      Y      Z        X      Y      Z
     1   8     0.00   0.00  -0.00     0.00  -0.00  -0.00     0.00   0.00  -0.00
     2   6    -0.00   0.00  -0.00    -0.00  -0.00   0.00    -0.00   0.00   0.00
     3   6    -0.03  -0.02  -0.03     0.00  -0.00   0.00     0.05  -0.04   0.01
     4   8     0.00  -0.00  -0.00     0.00  -0.00  -0.00     0.00  -0.00  -0.00
     5   6    -0.00  -0.00  -0.00     0.02  -0.00  -0.08     0.00   0.00  -0.00
     6   6    -0.00   0.00   0.00    -0.00   0.00  -0.00    -0.00  -0.00   0.00
     7   6     0.00   0.00   0.00     0.00  -0.00   0.00     0.00  -0.00   0.00
     8   6    -0.00   0.00   0.00    -0.00  -0.00  -0.00    -0.00   0.00  -0.00
     9   6     0.00  -0.00   0.00    -0.00   0.00  -0.00    -0.00  -0.00  -0.00
    10   6    -0.00  -0.00   0.00    -0.00   0.00  -0.00     0.00   0.00   0.00
    11   6     0.00  -0.00   0.00     0.00   0.00   0.00    -0.00  -0.00  -0.00
    12   8     0.00   0.00  -0.00     0.00   0.00  -0.00    -0.00   0.00   0.00
    13   6    -0.03   0.02  -0.03     0.00   0.00   0.00    -0.05  -0.04  -0.01
    14   1    -0.10   0.08  -0.01    -0.02   0.02  -0.00    -0.49   0.49  -0.04
    15   1     0.49   0.20   0.45    -0.01  -0.01  -0.01    -0.08  -0.04  -0.07
    16   1    -0.00   0.00   0.02    -0.18   0.00   0.98    -0.00   0.00   0.00
    17   1    -0.00  -0.00  -0.00    -0.00   0.01  -0.00    -0.00   0.00  -0.00
    18   1    -0.00  -0.00  -0.00    -0.00   0.00  -0.00    -0.00  -0.00  -0.00
    19   1    -0.00  -0.00  -0.00     0.00   0.00   0.00     0.00  -0.00   0.00
    20   1    -0.00   0.00  -0.00    -0.00  -0.00  -0.00     0.00  -0.00   0.00
    21   1    -0.00   0.00  -0.00    -0.00  -0.01  -0.00     0.00   0.00   0.00
    22   1    -0.10  -0.08  -0.01    -0.02  -0.02  -0.00     0.49   0.49   0.04
    23   1     0.49  -0.20   0.45    -0.01   0.01  -0.01     0.08  -0.04   0.07
                     58                     59                     60
                      A                      A                      A
 Frequencies --   3135.8410              3183.6536              3192.4069
 Red. masses --      1.0933                 1.0851                 1.0884
 Frc consts  --      6.3340                 6.4799                 6.5352
 IR Inten    --     17.5499                 0.2753                 8.8265
  Atom  AN      X      Y      Z        X      Y      Z        X      Y      Z
[...]
 ,-0.00002059,0.00000590,-0.00000464,-0.00001946,-0.00002394,0.00002838
 ,0.00009548,0.00000753,0.00004950,-0.00010612,-0.00038736,0.00137963,0
 .00170801,-0.00000332,-0.00302043,-0.00240016,-0.00088094,0.11863038,0
 .00014133,0.00489881,-0.00274670,0.01433056,-0.02521551,0.01721468,0.0
 8497489,-0.18491848,0.11062341,0.00435232,0.00014923,-0.00177888,-0.00
 122306,0.00159728,-0.00066990,0.00003136,0.00000918,-0.00002026,-0.000
 05426,-0.00000460,-0.00002973,-0.00000055,-0.00001983,0.00010297,0.000
 01080,0.00006365,0.00002001,-0.00001674,-0.00000349,-0.00007030,0.0000
 2687,-0.00006476,0.00008153,0.00053034,0.00042631,0.00016222,-0.004411
 78,-0.00197819,-0.00243402,-0.09466326,0.19686419,0.00128782,0.0003386
 4,-0.00027648,-0.00012994,-0.00590336,0.00271178,-0.07110479,0.1127453
 0,-0.13418505,0.01078720,-0.01362173,0.00935491,0.00304269,0.00045552,
 -0.00072662,-0.00019326,-0.00028341,-0.00014152,-0.00032043,0.00008463
 ,-0.00003539,0.00001875,-0.00002090,0.00022667,0.00002567,0.00015348,0
 .00000843,-0.00005486,-0.00010324,-0.00013269,0.00008669,-0.00014318,0
 .00030132,-0.00034035,-0.00021406,0.00018542,-0.00006962,-0.00063446,-
 0.00055022,0.06897536,-0.11500392,0.13928792,-0.00038174,-0.00067368,0
 .00274140,0.00004889,-0.00358413,-0.01669582,-0.04655468,-0.00598887,-
 0.02284913,-0.01513809,0.01365242,0.03856993,0.00356569,-0.00499287,0.
 00366441,-0.00030964,0.00116927,-0.00059213,-0.00042150,0.00034629,-0.
 00053682,-0.00001238,-0.00017572,-0.00020101,-0.00007515,0.00000361,-0
 .00005063,-0.00009700,-0.00005734,-0.00003525,0.00012370,-0.00025237,-
 0.00022667,0.00034212,0.00179374,-0.00036057,-0.00086704,-0.00073448,0
 .00189862,0.00112997,-0.00474319,-0.01238250,0.05954212,-0.00146805,-0
 .00051539,0.00365594,-0.00330602,-0.00850241,-0.03108140,-0.00486679,-
 0.07417378,-0.07468590,0.00470705,0.00310047,-0.00151070,-0.00080204,0
 .00019242,-0.00224484,-0.00017392,0.00020313,0.00031731,-0.00007398,0.
 00042252,-0.00000555,0.00003161,-0.00014897,0.00035012,0.00000826,0.00
 023219,0.00001268,0.00001418,-0.00010083,-0.00021973,0.00004228,-0.000
 35370,0.00018160,0.00017214,0.00060314,-0.00017723,-0.00072151,-0.0006
 9072,0.00509888,0.00147364,0.00899312,0.02280450,0.00485506,0.07211385
 ,0.00012734,-0.00040737,0.00101534,-0.00228315,-0.00214584,-0.00180170
 ,-0.01597428,-0.06609487,-0.26844086,0.01649459,-0.00531617,-0.0099369
 3,-0.00171153,0.00455539,-0.00112998,-0.00062554,-0.00032164,-0.000004
 28,-0.00096918,-0.00022755,-0.00018114,-0.00002692,-0.00009821,0.00037
 366,0.00004013,0.00040655,-0.00000426,-0.00016023,-0.00024827,-0.00036
 700,0.00042921,-0.00026912,0.00073967,-0.00052876,-0.00129342,0.000334
 87,0.00019844,0.00022500,-0.00143700,-0.00241098,-0.00595011,-0.016196
 85,0.00738689,0.07749808,0.29656280,-0.00045859,0.,0.00005300,0.000875
 12,0.,-0.00006542,0.00173888,0.00273993,-0.00125690,-0.02178774,0.0115
 1749,0.00725908,-0.21983313,-0.00000002,0.11901761,0.00878913,0.,-0.00
 342521,0.00021015,-0.00012711,-0.00036549,-0.00033731,0.00031907,0.000
 34256,-0.00013853,0.,-0.00051349,-0.00033731,-0.00031907,0.00034255,0.
 00021015,0.00012711,-0.00036548,-0.02178774,-0.01151749,0.00725909,0.0
 0173887,-0.00273993,-0.00125691,-0.00072311,0.00007331,0.00035197,-0.0
 0050869,0.00008727,0.00024106,0.25343922,0.,0.00128238,0.,0.,-0.002579
 93,0.,0.00111223,-0.00322506,0.00192894,0.03529111,-0.01003789,-0.0121
 1999,0.,-0.04413172,0.00000001,0.,0.00578320,0.,-0.00047095,-0.0003087
 7,-0.00007703,0.00029270,-0.00015575,0.00064226,0.,0.00067708,0.,-0.00
 029269,-0.00015575,-0.00064226,0.00047095,-0.00030877,0.00007703,-0.03
 529111,-0.01003789,0.01212000,-0.00111225,-0.00322507,-0.00192895,0.00
 131295,0.00000230,-0.00053408,0.00025798,-0.00003577,-0.00022121,0.000
 00002,0.06670361,-0.00026944,0.,-0.00005500,0.00019939,0.,0.00002837,-
 0.00165173,0.00173095,0.00072300,-0.01150456,0.00290424,0.00828539,0.1
 3760337,0.00000002,-0.14133230,0.02047614,0.00000002,-0.02333278,-0.00
 023857,0.00151241,-0.00012484,-0.00140027,0.00035919,-0.00018568,0.000
 04871,0.,-0.00038607,-0.00140028,-0.00035919,-0.00018568,-0.00023857,-
 0.00151242,-0.00012483,-0.01150457,-0.00290427,0.00828538,-0.00165173,
 -0.00173095,0.00072300,-0.00034128,0.00007105,0.00015468,-0.00052081,0
 .00012408,0.00013441,-0.12813922,0.,0.14789562,0.00018119,0.00015797,-
 0.00001759,-0.00025467,-0.00042516,0.00016479,-0.00036749,-0.00039032,
 -0.00062774,-0.00091110,0.00080615,-0.00045202,-0.00288188,-0.00090020
 ,0.00120914,0.00389295,-0.00348641,0.00281912,-0.04407415,0.03184465,-
 0.02366578,0.00165012,0.00843571,-0.00397373,0.00625664,-0.00049388,-0
 .00362543,-0.00042822,-0.00024433,-0.00016363,0.00562267,-0.00097122,-
 0.00234290,-0.00012780,0.00021617,-0.00029697,0.00016697,0.00008177,-0
 .00011449,-0.00001814,0.00000322,0.00002684,-0.00065727,-0.00017467,-0
 .00002514,0.00004250,0.00002473,0.00065642,0.03588788,0.00023573,0.000
 26856,0.00000511,-0.00017259,-0.00069108,0.00002442,-0.00074285,0.0004
 7543,-0.00000723,0.00081085,0.00211625,0.00088822,0.00142225,-0.002049
 06,0.00216572,0.00392311,-0.02007758,0.01419434,0.03153047,-0.26986877
 ,0.11681224,-0.00052348,0.00454061,-0.00200387,-0.00030185,0.00152451,
 -0.00058347,-0.00026487,0.00023140,-0.00077079,-0.00133235,-0.00301260
 ,-0.00407225,-0.00011794,0.00057855,-0.00036568,0.00008746,0.00000994,
 0.00014370,0.00004815,0.00001452,0.00009524,-0.00034588,-0.00003175,0.
 00005339,-0.00009276,-0.00009365,-0.00041934,-0.03465177,0.28612042,0.
 00019815,0.00007926,0.00000687,0.00006774,-0.00007985,-0.00010411,-0.0
 0136326,-0.00003064,0.00015192,0.00002243,0.00006704,-0.00105307,0.001
 24239,-0.00103207,-0.00039198,0.00229466,-0.01256380,0.01214506,-0.024
 10688,0.11783449,-0.12332575,-0.00340484,0.02743124,-0.00969206,-0.003
 53904,-0.00158858,-0.00428483,-0.00009938,-0.00077175,-0.00065761,-0.0
 0216524,-0.00302980,-0.00104691,0.00024146,0.00075870,0.00036869,-0.00
 024931,-0.00010390,0.00022806,0.00006249,-0.00003205,-0.00007454,0.000
 34737,-0.00000009,-0.00005757,-0.00003427,-0.00002323,-0.00022703,0.02
 875905,-0.12721596,0.12733936,-0.00006043,0.00003266,0.00001027,0.0000
 3756,-0.00007718,0.00001004,0.00014886,-0.00001681,-0.00013617,-0.0002
 1729,0.00013578,-0.00004133,0.00040378,-0.00055814,0.00023862,0.006250
 84,0.00059647,-0.00380962,0.00105070,-0.00870151,-0.00408352,-0.044372
 70,-0.03656388,-0.02636026,0.00340670,0.00453573,0.00257918,0.00632550
 ,0.00080630,-0.00232394,-0.00033655,0.00022992,-0.00002999,-0.00011387
 ,-0.00005577,-0.00002887,0.00002642,0.00001099,0.00001696,-0.00001437,
 0.00000546,-0.00000193,0.00003342,-0.00000939,0.00004152,0.00001630,0.
 00007245,-0.00004133,-0.00356774,0.00017503,0.00144352,0.03534305,-0.0
 0009658,0.00001547,-0.00000065,0.00009413,-0.00003178,0.00001940,0.000
 11647,-0.00001614,-0.00004057,-0.00017219,0.00007572,-0.00010945,0.000
 22576,0.00004802,0.00045985,0.00006216,0.00158026,0.00049996,0.0005254
 2,0.00391266,0.00182732,-0.03635950,-0.27066230,-0.11418744,-0.0049058
 3,-0.01902071,-0.01556014,0.00119861,-0.00295397,0.00411929,0.00027669
 ,0.00021852,0.00085376,-0.00010852,-0.00001939,-0.00007923,0.00009654,
 0.00002603,-0.00000519,-0.00001342,0.00000425,-0.00000633,0.00001268,-
 0.00001148,0.00000687,-0.00003771,-0.00001211,-0.00007679,-0.00005282,
 0.00083465,-0.00032034,0.03930835,0.28605615,-0.00011403,0.00004156,-0
 .00001146,0.00007860,-0.00008645,0.00005831,0.00019505,-0.00001422,-0.
 00007176,-0.00024121,0.00025538,-0.00005533,0.00015225,-0.00139949,0.0
 0089216,-0.00349772,0.00157341,-0.00477763,-0.00396881,-0.02816690,-0.
 00989353,-0.02661720,-0.11419478,-0.12061110,0.00281712,0.01466272,0.0
 1144403,-0.00235793,0.00289064,-0.00055601,-0.00013198,0.00089461,-0.0
 0076353,-0.00053513,-0.00040143,-0.00075670,0.00032388,0.00006026,-0.0
 0013468,-0.00003502,0.00000596,-0.00000556,-0.00002194,-0.00003496,0.0
 0003196,0.00000035,0.00002550,-0.00013359,0.00142808,0.00028871,0.0006
 9215,0.03082488,0.12333080,0.12361297,-0.00004498,0.,0.00001198,0.0000
 5394,0.,0.00000959,0.00011411,-0.00001391,-0.00002936,-0.00015011,0.00
 004485,-0.00014671,-0.00095561,0.,0.00045780,-0.00041606,0.,0.00035572
 ,0.00670268,0.00091944,-0.00183916,0.00128390,-0.00076059,-0.00394599,
 -0.06218573,-0.00000001,-0.08494718,0.00128394,0.00076059,-0.00394599,
 0.00670270,-0.00091944,-0.00183917,-0.00015011,-0.00004485,-0.00014671
 ,0.00011411,0.00001391,-0.00002936,-0.00000563,0.00000212,-0.00000037,
 0.00001154,0.00000630,0.00001369,0.00002483,0.,0.00016531,0.00012457,-
 0.00009035,-0.00026177,-0.00344323,0.00010238,0.00133372,0.05424787,0.
 ,0.00003539,0.,0.,-0.00008873,0.,-0.00004683,0.00001545,-0.00001493,0.
 00002845,0.00020443,0.00004160,0.,-0.00016630,0.,0.,-0.00137039,0.,0.0
 0049815,-0.00476925,0.00190905,0.00855172,0.00501195,0.02775039,0.,-0.
 06079652,0.,-0.00855175,0.00501189,-0.02775047,-0.00049815,-0.00476925
 ,-0.00190905,-0.00002845,0.00020443,-0.00004160,0.00004683,0.00001545,
 0.00001493,-0.00000130,0.00000327,0.00000502,-0.00002659,-0.00000373,0
 .00000990,0.,-0.00000120,0.,0.00042729,0.00011931,0.00137288,-0.000126
 72,0.00102762,-0.00048001,0.00000001,0.05916970,-0.00013238,0.,-0.0000
 0271,0.00012330,0.,0.00001140,0.00010310,-0.00003059,-0.00001420,-0.00
 014336,0.00000497,-0.00010366,0.00034611,0.,0.00012718,0.00037855,0.,0
 .00057866,-0.00184845,0.00302385,0.00116203,-0.00396743,-0.00255687,-0
 .01041584,-0.08488326,-0.00000003,-0.31353567,-0.00396745,0.00255683,-
 0.01041587,-0.00184846,-0.00302384,0.00116204,-0.00014336,-0.00000498,
 -0.00010366,0.00010310,0.00003059,-0.00001420,-0.00001544,0.00000379,-
 0.00000721,0.00002677,-0.00001147,0.00000222,-0.00000400,0.,-0.0000705
 1,-0.00023806,-0.00018991,-0.00054948,0.00131940,0.00022735,0.00046913
 ,0.09369867,0.00000006,0.33180569,-0.00006043,-0.00003266,0.00001027,0
 .00003756,0.00007718,0.00001004,0.00002642,-0.00001099,0.00001696,-0.0
 0011387,0.00005577,-0.00002886,0.00040377,0.00055814,0.00023862,0.0062
 5082,-0.00059647,-0.00380962,-0.00033655,-0.00022992,-0.00002999,0.006
 32552,-0.00080630,-0.00232394,0.00340667,-0.00453570,0.00257918,-0.044
 37269,0.03656388,-0.02636028,0.00105070,0.00870151,-0.00408354,-0.0002
 1729,-0.00013578,-0.00004133,0.00014886,0.00001681,-0.00013617,-0.0000
 3266,-0.00000757,-0.00000775,-0.00005322,-0.00001124,-0.00004611,0.000
 01630,-0.00007245,-0.00004133,-0.00113698,0.00006019,0.00037883,0.0003
 0593,-0.00024163,0.00004759,-0.00344324,0.00012672,0.00131940,0.035343
 05,0.00009658,0.00001547,0.00000065,-0.00009413,-0.00003178,-0.0000194
 0,-0.00009654,0.00002603,0.00000519,0.00010851,-0.00001939,0.00007923,
 -0.00022576,0.00004802,-0.00045985,-0.00006216,0.00158025,-0.00049996,
 -0.00027669,0.00021852,-0.00085376,-0.00119860,-0.00295397,-0.00411928
 ,0.00490584,-0.01902063,0.01556016,0.03635953,-0.27066228,0.11418749,-
 0.00052543,0.00391268,-0.00182733,0.00017219,0.00007572,0.00010945,-0.
 00011647,-0.00001614,0.00004057,0.00001189,-0.00000229,0.00000296,-0.0
 0000674,0.00000940,-0.00000849,0.00003771,-0.00001211,0.00007679,0.000
 02585,0.00000109,0.00011652,0.00024163,-0.00107968,0.00084747,-0.00010
 238,0.00102762,-0.00022735,-0.03930838,0.28605604,-0.00011403,-0.00004
 156,-0.00001146,0.00007860,0.00008645,0.00005831,0.00032388,-0.0000602
 6,-0.00013468,-0.00053513,0.00040143,-0.00075670,0.00015225,0.00139949
 ,0.00089216,-0.00349771,-0.00157342,-0.00477765,-0.00013198,-0.0008946
 1,-0.00076353,-0.00235793,-0.00289063,-0.00055600,0.00281713,-0.014662
 67,0.01144403,-0.02661721,0.11419477,-0.12061112,-0.00396884,0.0281669
 3,-0.00989360,-0.00024121,-0.00025538,-0.00005533,0.00019505,0.0000142
 2,-0.00007176,-0.00003774,0.00000641,0.00001263,-0.00002189,-0.0000186
 0,0.00005854,0.00000035,-0.00002550,-0.00013359,0.00037908,0.00011095,
 -0.00000547,0.00004759,-0.00084747,0.00050446,0.00133373,0.00048001,0.
 00046913,0.03082491,-0.12333086,0.12361308,0.00018119,-0.00015797,-0.0
 0001759,-0.00025467,0.00042515,0.00016479,0.00016697,-0.00008177,-0.00
 011449,-0.00012779,-0.00021616,-0.00029698,-0.00288191,0.00090020,0.00
 120915,0.00389299,0.00348648,0.00281912,0.00562270,0.00097122,-0.00234
 293,-0.00042821,0.00024433,-0.00016363,0.00625663,0.00049388,-0.003625
 42,0.00165010,-0.00843571,-0.00397368,-0.04407396,-0.03184500,-0.02366
 593,-0.00091109,-0.00080615,-0.00045201,-0.00036748,0.00039032,-0.0006
 2774,-0.00001439,-0.00001501,0.00000468,0.00004637,-0.00004890,0.00001
 167,0.00004250,-0.00002473,0.00065643,0.00056798,0.00029662,0.00008463
 ,-0.00113699,-0.00002585,0.00037909,0.00012457,-0.00042728,-0.00023806
 ,-0.00356773,0.00005282,0.00142808,0.03588765,-0.00023573,0.00026856,-
 0.00000511,0.00017259,-0.00069108,-0.00002442,-0.00008746,0.00000994,-
 0.00014370,0.00011794,0.00057855,0.00036568,-0.00142225,-0.00204904,-0
 .00216571,-0.00392310,-0.02007764,-0.01419430,0.00133235,-0.00301258,0
 .00407225,0.00026486,0.00023139,0.00077079,0.00030185,0.00152451,0.000
 58347,0.00052348,0.00454061,0.00200387,-0.03153077,-0.26987065,-0.1168
 1294,-0.00081084,0.00211624,-0.00088821,0.00074284,0.00047542,0.000007
 23,0.00000191,0.00003000,0.00002095,-0.00004873,0.00003112,0.00002054,
 0.00009275,-0.00009365,0.00041934,-0.00029662,-0.00107188,-0.00088797,
 -0.00006019,0.00000109,-0.00011096,0.00009035,0.00011931,0.00018991,-0
 .00017503,0.00083464,-0.00028871,0.03465206,0.28612236,0.00019815,-0.0
 0007926,0.00000687,0.00006774,0.00007985,-0.00010411,-0.00024931,0.000
 10390,0.00022806,0.00024146,-0.00075870,0.00036869,0.00124240,0.001032
 07,-0.00039198,0.00229465,0.01256390,0.01214509,-0.00216525,0.00302980
 ,-0.00104691,-0.00009938,0.00077175,-0.00065761,-0.00353904,0.00158858
 ,-0.00428484,-0.00340482,-0.02743125,-0.00969198,-0.02410701,-0.117835
 22,-0.12332571,0.00002245,-0.00006705,-0.00105304,-0.00136326,0.000030
 64,0.00015193,0.00004122,-0.00001361,-0.00001918,0.00004007,-0.0000062
 7,-0.00004335,-0.00003427,0.00002323,-0.00022703,0.00008462,0.00088797
 ,0.00060084,0.00037883,-0.00011652,-0.00000547,-0.00026177,-0.00137289
 ,-0.00054948,0.00144352,0.00032034,0.00069215,0.02875915,0.12721663,0.
 12733918,0.00069699,-0.00091803,-0.00087453,0.00973032,0.01157752,0.00
 996589,-0.00302042,0.00240016,-0.00088094,0.00137962,-0.00170802,-0.00
 000332,-0.00446724,0.00541100,0.00196303,0.00002937,-0.00047397,0.0005
 8333,0.00004950,0.00010612,-0.00038736,0.00002838,-0.00009548,0.000007
 53,-0.00000464,0.00001946,-0.00002394,-0.00001482,0.00002059,0.0000059
 0,0.00010819,-0.00007959,-0.00010350,-0.02758041,-0.02894930,-0.012267
 22,-0.09657635,-0.07959075,-0.06417896,0.00064271,0.00065680,0.0000086
 3,0.00004670,-0.00020573,-0.00005294,-0.00072311,-0.00131295,-0.000341
 28,-0.00001439,-0.00000191,0.00004122,-0.00003266,-0.00001189,-0.00003
 774,-0.00000563,0.00000130,-0.00001544,-0.00001437,0.00001342,-0.00003
 502,-0.00001814,-0.00004815,0.00006249,0.11863045,-0.00014133,0.004898
 81,0.00274670,-0.01433056,-0.02521555,-0.01721468,0.00441178,-0.001978
 19,0.00243402,-0.00053034,0.00042631,-0.00016222,0.00122306,0.00159728
 ,0.00066990,-0.00003136,0.00000918,0.00002026,-0.00002687,-0.00006476,
 -0.00008153,0.00001674,-0.00000349,0.00007030,-0.00001080,0.00006365,-
 0.00002001,0.00000055,-0.00001983,-0.00010297,0.00005426,-0.00000460,0
 .00002973,-0.00435234,0.00014923,0.00177889,-0.08497465,-0.18491792,-0
 .11062291,-0.00065680,-0.00104874,-0.00017223,0.00000397,0.00019975,-0
 .00028521,-0.00007331,0.00000229,-0.00007105,0.00001501,0.00003000,0.0
 0001361,0.00000757,-0.00000229,-0.00000641,-0.00000212,0.00000327,-0.0
 0000379,-0.00000546,0.00000425,-0.00000596,-0.00000322,0.00001452,0.00
 003205,0.09466303,0.19686368,0.00128782,-0.00033863,-0.00027648,-0.000
 12994,0.00590335,0.00271177,-0.00006962,0.00063446,-0.00055022,-0.0003
 4034,0.00021406,0.00018542,0.00304269,-0.00045552,-0.00072662,-0.00019
 326,0.00028341,-0.00014152,0.00008669,0.00014318,0.00030132,-0.0000548
 6,0.00010324,-0.00013269,0.00002567,-0.00015348,0.00000843,0.00001875,
 0.00002090,0.00022666,-0.00032043,-0.00008463,-0.00003539,0.01078720,0
 .01362173,0.00935491,-0.07110458,-0.11274480,-0.13418479,0.00000863,0.
 00017223,0.00003272,-0.00001052,0.00006532,0.00007484,0.00035197,0.000
 53408,0.00015468,0.00000468,-0.00002095,-0.00001918,-0.00000775,-0.000
 00296,0.00001263,-0.00000037,-0.00000502,-0.00000721,-0.00000193,0.000
 00633,-0.00000556,0.00002684,-0.00009524,-0.00007454,0.06897515,0.1150
 0343,0.13928764,-0.00038175,0.00067368,0.00274141,0.00004890,0.0035841
 3,-0.01669585,-0.00086704,0.00073448,0.00189863,0.00034212,-0.00179375
 ,-0.00036057,0.00356569,0.00499288,0.00366441,-0.00030964,-0.00116927,
 -0.00059213,0.00012370,0.00025237,-0.00022667,-0.00009700,0.00005734,-
 0.00003525,-0.00007515,-0.00000361,-0.00005063,-0.00001238,0.00017572,
 -0.00020101,-0.00042151,-0.00034628,-0.00053682,-0.01513800,-0.0136524
 1,0.03856993,-0.04655469,0.00598881,-0.02284898,0.00004670,-0.00000397
 ,-0.00001052,0.00018591,0.00046445,-0.00016977,-0.00050869,-0.00025798
 ,-0.00052081,0.00004637,0.00004873,0.00004007,-0.00005322,0.00000674,-
 0.00002189,0.00001154,0.00002659,0.00002677,0.00003342,-0.00001268,-0.
 00002194,-0.00065727,0.00034588,0.00034737,0.00112997,0.00474319,-0.01
 238251,0.05954204,0.00146806,-0.00051540,-0.00365594,0.00330605,-0.008
 50242,0.03108144,0.00072150,-0.00069072,-0.00509889,-0.00017214,0.0006
 0314,0.00017723,0.00080205,0.00019242,0.00224485,0.00017392,0.00020313
 ,-0.00031732,-0.00004228,-0.00035370,-0.00018160,-0.00001418,-0.000100
 82,0.00021973,-0.00000826,0.00023219,-0.00001268,-0.00003161,-0.000148
 96,-0.00035012,0.00007398,0.00042252,0.00000555,-0.00470704,0.00310047
 ,0.00151067,0.00486672,-0.07417362,0.07468594,0.00020573,0.00019976,-0
 .00006532,-0.00046445,-0.00153259,0.00011178,-0.00008727,-0.00003577,-
 0.00012408,0.00004890,0.00003112,0.00000627,0.00001124,0.00000940,0.00
 001860,-0.00000630,-0.00000373,0.00001147,0.00000939,-0.00001148,0.000
 03496,0.00017467,-0.00003175,0.00000009,-0.00147364,0.00899311,-0.0228
 0451,-0.00485503,0.07211373,0.00012733,0.00040737,0.00101534,-0.002283
 15,0.00214586,-0.00180174,0.00019844,-0.00022500,-0.00143700,-0.000528
 76,0.00129342,0.00033487,-0.00171153,-0.00455539,-0.00112997,-0.000625
 54,0.00032165,-0.00000428,0.00042921,0.00026912,0.00073966,-0.00016023
 ,0.00024827,-0.00036700,0.00004013,-0.00040656,-0.00000426,-0.00002692
 ,0.00009821,0.00037367,-0.00096918,0.00022755,-0.00018114,0.01649456,0
 .00531615,-0.00993692,-0.01597412,0.06609493,-0.26844152,-0.00005294,0
 .00028521,0.00007484,-0.00016977,-0.00011178,0.00027261,0.00024106,0.0
 0022121,0.00013441,0.00001167,-0.00002054,-0.00004335,-0.00004611,0.00
 000849,0.00005854,0.00001369,-0.00000990,0.00000222,0.00004152,-0.0000
 0687,0.00003196,-0.00002514,-0.00005339,-0.00005757,-0.00241098,0.0059
 5010,-0.01619682,0.00738677,-0.07749813,0.29656345\\0.00011958,-0.0000
 0006,0.00000572,-0.00006321,-0.00000004,0.00003157,-0.00008387,-0.0000
 0646,-0.00002185,0.00005532,-0.00001782,-0.00003114,-0.00001188,-0.000
 00005,0.00000827,-0.00002959,0.00000059,-0.00000447,0.00003335,0.00000
 629,0.00001327,-0.00000479,-0.00002095,0.00000048,-0.00000157,-0.00000
 022,-0.00002452,-0.00000501,0.00002070,-0.00000025,0.00003356,-0.00000
 599,0.00001437,0.00005554,0.00001793,-0.00003090,-0.00008463,0.0000064
 7,-0.00002224,-0.00000235,0.00000772,0.00000561,-0.00000026,-0.0000016
 8,0.00001943,0.00001010,0.00000003,0.00000859,-0.00000509,0.00000482,-
 0.00000283,-0.00000670,0.00001309,0.00000086,0.00000552,0.00000010,0.0
 0000669,-0.00000664,-0.00001299,0.00000103,-0.00000511,-0.00000545,-0.
 00000310,-0.00000219,-0.00000757,0.00000581,-0.00000009,0.00000154,0.0
 0001959\\\@


 We make a living by what we get,
 we make a life by what we give.
                   -- Sir Winston Churchill
 Job cpu time:       0 days  0 hours  2 minutes  4.7 seconds.
 Elapsed time:       0 days  0 hours  2 minutes 14.2 seconds.
 File lengths (MBytes):  RWF=    135 Int=      0 D2E=      0 Chk=     16 Scr=      1
 Normal termination of Gaussian 16 at Sat Feb 24 03:50:03 2024.
