 Entering Gaussian System, Link 0=g16
 Input=/Volumes/SSD-PMU3/b3lyp_6-31gd_freq/ZDCYWXYPRPCJOY-NKWVEPMBSA-N_calculating/gaussianinput1.gjf
 Output=/Volumes/SSD-PMU3/b3lyp_6-31gd_freq/ZDCYWXYPRPCJOY-NKWVEPMBSA-N_calculating/gaussianinput1.log
 Initial command:
 /Applications/g16/l1.exe "/Users/macmini_m1_2022/PycharmProjects/sphere_model/sphere_model_lib/Gau-51998.inp" -scrdir="/Users/macmini_m1_2022/PycharmProjects/sphere_model/sphere_model_lib/"
 Entering Link 1 = /Applications/g16/l1.exe PID=     51999.
  
 Copyright (c) 1988,1990,1992,1993,1995,1998,2003,2009,2016,
            Gaussian, Inc.  All Rights Reserved.
  
 This is part of the Gaussian(R) 16 program.  It is based on
 the Gaussian(R) 09 system (copyright 2009, Gaussian, Inc.),
 the Gaussian(R) 03 system (copyright 2003, Gaussian, Inc.),
 the Gaussian(R) 98 system (copyright 1998, Gaussian, Inc.),
 the Gaussian(R) 94 system (copyright 1995, Gaussian, Inc.),
 the Gaussian 92(TM) system (copyright 1992, Gaussian, Inc.),
 the Gaussian 90(TM) system (copyright 1990, Gaussian, Inc.),
 the Gaussian 88(TM) system (copyright 1988, Gaussian, Inc.),
 the Gaussian 86(TM) system (copyright 1986, Carnegie Mellon
 University), and the Gaussian 82(TM) system (copyright 1983,
 Carnegie Mellon University). Gaussian is a federally registered
 trademark of Gaussian, Inc.
  
 This software contains proprietary and confidential information,
 including trade secrets, belonging to Gaussian, Inc.
  
 This software is provided under written license and may be
 used, copied, transmitted, or stored only in accord with that
 written license.
  
 The following legend is applicable only to US Government
 contracts under FAR:
  
                    RESTRICTED RIGHTS LEGEND
  
 Use, reproduction and disclosure by the US Government is
 subject to restrictions as set forth in subparagraphs (a)
 and (c) of the Commercial Computer Software - Restricted
 Rights clause in FAR 52.227-19.
  
 Gaussian, Inc.
 340 Quinnipiac St., Bldg. 40, Wallingford CT 06492
  
  
 ---------------------------------------------------------------
 Warning -- This program may not be used in any manner that
 competes with the business of Gaussian, Inc. or will provide
 assistance to any competitor of Gaussian, Inc.  The licensee
 of this program is prohibited from giving any competitor of
 Gaussian, Inc. access to this program.  By using this program,
 the user acknowledges that Gaussian, Inc. is engaged in the
 business of creating and licensing software in the field of
 computational chemistry and represents and warrants to the
 licensee that it is not a competitor of Gaussian, Inc. and that
 it will not use this program in any manner prohibited above.
 ---------------------------------------------------------------
  

 Cite this work as:
 Gaussian 16, Revision A.03,
 M. J. Frisch, G. W. Trucks, H. B. Schlegel, G. E. Scuseria, 
 M. A. Robb, J. R. Cheeseman, G. Scalmani, V. Barone, 
 G. A. Petersson, H. Nakatsuji, X. Li, M. Caricato, A. V. Marenich, 
 J. Bloino, B. G. Janesko, R. Gomperts, B. Mennucci, H. P. Hratchian, 
 J. V. Ortiz, A. F. Izmaylov, J. L. Sonnenberg, D. Williams-Young, 
 F. Ding, F. Lipparini, F. Egidi, J. Goings, B. Peng, A. Petrone, 
 T. Henderson, D. Ranasinghe, V. G. Zakrzewski, J. Gao, N. Rega, 
 G. Zheng, W. Liang, M. Hada, M. Ehara, K. Toyota, R. Fukuda, 
 J. Hasegawa, M. Ishida, T. Nakajima, Y. Honda, O. Kitao, H. Nakai, 
 T. Vreven, K. Throssell, J. A. Montgomery, Jr., J. E. Peralta, 
 F. Ogliaro, M. J. Bearpark, J. J. Heyd, E. N. Brothers, K. N. Kudin, 
 V. N. Staroverov, T. A. Keith, R. Kobayashi, J. Normand, 
 K. Raghavachari, A. P. Rendell, J. C. Burant, S. S. Iyengar, 
 J. Tomasi, M. Cossi, J. M. Millam, M. Klene, C. Adamo, R. Cammi, 
 J. W. Ochterski, R. L. Martin, K. Morokuma, O. Farkas, 
 J. B. Foresman, and D. J. Fox, Gaussian, Inc., Wallingford CT, 2016.
 
 ******************************************
 Gaussian 16:  EM64M-G16RevA.03 25-Dec-2016
                21-Feb-2024 
 ******************************************
 %nprocshared=8
 Will use up to    8 processors via shared memory.
 %mem=4GB
 %chk= 1.chk
 ---------------------
 # freq b3lyp/6-31g(d)
 ---------------------
 1/10=4,30=1,38=1/1,3;
 2/12=2,17=6,18=5,40=1/2;
 3/5=1,6=6,7=1,11=2,25=1,30=1,71=2,74=-5,140=1/1,2,3;
 4//1;
 5/5=2,38=5,98=1/2;
 8/6=4,10=90,11=11/1;
 11/6=1,8=1,9=11,15=111,16=1/1,2,10;
 10/6=1/2;
 6/7=2,8=2,9=2,10=2,28=1/1;
 7/8=1,10=1,25=1/1,2,3,16;
 1/10=4,30=1/3;
 99//99;
 ---------
 good luck
 ---------
 Symbolic Z-matrix:
 Charge =  0 Multiplicity = 1
 O                     1.21666   0.        0. 
 C                     0.        0.        0. 
 C                    -0.81551  -1.28638   0.00161 
 C                    -1.93968  -1.27984  -1.06193 
 C                    -2.72685  -2.59586  -1.03857 
 C                    -2.83101  -0.01469  -0.94463 
 C                    -3.73023   0.01497   0.30349 
 C                    -1.94584   1.24556  -1.05141 
 C                    -0.81859   1.28401   0.00161 
 H                    -1.26134  -1.40187   1.0018 
 H                    -0.13182  -2.12843  -0.14633 
 H                    -1.44723  -1.21338  -2.04438 
 H                    -3.53134  -2.58908  -1.78409 
 H                    -2.07033  -3.44429  -1.26338 
 H                    -3.17896  -2.78216  -0.0575 
 H                    -3.49877  -0.01528  -1.81858 
 H                    -4.30903   0.94571   0.33107 
 H                    -4.44443  -0.8147    0.30419 
 H                    -3.16032  -0.04196   1.23809 
 H                    -1.49241   1.27645  -2.05155 
 H                    -2.56163   2.14924  -0.96165 
 H                    -1.25475   1.39914   1.00513 
 H                    -0.14199   2.12873  -0.15754 
 

 GradGradGradGradGradGradGradGradGradGradGradGradGradGradGradGradGradGrad
 Berny optimization.
 Initialization pass.
 Trust Radius=3.00D-01 FncErr=1.00D-07 GrdErr=1.00D-07 EigMax=2.50D+02 EigMin=1.00D-04
 Number of steps in this run=      2 maximum allowed number of steps=      2.
 GradGradGradGradGradGradGradGradGradGradGradGradGradGradGradGradGradGrad

                          Input orientation:                          
 ---------------------------------------------------------------------
 Center     Atomic      Atomic             Coordinates (Angstroms)
 Number     Number       Type             X           Y           Z
 ---------------------------------------------------------------------
      1          8           0        1.216659    0.000000    0.000000
      2          6           0        0.000000    0.000000    0.000000
      3          6           0       -0.815506   -1.286381    0.001607
      4          6           0       -1.939681   -1.279836   -1.061934
      5          6           0       -2.726851   -2.595863   -1.038569
      6          6           0       -2.831005   -0.014693   -0.944632
      7          6           0       -3.730232    0.014971    0.303490
      8          6           0       -1.945838    1.245562   -1.051413
      9          6           0       -0.818586    1.284005    0.001607
     10          1           0       -1.261338   -1.401871    1.001804
     11          1           0       -0.131822   -2.128427   -0.146330
     12          1           0       -1.447232   -1.213377   -2.044383
     13          1           0       -3.531339   -2.589077   -1.784092
     14          1           0       -2.070326   -3.444289   -1.263380
     15          1           0       -3.178958   -2.782159   -0.057496
     16          1           0       -3.498767   -0.015279   -1.818583
     17          1           0       -4.309027    0.945713    0.331070
     18          1           0       -4.444430   -0.814704    0.304193
     19          1           0       -3.160315   -0.041958    1.238085
     20          1           0       -1.492413    1.276448   -2.051546
     21          1           0       -2.561625    2.149243   -0.961645
     22          1           0       -1.254747    1.399142    1.005126
     23          1           0       -0.141985    2.128733   -0.157539
 ---------------------------------------------------------------------
                    Distance matrix (angstroms):
                    1          2          3          4          5
     1  O    0.000000
     2  C    1.216659   0.000000
     3  C    2.405093   1.523098   0.000000
     4  C    3.567656   2.555004   1.547557   0.000000
     5  C    4.834087   3.905489   2.539675   1.533659   0.000000
     6  C    4.156456   2.984482   2.564136   1.552033   2.584978
     7  C    4.956214   3.742587   3.206287   2.597495   3.102314
     8  C    3.557848   2.538342   2.966014   2.525427   3.920037
     9  C    2.406428   1.522746   2.570388   2.993535   4.447113
    10  H    3.018165   2.135375   1.101135   2.175789   2.781451
    11  H    2.523889   2.137520   1.094692   2.196996   2.783660
    12  H    3.570448   2.783211   2.142541   1.100967   2.135499
    13  H    5.694716   4.728283   3.501641   2.183804   1.096837
    14  H    4.925802   4.212541   2.798452   2.177729   1.096080
    15  H    5.202419   4.224865   2.797633   2.191273   1.096180
    16  H    5.053981   3.943203   3.482626   2.145314   2.804227
    17  H    5.615798   4.423991   4.158783   3.536570   4.113630
    18  H    5.727495   4.528712   3.671938   2.890747   2.815247
    19  H    4.548903   3.394437   2.928412   2.883119   3.448692
    20  H    3.630046   2.839975   3.352869   2.777403   4.188646
    21  H    4.451903   3.479358   3.972442   3.486467   4.748605
    22  H    3.012594   2.131259   2.900348   3.452361   4.722695
    23  H    2.530264   2.139271   3.484532   3.958280   5.457065
                    6          7          8          9         10
     6  C    0.000000
     7  C    1.538603   0.000000
     8  C    1.543750   2.556204   0.000000
     9  C    2.575231   3.190496   1.543057   0.000000
    10  H    2.859498   2.930959   3.419524   2.900061   0.000000
    11  H    3.520049   4.212487   3.936195   3.483995   1.766890
    12  H    2.135679   3.497633   2.698329   3.289101   3.057669
    13  H    2.796894   3.343445   4.213679   5.054554   3.784650
    14  H    3.527373   4.144496   4.696289   5.052109   3.155470
    15  H    2.926935   2.873700   4.327932   4.701972   2.589320
    16  H    1.099862   2.134874   2.142395   3.490645   3.857889
    17  H    2.175855   1.096378   2.754239   3.522239   3.905054
    18  H    2.191511   1.094733   3.510744   4.200343   3.311118
    19  H    2.207587   1.096136   2.893866   2.961545   2.347617
    20  H    2.164286   3.485018   1.098551   2.160911   4.068136
    21  H    2.180705   2.742504   1.097220   2.171331   4.261020
    22  H    2.878381   2.921686   2.174982   1.100247   2.801023
    23  H    3.527693   4.189995   2.198383   1.093930   3.881004
                   11         12         13         14         15
    11  H    0.000000
    12  H    2.483994   0.000000
    13  H    3.801471   2.510738   0.000000
    14  H    2.595591   2.444418   1.771183   0.000000
    15  H    3.117739   3.067193   1.772734   1.766816   0.000000
    16  H    4.312556   2.386466   2.574235   3.755903   3.295350
    17  H    5.208386   4.300502   4.192070   5.179399   3.914725
    18  H    4.530720   3.828570   2.888437   3.874064   2.367091
    19  H    3.929596   3.883487   3.969764   4.361337   3.031102
    20  H    4.132097   2.490245   4.378474   4.820845   4.826278
    21  H    4.986696   3.704242   4.905960   5.623168   5.051466
    22  H    3.876926   4.020176   5.372941   5.410186   4.723879
    23  H    4.257187   4.053831   6.032506   5.999996   5.774952
                   16         17         18         19         20
    16  H    0.000000
    17  H    2.490188   0.000000
    18  H    2.457547   1.765821   0.000000
    19  H    3.075464   1.765704   1.765854   0.000000
    20  H    2.397559   3.703992   4.317039   3.916856   0.000000
    21  H    2.509529   2.484554   3.732597   3.162057   1.758656
    22  H    3.874215   3.160471   3.945440   2.400464   3.068352
    23  H    4.315535   4.359187   5.233359   3.971144   2.477359
                   21         22         23
    21  H    0.000000
    22  H    2.477654   0.000000
    23  H    2.549836   1.767012   0.000000
 Stoichiometry    C8H14O
 Framework group  C1[X(C8H14O)]
 Deg. of freedom    63
 Full point group                 C1      NOp   1
 Largest Abelian subgroup         C1      NOp   1
 Largest concise Abelian subgroup C1      NOp   1
                         Standard orientation:                         
 ---------------------------------------------------------------------
 Center     Atomic      Atomic             Coordinates (Angstroms)
 Number     Number       Type             X           Y           Z
 ---------------------------------------------------------------------
      1          8           0        2.704372   -0.927796    0.042596
      2          6           0        1.621346   -0.392037    0.184993
      3          6           0        0.346102   -1.185346    0.438454
      4          6           0       -0.820276   -0.746397   -0.479053
      5          6           0       -2.079515   -1.577477   -0.203858
      6          6           0       -1.054627    0.786416   -0.412961
      7          6           0       -1.644701    1.281669    0.918894
      8          6           0        0.254805    1.519517   -0.775062
      9          6           0        1.441475    1.118906    0.126243
     10          1           0        0.058338   -1.034236    1.490526
     11          1           0        0.571521   -2.249442    0.315018
     12          1           0       -0.509152   -0.960929   -1.513125
     13          1           0       -2.910840   -1.260563   -0.845354
     14          1           0       -1.893175   -2.639807   -0.399111
     15          1           0       -2.406143   -1.488155    0.838709
     16          1           0       -1.787737    1.029037   -1.196148
     17          1           0       -1.757924    2.372032    0.900637
     18          1           0       -2.634794    0.852875    1.104068
     19          1           0       -1.013654    1.034137    1.780301
     20          1           0        0.513193    1.289267   -1.817672
     21          1           0        0.106942    2.605547   -0.724402
     22          1           0        1.261374    1.472577    1.152413
     23          1           0        2.379433    1.568514   -0.212531
 ---------------------------------------------------------------------
 Rotational constants (GHZ):           2.2789508           1.3830215           1.0112625
 Standard basis: 6-31G(d) (6D, 7F)
 There are   163 symmetry adapted cartesian basis functions of A   symmetry.
 There are   163 symmetry adapted basis functions of A   symmetry.
   163 basis functions,   308 primitive gaussians,   163 cartesian basis functions
    35 alpha electrons       35 beta electrons
       nuclear repulsion energy       476.7880816414 Hartrees.
 NAtoms=   23 NActive=   23 NUniq=   23 SFac= 1.00D+00 NAtFMM=   60 NAOKFM=F Big=F
 Integral buffers will be    131072 words long.
 Raffenetti 2 integral format.
 Two-electron integral symmetry is turned on.
 One-electron integrals computed using PRISM.
 NBasis=   163 RedAO= T EigKep=  3.15D-03  NBF=   163
 NBsUse=   163 1.00D-06 EigRej= -1.00D+00 NBFU=   163
 ExpMin= 1.61D-01 ExpMax= 5.48D+03 ExpMxC= 8.25D+02 IAcc=3 IRadAn=         5 AccDes= 0.00D+00
 Harris functional with IExCor=  402 and IRadAn=       5 diagonalized for initial guess.
 HarFok:  IExCor=  402 AccDes= 0.00D+00 IRadAn=         5 IDoV= 1 UseB2=F ITyADJ=14
 ICtDFT=  3500011 ScaDFX=  1.000000  1.000000  1.000000  1.000000
 FoFCou: FMM=F IPFlag=           0 FMFlag=      100000 FMFlg1=           0
         NFxFlg=           0 DoJE=T BraDBF=F KetDBF=T FulRan=T
         wScrn=  0.000000 ICntrl=       500 IOpCl=  0 I1Cent=   200000004 NGrid=           0
         NMat0=    1 NMatS0=      1 NMatT0=    0 NMatD0=    1 NMtDS0=    0 NMtDT0=    0
 Petite list used in FoFCou.
 Requested convergence on RMS density matrix=1.00D-08 within 128 cycles.
 Requested convergence on MAX density matrix=1.00D-06.
 Requested convergence on             energy=1.00D-06.
 No special actions if energy rises.
 Integral accuracy reduced to 1.0D-05 until final iterations.
 Initial convergence to 1.0D-05 achieved.  Increase integral accuracy.
 SCF Done:  E(RB3LYP) =  -388.516715974     A.U. after   13 cycles
            NFock= 13  Conv=0.95D-08     -V/T= 2.0098
 DoSCS=F DFT=T ScalE2(SS,OS)=  1.000000  1.000000
 Range of M.O.s used for correlation:     1   163
 NBasis=   163 NAE=    35 NBE=    35 NFC=     0 NFV=     0
 NROrb=    163 NOA=    35 NOB=    35 NVA=   128 NVB=   128
 Symmetrizing basis deriv contribution to polar:
 IMax=3 JMax=2 DiffMx= 0.00D+00
 G2DrvN: will do    24 centers at a time, making    1 passes.
 Calling FoFCou, ICntrl=  3107 FMM=F I1Cent=   0 AccDes= 0.00D+00.
 End of G2Drv F.D. properties file   721 does not exist.
 End of G2Drv F.D. properties file   722 does not exist.
 End of G2Drv F.D. properties file   788 does not exist.
          IDoAtm=11111111111111111111111
          Differentiating once with respect to electric field.
                with respect to dipole field.
          Differentiating once with respect to nuclear coordinates.
 Keep R1 ints in memory in canonical form, NReq=97235276.
          There are    72 degrees of freedom in the 1st order CPHF.  IDoFFX=6 NUNeed=     3.
     69 vectors produced by pass  0 Test12= 6.22D-15 1.39D-09 XBig12= 6.24D+01 2.37D+00.
 AX will form    69 AO Fock derivatives at one time.
     69 vectors produced by pass  1 Test12= 6.22D-15 1.39D-09 XBig12= 9.83D+00 1.04D+00.
     69 vectors produced by pass  2 Test12= 6.22D-15 1.39D-09 XBig12= 8.44D-02 3.94D-02.
     69 vectors produced by pass  3 Test12= 6.22D-15 1.39D-09 XBig12= 2.71D-04 1.96D-03.
     69 vectors produced by pass  4 Test12= 6.22D-15 1.39D-09 XBig12= 2.77D-07 5.63D-05.
     32 vectors produced by pass  5 Test12= 6.22D-15 1.39D-09 XBig12= 1.44D-10 1.26D-06.
      3 vectors produced by pass  6 Test12= 6.22D-15 1.39D-09 XBig12= 7.76D-14 2.11D-08.
 InvSVY:  IOpt=1 It=  1 EMax= 6.22D-15
 Solved reduced A of dimension   380 with    72 vectors.
 Isotropic polarizability for W=    0.000000       82.48 Bohr**3.
 End of Minotr F.D. properties file   721 does not exist.
 End of Minotr F.D. properties file   722 does not exist.
 End of Minotr F.D. properties file   788 does not exist.

 **********************************************************************

            Population analysis using the SCF density.

 **********************************************************************

 Orbital symmetries:
       Occupied  (A) (A) (A) (A) (A) (A) (A) (A) (A) (A) (A) (A)
                 (A) (A) (A) (A) (A) (A) (A) (A) (A) (A) (A) (A)
                 (A) (A) (A) (A) (A) (A) (A) (A) (A) (A) (A)
       Virtual   (A) (A) (A) (A) (A) (A) (A) (A) (A) (A) (A) (A)
                 (A) (A) (A) (A) (A) (A) (A) (A) (A) (A) (A) (A)
                 (A) (A) (A) (A) (A) (A) (A) (A) (A) (A) (A) (A)
                 (A) (A) (A) (A) (A) (A) (A) (A) (A) (A) (A) (A)
                 (A) (A) (A) (A) (A) (A) (A) (A) (A) (A) (A) (A)
                 (A) (A) (A) (A) (A) (A) (A) (A) (A) (A) (A) (A)
                 (A) (A) (A) (A) (A) (A) (A) (A) (A) (A) (A) (A)
                 (A) (A) (A) (A) (A) (A) (A) (A) (A) (A) (A) (A)
                 (A) (A) (A) (A) (A) (A) (A) (A) (A) (A) (A) (A)
                 (A) (A) (A) (A) (A) (A) (A) (A) (A) (A) (A) (A)
                 (A) (A) (A) (A) (A) (A) (A) (A)
 The electronic state is 1-A.
 Alpha  occ. eigenvalues --  -19.13045 -10.26683 -10.19909 -10.19604 -10.19173
 Alpha  occ. eigenvalues --  -10.18898 -10.18735 -10.18141 -10.18050  -1.02932
 Alpha  occ. eigenvalues --   -0.84160  -0.76984  -0.74846  -0.69984  -0.66681
 Alpha  occ. eigenvalues --   -0.60883  -0.55936  -0.51904  -0.48546  -0.46860
 Alpha  occ. eigenvalues --   -0.44636  -0.43751  -0.43181  -0.41394  -0.40002
 Alpha  occ. eigenvalues --   -0.38840  -0.38139  -0.37652  -0.36827  -0.35294
 Alpha  occ. eigenvalues --   -0.34367  -0.32074  -0.31488  -0.31047  -0.23316
 Alpha virt. eigenvalues --   -0.00988   0.07183   0.09223   0.11575   0.13174
 Alpha virt. eigenvalues --    0.13678   0.14714   0.15196   0.15442   0.15963
 Alpha virt. eigenvalues --    0.17286   0.18364   0.19067   0.19886   0.20670
 Alpha virt. eigenvalues --    0.21630   0.22835   0.23313   0.25088   0.26004
 Alpha virt. eigenvalues --    0.27709   0.28990   0.32502   0.36050   0.48398
 Alpha virt. eigenvalues --    0.50012   0.52328   0.52716   0.54141   0.54663
 Alpha virt. eigenvalues --    0.58323   0.60633   0.62692   0.63765   0.64332
 Alpha virt. eigenvalues --    0.67003   0.68459   0.69678   0.72196   0.73576
 Alpha virt. eigenvalues --    0.74689   0.75693   0.79388   0.80037   0.82560
 Alpha virt. eigenvalues --    0.84286   0.85477   0.86626   0.87892   0.88531
 Alpha virt. eigenvalues --    0.89330   0.90345   0.91115   0.91796   0.93445
 Alpha virt. eigenvalues --    0.94333   0.95234   0.95955   0.97868   0.98906
 Alpha virt. eigenvalues --    1.01786   1.03436   1.03630   1.11142   1.13543
 Alpha virt. eigenvalues --    1.19387   1.21669   1.30508   1.35590   1.37977
 Alpha virt. eigenvalues --    1.42285   1.48181   1.51786   1.52479   1.59933
 Alpha virt. eigenvalues --    1.65169   1.66262   1.72313   1.73153   1.75286
 Alpha virt. eigenvalues --    1.76749   1.79381   1.81581   1.83658   1.84780
 Alpha virt. eigenvalues --    1.88503   1.93408   1.94733   1.95027   1.96559
 Alpha virt. eigenvalues --    1.99760   2.01904   2.02622   2.04757   2.07884
 Alpha virt. eigenvalues --    2.09588   2.13811   2.15583   2.18220   2.23908
 Alpha virt. eigenvalues --    2.27618   2.29382   2.33150   2.37424   2.38078
 Alpha virt. eigenvalues --    2.39501   2.46892   2.47356   2.51071   2.54111
 Alpha virt. eigenvalues --    2.56931   2.62629   2.66526   2.72660   2.74295
 Alpha virt. eigenvalues --    2.77329   2.80235   2.98671   3.02100   3.99934
 Alpha virt. eigenvalues --    4.10869   4.21944   4.24605   4.30913   4.41434
 Alpha virt. eigenvalues --    4.57957   4.58915   4.64803
          Condensed to atoms (all electrons):
               1          2          3          4          5          6
     1  O    8.000073   0.591518  -0.078379   0.001011  -0.000057   0.000054
     2  C    0.591518   4.465328   0.321901  -0.017557   0.002429  -0.012012
     3  C   -0.078379   0.321901   5.355647   0.335546  -0.043850  -0.040117
     4  C    0.001011  -0.017557   0.335546   4.936911   0.365828   0.382055
     5  C   -0.000057   0.002429  -0.043850   0.365828   5.116300  -0.040173
     6  C    0.000054  -0.012012  -0.040117   0.382055  -0.040173   4.922903
     7  C   -0.000006  -0.001633  -0.006400  -0.050187  -0.005178   0.372320
     8  C    0.001589  -0.024946  -0.004737  -0.042169   0.004677   0.376685
     9  C   -0.079816   0.326967  -0.138031  -0.007574   0.000001  -0.040175
    10  H    0.001229  -0.026227   0.342715  -0.034662  -0.006755  -0.006568
    11  H    0.004824  -0.022887   0.341974  -0.027222  -0.003617   0.004286
    12  H    0.000466  -0.001191  -0.053270   0.378422  -0.046063  -0.045939
    13  H    0.000001  -0.000078   0.004588  -0.029767   0.368259  -0.003659
    14  H   -0.000000  -0.000018  -0.002966  -0.027154   0.369344   0.004596
    15  H   -0.000000   0.000050  -0.005971  -0.031699   0.373465  -0.007156
    16  H    0.000001   0.000223   0.005691  -0.039535  -0.004530   0.368281
    17  H    0.000000   0.000079  -0.000036   0.004913   0.000041  -0.030161
    18  H    0.000000   0.000038  -0.000141  -0.004694   0.002769  -0.028277
    19  H    0.000003  -0.000612   0.003435  -0.005970  -0.000460  -0.034629
    20  H    0.000391  -0.002654   0.000115  -0.004909  -0.000000  -0.034798
    21  H   -0.000068   0.003182  -0.000269   0.005089  -0.000166  -0.030820
    22  H    0.001192  -0.027505   0.003560  -0.001235  -0.000008  -0.004360
    23  H    0.004861  -0.024185   0.006662  -0.000035   0.000010   0.003839
               7          8          9         10         11         12
     1  O   -0.000006   0.001589  -0.079816   0.001229   0.004824   0.000466
     2  C   -0.001633  -0.024946   0.326967  -0.026227  -0.022887  -0.001191
     3  C   -0.006400  -0.004737  -0.138031   0.342715   0.341974  -0.053270
     4  C   -0.050187  -0.042169  -0.007574  -0.034662  -0.027222   0.378422
     5  C   -0.005178   0.004677   0.000001  -0.006755  -0.003617  -0.046063
     6  C    0.372320   0.376685  -0.040175  -0.006568   0.004286  -0.045939
     7  C    5.125060  -0.053761  -0.003925   0.003138   0.000065   0.006016
     8  C   -0.053761   5.068247   0.328187  -0.000936  -0.000192  -0.004556
     9  C   -0.003925   0.328187   5.323742   0.003220   0.006690  -0.000005
    10  H    0.003138  -0.000936   0.003220   0.585394  -0.027571   0.006343
    11  H    0.000065  -0.000192   0.006690  -0.027571   0.564460  -0.003978
    12  H    0.006016  -0.004556  -0.000005   0.006343  -0.003978   0.635024
    13  H   -0.000782   0.000050   0.000016   0.000020  -0.000008  -0.002444
    14  H    0.000118  -0.000143  -0.000007  -0.000326   0.003718  -0.004567
    15  H    0.002940   0.000024  -0.000003   0.005025  -0.000246   0.005508
    16  H   -0.047249  -0.038814   0.005079  -0.000008  -0.000146  -0.005629
    17  H    0.371201  -0.004280  -0.000432  -0.000098   0.000002  -0.000147
    18  H    0.372964   0.004768  -0.000015   0.000034  -0.000018  -0.000016
    19  H    0.372870  -0.005156   0.003003   0.003202  -0.000088  -0.000007
    20  H    0.005770   0.372060  -0.043087   0.000068  -0.000048   0.005223
    21  H   -0.006059   0.362967  -0.029753  -0.000010   0.000018  -0.000036
    22  H    0.003617  -0.035671   0.348959   0.000235  -0.000120   0.000079
    23  H    0.000043  -0.025415   0.345139  -0.000117  -0.000180  -0.000065
              13         14         15         16         17         18
     1  O    0.000001  -0.000000  -0.000000   0.000001   0.000000   0.000000
     2  C   -0.000078  -0.000018   0.000050   0.000223   0.000079   0.000038
     3  C    0.004588  -0.002966  -0.005971   0.005691  -0.000036  -0.000141
     4  C   -0.029767  -0.027154  -0.031699  -0.039535   0.004913  -0.004694
     5  C    0.368259   0.369344   0.373465  -0.004530   0.000041   0.002769
     6  C   -0.003659   0.004596  -0.007156   0.368281  -0.030161  -0.028277
     7  C   -0.000782   0.000118   0.002940  -0.047249   0.371201   0.372964
     8  C    0.000050  -0.000143   0.000024  -0.038814  -0.004280   0.004768
     9  C    0.000016  -0.000007  -0.000003   0.005079  -0.000432  -0.000015
    10  H    0.000020  -0.000326   0.005025  -0.000008  -0.000098   0.000034
    11  H   -0.000008   0.003718  -0.000246  -0.000146   0.000002  -0.000018
    12  H   -0.002444  -0.004567   0.005508  -0.005629  -0.000147  -0.000016
    13  H    0.575074  -0.029598  -0.031025   0.004858  -0.000034   0.000577
    14  H   -0.029598   0.570573  -0.031360  -0.000083  -0.000000  -0.000058
    15  H   -0.031025  -0.031360   0.572824  -0.000180  -0.000053   0.001822
    16  H    0.004858  -0.000083  -0.000180   0.635792  -0.003150  -0.004065
    17  H   -0.000034  -0.000000  -0.000053  -0.003150   0.572633  -0.029695
    18  H    0.000577  -0.000058   0.001822  -0.004065  -0.029695   0.564029
    19  H    0.000109  -0.000024   0.000249   0.005619  -0.031842  -0.031359
    20  H   -0.000015  -0.000002  -0.000000  -0.005131   0.000016  -0.000164
    21  H    0.000002   0.000002   0.000002  -0.002155   0.005134  -0.000035
    22  H   -0.000001   0.000000  -0.000006  -0.000007   0.000216  -0.000100
    23  H   -0.000000  -0.000000  -0.000000  -0.000140  -0.000031   0.000001
              19         20         21         22         23
     1  O    0.000003   0.000391  -0.000068   0.001192   0.004861
     2  C   -0.000612  -0.002654   0.003182  -0.027505  -0.024185
     3  C    0.003435   0.000115  -0.000269   0.003560   0.006662
     4  C   -0.005970  -0.004909   0.005089  -0.001235  -0.000035
     5  C   -0.000460  -0.000000  -0.000166  -0.000008   0.000010
     6  C   -0.034629  -0.034798  -0.030820  -0.004360   0.003839
     7  C    0.372870   0.005770  -0.006059   0.003617   0.000043
     8  C   -0.005156   0.372060   0.362967  -0.035671  -0.025415
     9  C    0.003003  -0.043087  -0.029753   0.348959   0.345139
    10  H    0.003202   0.000068  -0.000010   0.000235  -0.000117
    11  H   -0.000088  -0.000048   0.000018  -0.000120  -0.000180
    12  H   -0.000007   0.005223  -0.000036   0.000079  -0.000065
    13  H    0.000109  -0.000015   0.000002  -0.000001  -0.000000
    14  H   -0.000024  -0.000002   0.000002   0.000000  -0.000000
    15  H    0.000249  -0.000000   0.000002  -0.000006  -0.000000
    16  H    0.005619  -0.005131  -0.002155  -0.000007  -0.000140
    17  H   -0.031842   0.000016   0.005134   0.000216  -0.000031
    18  H   -0.031359  -0.000164  -0.000035  -0.000100   0.000001
    19  H    0.576804  -0.000056  -0.000148   0.002163  -0.000060
    20  H   -0.000056   0.599143  -0.035972   0.005603  -0.003643
    21  H   -0.000148  -0.035972   0.598805  -0.006053  -0.002406
    22  H    0.002163   0.005603  -0.006053   0.578931  -0.026743
    23  H   -0.000060  -0.003643  -0.002406  -0.026743   0.559315
 Mulliken charges:
               1
     1  O   -0.448886
     2  C    0.449789
     3  C   -0.347665
     4  C   -0.085408
     5  C   -0.452265
     6  C   -0.076177
     7  C   -0.460942
     8  C   -0.278477
     9  C   -0.348181
    10  H    0.152654
    11  H    0.160284
    12  H    0.130831
    13  H    0.143858
    14  H    0.147955
    15  H    0.145789
    16  H    0.125277
    17  H    0.145725
    18  H    0.151636
    19  H    0.142958
    20  H    0.142090
    21  H    0.138748
    22  H    0.157255
    23  H    0.163152
 Sum of Mulliken charges =  -0.00000
 Mulliken charges with hydrogens summed into heavy atoms:
               1
     1  O   -0.448886
     2  C    0.449789
     3  C   -0.034727
     4  C    0.045423
     5  C   -0.014662
     6  C    0.049101
     7  C   -0.020624
     8  C    0.002361
     9  C   -0.027775
 APT charges:
               1
     1  O   -0.657728
     2  C    0.743720
     3  C   -0.085848
     4  C    0.148827
     5  C    0.067303
     6  C    0.108258
     7  C    0.044360
     8  C    0.135328
     9  C   -0.062153
    10  H   -0.003222
    11  H   -0.023246
    12  H   -0.072195
    13  H   -0.032136
    14  H   -0.025369
    15  H   -0.020162
    16  H   -0.076185
    17  H   -0.023563
    18  H   -0.017871
    19  H   -0.016920
    20  H   -0.047427
    21  H   -0.055776
    22  H   -0.004913
    23  H   -0.023084
 Sum of APT charges =  -0.00000
 APT charges with hydrogens summed into heavy atoms:
               1
     1  O   -0.657728
     2  C    0.743720
     3  C   -0.112315
     4  C    0.076632
     5  C   -0.010364
     6  C    0.032073
     7  C   -0.013993
     8  C    0.032125
     9  C   -0.090149
 Electronic spatial extent (au):  <R**2>=           1276.5242
 Charge=             -0.0000 electrons
 Dipole moment (field-independent basis, Debye):
    X=             -2.8687    Y=              1.3202    Z=              0.1610  Tot=              3.1620
 Quadrupole moment (field-independent basis, Debye-Ang):
   XX=            -66.0397   YY=            -56.0781   ZZ=            -54.9245
   XY=              4.4618   XZ=              0.4656   YZ=             -0.0356
 Traceless Quadrupole moment (field-independent basis, Debye-Ang):
   XX=             -7.0256   YY=              2.9360   ZZ=              4.0896
   XY=              4.4618   XZ=              0.4656   YZ=             -0.0356
 Octapole moment (field-independent basis, Debye-Ang**2):
  XXX=            -22.4011  YYY=             -1.9444  ZZZ=              0.4080  XYY=              0.2254
  XXY=             12.9288  XXZ=             -0.5691  XZZ=              4.7067  YZZ=             -1.6232
  YYZ=             -0.4816  XYZ=              0.2680
 Hexadecapole moment (field-independent basis, Debye-Ang**3):
 XXXX=           -985.5644 YYYY=           -567.7396 ZZZZ=           -199.8554 XXXY=             27.5702
 XXXZ=              1.7559 YYYX=             -6.4587 YYYZ=              1.5005 ZZZX=              2.3098
 ZZZY=             -1.1827 XXYY=           -259.1728 XXZZ=           -179.5833 YYZZ=           -132.7639
 XXYZ=             -1.4288 YYXZ=              0.7136 ZZXY=             -2.0513
 N-N= 4.767880816414D+02 E-N=-1.854794484166D+03  KE= 3.847638022061D+02
  Exact polarizability:  92.112  -0.684  85.405  -1.101   0.018  69.925
 Approx polarizability: 126.708  -7.608 115.710  -2.607   1.092 106.732
 Calling FoFJK, ICntrl=    100127 FMM=F ISym2X=0 I1Cent= 0 IOpClX= 0 NMat=1 NMatS=1 NMatT=0.
 Full mass-weighted force constant matrix:
 Low frequencies ---   -9.3509   -5.3292   -0.0002    0.0008    0.0009    7.0733
 Low frequencies ---   77.6168  130.3575  188.5850
 Diagonal vibrational polarizability:
        3.9076145       5.0057166      13.8844137
 Harmonic frequencies (cm**-1), IR intensities (KM/Mole), Raman scattering
 activities (A**4/AMU), depolarization ratios for plane and unpolarized
 incident light, reduced masses (AMU), force constants (mDyne/A),
 and normal coordinates:
                      1                      2                      3
                      A                      A                      A
 Frequencies --     77.6129               130.3561               188.5844
 Red. masses --      4.2927                 2.3309                 2.2849
 Frc consts  --      0.0152                 0.0233                 0.0479
 IR Inten    --      2.8208                 0.8178                 0.7188
  Atom  AN      X      Y      Z        X      Y      Z        X      Y      Z
     1   8     0.05   0.03   0.33    -0.07  -0.07  -0.03    -0.05   0.09  -0.06
     2   6    -0.00   0.01  -0.02    -0.03   0.00   0.02    -0.05   0.05   0.06
     3   6    -0.01  -0.03  -0.16    -0.04   0.08   0.18    -0.03  -0.02   0.04
     4   6    -0.06   0.02  -0.07     0.04   0.01   0.04    -0.01  -0.04  -0.00
     5   6    -0.04   0.01  -0.04     0.05  -0.06  -0.18    -0.04  -0.01  -0.06
     6   6    -0.04   0.01   0.05    -0.01   0.00   0.05     0.03  -0.03  -0.02
     7   6     0.15  -0.05   0.16     0.03  -0.01   0.07     0.20  -0.01   0.05
     8   6    -0.08   0.00  -0.09    -0.04   0.03  -0.01     0.02  -0.08  -0.09
     9   6    -0.00   0.01  -0.20     0.04   0.01  -0.11    -0.09   0.04   0.10
    10   1     0.01  -0.17  -0.13    -0.08   0.26   0.14    -0.07  -0.05   0.03
    11   1     0.02  -0.02  -0.26    -0.08   0.06   0.34     0.02  -0.00   0.02
    12   1    -0.12   0.09  -0.10     0.19   0.05   0.08     0.03  -0.05   0.01
    13   1    -0.08   0.05   0.01     0.14  -0.10  -0.31     0.06  -0.11  -0.24
    14   1    -0.06   0.02  -0.11     0.15  -0.05  -0.16    -0.00  -0.04   0.12
    15   1     0.01  -0.04  -0.02    -0.13  -0.10  -0.23    -0.20   0.15  -0.13
    16   1    -0.15   0.06   0.16    -0.05  -0.02   0.08    -0.04  -0.01   0.05
    17   1     0.16  -0.05   0.23    -0.17  -0.03  -0.01     0.47   0.02   0.16
    18   1     0.18  -0.06   0.28     0.13  -0.18   0.21     0.10   0.22   0.06
    19   1     0.28  -0.10   0.05     0.17   0.19   0.02     0.17  -0.24   0.01
    20   1    -0.19  -0.01  -0.12    -0.11   0.06  -0.04     0.11  -0.27  -0.03
    21   1    -0.06   0.00  -0.09    -0.04   0.02   0.04     0.02  -0.07  -0.29
    22   1     0.13   0.10  -0.21     0.18   0.11  -0.12    -0.27   0.05   0.06
    23   1    -0.01  -0.06  -0.31     0.03  -0.07  -0.25    -0.06   0.07   0.22
                      4                      5                      6
                      A                      A                      A
 Frequencies --    215.6687               246.6474               279.3258
 Red. masses --      1.1675                 1.2656                 1.8296
 Frc consts  --      0.0320                 0.0454                 0.0841
 IR Inten    --      0.2135                 0.0432                 0.0508
  Atom  AN      X      Y      Z        X      Y      Z        X      Y      Z
     1   8    -0.00   0.03  -0.01     0.03  -0.01   0.01    -0.00  -0.02   0.00
     2   6    -0.01  -0.00   0.01     0.01  -0.02  -0.02    -0.00  -0.02  -0.00
     3   6    -0.00  -0.03  -0.02     0.01  -0.03  -0.06    -0.00  -0.01  -0.03
     4   6    -0.01  -0.01  -0.00    -0.02   0.01   0.01    -0.02   0.04   0.02
     5   6    -0.01  -0.01  -0.00     0.02  -0.05  -0.00     0.09  -0.14  -0.04
     6   6     0.01  -0.01  -0.00    -0.03   0.02   0.03    -0.04   0.04   0.05
     7   6     0.05   0.05  -0.01    -0.02   0.10   0.00    -0.01   0.18   0.02
     8   6     0.01  -0.02  -0.01    -0.02   0.00   0.03    -0.01  -0.04  -0.01
     9   6    -0.03  -0.00   0.06    -0.01  -0.03   0.01    -0.02  -0.02   0.01
    10   1    -0.01  -0.08  -0.02     0.05  -0.11  -0.04     0.01  -0.05  -0.01
    11   1     0.02  -0.03  -0.06     0.01  -0.03  -0.14    -0.02  -0.00  -0.08
    12   1    -0.02  -0.00  -0.01    -0.04   0.04  -0.01    -0.01   0.13   0.00
    13   1    -0.07   0.12   0.13     0.15  -0.43  -0.36    -0.05  -0.05   0.18
    14   1    -0.07   0.02  -0.19     0.23  -0.10   0.48     0.18  -0.07  -0.38
    15   1     0.10  -0.16   0.04    -0.28   0.32  -0.13     0.24  -0.48   0.04
    16   1    -0.01  -0.02   0.00    -0.02   0.02   0.02    -0.04   0.04   0.04
    17   1    -0.38   0.00  -0.25    -0.09   0.09  -0.12     0.27   0.21   0.01
    18   1     0.26  -0.30   0.29     0.02   0.05   0.10    -0.14   0.42  -0.07
    19   1     0.32   0.51  -0.08     0.04   0.24   0.00    -0.15   0.01   0.07
    20   1     0.05  -0.06   0.01    -0.03   0.02   0.02    -0.02  -0.13   0.00
    21   1     0.01  -0.02  -0.06     0.00   0.00   0.05     0.04  -0.03  -0.10
    22   1    -0.10  -0.03   0.05    -0.00  -0.06   0.02    -0.06  -0.03   0.01
    23   1    -0.02   0.02   0.12    -0.01  -0.00   0.02    -0.02   0.00   0.04
                      7                      8                      9
                      A                      A                      A
 Frequencies --    294.2357               373.1964               402.8516
 Red. masses --      2.8430                 2.0551                 3.0890
 Frc consts  --      0.1450                 0.1686                 0.2954
 IR Inten    --      0.9911                 0.7024                 1.0897
  Atom  AN      X      Y      Z        X      Y      Z        X      Y      Z
     1   8     0.13   0.09  -0.02    -0.02   0.03   0.01    -0.03   0.06  -0.02
     2   6     0.07  -0.03  -0.01    -0.05  -0.04  -0.01    -0.00   0.11   0.02
     3   6     0.09  -0.10   0.06     0.01  -0.09   0.05    -0.03   0.02  -0.05
     4   6     0.03  -0.04   0.12     0.05  -0.08   0.01    -0.13  -0.11   0.00
     5   6    -0.13   0.12  -0.13     0.00  -0.00   0.00    -0.18  -0.15  -0.02
     6   6    -0.01  -0.05   0.09     0.02  -0.06  -0.05     0.05  -0.07   0.02
     7   6    -0.09   0.08   0.02     0.11   0.07  -0.07     0.02   0.03  -0.04
     8   6    -0.05  -0.08  -0.01    -0.08   0.15   0.07     0.09  -0.01   0.12
     9   6    -0.01  -0.04  -0.05    -0.07  -0.03  -0.03     0.20   0.11   0.01
    10   1     0.18  -0.15   0.10    -0.00  -0.09   0.04    -0.03  -0.06  -0.04
    11   1     0.09  -0.09  -0.01     0.03  -0.09   0.05     0.13   0.06  -0.08
    12   1     0.06   0.01   0.12     0.09  -0.11   0.02    -0.18  -0.13  -0.01
    13   1     0.05   0.40  -0.22     0.01   0.09   0.05    -0.15  -0.13  -0.04
    14   1    -0.34   0.10  -0.26    -0.09  -0.01  -0.04    -0.15  -0.14  -0.08
    15   1    -0.29   0.05  -0.17     0.05  -0.01   0.02    -0.22  -0.21  -0.02
    16   1    -0.01  -0.14   0.06    -0.01  -0.13  -0.05     0.13   0.04  -0.03
    17   1    -0.01   0.09  -0.09     0.32   0.09  -0.14     0.09   0.04  -0.13
    18   1    -0.15   0.18  -0.06     0.05   0.26   0.02    -0.01   0.11  -0.04
    19   1    -0.20   0.10   0.10     0.12   0.02  -0.09    -0.01   0.07  -0.00
    20   1    -0.11  -0.16  -0.01    -0.06   0.55  -0.01     0.11   0.04   0.11
    21   1    -0.02  -0.08  -0.08    -0.20   0.11   0.47    -0.04  -0.03   0.12
    22   1     0.00  -0.03  -0.05     0.02  -0.08  -0.00     0.48   0.29  -0.01
    23   1    -0.04  -0.01  -0.08    -0.05  -0.06  -0.04     0.18  -0.07  -0.29
                     10                     11                     12
                      A                      A                      A
 Frequencies --    422.2145               493.6911               516.7830
 Red. masses --      2.2129                 3.2882                 2.4765
 Frc consts  --      0.2324                 0.4722                 0.3897
 IR Inten    --      1.4039                 7.5651                 4.4821
  Atom  AN      X      Y      Z        X      Y      Z        X      Y      Z
     1   8     0.13  -0.01   0.03     0.08   0.18  -0.01     0.05   0.16  -0.04
     2   6     0.10  -0.02  -0.11    -0.05  -0.09  -0.02    -0.04  -0.06   0.09
     3   6    -0.01   0.15   0.01    -0.08  -0.08   0.09    -0.10  -0.02   0.01
     4   6    -0.08  -0.02  -0.04    -0.10   0.07   0.11     0.02   0.00  -0.17
     5   6    -0.09  -0.05  -0.01    -0.06  -0.10   0.02     0.08   0.06   0.01
     6   6    -0.07  -0.02  -0.05     0.06   0.15  -0.05    -0.04  -0.03   0.01
     7   6     0.05   0.01  -0.00     0.00  -0.05  -0.02    -0.01   0.03   0.02
     8   6    -0.03  -0.03   0.05     0.13   0.09  -0.07    -0.01  -0.11   0.08
     9   6    -0.02  -0.05   0.05    -0.01  -0.13  -0.05     0.02  -0.11  -0.01
    10   1     0.04   0.59  -0.04     0.04  -0.09   0.12    -0.31   0.21  -0.09
    11   1    -0.17   0.07   0.42    -0.23  -0.11   0.02    -0.21  -0.07   0.23
    12   1    -0.09  -0.06  -0.03    -0.07   0.00   0.13     0.04   0.05  -0.17
    13   1    -0.09  -0.03  -0.01    -0.08  -0.24  -0.03    -0.04   0.00   0.13
    14   1    -0.09  -0.04  -0.03     0.20  -0.04  -0.07     0.01   0.02   0.13
    15   1    -0.09  -0.06  -0.01    -0.17  -0.28  -0.00     0.28   0.22   0.06
    16   1    -0.06   0.05  -0.03     0.08   0.16  -0.06    -0.01   0.06   0.02
    17   1     0.13   0.01  -0.00    -0.17  -0.07   0.24     0.06   0.03  -0.08
    18   1     0.05   0.07   0.11     0.07  -0.26  -0.15    -0.04   0.12   0.09
    19   1     0.12  -0.02  -0.07     0.00  -0.18  -0.05     0.00   0.08   0.03
    20   1     0.02   0.07   0.04     0.09   0.16  -0.09    -0.03  -0.15   0.09
    21   1    -0.04  -0.03   0.14     0.24   0.10   0.04     0.06  -0.10   0.04
    22   1    -0.16  -0.28   0.11    -0.06  -0.15  -0.05     0.34   0.12  -0.03
    23   1    -0.07   0.18   0.22     0.09  -0.26   0.07     0.02  -0.33  -0.32
                     13                     14                     15
                      A                      A                      A
 Frequencies --    566.3553               660.0225               756.9134
 Red. masses --      2.7655                 3.4613                 1.9452
 Frc consts  --      0.5226                 0.8884                 0.6566
 IR Inten    --      1.0946                 2.1307                 2.9744
  Atom  AN      X      Y      Z        X      Y      Z        X      Y      Z
     1   8     0.07  -0.06  -0.06     0.10  -0.07  -0.06     0.01   0.01  -0.03
     2   6     0.11  -0.01   0.18     0.13  -0.04   0.21     0.04   0.04   0.10
     3   6     0.03   0.01   0.04    -0.01  -0.09   0.04    -0.07   0.10  -0.02
     4   6    -0.05   0.10   0.05    -0.01  -0.09  -0.17    -0.05   0.08   0.02
     5   6    -0.01   0.01  -0.00    -0.09  -0.07   0.00     0.00   0.03   0.00
     6   6    -0.18   0.06  -0.14     0.02   0.05   0.01     0.09  -0.09   0.07
     7   6     0.04  -0.03  -0.08    -0.06   0.05   0.11     0.05  -0.04  -0.03
     8   6    -0.10  -0.04   0.04     0.01   0.15  -0.15    -0.01  -0.09  -0.02
     9   6     0.02   0.00   0.04    -0.00   0.08  -0.02    -0.00  -0.06  -0.07
    10   1     0.04  -0.38   0.10    -0.34  -0.01  -0.06    -0.15  -0.18  -0.00
    11   1     0.00   0.05  -0.33     0.01  -0.10   0.18    -0.05   0.13  -0.26
    12   1    -0.01   0.04   0.08    -0.03  -0.06  -0.18    -0.08   0.10   0.01
    13   1    -0.01  -0.01  -0.02    -0.19  -0.10   0.11    -0.02  -0.07  -0.01
    14   1     0.08   0.04  -0.07    -0.21  -0.12   0.13     0.17   0.07  -0.04
    15   1    -0.06  -0.09  -0.01     0.09   0.10   0.05    -0.03  -0.07   0.00
    16   1    -0.14   0.03  -0.19    -0.09   0.09   0.12     0.05  -0.01   0.13
    17   1     0.11  -0.02   0.14    -0.12   0.05   0.07     0.01  -0.04  -0.25
    18   1     0.08  -0.03   0.16    -0.07   0.03   0.00     0.00  -0.01  -0.21
    19   1     0.30  -0.21  -0.32    -0.16   0.10   0.20    -0.15   0.11   0.15
    20   1    -0.02   0.00   0.05    -0.07   0.25  -0.19    -0.16   0.31  -0.14
    21   1    -0.03  -0.03   0.06     0.00   0.14  -0.01    -0.12  -0.13   0.43
    22   1     0.23   0.23  -0.00    -0.27   0.23  -0.11    -0.33  -0.07  -0.12
    23   1    -0.08  -0.02  -0.26     0.04   0.12   0.15    -0.00   0.11   0.15
                     16                     17                     18
                      A                      A                      A
 Frequencies --    778.6560               834.1903               863.7678
 Red. masses --      2.3914                 2.4163                 1.9552
 Frc consts  --      0.8543                 0.9907                 0.8595
 IR Inten    --      3.1421                 2.6340                 1.9602
  Atom  AN      X      Y      Z        X      Y      Z        X      Y      Z
     1   8     0.08  -0.04  -0.00    -0.04  -0.02  -0.01    -0.00  -0.01   0.01
     2   6     0.03  -0.09  -0.04    -0.02  -0.00   0.10     0.02   0.05  -0.06
     3   6    -0.11  -0.10  -0.02     0.19   0.05  -0.09     0.01  -0.03   0.14
     4   6    -0.04   0.07   0.04     0.02   0.01  -0.01     0.00   0.00  -0.09
     5   6     0.01   0.03   0.01    -0.06  -0.04   0.03    -0.06  -0.03  -0.04
     6   6     0.10  -0.02   0.08     0.09   0.10   0.03     0.05   0.09   0.02
     7   6     0.07  -0.04  -0.09     0.06   0.01  -0.04     0.04   0.01  -0.04
     8   6    -0.09   0.05   0.03    -0.05  -0.02   0.03    -0.03  -0.06   0.12
     9   6    -0.06   0.16   0.05    -0.16  -0.09   0.01    -0.05   0.01  -0.08
    10   1    -0.08   0.14  -0.04     0.13   0.36  -0.14    -0.01  -0.31   0.17
    11   1    -0.37  -0.18   0.15     0.23   0.03   0.23     0.20   0.04  -0.11
    12   1    -0.10   0.09   0.01    -0.17   0.03  -0.07     0.22   0.06  -0.04
    13   1    -0.02  -0.12  -0.02     0.02   0.00  -0.07    -0.28  -0.17   0.18
    14   1     0.25   0.08  -0.05    -0.06  -0.03  -0.04    -0.08  -0.07   0.17
    15   1    -0.03  -0.11   0.00    -0.20  -0.11  -0.01     0.26   0.15   0.05
    16   1     0.06  -0.05   0.10     0.05   0.12   0.07     0.15   0.28  -0.01
    17   1     0.03  -0.05  -0.20    -0.12  -0.00   0.05    -0.06   0.00   0.04
    18   1     0.04  -0.06  -0.27     0.08  -0.16  -0.32     0.06  -0.10  -0.17
    19   1    -0.08   0.04   0.05    -0.12  -0.02   0.08    -0.01  -0.03  -0.02
    20   1    -0.03  -0.23   0.11    -0.04  -0.03   0.03    -0.09  -0.22   0.14
    21   1    -0.25   0.04  -0.31     0.09  -0.00   0.06     0.05  -0.04  -0.05
    22   1     0.19   0.25   0.06     0.12   0.24  -0.06    -0.06  -0.23   0.01
    23   1    -0.12   0.12  -0.19    -0.20  -0.27  -0.32    -0.17   0.29  -0.05
                     19                     20                     21
                      A                      A                      A
 Frequencies --    935.3424               956.8298               970.3780
 Red. masses --      1.7889                 1.8209                 1.7217
 Frc consts  --      0.9221                 0.9822                 0.9552
 IR Inten    --      1.3291                 0.3337                 1.1849
  Atom  AN      X      Y      Z        X      Y      Z        X      Y      Z
     1   8    -0.00   0.01  -0.00    -0.04   0.01   0.01     0.03  -0.02   0.01
     2   6    -0.02  -0.02   0.01    -0.03   0.01  -0.01     0.00  -0.02  -0.06
     3   6     0.05   0.08   0.03     0.14  -0.12   0.04    -0.01   0.06   0.04
     4   6     0.01   0.05  -0.03    -0.09   0.07  -0.04    -0.01   0.03  -0.01
     5   6    -0.07  -0.03  -0.02    -0.04   0.09  -0.04    -0.03   0.01  -0.03
     6   6    -0.04  -0.04   0.07    -0.03  -0.04   0.00     0.05  -0.06  -0.10
     7   6     0.03  -0.09  -0.05    -0.02  -0.02  -0.00    -0.01   0.02   0.12
     8   6    -0.04   0.14  -0.04     0.02  -0.05  -0.03     0.04  -0.02  -0.05
     9   6     0.04  -0.08   0.04     0.05   0.03   0.01    -0.10   0.01   0.07
    10   1     0.11  -0.10   0.07     0.23   0.21   0.03     0.28  -0.14   0.15
    11   1     0.11   0.11  -0.15     0.21  -0.14   0.34    -0.08   0.08  -0.25
    12   1     0.12   0.11  -0.01    -0.12   0.15  -0.06     0.22  -0.14   0.09
    13   1    -0.18  -0.12   0.09    -0.30  -0.34   0.09    -0.18  -0.14   0.09
    14   1    -0.04  -0.04   0.07     0.43   0.16   0.00     0.08   0.02   0.05
    15   1     0.08   0.04   0.03     0.17  -0.08   0.04     0.15   0.03   0.02
    16   1    -0.19  -0.08   0.19    -0.01  -0.00  -0.01    -0.05  -0.02   0.01
    17   1     0.17  -0.08  -0.43     0.07  -0.01  -0.07    -0.07   0.01  -0.04
    18   1    -0.06   0.14  -0.02    -0.03   0.06   0.12    -0.06   0.05  -0.02
    19   1    -0.05   0.15   0.08     0.05   0.01  -0.05    -0.17   0.13   0.27
    20   1    -0.06  -0.22   0.03    -0.04   0.15  -0.08     0.37   0.19  -0.02
    21   1     0.07   0.17  -0.36    -0.08  -0.07   0.16    -0.10  -0.05   0.10
    22   1     0.15  -0.19   0.10    -0.10   0.11  -0.04     0.25   0.20   0.06
    23   1     0.15  -0.28   0.11     0.11  -0.02   0.11    -0.16  -0.13  -0.31
                     22                     23                     24
                      A                      A                      A
 Frequencies --    994.4024              1017.1155              1044.2072
 Red. masses --      1.5615                 1.5559                 1.5932
 Frc consts  --      0.9098                 0.9483                 1.0235
 IR Inten    --      1.4697                 0.6677                 1.3077
  Atom  AN      X      Y      Z        X      Y      Z        X      Y      Z
     1   8     0.01  -0.01  -0.01     0.00  -0.00  -0.00     0.00   0.00  -0.01
     2   6     0.02   0.02   0.03    -0.01  -0.04   0.02     0.00   0.01   0.03
     3   6     0.01   0.01   0.01    -0.01   0.02  -0.05    -0.01   0.04  -0.03
     4   6    -0.01  -0.00  -0.03     0.06   0.06   0.05     0.07   0.02  -0.00
     5   6    -0.01   0.05   0.04    -0.05  -0.07  -0.03    -0.08   0.02  -0.00
     6   6     0.03  -0.03  -0.03     0.01  -0.02   0.07     0.12  -0.06  -0.02
     7   6    -0.06  -0.05   0.04    -0.05  -0.03  -0.04    -0.05   0.08   0.02
     8   6     0.07   0.06   0.08     0.09  -0.01   0.02    -0.08   0.02  -0.01
     9   6    -0.10  -0.01  -0.09    -0.07   0.04  -0.03     0.02  -0.04   0.00
    10   1    -0.17  -0.06  -0.03     0.17   0.12  -0.02    -0.15  -0.00  -0.06
    11   1     0.09   0.03  -0.01    -0.23  -0.03  -0.03     0.04   0.05  -0.03
    12   1    -0.18  -0.23  -0.04     0.24   0.30   0.06     0.07   0.03  -0.01
    13   1     0.07  -0.07  -0.11    -0.15  -0.01   0.13    -0.21  -0.23   0.04
    14   1     0.28   0.13  -0.16    -0.25  -0.14   0.17     0.21   0.07   0.01
    15   1    -0.21  -0.24   0.00     0.16   0.18   0.01     0.00  -0.13   0.04
    16   1     0.14   0.04  -0.11     0.18  -0.13  -0.12     0.25  -0.36  -0.23
    17   1     0.21  -0.03  -0.23     0.16  -0.01  -0.02    -0.07   0.08   0.42
    18   1    -0.12   0.23   0.36    -0.04   0.10   0.31     0.05  -0.10   0.16
    19   1     0.09   0.13  -0.02     0.21  -0.06  -0.24     0.13  -0.18  -0.18
    20   1     0.10  -0.18   0.13    -0.05   0.04  -0.02    -0.07  -0.10   0.02
    21   1     0.26   0.09  -0.15     0.16  -0.00   0.10    -0.28  -0.00  -0.17
    22   1    -0.06  -0.09  -0.05    -0.19   0.30  -0.15     0.08  -0.21   0.07
    23   1    -0.16   0.12  -0.10    -0.05  -0.00  -0.03     0.07  -0.09   0.08
                     25                     26                     27
                      A                      A                      A
 Frequencies --   1087.6795              1105.9014              1134.1850
 Red. masses --      1.4559                 2.3045                 1.4624
 Frc consts  --      1.0148                 1.6606                 1.1084
 IR Inten    --      5.0901                 3.1453                 2.1335
  Atom  AN      X      Y      Z        X      Y      Z        X      Y      Z
     1   8    -0.01   0.02   0.00    -0.04   0.01   0.01    -0.00   0.00  -0.00
     2   6    -0.04  -0.07   0.00    -0.00   0.03  -0.03     0.02   0.03   0.01
     3   6     0.03   0.01   0.01     0.01  -0.08  -0.01    -0.06   0.00  -0.07
     4   6     0.04   0.04  -0.05     0.22   0.14  -0.02     0.06  -0.10   0.05
     5   6    -0.01  -0.03   0.04    -0.12  -0.05   0.08    -0.04   0.07  -0.03
     6   6     0.06   0.05  -0.06    -0.06   0.02  -0.07    -0.02   0.05  -0.01
     7   6    -0.03  -0.03   0.04     0.03  -0.02   0.04     0.02  -0.00  -0.00
     8   6    -0.07  -0.04   0.02    -0.00  -0.07   0.00    -0.04   0.00   0.03
     9   6     0.06   0.03   0.01     0.05   0.02  -0.01     0.03  -0.02   0.02
    10   1     0.26   0.01   0.07    -0.32   0.06  -0.13     0.21   0.09  -0.00
    11   1    -0.18  -0.02  -0.10    -0.19  -0.13   0.07    -0.13  -0.02  -0.02
    12   1     0.13  -0.24   0.03     0.18   0.20  -0.04     0.27  -0.39   0.16
    13   1     0.10   0.07  -0.06    -0.05  -0.10  -0.04    -0.20  -0.23   0.04
    14   1    -0.08  -0.03  -0.07    -0.05  -0.02  -0.06     0.28   0.11   0.01
    15   1    -0.18  -0.08  -0.01    -0.34  -0.24   0.03     0.13  -0.11   0.04
    16   1     0.24   0.43  -0.11    -0.28  -0.20   0.07    -0.12  -0.04   0.05
    17   1     0.10  -0.02  -0.16    -0.01  -0.03  -0.16    -0.02  -0.00  -0.04
    18   1    -0.07   0.13   0.15    -0.03   0.04  -0.12     0.01  -0.01  -0.09
    19   1     0.01   0.13   0.06    -0.12   0.11   0.18    -0.05   0.02   0.05
    20   1    -0.33  -0.05  -0.05     0.17   0.08   0.01    -0.31  -0.08  -0.02
    21   1    -0.33  -0.07  -0.04     0.16  -0.05   0.14     0.43   0.07   0.07
    22   1    -0.16   0.12  -0.06     0.06  -0.16   0.06    -0.16   0.22  -0.10
    23   1     0.18  -0.09   0.18    -0.09   0.29  -0.06     0.00   0.04   0.02
                     28                     29                     30
                      A                      A                      A
 Frequencies --   1157.2922              1184.8912              1247.1263
 Red. masses --      2.1279                 2.2051                 1.3431
 Frc consts  --      1.6792                 1.8241                 1.2308
 IR Inten    --      3.3890                33.4418                 1.5180
  Atom  AN      X      Y      Z        X      Y      Z        X      Y      Z
     1   8    -0.03   0.02  -0.02    -0.02  -0.01  -0.00    -0.03   0.01  -0.01
     2   6    -0.01  -0.03   0.14     0.06   0.12   0.01     0.01  -0.00   0.07
     3   6     0.04  -0.02  -0.08    -0.04  -0.07  -0.06     0.00  -0.00  -0.02
     4   6    -0.06   0.03   0.08    -0.03  -0.00   0.13     0.01  -0.04  -0.05
     5   6     0.02  -0.01  -0.06     0.02  -0.02  -0.06    -0.01   0.02   0.02
     6   6    -0.03  -0.05  -0.12     0.10   0.11  -0.05     0.00   0.01   0.10
     7   6     0.05   0.01   0.07    -0.05  -0.09   0.03    -0.04   0.01  -0.05
     8   6     0.01   0.04   0.10    -0.08  -0.03  -0.09     0.02  -0.01  -0.06
     9   6     0.03   0.01  -0.13     0.01  -0.07   0.06    -0.00   0.01  -0.02
    10   1     0.27   0.21  -0.04    -0.21   0.10  -0.12     0.37   0.06   0.08
    11   1    -0.23  -0.10   0.09     0.09  -0.07   0.20    -0.32  -0.06  -0.05
    12   1     0.06  -0.00   0.12    -0.00   0.04   0.13     0.15  -0.18   0.02
    13   1    -0.08   0.03   0.09    -0.07   0.04   0.10     0.02  -0.04  -0.05
    14   1    -0.09  -0.06   0.11    -0.09  -0.08   0.13     0.06   0.04  -0.05
    15   1     0.21   0.18  -0.01     0.21   0.18  -0.01    -0.05  -0.08   0.01
    16   1    -0.02  -0.03  -0.12     0.18   0.17  -0.10    -0.11   0.23   0.27
    17   1    -0.13  -0.01  -0.02     0.21  -0.06  -0.26     0.06   0.02   0.06
    18   1     0.02  -0.03  -0.19    -0.14   0.22   0.24     0.01  -0.04   0.09
    19   1    -0.19   0.07   0.26     0.07   0.19   0.03     0.13  -0.09  -0.21
    20   1     0.24  -0.17   0.20    -0.04   0.09  -0.10     0.25   0.12  -0.03
    21   1    -0.16   0.04  -0.24    -0.06  -0.03   0.06    -0.13  -0.04   0.03
    22   1    -0.10  -0.33  -0.03     0.29  -0.27   0.18     0.25  -0.37   0.16
    23   1     0.03   0.21   0.14    -0.14   0.09  -0.15    -0.14   0.24  -0.08
                     31                     32                     33
                      A                      A                      A
 Frequencies --   1253.9137              1262.2421              1314.4100
 Red. masses --      1.4220                 1.9288                 1.4950
 Frc consts  --      1.3173                 1.8106                 1.5218
 IR Inten    --      1.4548                24.1879                 9.1564
  Atom  AN      X      Y      Z        X      Y      Z        X      Y      Z
     1   8    -0.02   0.03   0.00    -0.03  -0.03   0.01    -0.02   0.02   0.01
     2   6    -0.03  -0.06   0.02     0.09   0.20  -0.02    -0.04  -0.07  -0.02
     3   6    -0.01   0.00   0.03     0.03  -0.07   0.05     0.15   0.06   0.04
     4   6    -0.06   0.04  -0.06    -0.04   0.05  -0.06     0.01  -0.02   0.05
     5   6     0.03  -0.03   0.01     0.02  -0.02   0.02    -0.00   0.01  -0.06
     6   6     0.08  -0.01  -0.02     0.02  -0.08  -0.01     0.01   0.00   0.00
     7   6    -0.01   0.00   0.02     0.01   0.03   0.01    -0.01   0.00  -0.01
     8   6    -0.06   0.01  -0.02    -0.03   0.03   0.00     0.01  -0.01  -0.01
     9   6     0.08  -0.03   0.04    -0.03  -0.05   0.01     0.02   0.03   0.02
    10   1     0.35   0.01   0.13     0.21   0.02   0.09    -0.50  -0.09  -0.13
    11   1     0.09   0.03  -0.01    -0.68  -0.21  -0.07    -0.51  -0.05  -0.21
    12   1    -0.17   0.03  -0.09    -0.12  -0.01  -0.08    -0.37  -0.30  -0.01
    13   1     0.09   0.10  -0.02     0.09   0.07  -0.03    -0.13  -0.05   0.09
    14   1    -0.10  -0.04  -0.03    -0.10  -0.03  -0.04    -0.01  -0.03   0.10
    15   1    -0.04   0.08  -0.02    -0.07   0.04  -0.02     0.16   0.06  -0.01
    16   1    -0.04  -0.42  -0.04     0.11  -0.02  -0.08    -0.05   0.02   0.06
    17   1     0.02   0.01   0.03    -0.06   0.02   0.07     0.01   0.01   0.04
    18   1    -0.01   0.01   0.05     0.04  -0.06  -0.02     0.00  -0.01   0.02
    19   1     0.01   0.01   0.01    -0.04  -0.06   0.02     0.01  -0.00  -0.02
    20   1    -0.18  -0.03  -0.04    -0.17  -0.09  -0.01    -0.15   0.01  -0.05
    21   1     0.38   0.07   0.04     0.29   0.07   0.02     0.11   0.00   0.05
    22   1    -0.00   0.04   0.00     0.03   0.02  -0.00     0.05  -0.04   0.05
    23   1    -0.27   0.51  -0.18     0.12  -0.33   0.06    -0.07   0.15  -0.05
                     34                     35                     36
                      A                      A                      A
 Frequencies --   1343.9698              1352.1916              1365.8232
 Red. masses --      1.2883                 1.4825                 1.3930
 Frc consts  --      1.3711                 1.5971                 1.5310
 IR Inten    --      2.3728                 1.9170                 0.4721
  Atom  AN      X      Y      Z        X      Y      Z        X      Y      Z
     1   8     0.00  -0.01   0.00    -0.01   0.01   0.01    -0.01   0.01   0.00
     2   6     0.01   0.04  -0.02     0.00   0.02  -0.03     0.00  -0.00  -0.00
     3   6    -0.01  -0.01   0.01     0.03  -0.02  -0.01    -0.00   0.03   0.03
     4   6     0.01   0.02  -0.00    -0.02   0.02   0.02     0.06  -0.13   0.01
     5   6     0.01  -0.01  -0.02    -0.00  -0.00   0.01    -0.02   0.04   0.00
     6   6     0.08   0.08  -0.01     0.00  -0.10  -0.01    -0.04   0.05   0.02
     7   6    -0.04  -0.01  -0.02    -0.01   0.03  -0.02     0.02  -0.03   0.01
     8   6    -0.05  -0.02   0.05    -0.02   0.07  -0.00    -0.04   0.01  -0.01
     9   6     0.03  -0.03  -0.03     0.07  -0.13   0.04     0.03  -0.04   0.01
    10   1     0.05  -0.01   0.03    -0.23   0.03  -0.09     0.18  -0.07   0.09
    11   1    -0.05  -0.01  -0.02    -0.01  -0.03   0.01    -0.27  -0.01  -0.10
    12   1    -0.23  -0.20  -0.03     0.29   0.06   0.11    -0.34   0.52  -0.24
    13   1    -0.03  -0.00   0.03     0.02   0.03  -0.00    -0.02  -0.10  -0.06
    14   1    -0.07  -0.04   0.03     0.03   0.01  -0.01     0.08   0.04   0.01
    15   1     0.03   0.04  -0.02    -0.03  -0.00   0.00     0.05  -0.11   0.03
    16   1    -0.41  -0.26   0.35     0.02   0.48   0.16     0.27   0.02  -0.28
    17   1     0.11   0.01   0.01    -0.04   0.02   0.10    -0.00  -0.03  -0.08
    18   1    -0.04   0.03   0.10     0.03  -0.05   0.07    -0.03   0.07  -0.04
    19   1     0.10   0.03  -0.11    -0.02  -0.08  -0.04    -0.02   0.09   0.08
    20   1     0.44  -0.03   0.18     0.17  -0.05   0.06     0.31   0.07   0.06
    21   1    -0.19  -0.04  -0.02    -0.12   0.06  -0.14    -0.09   0.01  -0.06
    22   1    -0.28   0.21  -0.17    -0.27   0.36  -0.19    -0.12   0.13  -0.08
    23   1     0.11  -0.14   0.07    -0.24   0.32  -0.20    -0.05   0.10  -0.04
                     37                     38                     39
                      A                      A                      A
 Frequencies --   1389.8175              1401.0973              1408.6842
 Red. masses --      1.5341                 1.4914                 1.3184
 Frc consts  --      1.7459                 1.7250                 1.5414
 IR Inten    --     13.5775                 0.7337                 8.5423
  Atom  AN      X      Y      Z        X      Y      Z        X      Y      Z
     1   8     0.01   0.00  -0.00    -0.01  -0.00   0.00     0.00  -0.00  -0.00
     2   6    -0.03  -0.05   0.00     0.01   0.01  -0.01     0.00  -0.01   0.01
     3   6     0.04   0.02  -0.00     0.07   0.01   0.00    -0.03   0.01   0.00
     4   6    -0.07  -0.03   0.00    -0.12  -0.08  -0.04     0.04  -0.05   0.04
     5   6    -0.00   0.00   0.02     0.01   0.02   0.05    -0.03  -0.00   0.00
     6   6     0.06  -0.02  -0.01     0.03   0.09  -0.02     0.06  -0.05  -0.10
     7   6    -0.02   0.00   0.01     0.01  -0.03  -0.01    -0.01  -0.00  -0.05
     8   6    -0.15  -0.03  -0.01     0.06  -0.00   0.03     0.03  -0.00   0.03
     9   6     0.01   0.08  -0.03    -0.00  -0.02   0.00    -0.02   0.03  -0.00
    10   1    -0.16  -0.01  -0.06    -0.17  -0.04  -0.06     0.11   0.00   0.04
    11   1    -0.03   0.01  -0.02    -0.26  -0.05  -0.05     0.02   0.02  -0.02
    12   1     0.34   0.26   0.07     0.56   0.29   0.09    -0.20   0.44  -0.14
    13   1     0.08   0.05  -0.05     0.09  -0.03  -0.09     0.04   0.05  -0.06
    14   1     0.08   0.03  -0.05     0.05   0.06  -0.14     0.13   0.02   0.01
    15   1    -0.00   0.02   0.02    -0.07  -0.02   0.02     0.10   0.01   0.04
    16   1     0.05   0.15   0.05    -0.18  -0.44   0.01    -0.35   0.29   0.38
    17   1     0.06   0.01   0.00    -0.02  -0.03   0.07    -0.05   0.01   0.27
    18   1    -0.00  -0.03   0.02    -0.05   0.13   0.06    -0.01   0.10   0.26
    19   1     0.05  -0.00  -0.05    -0.03   0.13   0.06    -0.12   0.08   0.07
    20   1     0.42   0.07   0.10    -0.21  -0.02  -0.03    -0.32  -0.06  -0.05
    21   1     0.61   0.06   0.12    -0.27  -0.05  -0.05     0.06  -0.00   0.00
    22   1    -0.01  -0.08   0.03    -0.02   0.01  -0.01     0.06  -0.09   0.05
    23   1     0.20  -0.17   0.16    -0.04   0.02  -0.05     0.02  -0.05   0.00
                     40                     41                     42
                      A                      A                      A
 Frequencies --   1439.3391              1445.5546              1491.2790
 Red. masses --      1.2616                 1.2569                 1.0910
 Frc consts  --      1.5399                 1.5474                 1.4296
 IR Inten    --      3.2930                 9.7802                 7.7243
  Atom  AN      X      Y      Z        X      Y      Z        X      Y      Z
     1   8    -0.00  -0.00   0.00     0.00  -0.00  -0.00    -0.00   0.00  -0.00
     2   6     0.00   0.00  -0.00    -0.00  -0.00   0.00    -0.00  -0.00   0.00
     3   6     0.00  -0.01   0.00    -0.00  -0.01   0.00     0.01   0.04  -0.04
     4   6     0.01   0.03  -0.01    -0.00   0.02  -0.01     0.00   0.01  -0.00
     5   6    -0.11  -0.08   0.02     0.04   0.02  -0.01     0.00  -0.00  -0.00
     6   6    -0.02   0.02   0.04    -0.02   0.01   0.04     0.00  -0.00   0.00
     7   6     0.03  -0.02  -0.03     0.06  -0.04  -0.11     0.01   0.01  -0.00
     8   6    -0.00  -0.00  -0.01    -0.03  -0.00  -0.02     0.00  -0.00   0.00
     9   6     0.00  -0.00   0.00     0.01   0.01  -0.00     0.03   0.04   0.03
    10   1    -0.01  -0.01  -0.00     0.00   0.09  -0.01     0.06  -0.48   0.06
    11   1    -0.01  -0.01   0.01     0.06   0.01  -0.08    -0.10  -0.05   0.49
    12   1    -0.02  -0.18   0.02     0.01  -0.17   0.04    -0.00  -0.02   0.00
    13   1     0.27   0.40  -0.21    -0.12  -0.13   0.11    -0.03  -0.01   0.04
    14   1     0.51   0.07  -0.13    -0.18  -0.03   0.00     0.00   0.00  -0.03
    15   1     0.39   0.35   0.12    -0.17  -0.06  -0.06    -0.04   0.03  -0.02
    16   1     0.08  -0.08  -0.09     0.13  -0.03  -0.10     0.00   0.01   0.00
    17   1    -0.10  -0.02   0.11    -0.20  -0.05   0.46    -0.07  -0.00  -0.08
    18   1    -0.02   0.11   0.07    -0.01   0.28   0.40     0.02   0.01   0.10
    19   1    -0.08   0.06   0.07    -0.35   0.24   0.29    -0.07  -0.12   0.02
    20   1     0.09  -0.00   0.02     0.17  -0.02   0.03    -0.01   0.04  -0.01
    21   1    -0.04  -0.01   0.03     0.06   0.00   0.07     0.02   0.01  -0.04
    22   1    -0.02   0.01  -0.01    -0.04  -0.03   0.00    -0.39  -0.25   0.04
    23   1    -0.00   0.00  -0.01     0.02  -0.03  -0.03    -0.03  -0.21  -0.44
                     43                     44                     45
                      A                      A                      A
 Frequencies --   1500.9470              1523.4052              1525.9126
 Red. masses --      1.0815                 1.0823                 1.0520
 Frc consts  --      1.4355                 1.4799                 1.4432
 IR Inten    --      6.9369                 4.6521                 3.3102
  Atom  AN      X      Y      Z        X      Y      Z        X      Y      Z
     1   8     0.01  -0.00  -0.00    -0.00   0.00   0.00    -0.00   0.00  -0.00
     2   6     0.00   0.00   0.01     0.01   0.01  -0.00    -0.00  -0.00   0.00
     3   6    -0.01  -0.04   0.04     0.00   0.01  -0.01    -0.00  -0.00   0.01
     4   6    -0.01  -0.00  -0.00    -0.00   0.00  -0.01     0.00  -0.03  -0.01
     5   6    -0.01   0.00  -0.00     0.00  -0.01  -0.02     0.02  -0.03  -0.03
     6   6    -0.01   0.01   0.00    -0.00   0.01   0.01     0.01   0.01  -0.00
     7   6    -0.01   0.01   0.00    -0.01   0.00  -0.02     0.02   0.01   0.01
     8   6     0.01  -0.01   0.01    -0.00  -0.05   0.05     0.00   0.01  -0.01
     9   6     0.03   0.04   0.03    -0.01  -0.02  -0.01     0.00   0.01   0.00
    10   1    -0.03   0.44  -0.05     0.01  -0.09   0.01     0.01   0.11  -0.01
    11   1     0.09   0.05  -0.44    -0.03  -0.01   0.08    -0.01   0.01  -0.13
    12   1     0.00   0.01  -0.00     0.01  -0.02   0.00     0.03   0.08  -0.03
    13   1     0.06   0.04  -0.06    -0.05   0.20   0.16    -0.19   0.39   0.44
    14   1     0.01  -0.01   0.09     0.15  -0.01   0.15     0.37   0.01   0.20
    15   1     0.07  -0.08   0.03    -0.14  -0.03  -0.05    -0.42   0.05  -0.16
    16   1     0.01  -0.03  -0.03     0.00  -0.03  -0.01    -0.02  -0.01   0.01
    17   1     0.18   0.02  -0.04     0.17   0.02   0.04    -0.22  -0.02  -0.15
    18   1     0.07  -0.18   0.01     0.09  -0.16   0.11    -0.04   0.14   0.04
    19   1    -0.04   0.01   0.03    -0.14   0.05   0.10     0.02  -0.21  -0.06
    20   1    -0.03   0.13  -0.03    -0.04   0.58  -0.11     0.01  -0.16   0.03
    21   1     0.01   0.01  -0.13     0.10   0.01  -0.57    -0.04  -0.01   0.15
    22   1    -0.38  -0.27   0.05     0.12   0.10  -0.02    -0.03  -0.03   0.01
    23   1    -0.03  -0.21  -0.43     0.01   0.05   0.14    -0.00  -0.02  -0.04
                     46                     47                     48
                      A                      A                      A
 Frequencies --   1528.9283              1534.5577              1542.1306
 Red. masses --      1.0506                 1.0513                 1.0523
 Frc consts  --      1.4470                 1.4586                 1.4745
 IR Inten    --     12.1669                 1.9055                 1.2504
  Atom  AN      X      Y      Z        X      Y      Z        X      Y      Z
     1   8    -0.00   0.00   0.00    -0.00  -0.00   0.00    -0.00  -0.00   0.00
     2   6    -0.00   0.00  -0.00     0.00   0.00   0.00     0.00   0.00  -0.00
     3   6     0.01   0.01  -0.01    -0.00   0.00  -0.01     0.00  -0.00   0.00
     4   6    -0.02   0.01  -0.02     0.01  -0.00  -0.00    -0.01   0.02  -0.01
     5   6    -0.02   0.02  -0.03     0.01  -0.01  -0.00    -0.01   0.02  -0.02
     6   6    -0.01   0.01  -0.00    -0.02  -0.02   0.00     0.01  -0.02   0.01
     7   6    -0.02   0.01  -0.02    -0.03  -0.04   0.01     0.02  -0.03   0.02
     8   6     0.00   0.02  -0.02     0.01   0.01  -0.00    -0.00  -0.01   0.02
     9   6    -0.00  -0.00  -0.00     0.01   0.01   0.01     0.00   0.00   0.00
    10   1     0.01  -0.13   0.02     0.03  -0.07   0.01     0.00   0.01   0.00
    11   1    -0.03  -0.02   0.12    -0.01  -0.01   0.07     0.01  -0.00   0.01
    12   1     0.06  -0.00   0.00    -0.00  -0.00  -0.01     0.02  -0.04   0.01
    13   1     0.14   0.27  -0.08    -0.09   0.09   0.17     0.12   0.11  -0.13
    14   1     0.04  -0.08   0.52     0.12   0.02  -0.03    -0.07  -0.07   0.36
    15   1     0.10  -0.46   0.06    -0.17   0.11  -0.07     0.14  -0.38   0.07
    16   1     0.01  -0.05  -0.04     0.02   0.04  -0.02    -0.01   0.01   0.04
    17   1     0.29   0.04   0.03     0.29   0.02   0.41    -0.41  -0.06   0.10
    18   1     0.13  -0.25   0.10    -0.09  -0.02  -0.41    -0.23   0.44  -0.21
    19   1    -0.16   0.09   0.13     0.29   0.58  -0.05     0.27   0.03  -0.17
    20   1     0.02  -0.25   0.05    -0.02  -0.06   0.01    -0.02   0.17  -0.04
    21   1    -0.06  -0.01   0.24     0.00   0.01   0.05     0.06   0.01  -0.17
    22   1     0.04   0.03  -0.01    -0.08  -0.05   0.01    -0.05  -0.02   0.00
    23   1     0.01   0.02   0.04    -0.01  -0.04  -0.09    -0.00  -0.03  -0.04
                     49                     50                     51
                      A                      A                      A
 Frequencies --   1817.1617              3002.4062              3018.3634
 Red. masses --     11.0284                 1.0819                 1.0803
 Frc consts  --     21.4560                 5.7464                 5.7988
 IR Inten    --    200.4237                12.2588                15.8547
  Atom  AN      X      Y      Z        X      Y      Z        X      Y      Z
     1   8    -0.44   0.22   0.06    -0.00  -0.00   0.00    -0.00  -0.00   0.00
     2   6     0.67  -0.34  -0.09     0.00   0.00  -0.00     0.00   0.00  -0.00
     3   6    -0.05   0.02   0.01    -0.01   0.00   0.02    -0.00  -0.00   0.01
     4   6    -0.02   0.00   0.00     0.02  -0.01  -0.07     0.00  -0.00  -0.02
     5   6     0.00   0.00   0.00    -0.00   0.00   0.01     0.00   0.00   0.00
     6   6     0.00  -0.00   0.00     0.02  -0.01   0.02    -0.05   0.02  -0.05
     7   6     0.00  -0.00  -0.00    -0.00   0.00  -0.00     0.01  -0.00   0.00
     8   6    -0.01   0.01  -0.00    -0.00   0.00   0.00    -0.00  -0.01   0.02
     9   6    -0.04   0.03   0.01    -0.00  -0.00  -0.00     0.00  -0.01  -0.01
    10   1    -0.11  -0.02  -0.02     0.08  -0.04  -0.28     0.05  -0.03  -0.18
    11   1     0.26   0.06  -0.04    -0.01   0.03   0.01    -0.01   0.03   0.01
    12   1     0.05  -0.01   0.02    -0.25   0.17   0.84    -0.06   0.04   0.20
    13   1     0.01  -0.00  -0.01    -0.02   0.01  -0.02    -0.04   0.02  -0.04
    14   1    -0.01   0.00  -0.00     0.01  -0.04  -0.01     0.01  -0.04  -0.01
    15   1     0.00  -0.00   0.00     0.02  -0.01  -0.06    -0.00   0.00   0.01
    16   1     0.01  -0.01  -0.01    -0.20   0.06  -0.21     0.57  -0.19   0.61
    17   1     0.00   0.00   0.00    -0.00   0.01  -0.00     0.00   0.03  -0.00
    18   1     0.00  -0.00   0.00    -0.01  -0.00   0.00    -0.03  -0.02   0.01
    19   1    -0.01   0.00   0.00     0.03  -0.01   0.04    -0.04   0.02  -0.06
    20   1     0.04  -0.03   0.02     0.00  -0.01  -0.02     0.07  -0.08  -0.30
    21   1     0.02   0.02   0.02     0.00  -0.01   0.00    -0.03   0.17   0.02
    22   1    -0.06   0.09  -0.03    -0.00   0.00   0.01    -0.03   0.05   0.15
    23   1     0.12  -0.24   0.00     0.00   0.00  -0.00     0.02   0.01  -0.01
                     52                     53                     54
                      A                      A                      A
 Frequencies --   3024.2763              3030.7404              3040.6993
 Red. masses --      1.0692                 1.0695                 1.0634
 Frc consts  --      5.7618                 5.7880                 5.7928
 IR Inten    --     12.5025                 3.2764                66.0079
  Atom  AN      X      Y      Z        X      Y      Z        X      Y      Z
     1   8    -0.00   0.00  -0.00    -0.00  -0.00  -0.00    -0.00   0.00   0.00
     2   6    -0.00  -0.00  -0.00     0.00   0.00  -0.00     0.00  -0.00  -0.00
     3   6     0.01   0.01  -0.06     0.00   0.00  -0.02     0.00   0.00  -0.01
     4   6     0.01  -0.01  -0.03     0.00  -0.00  -0.00     0.00  -0.00  -0.01
     5   6    -0.00   0.00   0.00    -0.00  -0.00   0.00     0.00   0.00   0.00
     6   6    -0.01   0.00  -0.01     0.01  -0.00   0.01    -0.02   0.01  -0.02
     7   6     0.00  -0.00   0.00    -0.00   0.00   0.01     0.00  -0.01   0.00
     8   6    -0.00  -0.00   0.01    -0.00   0.01   0.02     0.01   0.03  -0.05
     9   6     0.00   0.01   0.02    -0.00  -0.03  -0.06    -0.01  -0.01  -0.01
    10   1    -0.23   0.12   0.80    -0.07   0.04   0.25    -0.02   0.01   0.07
    11   1     0.06  -0.25  -0.05     0.02  -0.07  -0.01     0.01  -0.04  -0.01
    12   1    -0.09   0.06   0.31    -0.00   0.00   0.02    -0.04   0.03   0.13
    13   1     0.01  -0.00   0.01     0.03  -0.01   0.02    -0.06   0.03  -0.05
    14   1    -0.00   0.01   0.00    -0.01   0.02   0.00     0.01  -0.07  -0.01
    15   1     0.02  -0.01  -0.07     0.01  -0.00  -0.03    -0.01   0.00   0.04
    16   1     0.08  -0.03   0.09    -0.13   0.04  -0.13     0.20  -0.06   0.21
    17   1     0.00  -0.01   0.00     0.01  -0.07   0.00    -0.01   0.08  -0.00
    18   1     0.01   0.00  -0.00     0.06   0.03  -0.01    -0.04  -0.02   0.01
    19   1    -0.03   0.01  -0.04    -0.06   0.03  -0.09     0.00  -0.00   0.00
    20   1     0.02  -0.02  -0.07     0.05  -0.05  -0.21    -0.17   0.16   0.68
    21   1    -0.01   0.07   0.01    -0.00  -0.02   0.00     0.08  -0.53  -0.04
    22   1     0.05  -0.09  -0.25    -0.16   0.28   0.81    -0.03   0.06   0.18
    23   1    -0.07  -0.03   0.03     0.19   0.08  -0.09     0.10   0.05  -0.05
                     55                     56                     57
                      A                      A                      A
 Frequencies --   3043.6432              3051.8748              3076.9205
 Red. masses --      1.0360                 1.0384                 1.1018
 Frc consts  --      5.6547                 5.6982                 6.1461
 IR Inten    --     25.9871                16.0114                37.5771
  Atom  AN      X      Y      Z        X      Y      Z        X      Y      Z
     1   8     0.00   0.00  -0.00     0.00  -0.00  -0.00     0.00   0.00   0.00
     2   6    -0.00  -0.00   0.00    -0.00  -0.00  -0.00    -0.00   0.00  -0.00
     3   6     0.00  -0.00  -0.00     0.00   0.00  -0.01     0.00   0.00  -0.00
     4   6    -0.00  -0.00   0.00    -0.00   0.00   0.00     0.00   0.00  -0.00
     5   6     0.04   0.02  -0.01     0.01   0.00   0.00     0.00   0.00   0.00
     6   6     0.00  -0.00   0.00     0.00  -0.00   0.00     0.00  -0.00  -0.00
     7   6    -0.01   0.00   0.01     0.01  -0.02  -0.04     0.00   0.00  -0.00
     8   6    -0.00  -0.00   0.00    -0.00   0.00   0.01     0.02  -0.08  -0.05
     9   6     0.00   0.00   0.00    -0.00  -0.00  -0.01    -0.00  -0.01  -0.01
    10   1    -0.01   0.01   0.05    -0.03   0.01   0.09    -0.01   0.00   0.02
    11   1     0.00   0.00  -0.00     0.01  -0.02  -0.00     0.00  -0.01  -0.00
    12   1     0.00   0.00  -0.01     0.01  -0.01  -0.03    -0.01   0.01   0.02
    13   1    -0.45   0.18  -0.36    -0.10   0.04  -0.08    -0.02   0.01  -0.01
    14   1     0.10  -0.50  -0.10     0.02  -0.10  -0.02     0.00  -0.03  -0.00
    15   1    -0.15   0.05   0.53    -0.02   0.01   0.08     0.00  -0.00  -0.01
    16   1    -0.05   0.02  -0.06    -0.03   0.01  -0.03     0.00  -0.00   0.00
    17   1     0.01  -0.13   0.01    -0.06   0.61  -0.02    -0.00   0.00   0.00
    18   1     0.11   0.05  -0.02    -0.41  -0.19   0.07    -0.05  -0.02   0.01
    19   1    -0.06   0.03  -0.08     0.35  -0.14   0.45     0.03  -0.01   0.04
    20   1     0.01  -0.01  -0.06     0.03  -0.03  -0.13    -0.12   0.10   0.51
    21   1    -0.00   0.03   0.00     0.00   0.00   0.00    -0.11   0.81   0.04
    22   1     0.00  -0.01  -0.02    -0.02   0.03   0.08    -0.02   0.05   0.14
    23   1    -0.01  -0.01   0.01     0.01   0.01  -0.01     0.07   0.03  -0.03
                     58                     59                     60
                      A                      A                      A
 Frequencies --   3106.7554              3108.7232              3110.1351
 Red. masses --      1.0962                 1.1016                 1.1012
 Frc consts  --      6.2338                 6.2723                 6.2759
 IR Inten    --      7.3738                 9.1739                69.6434
  Atom  AN      X      Y      Z        X      Y      Z        X      Y      Z
     1   8    -0.00   0.00   0.00     0.00  -0.00  -0.00     0.00   0.00   0.00
     2   6     0.00  -0.00  -0.00    -0.00   0.00   0.00    -0.00  -0.00  -0.00
     3   6     0.02  -0.07  -0.02    -0.01   0.02   0.01     0.00  -0.01  -0.00
     4   6     0.00  -0.00  -0.00     0.00   0.00  -0.00     0.00  -0.00   0.00
     5   6    -0.02   0.03   0.01    -0.03   0.03  -0.06     0.03  -0.05   0.02
     6   6     0.00  -0.00   0.00     0.00  -0.00   0.00     0.00  -0.00   0.00
     7   6     0.01  -0.01   0.01     0.00  -0.04   0.02     0.02  -0.06   0.03
     8   6     0.00  -0.00  -0.00     0.00  -0.00  -0.00     0.00  -0.00  -0.00
     9   6    -0.00   0.00   0.00     0.00   0.00  -0.00     0.01   0.00  -0.00
    10   1    -0.06   0.02   0.20     0.02  -0.01  -0.07     0.00  -0.00  -0.01
    11   1    -0.17   0.81   0.10     0.05  -0.25  -0.03    -0.02   0.07   0.01
    12   1    -0.01   0.01   0.03    -0.01   0.01   0.04    -0.00   0.00   0.00
    13   1     0.15  -0.05   0.12     0.47  -0.18   0.36    -0.31   0.12  -0.25
    14   1     0.06  -0.34  -0.06     0.03  -0.19  -0.05    -0.08   0.44   0.09
    15   1     0.04  -0.01  -0.13    -0.15   0.05   0.47     0.02  -0.01  -0.02
    16   1    -0.01   0.00  -0.01    -0.01   0.00  -0.01    -0.05   0.02  -0.05
    17   1    -0.01   0.15  -0.00    -0.04   0.39  -0.01    -0.05   0.56  -0.01
[...]
 0.00005599,-0.00018525,-0.00033777,0.00022277,0.00145476,0.00083668,0.
 00040301,0.01845378,-0.02292071,-0.00584256,0.12281065,-0.20213320,-0.
 04216795,-0.00554089,-0.00299384,0.00011151,-0.00053854,0.00018337,0.0
 0049364,0.00174001,-0.00107033,-0.00027672,0.00015438,0.00026590,0.000
 04932,-0.00006784,-0.00002747,0.00002025,-0.00093758,0.00035770,-0.000
 44778,0.00023963,0.00111716,0.00051483,-0.00016533,0.00026886,0.000712
 53,-0.13304257,0.22144598,0.00004845,0.00004152,-0.00003021,-0.0002075
 4,0.00002522,-0.00000757,0.00059881,-0.00044193,-0.00007589,-0.0008233
 6,0.00180734,-0.00109568,0.03308012,-0.04242301,-0.06100611,0.00030894
 ,0.00065368,0.00022403,0.00046342,0.00001106,0.00012323,0.00000251,0.0
 0008925,0.00037058,0.00009416,0.00013854,-0.00001289,0.00007998,-0.000
 09053,-0.00001679,-0.00039129,-0.00007563,0.00010756,-0.00055946,0.000
 27875,0.00033524,-0.01382975,0.01881561,0.00562704,-0.03703238,0.04572
 269,0.06078391,0.00020852,0.00016741,0.00003692,0.00001477,-0.00027839
 ,-0.00020462,0.00082403,0.00084573,0.00122731,-0.00860564,-0.00267744,
 0.01591830,-0.09288705,-0.01655653,0.09509239,-0.00010670,0.00064759,-
 0.00046877,0.00006572,0.00038595,0.00009091,0.00012215,-0.00000563,0.0
 0014492,0.00003590,0.00012933,0.00014058,-0.00007613,-0.00019999,-0.00
 078541,-0.00011864,-0.00001498,0.00005083,-0.00125874,-0.00362163,-0.0
 0025506,0.01177076,0.00402076,-0.02255107,-0.00834830,-0.00384102,0.01
 857851,0.09839081,0.00021674,0.00009482,0.00003238,0.00018504,-0.00009
 011,0.00002536,0.00126581,0.00123626,0.00083243,-0.01251763,-0.0040864
 3,0.02762124,-0.01661890,-0.05547474,0.03631933,-0.00028666,0.00129139
 ,0.00087992,-0.00001163,-0.00062588,-0.00012125,-0.00003485,-0.0000814
 9,-0.00017579,0.00002605,0.00004921,0.00009920,-0.00014013,0.00022902,
 -0.00083602,-0.00001988,-0.00000788,-0.00019482,-0.00327573,-0.0050054
 9,0.00000619,0.00007685,-0.00104863,0.00079228,0.00945216,0.00496046,-
 0.02406055,0.02020598,0.05939542,0.00005371,0.00006225,-0.00011221,-0.
 00011171,-0.00018752,0.00039528,-0.00045725,-0.00012824,0.00128794,-0.
 00032794,0.00086489,-0.00038375,0.09509385,0.03712706,-0.26108942,0.00
 068403,-0.00011734,-0.00032801,0.00112460,-0.00011068,-0.00002048,-0.0
 0015636,0.00016251,0.00011742,0.00001437,0.00004260,-0.00010155,0.0005
 2193,0.00015706,0.00043651,0.00000683,0.00004522,-0.00003044,-0.000388
 63,0.00008613,0.00153558,0.00972586,0.00270559,-0.01924605,0.00177200,
 0.00053854,-0.00557406,-0.10668410,-0.04010700,0.28276706,-0.00054148,
 -0.00006247,0.00004395,0.00123284,0.00013888,0.00031515,-0.00143585,0.
 00343211,0.00157552,-0.01402458,0.00167988,-0.01574065,0.00036304,-0.0
 0102719,0.00023566,-0.13872544,0.00023741,-0.12013579,0.01092227,-0.00
 020016,0.01839022,-0.01339972,-0.00117073,-0.01507953,-0.00123182,-0.0
 0364128,0.00153624,0.00019043,0.00004291,-0.00003468,-0.00085385,-0.00
 000211,-0.00089552,0.00011879,-0.00049376,0.00018484,0.00060462,0.0005
 0465,0.00020062,0.00006535,-0.00007328,0.00026731,0.00004888,-0.000033
 53,0.00006860,0.15634151,-0.00002967,0.00090130,0.00001792,-0.00002890
 ,-0.00219168,-0.00004479,0.00281188,-0.00432549,-0.00154753,0.01858721
 ,-0.00256483,0.02209173,0.00075688,0.00140045,0.00112202,0.00023011,-0
 .04796118,-0.00026161,-0.00033980,0.00021987,-0.00020744,-0.01951020,-
 0.00164203,-0.02238874,-0.00271415,-0.00433417,0.00173542,-0.00034194,
 0.00003436,-0.00005066,0.00131170,0.00014825,0.00120735,-0.00065319,0.
 00108418,-0.00016942,-0.00057631,-0.00032314,-0.00044768,-0.00013612,0
 .00027923,-0.00030688,0.00001083,-0.00009040,-0.00005327,0.00013213,0.
 05618233,-0.00000016,-0.00004970,-0.00006200,0.00012913,0.00010131,0.0
 0002498,0.00055763,-0.00012810,0.00135893,0.00094127,-0.00058410,0.000
 56167,0.00000045,-0.00013043,-0.00010932,-0.12103925,-0.00018441,-0.20
 616245,-0.01486934,0.00033741,-0.02603577,0.00182832,0.00042394,0.0013
 7292,0.00069955,0.00006321,0.00127775,0.00025282,-0.00016401,0.0001790
 4,-0.00002639,-0.00005914,0.00005250,-0.00000285,0.00026817,0.00111049
 ,0.00029308,0.00057387,0.00020174,0.00021169,0.00011652,0.00021796,0.0
 0002373,-0.00007037,0.00008642,0.12686636,0.00029712,0.22656915,-0.000
 04644,-0.00038828,-0.00002164,0.00027584,0.00095349,0.00001873,0.00028
 606,-0.00014516,0.00015116,-0.00108223,-0.00170102,0.00378029,0.000007
 47,-0.00063662,0.00015335,-0.01187725,0.01649632,-0.00000207,-0.120218
 24,0.11665279,0.00063969,0.00020915,0.00169884,-0.00066853,-0.00006139
 ,-0.00044092,-0.00005643,0.00012341,-0.00020189,0.00012864,-0.00006600
 ,-0.00002537,0.00003843,-0.00076379,0.00111459,0.00023767,0.00001106,0
 .00006313,0.00010628,0.00015406,0.00012420,-0.00017656,0.00005437,0.00
 013178,-0.00038254,0.00081237,-0.00041770,-0.00007888,0.12858836,0.000
 18902,0.00014131,0.00000373,-0.00020866,-0.00031325,0.00000239,-0.0000
 7833,0.00021315,0.00003613,-0.00103084,0.00080120,-0.00020200,0.000178
 25,-0.00012729,0.00037884,-0.00046227,-0.00060539,-0.00001034,0.117152
 30,-0.23949458,-0.00311809,-0.00098973,0.00071765,0.00052898,0.0001173
 7,0.00010007,0.00002914,-0.00007650,-0.00001110,-0.00002983,0.00003057
 ,-0.00000837,0.00003269,0.00015634,0.00002698,-0.00001355,-0.00001959,
 0.00004670,0.00001836,0.00014260,0.00002444,-0.00018339,0.00004823,0.0
 0027862,-0.00035684,-0.00004093,0.00007042,-0.00051963,-0.12855295,0.2
 5873929,-0.00008720,0.00006497,-0.00003043,0.00005654,-0.00017562,-0.0
 0003479,-0.00015715,0.00008706,-0.00053933,0.00231702,0.00168637,-0.00
 487938,0.00027579,0.00064704,-0.00012173,0.01600339,-0.02460483,-0.000
 89078,0.00042043,-0.00272766,-0.04811123,-0.00043589,-0.00108189,0.001
 14915,-0.00004073,0.00012839,-0.00004696,0.00004539,-0.00012932,0.0004
 5062,0.00002585,-0.00003401,0.00031298,0.00117615,-0.00137048,-0.00021
 351,-0.00004814,0.00000274,0.00004371,-0.00004753,-0.00007667,0.000072
 07,-0.00019266,-0.00009287,0.00016620,-0.00082829,-0.00018682,0.000892
 15,-0.00427170,0.00279075,0.05146632,-0.00010271,0.00033622,-0.0000255
 3,0.00030568,-0.00081083,0.00000068,-0.00004620,0.00045470,0.00003172,
 0.00000393,-0.00119903,-0.00048055,-0.00004693,-0.00033719,0.00075119,
 -0.01246772,-0.01427215,-0.00155296,-0.16080928,-0.13090587,-0.0024102
 1,-0.00101604,0.00168939,0.00370275,0.00032799,0.00015904,0.00008069,-
 0.00011394,-0.00014403,0.00001488,-0.00008969,0.00005217,0.00003823,0.
 00019683,0.00013002,0.00001314,0.00003024,0.00011143,0.00012829,0.0003
 9687,0.00012423,-0.00044295,-0.00009509,0.00109642,-0.00056097,0.00106
 499,0.00041132,-0.00009394,0.01307156,0.01362397,0.00029122,0.17156781
 ,-0.00015408,0.00008050,0.00000886,0.00011371,-0.00018502,-0.00000245,
 0.00007486,0.00000060,0.00003823,0.00005412,-0.00009493,0.00042595,0.0
 0061022,-0.00095115,-0.00012301,0.00183333,0.00165927,0.00063632,-0.13
 152534,-0.20291234,-0.00241702,0.00033577,0.00044084,0.00047528,0.0001
 1312,0.00020767,0.00005850,0.00001137,0.00000516,0.00000256,-0.0000172
 9,0.00002715,0.00000071,-0.00019603,0.00010732,-0.00000530,-0.00005374
 ,-0.00001853,0.00008086,0.00015831,0.00013926,-0.00017552,0.00088228,-
 0.00094294,-0.00085031,-0.00003611,0.00020610,0.00052884,-0.01890933,-
 0.02090298,-0.00104850,0.14412258,0.22016058,-0.00005522,-0.00007793,-
 0.00003895,0.00006568,0.00019486,-0.00001857,-0.00010207,0.00000161,-0
 .00012662,-0.00052988,0.00035111,0.00081104,0.00024754,-0.00047628,0.0
 0050941,0.01779764,0.02300187,0.00089601,-0.00292196,-0.00267391,-0.04
 888017,0.00283131,-0.00162667,-0.00501888,-0.00016245,-0.00009738,-0.0
 0054485,-0.00000332,-0.00011047,0.00007147,-0.00000360,-0.00001548,0.0
 0008062,-0.00022471,0.00015871,-0.00002998,-0.00010214,-0.00017663,-0.
 00033740,-0.00017850,-0.00000609,-0.00009508,0.00019454,-0.00037705,0.
 00000533,-0.00073768,0.00031562,0.00107262,-0.00011901,0.00025407,-0.0
 0093116,0.00044770,0.00312110,0.05169789,-0.00004296,0.00001157,0.0000
 0617,-0.00022622,-0.00000966,0.00011267,-0.00071684,0.00016409,-0.0002
 0588,0.00084588,0.00029698,-0.00043121,0.00005775,0.00008591,-0.000186
 10,0.01400275,-0.00135334,0.01655199,-0.12344624,0.00698758,-0.1164648
 2,0.00084477,-0.00006042,-0.00041222,-0.00069003,-0.00020695,-0.000271
 76,-0.00110682,0.00068869,0.00026569,0.00013813,0.00000412,0.00000574,
 0.00010723,-0.00026066,-0.00028442,-0.00003429,-0.00004588,0.00010788,
 0.00005224,0.00000511,-0.00000128,-0.00005437,0.00003647,0.00001858,-0
 .00170256,0.00009564,0.00413555,-0.00969241,-0.00033975,-0.01397728,-0
 .01167771,0.00278120,-0.01764885,0.13416025,0.00001258,-0.00038313,0.0
 0000876,-0.00005907,0.00092791,-0.00000426,0.00032008,-0.00004193,-0.0
 0027858,-0.00044297,0.00019756,-0.00047452,-0.00002105,0.00000354,-0.0
 0026326,-0.00056484,-0.00078593,-0.00114152,0.00697678,-0.05059971,0.0
 1179140,0.00043143,-0.00001554,0.00050674,-0.00020497,-0.00002758,0.00
 029913,0.00084003,-0.00035107,0.00006764,-0.00014349,-0.00008934,0.000
 07435,0.00001537,0.00001045,0.00017105,0.00004486,0.00006117,0.0001841
 4,0.00004148,-0.00002711,0.00010465,-0.00015600,-0.00012298,0.00001389
 ,0.00016148,0.00078582,-0.00036824,0.01543305,-0.00043226,0.02537984,-
 0.01365238,0.00239895,-0.02295315,-0.00830647,0.04896156,-0.00032493,-
 0.00004119,-0.00018501,0.00054763,0.00011748,0.00019982,-0.00001212,0.
 00004597,-0.00039470,-0.00119278,0.00087525,0.00030528,0.00027346,-0.0
 0012998,-0.00010915,-0.01554553,0.00100264,-0.02262238,-0.11670139,0.0
 1171221,-0.23490220,-0.00089141,-0.00071824,0.00022502,0.00001239,-0.0
 0003228,-0.00040725,0.00012133,-0.00040311,0.00093306,-0.00003913,-0.0
 0004528,0.00050974,0.00015611,-0.00002779,0.00021234,0.00007574,0.0001
 9476,0.00016841,0.00001527,-0.00012882,0.00004050,-0.00013134,-0.00019
 298,-0.00002573,0.00429160,0.00005972,-0.00387830,0.00044151,0.0004561
 7,0.00107404,-0.00011693,-0.00047589,0.00033915,0.12858462,-0.01276581
 ,0.25690672,-0.00023547,-0.00023656,0.00035055,0.00180692,-0.00079156,
 -0.00058536,0.00001754,0.00004754,-0.00015383,0.00009148,0.00104570,0.
 00004775,0.00004946,-0.00005061,-0.00023191,-0.01008245,-0.00028210,0.
 01797104,-0.00188439,-0.00424404,-0.00076677,-0.09306453,-0.00014302,0
 .09692527,0.00912274,0.00056524,-0.02495615,-0.00007729,0.00000482,-0.
 00003044,0.00005720,0.00004108,0.00002366,0.00063464,-0.00023447,-0.00
 035770,-0.00003474,0.00000398,0.00003303,0.00002589,-0.00003613,-0.000
 03778,0.00001665,0.00017988,-0.00008408,0.00010565,0.00052468,0.000007
 18,0.00043749,-0.00012052,-0.00045825,-0.00067234,-0.00032465,0.001328
 85,0.00008419,-0.00007756,0.00023781,0.10384350,-0.00018805,0.00012347
 ,-0.00014828,-0.00024836,-0.00022269,0.00073743,0.00022119,-0.00012068
 ,-0.00017674,-0.00080589,0.00108730,0.00132174,-0.00003331,0.00014954,
 -0.00030996,-0.01251897,-0.00174537,0.02571354,-0.00202932,-0.00465391
 ,-0.00099843,0.00050893,-0.05201100,0.00469358,-0.00002896,-0.00000137
 ,-0.00050836,-0.00006375,0.00008375,-0.00015098,0.00004163,-0.00000775
 ,0.00002837,0.00036207,-0.00055975,-0.00062101,-0.00000035,0.00000353,
 0.00003961,0.00002713,0.00001943,-0.00003814,0.00005397,0.00017794,-0.
 00004654,0.00055777,0.00124554,-0.00027226,-0.00022270,0.00025564,-0.0
 0009475,-0.00107257,0.00011336,0.00130342,0.00013870,0.00000335,0.0000
 4461,0.00440323,0.05371113,-0.00125024,0.00042501,0.00036032,0.0019885
 7,-0.00168083,-0.00056451,-0.00010703,0.00037018,-0.00027456,-0.000082
 63,-0.00056719,-0.00042655,-0.00015803,0.00018241,0.00041573,0.0010222
 1,-0.00057853,-0.00210688,0.00040667,0.00082072,0.00151619,0.09694618,
 0.00504392,-0.25808043,0.00683464,0.00093103,-0.02151250,0.00002051,-0
 .00007280,0.00014555,0.00001070,0.00012154,-0.00001069,-0.00038943,0.0
 0045548,0.00057790,0.00001960,-0.00000265,-0.00002418,0.00000258,0.000
 05281,-0.00001579,-0.00009639,-0.00017345,0.00006466,0.00019099,0.0001
 9204,0.00113312,-0.00013916,-0.00008176,0.00002035,0.00010316,-0.00010
 157,-0.00023807,-0.00021949,-0.00015852,0.00018361,-0.10273483,-0.0044
 4790,0.28252463,-0.00199841,0.00190121,0.00081165,-0.00090277,-0.00504
 552,-0.00395945,0.00003125,-0.00000878,0.00061893,-0.00249145,-0.00243
 274,0.00063607,0.00106674,-0.00098144,-0.00011323,0.01127499,-0.016649
 23,-0.00109993,0.00112260,-0.00060598,-0.00042232,-0.13075212,0.120488
 29,0.01506609,-0.01489221,0.02099397,-0.00037834,-0.00001781,-0.000036
 62,0.00000478,0.00008922,0.00007982,0.00009687,-0.00004110,-0.00000923
 ,-0.00017382,0.00007076,0.00013151,-0.00000065,-0.00017371,-0.00044918
 ,-0.00002125,0.00001272,0.00007944,0.00003706,0.00070552,0.00081926,-0
 .00005900,-0.00000770,0.00017235,-0.00004264,0.00016939,0.00004152,-0.
 00021407,-0.00008289,0.00000513,0.00010940,-0.00795278,0.01114509,0.00
 157346,0.14300325,-0.00004164,0.00011832,0.00017154,-0.00048187,0.0005
 3757,-0.00042510,-0.00038646,0.00064910,-0.00019259,-0.00569662,-0.003
 31184,0.00048361,0.00173342,-0.00090382,-0.00017239,0.01595648,-0.0229
 8794,-0.00245724,0.00172604,0.00075816,-0.00063071,0.11940844,-0.22190
 552,-0.01908982,-0.00117533,0.00237303,0.00002444,0.00001554,-0.000026
 62,0.00009281,0.00010405,0.00001586,0.00006664,-0.00014569,0.00038529,
 -0.00007310,-0.00002668,0.00006971,-0.00006587,-0.00031266,-0.00065866
 ,0.00006504,-0.00007531,-0.00010748,0.00013048,-0.00009532,0.00073267,
 -0.00044465,-0.00108877,0.00054599,0.00076067,-0.00014764,0.00051712,-
 0.00028535,-0.00014093,0.00000736,0.00007750,-0.00065679,0.00115676,-0
 .00066605,-0.12888590,0.24146652,-0.00225331,0.00188867,0.00091838,-0.
 00202182,-0.00377104,-0.00371747,0.00032734,-0.00007861,0.00033144,0.0
 0026883,0.00029298,-0.00011121,-0.00002470,0.00009696,0.00063639,-0.00
 089583,0.00273431,-0.00085958,-0.00059717,0.00082378,0.00020439,0.0153
 9662,-0.02025466,-0.05189585,-0.01551599,0.02192524,-0.00033486,-0.000
 03342,-0.00000853,0.00003080,0.00005010,0.00008598,0.00007424,-0.00035
 721,0.00027620,0.00043207,0.00005067,0.00006041,0.00000681,0.00002089,
 0.00003226,-0.00000445,-0.00009067,-0.00013201,-0.00000486,0.00020583,
 -0.00026514,-0.00007263,0.00029313,0.00000983,0.00011436,-0.00006763,-
 0.00017638,-0.00002802,-0.00000562,0.00009806,-0.00000782,0.01710607,-
 0.02547854,-0.00238720,-0.01341158,0.02183934,0.05468103,-0.00103723,0
 .00351480,-0.00340998,-0.01090714,0.00034944,0.01796317,0.00037572,-0.
 00000806,-0.00129613,-0.00018044,-0.00030518,-0.00016541,-0.00004100,0
 .00003394,-0.00003861,0.00115372,-0.00017003,0.00056832,-0.00038506,-0
 .00033432,0.00023014,0.01017602,-0.00274897,-0.02580040,-0.08544514,0.
 00930362,0.09949363,0.00040938,0.00037232,-0.00014657,-0.00009247,-0.0
 0009427,-0.00026623,-0.00009515,0.00007647,0.00003179,-0.00000786,-0.0
 0002351,0.00000080,-0.00000604,0.00001120,0.00000875,0.00000660,-0.000
 02273,0.00002961,0.00016055,0.00036299,0.00023153,-0.00019074,0.000078
 85,-0.00002555,0.00005934,0.00011225,0.00006468,-0.00090220,-0.0007834
 1,0.00010821,-0.00357442,-0.00047220,-0.00398712,0.00161564,0.00006336
 ,0.00098280,0.09670281,0.00244151,-0.00257469,0.00360416,0.01169839,0.
 00094841,-0.02929123,-0.00137334,-0.00042357,0.00353077,0.00036912,0.0
 0019478,0.00009866,0.00002855,0.00001869,0.00000141,0.00044115,-0.0000
 6579,-0.00073252,-0.00049139,0.00029419,-0.00046352,-0.00070270,0.0004
 1902,0.00077605,0.01072524,-0.05440164,-0.02933934,-0.00041156,-0.0015
 4996,-0.00003384,0.00008418,0.00038548,0.00040909,0.00001681,0.0000935
 1,0.00007587,0.00000591,-0.00001415,-0.00001732,-0.00001828,0.00001227
 ,0.00001510,0.00000829,-0.00002866,0.00000143,-0.00004579,0.00003077,0
 .00014866,0.00011493,-0.00008045,0.00007710,0.00020468,-0.00004610,0.0
 0014347,-0.00058364,-0.00038541,0.00035581,0.00044042,0.00104466,0.000
 32598,-0.00050171,0.00021549,0.00040000,-0.01257315,0.05187643,-0.0007
 4602,-0.00065876,-0.00070285,0.00098132,-0.00016086,0.00074670,0.00061
 754,-0.00000096,-0.00058314,-0.00034713,-0.00004054,-0.00012701,0.0000
 4838,-0.00001936,-0.00000476,0.00103559,0.00049999,0.00010276,-0.00002
 774,0.00024679,-0.00039905,0.00803751,-0.00238708,-0.02363337,0.094827
 88,-0.02340134,-0.25132848,-0.00017296,0.00004652,0.00046104,-0.000021
 11,-0.00017779,0.00019147,-0.00003493,0.00014984,0.00015434,0.00000393
 ,-0.00000047,0.00000025,-0.00002229,-0.00002481,0.00001458,-0.00002763
 ,-0.00005860,0.00003678,-0.00002842,0.00005977,0.00018710,-0.00007955,
 -0.00001563,-0.00001178,0.00011401,0.00001614,0.00047401,0.00029471,-0
 .00016603,0.00095600,-0.00447740,-0.00018092,-0.00217328,0.00037178,0.
 00039846,0.00134255,-0.10228374,0.02605158,0.27854720,0.00177498,-0.00
 128212,0.00017143,0.01155862,0.01570041,-0.00354820,-0.00211681,0.0026
 9681,0.00052432,-0.00037305,0.00030850,-0.00009590,0.00017145,-0.00009
 397,0.00005854,-0.00205720,0.00208488,-0.00395299,0.00036021,-0.000011
 80,-0.00027939,-0.01341741,-0.01774320,0.00464960,-0.15195481,-0.13043
 761,0.02648111,-0.00009439,-0.00010041,-0.00002919,0.00057881,0.000910
 28,0.00009580,0.00006184,-0.00005146,0.00001302,0.00006036,0.00007678,
 0.00002933,0.00000005,-0.00012133,-0.00000736,-0.00002120,0.00000908,0
 .00000253,-0.00082152,-0.00130666,-0.00000847,-0.00002501,0.00003023,0
 .00000122,-0.00005697,-0.00002809,0.00002554,0.00008235,0.00012996,-0.
 00001951,0.00128504,0.00022473,0.00004510,0.00015086,0.00035028,0.0005
 7265,-0.00779491,-0.00987762,0.00193627,0.16264870,0.00000923,0.005990
 08,-0.00098867,-0.02197882,-0.02660866,0.00546547,0.00492751,-0.003172
 20,-0.00081680,0.00051570,0.00020428,0.00047788,-0.00008812,0.00013610
 ,-0.00012250,0.00064056,0.00079182,0.00014690,0.00004644,0.00018646,-0
 .00000244,0.00140372,0.00193089,-0.00099553,-0.12607875,-0.20749887,0.
 03321620,0.00009060,0.00039845,0.00018575,-0.00087889,-0.00150174,-0.0
 0007810,-0.00004105,-0.00001446,-0.00013101,-0.00011570,-0.00003332,-0
 .00004914,0.00002766,0.00006630,0.00002715,0.00002058,0.,0.00002010,0.
 00003544,0.00011166,0.00011599,-0.00005240,0.00001421,-0.00000152,0.00
 002551,-0.00000992,0.00003052,0.00001166,-0.00009568,0.00001923,-0.000
 05854,0.00014712,-0.00038988,-0.00025128,0.00035293,-0.00039912,0.0032
 5660,0.00403672,-0.00017593,0.13853235,0.22456782,-0.00085593,0.000220
 37,-0.00113806,0.00082149,-0.00281052,-0.00061277,-0.00004821,0.000156
 74,0.00127031,-0.00025265,0.00063163,-0.00009846,0.00015522,-0.0000653
 7,0.00004239,-0.00281107,0.00139345,-0.00371478,0.00001438,0.00012550,
 -0.00054000,-0.01458332,-0.01987689,0.00391360,0.02603862,0.03364382,-
 0.05638855,-0.00026786,-0.00040154,0.00019420,0.00008926,0.00006439,0.
 00034019,0.00003586,-0.00002197,-0.00002475,0.00004965,0.00006219,0.00
 002418,-0.00000275,-0.00007525,0.00001780,-0.00001121,-0.00001556,0.00
 001739,-0.00089234,-0.00116872,0.00002191,0.00000720,-0.00001001,0.000
 04914,0.00003402,-0.00001740,0.00033022,0.00002533,-0.00012577,0.00047
 885,0.00084329,-0.00040950,0.00087259,0.00057019,0.00039233,0.00065147
 ,0.01770630,0.02386262,-0.00425106,-0.02666546,-0.03555456,0.05854419\
 \-0.00013685,0.00000431,0.00019165,0.00014965,-0.00000830,-0.00035029,
 -0.00007830,-0.00004754,-0.00019992,0.00002982,-0.00015557,0.00012442,
 0.00013174,-0.00003458,-0.00000275,0.00000153,-0.00005320,0.00010360,-
 0.00011620,0.00006938,-0.00001564,-0.00007703,0.00004393,0.00011227,-0
 .00005253,0.00003197,-0.00011907,-0.00002275,0.00009425,0.00010116,-0.
 00001685,-0.00003461,0.00007640,-0.00001880,0.00002548,0.00000122,0.00
 000259,0.00003476,0.00001220,-0.00000335,0.00000994,-0.00002050,0.0000
 7019,-0.00006109,-0.00004961,-0.00001008,-0.00000913,0.00000776,0.0000
 7537,0.00004045,-0.00001495,-0.00002590,0.00010949,-0.00004799,0.00004
 785,-0.00003775,-0.00003233,-0.00004017,-0.00003894,-0.00000874,0.0000
 6327,0.00003233,0.00003335,0.00004524,-0.00002570,0.00003954,-0.000018
 43,0.00001012,0.00005823\\\@


 TELEVISION IS CALLED A MEDIUM BECAUSE IT ISN'T
 RARE, AND IT ISN'T WELL DONE.
 Job cpu time:       0 days  0 hours  1 minutes 35.9 seconds.
 Elapsed time:       0 days  0 hours  1 minutes 36.5 seconds.
 File lengths (MBytes):  RWF=     78 Int=      0 D2E=      0 Chk=      4 Scr=      1
 Normal termination of Gaussian 16 at Wed Feb 21 19:04:34 2024.
