 Entering Gaussian System, Link 0=g16
 Input=/Volumes/SSD-PMU3/b3lyp_6-31gd_freq/ZDCYWXYPRPCJOY-NKWVEPMBSA-N_calculating/gaussianinput0.gjf
 Output=/Volumes/SSD-PMU3/b3lyp_6-31gd_freq/ZDCYWXYPRPCJOY-NKWVEPMBSA-N_calculating/gaussianinput0.log
 Initial command:
 /Applications/g16/l1.exe "/Users/macmini_m1_2022/PycharmProjects/sphere_model/sphere_model_lib/Gau-51855.inp" -scrdir="/Users/macmini_m1_2022/PycharmProjects/sphere_model/sphere_model_lib/"
 Entering Link 1 = /Applications/g16/l1.exe PID=     51856.
  
 Copyright (c) 1988,1990,1992,1993,1995,1998,2003,2009,2016,
            Gaussian, Inc.  All Rights Reserved.
  
 This is part of the Gaussian(R) 16 program.  It is based on
 the Gaussian(R) 09 system (copyright 2009, Gaussian, Inc.),
 the Gaussian(R) 03 system (copyright 2003, Gaussian, Inc.),
 the Gaussian(R) 98 system (copyright 1998, Gaussian, Inc.),
 the Gaussian(R) 94 system (copyright 1995, Gaussian, Inc.),
 the Gaussian 92(TM) system (copyright 1992, Gaussian, Inc.),
 the Gaussian 90(TM) system (copyright 1990, Gaussian, Inc.),
 the Gaussian 88(TM) system (copyright 1988, Gaussian, Inc.),
 the Gaussian 86(TM) system (copyright 1986, Carnegie Mellon
 University), and the Gaussian 82(TM) system (copyright 1983,
 Carnegie Mellon University). Gaussian is a federally registered
 trademark of Gaussian, Inc.
  
 This software contains proprietary and confidential information,
 including trade secrets, belonging to Gaussian, Inc.
  
 This software is provided under written license and may be
 used, copied, transmitted, or stored only in accord with that
 written license.
  
 The following legend is applicable only to US Government
 contracts under FAR:
  
                    RESTRICTED RIGHTS LEGEND
  
 Use, reproduction and disclosure by the US Government is
 subject to restrictions as set forth in subparagraphs (a)
 and (c) of the Commercial Computer Software - Restricted
 Rights clause in FAR 52.227-19.
  
 Gaussian, Inc.
 340 Quinnipiac St., Bldg. 40, Wallingford CT 06492
  
  
 ---------------------------------------------------------------
 Warning -- This program may not be used in any manner that
 competes with the business of Gaussian, Inc. or will provide
 assistance to any competitor of Gaussian, Inc.  The licensee
 of this program is prohibited from giving any competitor of
 Gaussian, Inc. access to this program.  By using this program,
 the user acknowledges that Gaussian, Inc. is engaged in the
 business of creating and licensing software in the field of
 computational chemistry and represents and warrants to the
 licensee that it is not a competitor of Gaussian, Inc. and that
 it will not use this program in any manner prohibited above.
 ---------------------------------------------------------------
  

 Cite this work as:
 Gaussian 16, Revision A.03,
 M. J. Frisch, G. W. Trucks, H. B. Schlegel, G. E. Scuseria, 
 M. A. Robb, J. R. Cheeseman, G. Scalmani, V. Barone, 
 G. A. Petersson, H. Nakatsuji, X. Li, M. Caricato, A. V. Marenich, 
 J. Bloino, B. G. Janesko, R. Gomperts, B. Mennucci, H. P. Hratchian, 
 J. V. Ortiz, A. F. Izmaylov, J. L. Sonnenberg, D. Williams-Young, 
 F. Ding, F. Lipparini, F. Egidi, J. Goings, B. Peng, A. Petrone, 
 T. Henderson, D. Ranasinghe, V. G. Zakrzewski, J. Gao, N. Rega, 
 G. Zheng, W. Liang, M. Hada, M. Ehara, K. Toyota, R. Fukuda, 
 J. Hasegawa, M. Ishida, T. Nakajima, Y. Honda, O. Kitao, H. Nakai, 
 T. Vreven, K. Throssell, J. A. Montgomery, Jr., J. E. Peralta, 
 F. Ogliaro, M. J. Bearpark, J. J. Heyd, E. N. Brothers, K. N. Kudin, 
 V. N. Staroverov, T. A. Keith, R. Kobayashi, J. Normand, 
 K. Raghavachari, A. P. Rendell, J. C. Burant, S. S. Iyengar, 
 J. Tomasi, M. Cossi, J. M. Millam, M. Klene, C. Adamo, R. Cammi, 
 J. W. Ochterski, R. L. Martin, K. Morokuma, O. Farkas, 
 J. B. Foresman, and D. J. Fox, Gaussian, Inc., Wallingford CT, 2016.
 
 ******************************************
 Gaussian 16:  EM64M-G16RevA.03 25-Dec-2016
                21-Feb-2024 
 ******************************************
 %nprocshared=8
 Will use up to    8 processors via shared memory.
 %mem=4GB
 %chk= 0.chk
 ---------------------
 # freq b3lyp/6-31g(d)
 ---------------------
 1/10=4,30=1,38=1/1,3;
 2/12=2,17=6,18=5,40=1/2;
 3/5=1,6=6,7=1,11=2,25=1,30=1,71=2,74=-5,140=1/1,2,3;
 4//1;
 5/5=2,38=5,98=1/2;
 8/6=4,10=90,11=11/1;
 11/6=1,8=1,9=11,15=111,16=1/1,2,10;
 10/6=1/2;
 6/7=2,8=2,9=2,10=2,28=1/1;
 7/8=1,10=1,25=1/1,2,3,16;
 1/10=4,30=1/3;
 99//99;
 ---------
 good luck
 ---------
 Symbolic Z-matrix:
 Charge =  0 Multiplicity = 1
 O                     1.2167    0.        0. 
 C                     0.        0.        0. 
 C                    -0.82265  -1.28234  -0.00213 
 C                    -1.88803  -1.2932    1.12314 
 C                    -1.22256  -1.48275   2.49681 
 C                    -2.77648  -0.02439   1.01139 
 C                    -3.91634   0.00673   2.03814 
 C                    -1.93092   1.26192   1.06861 
 C                    -0.82054   1.28341  -0.00213 
 H                    -0.14111  -2.13506   0.07621 
 H                    -1.33202  -1.34816  -0.97568 
 H                    -2.53827  -2.1628    0.95161 
 H                    -0.52899  -0.66889   2.73857 
 H                    -0.64297  -2.4127    2.5104 
 H                    -1.96267  -1.54352   3.30122 
 H                    -3.23956  -0.06331   0.01193 
 H                    -4.50277  -0.91962   2.01044 
 H                    -4.59913   0.83974   1.83403 
 H                    -3.54088   0.13466   3.05985 
 H                    -1.47852   1.36261   2.06417 
 H                    -2.57907   2.13776   0.93909 
 H                    -1.2861    1.37314  -0.99594 
 H                    -0.14353   2.13355   0.12332 
 

 GradGradGradGradGradGradGradGradGradGradGradGradGradGradGradGradGradGrad
 Berny optimization.
 Initialization pass.
 Trust Radius=3.00D-01 FncErr=1.00D-07 GrdErr=1.00D-07 EigMax=2.50D+02 EigMin=1.00D-04
 Number of steps in this run=      2 maximum allowed number of steps=      2.
 GradGradGradGradGradGradGradGradGradGradGradGradGradGradGradGradGradGrad

                          Input orientation:                          
 ---------------------------------------------------------------------
 Center     Atomic      Atomic             Coordinates (Angstroms)
 Number     Number       Type             X           Y           Z
 ---------------------------------------------------------------------
      1          8           0        1.216700    0.000000    0.000000
      2          6           0        0.000000    0.000000    0.000000
      3          6           0       -0.822651   -1.282339   -0.002129
      4          6           0       -1.888030   -1.293199    1.123139
      5          6           0       -1.222559   -1.482750    2.496812
      6          6           0       -2.776477   -0.024388    1.011392
      7          6           0       -3.916335    0.006728    2.038139
      8          6           0       -1.930923    1.261916    1.068611
      9          6           0       -0.820539    1.283408   -0.002129
     10          1           0       -0.141114   -2.135062    0.076214
     11          1           0       -1.332022   -1.348157   -0.975677
     12          1           0       -2.538268   -2.162798    0.951610
     13          1           0       -0.528992   -0.668892    2.738574
     14          1           0       -0.642972   -2.412699    2.510403
     15          1           0       -1.962672   -1.543523    3.301221
     16          1           0       -3.239560   -0.063307    0.011932
     17          1           0       -4.502770   -0.919620    2.010437
     18          1           0       -4.599131    0.839739    1.834034
     19          1           0       -3.540883    0.134661    3.059849
     20          1           0       -1.478522    1.362613    2.064173
     21          1           0       -2.579072    2.137757    0.939093
     22          1           0       -1.286096    1.373141   -0.995944
     23          1           0       -0.143533    2.133546    0.123322
 ---------------------------------------------------------------------
                    Distance matrix (angstroms):
                    1          2          3          4          5
     1  O    0.000000
     2  C    1.216700   0.000000
     3  C    2.409014   1.523533   0.000000
     4  C    3.545864   2.549208   1.549638   0.000000
     5  C    3.792440   3.150757   2.538660   1.538102   0.000000
     6  C    4.119341   2.955052   2.535173   1.552967   2.597682
     7  C    5.522871   4.414945   3.923680   2.577025   3.112130
     8  C    3.555544   2.542209   2.974556   2.556057   3.174071
     9  C    2.407796   1.523294   2.565748   3.007436   3.749394
    10  H    2.531394   2.141077   1.094425   2.203747   2.730262
    11  H    3.043921   2.131609   1.100721   2.171910   3.476820
    12  H    4.436557   3.467861   2.151318   1.099288   2.140375
    13  H    3.315817   2.868281   2.823828   2.201448   1.096289
    14  H    3.947356   3.540714   2.760945   2.174385   1.095861
    15  H    4.836210   4.139155   3.504281   2.193690   1.094776
    16  H    4.456726   3.240200   2.706970   2.138703   3.501106
    17  H    6.131875   5.016223   4.210138   2.786346   3.363549
    18  H    6.155707   5.022036   4.704945   3.522054   4.151442
    19  H    5.658216   4.681737   4.332711   2.919170   2.882300
    20  H    3.658107   2.881588   3.419875   2.847206   2.889426
    21  H    4.456432   3.479010   3.958279   3.504693   4.168295
    22  H    3.023476   2.128723   2.872982   3.458642   4.512150
    23  H    2.533271   2.141922   3.484998   3.973095   4.458178
                    6          7          8          9         10
     6  C    0.000000
     7  C    1.534423   0.000000
     8  C    1.540394   2.541130   0.000000
     9  C    2.561884   3.921295   1.542692   0.000000
    10  H    3.503518   4.763266   3.965820   3.486215   0.000000
    11  H    2.790566   4.194934   3.369017   2.852112   1.773120
    12  H    2.152467   2.790422   3.480118   3.966932   2.552143
    13  H    2.906842   3.524367   2.912423   3.377562   3.064028
    14  H    3.535945   4.097751   4.152153   4.472757   2.500844
    15  H    2.865897   2.795613   3.585533   4.495345   3.750822
    16  H    1.102216   2.137392   2.141335   2.768664   3.727824
    17  H    2.186234   1.096720   3.501504   4.739470   4.923674
    18  H    2.178422   1.096256   2.807746   4.224464   5.640327
    19  H    2.192211   1.096003   2.797803   4.253892   5.060845
    20  H    2.171821   2.789630   1.098158   2.169981   4.239619
    21  H    2.172341   2.745443   1.097255   2.169850   4.994515
    22  H    2.864214   4.241568   2.165770   1.101119   3.842915
    23  H    3.518201   4.735390   2.201834   1.093988   4.268869
                   11         12         13         14         15
    11  H    0.000000
    12  H    2.415182   0.000000
    13  H    3.860300   3.076067   0.000000
    14  H    3.709554   2.466664   1.762361   0.000000
    15  H    4.327556   2.497095   1.771155   1.767051   0.000000
    16  H    2.502981   2.404718   3.892106   4.301659   3.826343
    17  H    4.376547   2.554579   4.047710   4.168608   2.916758
    18  H    4.832739   3.747140   4.433981   5.165948   3.844931
    19  H    4.833558   3.275397   3.133752   3.897284   2.316314
    20  H    4.075589   3.845696   2.341674   3.892332   3.195358
    21  H    4.168102   4.300767   3.913852   5.188848   4.417173
    22  H    2.721761   4.226555   4.323162   5.200064   5.237395
    23  H    3.839604   4.987924   3.852503   5.159064   5.189330
                   16         17         18         19         20
    16  H    0.000000
    17  H    2.514556   0.000000
    18  H    2.446218   1.770804   0.000000
    19  H    3.069167   1.771440   1.766252   0.000000
    20  H    3.057155   3.789136   3.172469   2.598571   0.000000
    21  H    2.478014   3.767751   2.562500   3.071658   1.754384
    22  H    2.625875   4.964078   4.389703   4.802849   3.066179
    23  H    3.797888   5.646767   4.944980   4.915355   2.478596
                   21         22         23
    21  H    0.000000
    22  H    2.449652   0.000000
    23  H    2.568531   1.770995   0.000000
 Stoichiometry    C8H14O
 Framework group  C1[X(C8H14O)]
 Deg. of freedom    63
 Full point group                 C1      NOp   1
 Largest Abelian subgroup         C1      NOp   1
 Largest concise Abelian subgroup C1      NOp   1
                         Standard orientation:                         
 ---------------------------------------------------------------------
 Center     Atomic      Atomic             Coordinates (Angstroms)
 Number     Number       Type             X           Y           Z
 ---------------------------------------------------------------------
      1          8           0        2.758388    0.168049   -0.397024
      2          6           0        1.687189   -0.115384    0.105526
      3          6           0        0.879152    0.875671    0.933801
      4          6           0       -0.587940    0.982816    0.446420
      5          6           0       -0.659625    1.734289   -0.893694
      6          6           0       -1.233797   -0.429305    0.424310
      7          6           0       -2.717424   -0.408479    0.033321
      8          6           0       -0.431204   -1.401779   -0.460535
      9          6           0        1.050609   -1.491518   -0.040920
     10          1           0        1.386033    1.845374    0.911097
     11          1           0        0.883501    0.519001    1.975124
     12          1           0       -1.137353    1.581174    1.187060
     13          1           0       -0.108728    1.219015   -1.689215
     14          1           0       -0.217200    2.731637   -0.791371
     15          1           0       -1.692979    1.864805   -1.230856
     16          1           0       -1.174751   -0.807967    1.457756
     17          1           0       -3.281953    0.301246    0.650080
     18          1           0       -3.167661   -1.398877    0.168138
     19          1           0       -2.858186   -0.125547   -1.016135
     20          1           0       -0.493740   -1.083811   -1.509790
     21          1           0       -0.883130   -2.400741   -0.418032
     22          1           0        1.113331   -1.987744    0.940043
     23          1           0        1.643940   -2.079822   -0.747084
 ---------------------------------------------------------------------
 Rotational constants (GHZ):           2.5605002           1.3049683           1.0366610
 Standard basis: 6-31G(d) (6D, 7F)
 There are   163 symmetry adapted cartesian basis functions of A   symmetry.
 There are   163 symmetry adapted basis functions of A   symmetry.
   163 basis functions,   308 primitive gaussians,   163 cartesian basis functions
    35 alpha electrons       35 beta electrons
       nuclear repulsion energy       478.1856262551 Hartrees.
 NAtoms=   23 NActive=   23 NUniq=   23 SFac= 1.00D+00 NAtFMM=   60 NAOKFM=F Big=F
 Integral buffers will be    131072 words long.
 Raffenetti 2 integral format.
 Two-electron integral symmetry is turned on.
 One-electron integrals computed using PRISM.
 NBasis=   163 RedAO= T EigKep=  3.30D-03  NBF=   163
 NBsUse=   163 1.00D-06 EigRej= -1.00D+00 NBFU=   163
 ExpMin= 1.61D-01 ExpMax= 5.48D+03 ExpMxC= 8.25D+02 IAcc=3 IRadAn=         5 AccDes= 0.00D+00
 Harris functional with IExCor=  402 and IRadAn=       5 diagonalized for initial guess.
 HarFok:  IExCor=  402 AccDes= 0.00D+00 IRadAn=         5 IDoV= 1 UseB2=F ITyADJ=14
 ICtDFT=  3500011 ScaDFX=  1.000000  1.000000  1.000000  1.000000
 FoFCou: FMM=F IPFlag=           0 FMFlag=      100000 FMFlg1=           0
         NFxFlg=           0 DoJE=T BraDBF=F KetDBF=T FulRan=T
         wScrn=  0.000000 ICntrl=       500 IOpCl=  0 I1Cent=   200000004 NGrid=           0
         NMat0=    1 NMatS0=      1 NMatT0=    0 NMatD0=    1 NMtDS0=    0 NMtDT0=    0
 Petite list used in FoFCou.
 Requested convergence on RMS density matrix=1.00D-08 within 128 cycles.
 Requested convergence on MAX density matrix=1.00D-06.
 Requested convergence on             energy=1.00D-06.
 No special actions if energy rises.
 Integral accuracy reduced to 1.0D-05 until final iterations.
 Initial convergence to 1.0D-05 achieved.  Increase integral accuracy.
 SCF Done:  E(RB3LYP) =  -388.517202867     A.U. after   13 cycles
            NFock= 13  Conv=0.68D-08     -V/T= 2.0098
 DoSCS=F DFT=T ScalE2(SS,OS)=  1.000000  1.000000
 Range of M.O.s used for correlation:     1   163
 NBasis=   163 NAE=    35 NBE=    35 NFC=     0 NFV=     0
 NROrb=    163 NOA=    35 NOB=    35 NVA=   128 NVB=   128
 Symmetrizing basis deriv contribution to polar:
 IMax=3 JMax=2 DiffMx= 0.00D+00
 G2DrvN: will do    24 centers at a time, making    1 passes.
 Calling FoFCou, ICntrl=  3107 FMM=F I1Cent=   0 AccDes= 0.00D+00.
 End of G2Drv F.D. properties file   721 does not exist.
 End of G2Drv F.D. properties file   722 does not exist.
 End of G2Drv F.D. properties file   788 does not exist.
          IDoAtm=11111111111111111111111
          Differentiating once with respect to electric field.
                with respect to dipole field.
          Differentiating once with respect to nuclear coordinates.
 Keep R1 ints in memory in canonical form, NReq=97235276.
          There are    72 degrees of freedom in the 1st order CPHF.  IDoFFX=6 NUNeed=     3.
     69 vectors produced by pass  0 Test12= 6.22D-15 1.39D-09 XBig12= 6.09D+01 2.29D+00.
 AX will form    69 AO Fock derivatives at one time.
     69 vectors produced by pass  1 Test12= 6.22D-15 1.39D-09 XBig12= 1.01D+01 9.48D-01.
     69 vectors produced by pass  2 Test12= 6.22D-15 1.39D-09 XBig12= 8.63D-02 3.64D-02.
     69 vectors produced by pass  3 Test12= 6.22D-15 1.39D-09 XBig12= 2.65D-04 2.60D-03.
     69 vectors produced by pass  4 Test12= 6.22D-15 1.39D-09 XBig12= 2.63D-07 7.93D-05.
     31 vectors produced by pass  5 Test12= 6.22D-15 1.39D-09 XBig12= 1.27D-10 1.12D-06.
      3 vectors produced by pass  6 Test12= 6.22D-15 1.39D-09 XBig12= 7.22D-14 3.30D-08.
 InvSVY:  IOpt=1 It=  1 EMax= 3.55D-15
 Solved reduced A of dimension   379 with    72 vectors.
 Isotropic polarizability for W=    0.000000       82.28 Bohr**3.
 End of Minotr F.D. properties file   721 does not exist.
 End of Minotr F.D. properties file   722 does not exist.
 End of Minotr F.D. properties file   788 does not exist.

 **********************************************************************

            Population analysis using the SCF density.

 **********************************************************************

 Orbital symmetries:
       Occupied  (A) (A) (A) (A) (A) (A) (A) (A) (A) (A) (A) (A)
                 (A) (A) (A) (A) (A) (A) (A) (A) (A) (A) (A) (A)
                 (A) (A) (A) (A) (A) (A) (A) (A) (A) (A) (A)
       Virtual   (A) (A) (A) (A) (A) (A) (A) (A) (A) (A) (A) (A)
                 (A) (A) (A) (A) (A) (A) (A) (A) (A) (A) (A) (A)
                 (A) (A) (A) (A) (A) (A) (A) (A) (A) (A) (A) (A)
                 (A) (A) (A) (A) (A) (A) (A) (A) (A) (A) (A) (A)
                 (A) (A) (A) (A) (A) (A) (A) (A) (A) (A) (A) (A)
                 (A) (A) (A) (A) (A) (A) (A) (A) (A) (A) (A) (A)
                 (A) (A) (A) (A) (A) (A) (A) (A) (A) (A) (A) (A)
                 (A) (A) (A) (A) (A) (A) (A) (A) (A) (A) (A) (A)
                 (A) (A) (A) (A) (A) (A) (A) (A) (A) (A) (A) (A)
                 (A) (A) (A) (A) (A) (A) (A) (A) (A) (A) (A) (A)
                 (A) (A) (A) (A) (A) (A) (A) (A)
 The electronic state is 1-A.
 Alpha  occ. eigenvalues --  -19.13113 -10.26705 -10.19899 -10.19582 -10.19139
 Alpha  occ. eigenvalues --  -10.18948 -10.18735 -10.17997 -10.17805  -1.02972
 Alpha  occ. eigenvalues --   -0.84156  -0.76709  -0.75325  -0.69817  -0.65662
 Alpha  occ. eigenvalues --   -0.61575  -0.56333  -0.52208  -0.46427  -0.46052
 Alpha  occ. eigenvalues --   -0.45229  -0.44739  -0.43767  -0.40993  -0.40055
 Alpha  occ. eigenvalues --   -0.39114  -0.38038  -0.37811  -0.36141  -0.34931
 Alpha  occ. eigenvalues --   -0.34509  -0.31936  -0.31675  -0.31114  -0.23308
 Alpha virt. eigenvalues --   -0.01172   0.07977   0.10275   0.11021   0.12364
 Alpha virt. eigenvalues --    0.13030   0.15139   0.15388   0.15776   0.16140
 Alpha virt. eigenvalues --    0.17211   0.18441   0.19249   0.19859   0.20476
 Alpha virt. eigenvalues --    0.21116   0.22497   0.24490   0.24966   0.26101
 Alpha virt. eigenvalues --    0.27562   0.28462   0.32637   0.35694   0.48637
 Alpha virt. eigenvalues --    0.50429   0.50695   0.51966   0.53774   0.57104
 Alpha virt. eigenvalues --    0.58038   0.59998   0.62489   0.63867   0.65085
 Alpha virt. eigenvalues --    0.67192   0.68747   0.70026   0.70479   0.72223
 Alpha virt. eigenvalues --    0.74861   0.77110   0.78434   0.80577   0.83843
 Alpha virt. eigenvalues --    0.84099   0.85174   0.87071   0.88426   0.88900
 Alpha virt. eigenvalues --    0.89796   0.90307   0.91198   0.92405   0.92977
 Alpha virt. eigenvalues --    0.94289   0.94979   0.96119   0.98452   0.99032
 Alpha virt. eigenvalues --    0.99685   1.02791   1.05128   1.11028   1.13353
 Alpha virt. eigenvalues --    1.21042   1.22307   1.29503   1.36180   1.38997
 Alpha virt. eigenvalues --    1.42961   1.48041   1.51761   1.54245   1.58182
 Alpha virt. eigenvalues --    1.64343   1.67682   1.71947   1.74537   1.75383
 Alpha virt. eigenvalues --    1.76983   1.79029   1.79924   1.85034   1.86553
 Alpha virt. eigenvalues --    1.87881   1.91358   1.92425   1.94757   1.98746
 Alpha virt. eigenvalues --    1.99226   2.01868   2.04465   2.04858   2.09321
 Alpha virt. eigenvalues --    2.10197   2.13571   2.16061   2.19218   2.25384
 Alpha virt. eigenvalues --    2.26091   2.28630   2.32819   2.35532   2.37495
 Alpha virt. eigenvalues --    2.39209   2.44872   2.48653   2.51458   2.53786
 Alpha virt. eigenvalues --    2.56725   2.63105   2.66633   2.73070   2.75146
 Alpha virt. eigenvalues --    2.76797   2.80425   2.98552   3.01943   4.02533
 Alpha virt. eigenvalues --    4.10816   4.21628   4.25307   4.30075   4.42441
 Alpha virt. eigenvalues --    4.57623   4.60922   4.64053
          Condensed to atoms (all electrons):
               1          2          3          4          5          6
     1  O    8.002621   0.587749  -0.078657   0.000934   0.000309   0.000124
     2  C    0.587749   4.469705   0.323920  -0.019659  -0.002686  -0.018550
     3  C   -0.078657   0.323920   5.357818   0.333619  -0.058757  -0.039292
     4  C    0.000934  -0.019659   0.333619   4.942377   0.374643   0.382181
     5  C    0.000309  -0.002686  -0.058757   0.374643   5.125766  -0.048281
     6  C    0.000124  -0.018550  -0.039292   0.382181  -0.048281   4.912975
     7  C    0.000000   0.000450   0.004279  -0.041705  -0.005142   0.368698
     8  C    0.001463  -0.022125  -0.004502  -0.041868  -0.008192   0.378187
     9  C   -0.078684   0.327807  -0.141999  -0.002533  -0.000137  -0.035521
    10  H    0.004527  -0.024718   0.341186  -0.026966  -0.004494   0.004278
    11  H    0.001595  -0.027511   0.341848  -0.031094   0.005955  -0.002845
    12  H   -0.000086   0.003281  -0.035221   0.368680  -0.048991  -0.039212
    13  H    0.000180   0.005517  -0.005669  -0.033387   0.374037  -0.005724
    14  H    0.000014  -0.000402  -0.003855  -0.028630   0.371122   0.004915
    15  H    0.000004   0.000083   0.004864  -0.029720   0.372839  -0.005642
    16  H   -0.000002  -0.002006  -0.002574  -0.048936   0.005997   0.375290
    17  H   -0.000000  -0.000004   0.000054  -0.003500  -0.000705  -0.029760
    18  H   -0.000000  -0.000005  -0.000143   0.004545   0.000128  -0.027489
    19  H   -0.000000  -0.000035   0.000047  -0.006788   0.002489  -0.031328
    20  H    0.000366  -0.003164   0.000850  -0.008995   0.003275  -0.037257
    21  H   -0.000070   0.002959  -0.000311   0.005346   0.000073  -0.031505
    22  H    0.001376  -0.028442   0.003820  -0.001789   0.000076  -0.003066
    23  H    0.004649  -0.024109   0.006770  -0.000098  -0.000060   0.003593
               7          8          9         10         11         12
     1  O    0.000000   0.001463  -0.078684   0.004527   0.001595  -0.000086
     2  C    0.000450  -0.022125   0.327807  -0.024718  -0.027511   0.003281
     3  C    0.004279  -0.004502  -0.141999   0.341186   0.341848  -0.035221
     4  C   -0.041705  -0.041868  -0.002533  -0.026966  -0.031094   0.368680
     5  C   -0.005142  -0.008192  -0.000137  -0.004494   0.005955  -0.048991
     6  C    0.368698   0.378187  -0.035521   0.004278  -0.002845  -0.039212
     7  C    5.114502  -0.046803   0.004014  -0.000131  -0.000004  -0.005215
     8  C   -0.046803   5.066514   0.324590  -0.000163  -0.001718   0.006102
     9  C    0.004014   0.324590   5.319446   0.006876   0.003325  -0.000297
    10  H   -0.000131  -0.000163   0.006876   0.567113  -0.026939  -0.002679
    11  H   -0.000004  -0.001718   0.003325  -0.026939   0.588339  -0.006810
    12  H   -0.005215   0.006102  -0.000297  -0.002679  -0.006810   0.636476
    13  H   -0.000414   0.003153  -0.000494  -0.000165   0.000005   0.005564
    14  H    0.000050   0.000027   0.000027   0.004468  -0.000028  -0.003942
    15  H    0.002845  -0.000114   0.000027   0.000006  -0.000164  -0.003021
    16  H   -0.044578  -0.053263  -0.001654  -0.000052   0.005315  -0.005531
    17  H    0.368613   0.004772  -0.000155  -0.000002  -0.000013   0.004993
    18  H    0.368891  -0.003457  -0.000004   0.000002  -0.000003  -0.000092
    19  H    0.373931  -0.006096   0.000096   0.000002   0.000002  -0.000197
    20  H   -0.004419   0.372591  -0.040662  -0.000037   0.000062  -0.000005
    21  H   -0.003731   0.365437  -0.027804   0.000018  -0.000020  -0.000183
    22  H   -0.000003  -0.035387   0.346668  -0.000153   0.001209  -0.000026
    23  H   -0.000126  -0.024841   0.343408  -0.000177  -0.000128   0.000018
              13         14         15         16         17         18
     1  O    0.000180   0.000014   0.000004  -0.000002  -0.000000  -0.000000
     2  C    0.005517  -0.000402   0.000083  -0.002006  -0.000004  -0.000005
     3  C   -0.005669  -0.003855   0.004864  -0.002574   0.000054  -0.000143
     4  C   -0.033387  -0.028630  -0.029720  -0.048936  -0.003500   0.004545
     5  C    0.374037   0.371122   0.372839   0.005997  -0.000705   0.000128
     6  C   -0.005724   0.004915  -0.005642   0.375290  -0.029760  -0.027489
     7  C   -0.000414   0.000050   0.002845  -0.044578   0.368613   0.368891
     8  C    0.003153   0.000027  -0.000114  -0.053263   0.004772  -0.003457
     9  C   -0.000494   0.000027   0.000027  -0.001654  -0.000155  -0.000004
    10  H   -0.000165   0.004468   0.000006  -0.000052  -0.000002   0.000002
    11  H    0.000005  -0.000028  -0.000164   0.005315  -0.000013  -0.000003
    12  H    0.005564  -0.003942  -0.003021  -0.005531   0.004993  -0.000092
    13  H    0.562216  -0.030589  -0.030689  -0.000014   0.000085  -0.000020
    14  H   -0.030589   0.565985  -0.029403  -0.000151  -0.000040  -0.000000
    15  H   -0.030689  -0.029403   0.565372   0.000022   0.000542  -0.000068
    16  H   -0.000014  -0.000151   0.000022   0.649274  -0.002822  -0.004693
    17  H    0.000085  -0.000040   0.000542  -0.002822   0.576406  -0.029981
    18  H   -0.000020  -0.000000  -0.000068  -0.004693  -0.029981   0.575895
    19  H    0.000136  -0.000063   0.002468   0.005595  -0.031527  -0.031271
    20  H    0.002987  -0.000094   0.000192   0.006337  -0.000051  -0.000311
    21  H   -0.000081   0.000001  -0.000016  -0.004969  -0.000065   0.004160
    22  H    0.000011   0.000000   0.000000   0.004935   0.000001  -0.000009
    23  H    0.000063  -0.000001  -0.000001  -0.000026   0.000002  -0.000001
              19         20         21         22         23
     1  O   -0.000000   0.000366  -0.000070   0.001376   0.004649
     2  C   -0.000035  -0.003164   0.002959  -0.028442  -0.024109
     3  C    0.000047   0.000850  -0.000311   0.003820   0.006770
     4  C   -0.006788  -0.008995   0.005346  -0.001789  -0.000098
     5  C    0.002489   0.003275   0.000073   0.000076  -0.000060
     6  C   -0.031328  -0.037257  -0.031505  -0.003066   0.003593
     7  C    0.373931  -0.004419  -0.003731  -0.000003  -0.000126
     8  C   -0.006096   0.372591   0.365437  -0.035387  -0.024841
     9  C    0.000096  -0.040662  -0.027804   0.346668   0.343408
    10  H    0.000002  -0.000037   0.000018  -0.000153  -0.000177
    11  H    0.000002   0.000062  -0.000020   0.001209  -0.000128
    12  H   -0.000197  -0.000005  -0.000183  -0.000026   0.000018
    13  H    0.000136   0.002987  -0.000081   0.000011   0.000063
    14  H   -0.000063  -0.000094   0.000001   0.000000  -0.000001
    15  H    0.002468   0.000192  -0.000016   0.000000  -0.000001
    16  H    0.005595   0.006337  -0.004969   0.004935  -0.000026
    17  H   -0.031527  -0.000051  -0.000065   0.000001   0.000002
    18  H   -0.031271  -0.000311   0.004160  -0.000009  -0.000001
    19  H    0.570405   0.004772  -0.000298   0.000007   0.000001
    20  H    0.004772   0.594603  -0.038157   0.005624  -0.003599
    21  H   -0.000298  -0.038157   0.598850  -0.007154  -0.002035
    22  H    0.000007   0.005624  -0.007154   0.586750  -0.026924
    23  H    0.000001  -0.003599  -0.002035  -0.026924   0.561769
 Mulliken charges:
               1
     1  O   -0.448412
     2  C    0.451945
     3  C   -0.348093
     4  C   -0.086656
     5  C   -0.459264
     6  C   -0.074769
     7  C   -0.453999
     8  C   -0.274304
     9  C   -0.346339
    10  H    0.158202
    11  H    0.149623
    12  H    0.126393
    13  H    0.153294
    14  H    0.150589
    15  H    0.149573
    16  H    0.118506
    17  H    0.143158
    18  H    0.143925
    19  H    0.147652
    20  H    0.145092
    21  H    0.139555
    22  H    0.152476
    23  H    0.161854
 Sum of Mulliken charges =  -0.00000
 Mulliken charges with hydrogens summed into heavy atoms:
               1
     1  O   -0.448412
     2  C    0.451945
     3  C   -0.040268
     4  C    0.039737
     5  C   -0.005807
     6  C    0.043737
     7  C   -0.019264
     8  C    0.010342
     9  C   -0.032009
 APT charges:
               1
     1  O   -0.632851
     2  C    0.711132
     3  C   -0.072263
     4  C    0.161515
     5  C    0.037147
     6  C    0.105922
     7  C    0.072767
     8  C    0.119624
     9  C   -0.047830
    10  H   -0.028600
    11  H   -0.016459
    12  H   -0.079901
    13  H   -0.010085
    14  H   -0.019543
    15  H   -0.016366
    16  H   -0.078788
    17  H   -0.031118
    18  H   -0.030376
    19  H   -0.017550
    20  H   -0.034830
    21  H   -0.050448
    22  H   -0.012594
    23  H   -0.028505
 Sum of APT charges =  -0.00000
 APT charges with hydrogens summed into heavy atoms:
               1
     1  O   -0.632851
     2  C    0.711132
     3  C   -0.117322
     4  C    0.081614
     5  C   -0.008847
     6  C    0.027134
     7  C   -0.006277
     8  C    0.034347
     9  C   -0.088929
 Electronic spatial extent (au):  <R**2>=           1262.1752
 Charge=             -0.0000 electrons
 Dipole moment (field-independent basis, Debye):
    X=             -2.8455    Y=             -0.6028    Z=              1.1070  Tot=              3.1122
 Quadrupole moment (field-independent basis, Debye-Ang):
   XX=            -66.5577   YY=            -54.3401   ZZ=            -55.2519
   XY=             -1.4602   XZ=              2.6458   YZ=              0.2292
 Traceless Quadrupole moment (field-independent basis, Debye-Ang):
   XX=             -7.8411   YY=              4.3765   ZZ=              3.4646
   XY=             -1.4602   XZ=              2.6458   YZ=              0.2292
 Octapole moment (field-independent basis, Debye-Ang**2):
  XXX=            -23.1607  YYY=             -0.1248  ZZZ=             -0.2554  XYY=              4.4525
  XXY=             -3.3710  XXZ=              7.1629  XZZ=              3.7605  YZZ=             -0.5619
  YYZ=              0.5272  XYZ=              0.5046
 Hexadecapole moment (field-independent basis, Debye-Ang**3):
 XXXX=          -1049.3512 YYYY=           -494.8359 ZZZZ=           -211.7815 XXXY=            -10.2629
 XXXZ=             15.0290 YYYX=              5.1414 YYYZ=              1.3282 ZZZX=             -2.6028
 ZZZY=              0.3237 XXYY=           -236.2238 XXZZ=           -192.1454 YYZZ=           -121.0037
 XXYZ=              1.2913 YYXZ=             -2.4915 ZZXY=             -1.9143
 N-N= 4.781856262551D+02 E-N=-1.857620528836D+03  KE= 3.847647492653D+02
  Exact polarizability:  91.872   1.670  82.818  -2.581   0.590  72.142
 Approx polarizability: 124.778   4.682 112.720  -8.741  -1.041 111.189
 Calling FoFJK, ICntrl=    100127 FMM=F ISym2X=0 I1Cent= 0 IOpClX= 0 NMat=1 NMatS=1 NMatT=0.
 Full mass-weighted force constant matrix:
 Low frequencies ---   -2.1632   -0.0011   -0.0009   -0.0008    3.3537   11.4386
 Low frequencies ---   76.5225  117.6892  183.8553
 Diagonal vibrational polarizability:
        5.4000691       6.3859634      11.8738595
 Harmonic frequencies (cm**-1), IR intensities (KM/Mole), Raman scattering
 activities (A**4/AMU), depolarization ratios for plane and unpolarized
 incident light, reduced masses (AMU), force constants (mDyne/A),
 and normal coordinates:
                      1                      2                      3
                      A                      A                      A
 Frequencies --     76.5182               117.6890               183.8547
 Red. masses --      5.1210                 2.8053                 1.6861
 Frc consts  --      0.0177                 0.0229                 0.0336
 IR Inten    --      3.1243                 0.6466                 0.4395
  Atom  AN      X      Y      Z        X      Y      Z        X      Y      Z
     1   8     0.22  -0.12   0.31    -0.05   0.12   0.02    -0.05  -0.04  -0.04
     2   6     0.04   0.00  -0.01    -0.03   0.04   0.01    -0.02  -0.03   0.04
     3   6    -0.01   0.07  -0.13    -0.04  -0.06   0.11    -0.01   0.03   0.00
     4   6    -0.03   0.02  -0.06     0.01  -0.02  -0.03    -0.00   0.02  -0.03
     5   6    -0.13  -0.01  -0.08     0.22  -0.14  -0.11     0.05   0.05  -0.01
     6   6     0.01   0.00   0.01    -0.01   0.00   0.03     0.03  -0.00  -0.05
     7   6    -0.04  -0.05   0.20    -0.04   0.02   0.11    -0.01  -0.07   0.09
     8   6    -0.05   0.06  -0.10    -0.06  -0.00  -0.01     0.04   0.07  -0.11
     9   6    -0.03   0.05  -0.19    -0.01   0.04  -0.13    -0.03  -0.02   0.09
    10   1    -0.01   0.07  -0.21    -0.03  -0.06   0.25     0.01   0.02  -0.05
    11   1     0.04   0.15  -0.10    -0.13  -0.17   0.07    -0.02   0.08   0.02
    12   1    -0.01   0.03  -0.05    -0.04   0.07  -0.14    -0.04  -0.01  -0.03
    13   1    -0.13   0.00  -0.09     0.38  -0.20   0.04     0.38   0.25   0.09
    14   1    -0.19   0.02  -0.12     0.16  -0.12  -0.13    -0.28   0.18   0.13
    15   1    -0.15  -0.09  -0.04     0.27  -0.22  -0.31     0.08  -0.26  -0.24
    16   1     0.15  -0.01  -0.01     0.03   0.01   0.03     0.12  -0.04  -0.07
    17   1     0.01  -0.08   0.30     0.01  -0.01   0.18     0.01  -0.17   0.23
    18   1     0.02  -0.07   0.24    -0.03   0.01   0.09     0.09  -0.11   0.04
    19   1    -0.20  -0.02   0.23    -0.10   0.07   0.14    -0.14   0.03   0.14
    20   1    -0.13   0.12  -0.08    -0.15  -0.03  -0.01     0.18   0.20  -0.08
    21   1    -0.04   0.05  -0.13    -0.02  -0.02   0.05    -0.01   0.08  -0.28
    22   1     0.03  -0.07  -0.25     0.09  -0.08  -0.19    -0.21   0.04   0.14
    23   1    -0.05   0.12  -0.27    -0.04   0.15  -0.24     0.04  -0.10   0.21
                      4                      5                      6
                      A                      A                      A
 Frequencies --    219.8145               253.0526               280.8068
 Red. masses --      1.0783                 1.2885                 2.2522
 Frc consts  --      0.0307                 0.0486                 0.1046
 IR Inten    --      0.0456                 0.0750                 0.0241
  Atom  AN      X      Y      Z        X      Y      Z        X      Y      Z
     1   8    -0.01   0.00  -0.00    -0.03   0.02  -0.00    -0.03  -0.01   0.02
     2   6    -0.00  -0.00   0.02    -0.00  -0.01   0.04    -0.03  -0.03  -0.00
     3   6    -0.01  -0.00   0.01    -0.00  -0.02   0.04    -0.03  -0.03   0.00
     4   6     0.00   0.01  -0.02     0.01  -0.01  -0.01    -0.00   0.08  -0.07
     5   6     0.01  -0.01  -0.03    -0.02  -0.04  -0.02     0.09   0.21  -0.02
     6   6     0.01   0.00  -0.02     0.03  -0.01  -0.03     0.01   0.06  -0.01
     7   6    -0.00  -0.01   0.03     0.01   0.02   0.05     0.00  -0.18   0.04
     8   6     0.02   0.02  -0.03     0.03   0.05  -0.09    -0.02  -0.04   0.06
     9   6    -0.00  -0.00   0.03    -0.00  -0.01   0.03     0.00  -0.03  -0.03
    10   1    -0.00  -0.00   0.02     0.01  -0.02   0.06     0.03  -0.07   0.10
    11   1    -0.03  -0.00   0.01    -0.05  -0.03   0.03    -0.13  -0.10  -0.02
    12   1     0.00   0.02  -0.03     0.00  -0.01  -0.02     0.00   0.07  -0.06
    13   1    -0.32  -0.21  -0.12    -0.27  -0.19  -0.10    -0.04   0.18  -0.09
    14   1     0.36  -0.15  -0.14     0.20  -0.13  -0.14     0.28   0.11   0.07
    15   1    -0.01   0.33   0.17    -0.06   0.15   0.15     0.09   0.43   0.05
    16   1     0.04  -0.02  -0.03     0.07  -0.04  -0.04     0.07   0.17   0.02
    17   1    -0.05  -0.30   0.32     0.14   0.34  -0.21    -0.08  -0.12  -0.11
    18   1     0.11  -0.11  -0.32    -0.12   0.13   0.48     0.14  -0.21   0.28
    19   1    -0.07   0.36   0.14    -0.02  -0.38  -0.06    -0.06  -0.44  -0.03
    20   1     0.06   0.04  -0.03     0.12   0.17  -0.06    -0.08  -0.14   0.03
    21   1     0.01   0.02  -0.07     0.00   0.06  -0.23    -0.04  -0.02   0.19
    22   1    -0.06   0.02   0.05    -0.11  -0.01   0.04     0.08  -0.08  -0.06
    23   1     0.02  -0.03   0.08     0.04  -0.03   0.08    -0.03   0.02  -0.10
                      7                      8                      9
                      A                      A                      A
 Frequencies --    310.7557               353.3792               383.6528
 Red. masses --      2.5889                 2.4725                 2.6162
 Frc consts  --      0.1473                 0.1819                 0.2269
 IR Inten    --      0.6449                 0.4882                 1.4029
  Atom  AN      X      Y      Z        X      Y      Z        X      Y      Z
     1   8     0.02  -0.08  -0.04     0.09   0.00  -0.00    -0.14  -0.04   0.04
     2   6     0.01   0.02  -0.02     0.03   0.09  -0.08    -0.13   0.01   0.06
     3   6     0.06   0.05   0.02     0.01   0.06  -0.08    -0.00   0.18  -0.03
     4   6     0.00   0.05   0.10    -0.04  -0.10   0.03     0.00  -0.01   0.04
     5   6     0.06  -0.11   0.02     0.15   0.01   0.09     0.06  -0.00   0.05
     6   6    -0.04   0.06   0.10    -0.09  -0.09  -0.05     0.10  -0.06   0.01
     7   6    -0.00  -0.17  -0.10    -0.13  -0.02   0.03     0.14   0.01  -0.01
     8   6    -0.05   0.17   0.00    -0.03  -0.06  -0.04    -0.02  -0.09  -0.05
     9   6    -0.07   0.07  -0.02    -0.03   0.09   0.06    -0.05  -0.02  -0.07
    10   1     0.04   0.06  -0.06    -0.13   0.13  -0.18     0.00   0.17  -0.43
    11   1     0.16   0.09   0.03     0.20   0.11  -0.06     0.18   0.52   0.08
    12   1     0.05   0.13   0.07    -0.05  -0.13   0.04    -0.10  -0.07   0.02
    13   1     0.03  -0.26   0.10     0.12  -0.03   0.09     0.03  -0.07   0.06
    14   1     0.13  -0.13  -0.12     0.36  -0.09   0.22     0.18  -0.06   0.06
    15   1     0.07  -0.09  -0.01     0.21   0.26   0.01     0.09   0.12   0.01
    16   1    -0.07   0.00   0.08    -0.08  -0.13  -0.07     0.13  -0.09  -0.00
    17   1    -0.26  -0.24  -0.25    -0.01   0.10   0.00     0.16   0.06  -0.05
    18   1     0.19  -0.26  -0.11    -0.21   0.04   0.18     0.06   0.04  -0.03
    19   1     0.13  -0.29  -0.15    -0.19  -0.11   0.01     0.22   0.02  -0.02
    20   1    -0.05   0.33   0.05    -0.03  -0.12  -0.05    -0.09  -0.11  -0.05
    21   1    -0.07   0.18  -0.16     0.08  -0.11   0.01    -0.04  -0.08   0.02
    22   1    -0.09   0.05  -0.03    -0.11   0.31   0.18     0.00  -0.16  -0.15
    23   1    -0.12   0.05  -0.04     0.02  -0.08   0.25     0.05   0.17  -0.15
                     10                     11                     12
                      A                      A                      A
 Frequencies --    459.5061               493.6218               506.8745
 Red. masses --      2.6036                 2.5246                 3.0871
 Frc consts  --      0.3239                 0.3624                 0.4673
 IR Inten    --      3.8323                 2.5243                 6.1825
  Atom  AN      X      Y      Z        X      Y      Z        X      Y      Z
     1   8     0.02  -0.10  -0.04     0.02   0.08   0.09    -0.02   0.22   0.07
     2   6    -0.01   0.10   0.02    -0.08   0.01  -0.18     0.05  -0.08   0.05
     3   6     0.07   0.04   0.17    -0.06  -0.09  -0.08     0.17  -0.01  -0.03
     4   6     0.09   0.01  -0.01    -0.01   0.01   0.01     0.15   0.01   0.01
     5   6    -0.06  -0.01  -0.01     0.01  -0.01   0.01    -0.01  -0.02   0.02
     6   6     0.06   0.01  -0.11     0.09  -0.00   0.07    -0.03   0.06  -0.07
     7   6     0.04  -0.03  -0.01     0.18   0.00   0.01    -0.08  -0.04  -0.03
     8   6    -0.07  -0.10  -0.06    -0.06   0.00  -0.02    -0.11  -0.04  -0.04
     9   6    -0.10   0.15  -0.00    -0.11  -0.01   0.03    -0.08  -0.10   0.01
    10   1     0.05   0.06   0.42     0.00  -0.11   0.12     0.24  -0.06  -0.36
    11   1    -0.07  -0.17   0.09    -0.03  -0.32  -0.16     0.26   0.28   0.07
    12   1     0.02  -0.05  -0.02     0.00   0.00   0.02     0.22   0.02   0.05
    13   1    -0.12   0.01  -0.07     0.05  -0.02   0.03    -0.08  -0.01  -0.04
    14   1    -0.18   0.06  -0.12     0.02  -0.02   0.02    -0.12   0.04  -0.10
    15   1    -0.13  -0.16   0.13     0.03  -0.00  -0.04    -0.08  -0.17   0.17
    16   1     0.09  -0.02  -0.12     0.15  -0.01   0.06    -0.05   0.03  -0.09
    17   1     0.04  -0.07   0.03     0.11   0.01  -0.06    -0.15  -0.12   0.00
    18   1     0.13  -0.06   0.04     0.15   0.00  -0.06     0.09  -0.11   0.04
    19   1    -0.07  -0.06  -0.00     0.32   0.01  -0.01    -0.21  -0.10  -0.03
    20   1    -0.20  -0.39  -0.14    -0.09   0.04  -0.01    -0.11  -0.18  -0.08
    21   1     0.01  -0.12   0.28    -0.12   0.03  -0.02    -0.16  -0.02   0.11
    22   1    -0.18   0.27   0.06    -0.28   0.37   0.23    -0.21  -0.05   0.04
    23   1     0.02   0.10   0.15    -0.08  -0.35   0.33    -0.11  -0.23   0.09
                     13                     14                     15
                      A                      A                      A
 Frequencies --    561.5742               694.0255               724.3435
 Red. masses --      2.6572                 3.2789                 3.0787
 Frc consts  --      0.4937                 0.9305                 0.9517
 IR Inten    --      2.0392                 0.5918                 1.5194
  Atom  AN      X      Y      Z        X      Y      Z        X      Y      Z
     1   8    -0.01  -0.03   0.03     0.14   0.05  -0.11     0.03   0.01   0.01
     2   6    -0.07  -0.02  -0.10     0.23  -0.06   0.10    -0.02   0.04  -0.09
     3   6    -0.06  -0.00  -0.03    -0.10   0.05   0.07     0.08   0.11   0.11
     4   6    -0.08   0.16   0.15    -0.18   0.04   0.03    -0.00   0.17   0.09
     5   6     0.01  -0.07   0.09    -0.03   0.01   0.00    -0.01   0.10  -0.11
     6   6     0.03   0.14  -0.14     0.02   0.02  -0.00    -0.04  -0.12   0.12
     7   6    -0.03   0.01  -0.00     0.09   0.00   0.02    -0.10  -0.02  -0.00
     8   6     0.10  -0.03  -0.03    -0.11  -0.01  -0.06     0.00  -0.16  -0.07
     9   6     0.09  -0.06  -0.01    -0.04  -0.11  -0.02     0.03  -0.13  -0.02
    10   1     0.03  -0.05   0.00    -0.20   0.11   0.01     0.22   0.05   0.27
    11   1     0.06  -0.09  -0.06    -0.17   0.22   0.12     0.08  -0.09   0.04
    12   1    -0.09   0.09   0.20    -0.24  -0.02   0.03    -0.06   0.16   0.05
    13   1     0.06  -0.38   0.33     0.09  -0.13   0.18    -0.00  -0.07   0.01
    14   1     0.04  -0.05  -0.23     0.10  -0.05   0.01    -0.01   0.12  -0.33
    15   1     0.04  -0.18  -0.07     0.07   0.12  -0.25    -0.00   0.01  -0.16
    16   1     0.00   0.05  -0.17     0.11  -0.03  -0.02    -0.01  -0.13   0.11
    17   1     0.02  -0.03   0.10     0.07   0.03  -0.03    -0.11   0.06  -0.10
    18   1     0.11  -0.03   0.15     0.06   0.01  -0.01    -0.29   0.05  -0.14
    19   1    -0.30  -0.05   0.02     0.18   0.00   0.01     0.15   0.05  -0.01
    20   1     0.12  -0.34  -0.13    -0.26  -0.21  -0.11     0.10   0.17   0.02
    21   1     0.01   0.03   0.27    -0.15   0.02   0.22    -0.05  -0.15  -0.41
    22   1     0.10   0.03   0.03    -0.31  -0.15  -0.03     0.03   0.02   0.06
    23   1     0.12  -0.09   0.04    -0.11  -0.26   0.05     0.13  -0.18   0.10
                     16                     17                     18
                      A                      A                      A
 Frequencies --    783.4010               843.3698               860.4833
 Red. masses --      1.8794                 1.9328                 2.0964
 Frc consts  --      0.6796                 0.8100                 0.9146
 IR Inten    --      3.2197                 0.8275                 1.7243
  Atom  AN      X      Y      Z        X      Y      Z        X      Y      Z
     1   8    -0.05  -0.02   0.01     0.02  -0.02   0.01     0.01   0.02   0.01
     2   6    -0.00  -0.10   0.05    -0.03  -0.01  -0.12    -0.01  -0.03  -0.05
     3   6     0.02  -0.11   0.01    -0.06   0.04   0.18     0.09  -0.05   0.07
     4   6    -0.04   0.03   0.03     0.01  -0.07  -0.03    -0.08  -0.01   0.06
     5   6    -0.01   0.05  -0.06     0.02  -0.03  -0.02    -0.03   0.07  -0.09
     6   6    -0.02  -0.03   0.07     0.01   0.06  -0.00     0.00  -0.08  -0.11
     7   6    -0.03  -0.01   0.01    -0.01   0.02  -0.01     0.07  -0.04  -0.03
     8   6     0.06   0.04  -0.05     0.03   0.03   0.05     0.01   0.06   0.12
     9   6     0.07   0.13  -0.08     0.05  -0.07  -0.09    -0.09   0.04   0.02
    10   1     0.12  -0.17  -0.30    -0.15   0.08  -0.20     0.14  -0.08  -0.16
    11   1     0.09   0.20   0.11     0.13   0.35   0.28     0.31   0.07   0.11
    12   1     0.04   0.09   0.04    -0.19   0.01  -0.23    -0.17  -0.14   0.10
    13   1     0.02   0.00  -0.01    -0.09   0.21  -0.24     0.03  -0.08   0.04
    14   1     0.00   0.04  -0.08    -0.08  -0.01   0.17     0.05   0.04  -0.20
    15   1     0.01   0.06  -0.13    -0.05  -0.00   0.22     0.02   0.08  -0.27
    16   1     0.06  -0.08   0.05    -0.09   0.11   0.02    -0.13  -0.11  -0.11
    17   1    -0.05   0.06  -0.08    -0.02  -0.04   0.04     0.42   0.05   0.20
    18   1    -0.16   0.04  -0.09     0.10  -0.02   0.06    -0.09   0.06   0.12
    19   1     0.16   0.03  -0.00    -0.14  -0.02  -0.01    -0.20   0.07   0.04
    20   1    -0.24  -0.21  -0.10     0.02   0.09   0.07     0.14   0.08   0.11
    21   1     0.30  -0.05   0.30    -0.06   0.07  -0.01     0.02   0.06   0.01
    22   1    -0.27   0.36   0.07     0.00   0.30   0.11     0.15   0.00  -0.01
    23   1     0.19  -0.11   0.23     0.00  -0.38   0.13    -0.34   0.02  -0.17
                     19                     20                     21
                      A                      A                      A
 Frequencies --    943.5986               951.8105               971.4858
 Red. masses --      1.9026                 1.7524                 1.4529
 Frc consts  --      0.9981                 0.9353                 0.8079
 IR Inten    --      1.1040                 0.2465                 1.1906
  Atom  AN      X      Y      Z        X      Y      Z        X      Y      Z
     1   8     0.01  -0.01  -0.01    -0.02   0.00   0.03     0.03  -0.00  -0.00
     2   6    -0.01   0.03   0.01    -0.04   0.02  -0.03    -0.01   0.04  -0.05
     3   6     0.01  -0.11   0.03     0.14   0.06   0.02    -0.07  -0.04   0.02
     4   6    -0.05  -0.05   0.05    -0.08  -0.08  -0.00     0.03  -0.03   0.06
     5   6    -0.03   0.03  -0.06    -0.07  -0.05  -0.05     0.05   0.04  -0.05
     6   6    -0.06   0.09   0.01     0.03   0.04   0.01     0.01  -0.00  -0.01
     7   6     0.07   0.08   0.04    -0.04   0.02   0.01    -0.04  -0.01   0.05
     8   6    -0.09  -0.11  -0.06     0.03   0.07  -0.03     0.01   0.06  -0.04
     9   6     0.06   0.04   0.05     0.02  -0.06   0.02    -0.03  -0.03   0.08
    10   1    -0.10  -0.06  -0.24     0.22   0.02   0.22    -0.27   0.06  -0.14
    11   1     0.29   0.08   0.09     0.16  -0.22  -0.07     0.25   0.02   0.05
    12   1     0.00  -0.06   0.09    -0.13  -0.05  -0.06     0.02   0.04   0.00
    13   1     0.02  -0.01  -0.00     0.12   0.17  -0.06    -0.10   0.07  -0.18
    14   1     0.04   0.01  -0.05     0.11  -0.18   0.43    -0.11   0.12  -0.18
    15   1     0.02   0.08  -0.18     0.05   0.32  -0.29    -0.05  -0.13   0.19
    16   1    -0.11   0.07   0.00     0.11  -0.11  -0.05     0.29  -0.19  -0.09
    17   1    -0.27  -0.12  -0.06    -0.20  -0.01  -0.09    -0.16   0.06  -0.16
    18   1     0.47  -0.10   0.08     0.06  -0.03  -0.03    -0.16   0.01  -0.17
    19   1     0.05  -0.15  -0.02     0.07  -0.05  -0.02     0.31   0.02   0.00
    20   1     0.12   0.09  -0.02    -0.03  -0.21  -0.11     0.11  -0.26  -0.14
    21   1    -0.16  -0.09  -0.31    -0.05   0.12   0.29    -0.04   0.09   0.25
    22   1     0.26   0.04   0.04    -0.03  -0.14  -0.02     0.12  -0.24  -0.04
    23   1     0.22   0.24   0.02     0.05   0.01  -0.01    -0.15   0.13  -0.15
                     22                     23                     24
                      A                      A                      A
 Frequencies --    999.8489              1025.7938              1037.4405
 Red. masses --      1.6531                 1.8417                 1.5627
 Frc consts  --      0.9737                 1.1418                 0.9910
 IR Inten    --      3.5335                 2.1046                 0.4145
  Atom  AN      X      Y      Z        X      Y      Z        X      Y      Z
     1   8     0.02   0.02  -0.00     0.00   0.01  -0.01     0.02   0.01  -0.01
     2   6     0.01  -0.05  -0.03     0.02  -0.01   0.01     0.01  -0.02  -0.01
     3   6     0.03  -0.03   0.05    -0.05   0.03  -0.02     0.01  -0.01  -0.01
     4   6    -0.04   0.05  -0.10     0.04  -0.04   0.07    -0.06   0.10   0.02
     5   6    -0.02  -0.04   0.08    -0.01   0.03  -0.05     0.04  -0.08  -0.00
     6   6     0.03   0.03  -0.03     0.01   0.00   0.06    -0.10  -0.00   0.02
     7   6    -0.05   0.01   0.06    -0.01   0.09  -0.01     0.08  -0.02  -0.00
     8   6     0.06  -0.06   0.02     0.16  -0.04   0.01     0.03  -0.04  -0.05
     9   6    -0.09   0.06   0.00    -0.14  -0.00  -0.04    -0.04   0.02   0.04
    10   1     0.19  -0.11  -0.11    -0.16   0.09   0.08     0.15  -0.09  -0.04
    11   1    -0.11   0.17   0.11    -0.07  -0.03  -0.04     0.10  -0.04  -0.01
    12   1    -0.13  -0.04  -0.09     0.11  -0.04   0.11    -0.07   0.47  -0.27
    13   1     0.04  -0.09   0.16     0.02   0.02  -0.03    -0.05   0.28  -0.29
    14   1     0.05  -0.08   0.10     0.03   0.02  -0.05    -0.11  -0.05   0.34
    15   1     0.02   0.01  -0.03     0.01   0.05  -0.10    -0.04   0.04   0.30
    16   1     0.33   0.20   0.01    -0.19  -0.09   0.04    -0.22  -0.09  -0.01
    17   1    -0.27   0.04  -0.19    -0.28  -0.13  -0.00     0.20   0.01   0.09
    18   1    -0.08  -0.01  -0.18     0.40  -0.08   0.13     0.03   0.02   0.08
    19   1     0.33  -0.00  -0.00    -0.20  -0.16  -0.05    -0.03   0.02   0.03
    20   1     0.35  -0.00   0.01     0.15  -0.08  -0.00     0.08  -0.12  -0.08
    21   1     0.12  -0.10  -0.19     0.42  -0.16  -0.01     0.16  -0.10  -0.02
    22   1     0.19   0.12   0.01    -0.27  -0.11  -0.09    -0.00  -0.13  -0.05
    23   1    -0.29   0.01  -0.12    -0.30  -0.12  -0.08    -0.06   0.12  -0.07
                     25                     26                     27
                      A                      A                      A
 Frequencies --   1091.0776              1102.3349              1116.0267
 Red. masses --      1.2940                 1.9744                 1.9343
 Frc consts  --      0.9076                 1.4136                 1.4195
 IR Inten    --      1.3510                17.8897                 6.0693
  Atom  AN      X      Y      Z        X      Y      Z        X      Y      Z
     1   8    -0.01  -0.00   0.00     0.02  -0.00  -0.02     0.01   0.01  -0.01
     2   6    -0.01   0.03   0.02     0.01   0.08   0.04     0.03  -0.07   0.02
     3   6     0.06  -0.00  -0.00    -0.02  -0.10   0.00    -0.04   0.00  -0.04
     4   6    -0.09  -0.03  -0.05    -0.01   0.02   0.03    -0.05   0.04   0.05
     5   6     0.05   0.03   0.04    -0.04  -0.03  -0.03     0.06  -0.01  -0.02
     6   6    -0.03   0.02  -0.01     0.15   0.09   0.05     0.19  -0.07   0.02
     7   6     0.02   0.00   0.02    -0.07  -0.06  -0.07    -0.08   0.07  -0.06
     8   6     0.04  -0.00   0.01     0.06  -0.09  -0.00    -0.06  -0.01   0.02
     9   6    -0.00  -0.02  -0.01    -0.09  -0.00  -0.01     0.01   0.06   0.03
    10   1    -0.01   0.03   0.03    -0.25   0.02  -0.16     0.29  -0.17  -0.02
    11   1     0.40  -0.22  -0.07     0.27  -0.00   0.03     0.05  -0.10  -0.07
    12   1    -0.32  -0.18  -0.11     0.17   0.15   0.06    -0.49  -0.11  -0.15
    13   1    -0.11  -0.11   0.01     0.07   0.09  -0.04    -0.08   0.10  -0.19
    14   1    -0.08   0.12  -0.25     0.04  -0.09   0.21    -0.09   0.05   0.00
    15   1    -0.03  -0.21   0.20     0.02   0.15  -0.11    -0.04  -0.07   0.24
    16   1    -0.03   0.38   0.12     0.14   0.30   0.13     0.20  -0.17  -0.01
    17   1    -0.01   0.01  -0.02     0.23   0.06   0.08    -0.25  -0.11   0.00
    18   1     0.01   0.00  -0.03    -0.35   0.08   0.01     0.18  -0.03   0.07
    19   1     0.09   0.01   0.01    -0.25   0.15   0.01    -0.33  -0.11  -0.08
    20   1    -0.18   0.08   0.05     0.02   0.11   0.06    -0.14   0.15   0.08
    21   1     0.20  -0.07  -0.02    -0.20   0.03  -0.09    -0.08   0.00  -0.03
    22   1    -0.34  -0.19  -0.08    -0.22  -0.11  -0.06     0.07   0.02   0.01
    23   1     0.10   0.01   0.05     0.17   0.17   0.06     0.01   0.11  -0.00
                     28                     29                     30
                      A                      A                      A
 Frequencies --   1157.6290              1207.5890              1222.8909
 Red. masses --      2.0186                 1.8947                 2.1482
 Frc consts  --      1.5938                 1.6279                 1.8928
 IR Inten    --      2.5851                18.9818                13.9554
  Atom  AN      X      Y      Z        X      Y      Z        X      Y      Z
     1   8    -0.05  -0.01  -0.00    -0.01   0.02   0.01     0.01  -0.02  -0.01
     2   6     0.05  -0.01   0.13     0.01  -0.13  -0.06    -0.02   0.15   0.04
     3   6     0.02   0.04  -0.08    -0.06   0.06   0.01    -0.04  -0.07   0.01
     4   6    -0.05  -0.03   0.11     0.10   0.02   0.10     0.04   0.11  -0.01
     5   6     0.05  -0.02  -0.06    -0.04  -0.04  -0.05    -0.04  -0.04   0.00
     6   6    -0.02   0.05  -0.09     0.01   0.06  -0.08     0.00  -0.11  -0.14
     7   6     0.00  -0.02   0.05    -0.01  -0.04   0.03    -0.01   0.05   0.06
     8   6     0.01  -0.05   0.08    -0.07  -0.01   0.01    -0.01   0.01   0.11
     9   6    -0.01   0.01  -0.13     0.05   0.05   0.05     0.05  -0.04  -0.03
    10   1    -0.11   0.11   0.20    -0.14   0.11   0.12     0.11  -0.15  -0.20
    11   1     0.13  -0.23  -0.17     0.10  -0.09  -0.04     0.20   0.01   0.03
    12   1    -0.01   0.01   0.11    -0.13  -0.20   0.11     0.16   0.20   0.00
    13   1    -0.06   0.17  -0.26     0.09   0.16  -0.10     0.08   0.05   0.03
    14   1    -0.11   0.04   0.05     0.04  -0.10   0.18     0.05  -0.09   0.18
    15   1    -0.03   0.00   0.16     0.01   0.19  -0.11     0.01   0.12  -0.06
    16   1     0.06  -0.05  -0.13     0.03   0.32   0.01     0.06  -0.19  -0.18
    17   1    -0.04   0.07  -0.09     0.04   0.08  -0.06    -0.25  -0.01  -0.10
    18   1    -0.10   0.00  -0.11    -0.15   0.01  -0.09     0.16  -0.05  -0.10
    19   1     0.26   0.03   0.03     0.16   0.07   0.03     0.17  -0.13  -0.02
    20   1     0.34   0.05   0.08    -0.26   0.17   0.07    -0.25   0.23   0.19
    21   1    -0.28   0.08  -0.12     0.49  -0.27  -0.18     0.05  -0.03  -0.07
    22   1     0.09   0.38   0.07    -0.10  -0.15  -0.05    -0.41  -0.19  -0.08
    23   1    -0.03  -0.26   0.09    -0.04   0.07  -0.04    -0.05  -0.19   0.02
                     31                     32                     33
                      A                      A                      A
 Frequencies --   1253.6781              1279.2364              1296.6833
 Red. masses --      1.2401                 1.4292                 1.5350
 Frc consts  --      1.1484                 1.3780                 1.5206
 IR Inten    --      2.4853                10.0597                 1.4543
  Atom  AN      X      Y      Z        X      Y      Z        X      Y      Z
     1   8    -0.04  -0.01   0.01     0.00   0.03   0.00     0.01  -0.00  -0.02
     2   6     0.02  -0.02   0.04     0.01  -0.13  -0.05     0.02   0.01   0.05
     3   6     0.00  -0.00   0.00     0.01   0.01   0.02    -0.13   0.03   0.00
     4   6     0.01   0.03  -0.06     0.03   0.03  -0.04     0.13  -0.01  -0.01
     5   6    -0.03   0.01   0.03    -0.03   0.01   0.03    -0.05   0.02   0.01
     6   6     0.02  -0.03   0.03    -0.01  -0.04  -0.03    -0.03   0.02   0.04
     7   6     0.00   0.02  -0.04    -0.00   0.02   0.02     0.00  -0.03   0.01
     8   6    -0.05   0.01  -0.03     0.02   0.00   0.06     0.01   0.00  -0.01
     9   6     0.04   0.01   0.00    -0.06   0.02  -0.02    -0.01   0.01  -0.02
    10   1    -0.36   0.19   0.08    -0.37   0.21   0.10     0.40  -0.24  -0.10
    11   1     0.48  -0.20  -0.06     0.16  -0.06  -0.01     0.40  -0.21  -0.08
    12   1     0.08   0.24  -0.17    -0.05   0.21  -0.24    -0.34  -0.15  -0.25
    13   1     0.04  -0.07   0.14     0.04  -0.06   0.12     0.09  -0.06   0.15
    14   1     0.05  -0.03   0.01     0.05  -0.02  -0.03     0.12  -0.06   0.01
    15   1     0.00   0.01  -0.06     0.01   0.00  -0.07     0.00   0.03  -0.14
    16   1     0.21  -0.04   0.01    -0.04  -0.25  -0.10    -0.26  -0.03   0.03
    17   1     0.02  -0.04   0.05    -0.09  -0.01  -0.02     0.05   0.02   0.00
    18   1     0.05   0.01   0.06     0.07  -0.02  -0.03    -0.08   0.01  -0.00
    19   1    -0.15  -0.02  -0.03     0.06  -0.06  -0.01     0.06   0.04   0.02
    20   1    -0.02  -0.04  -0.05     0.11   0.05   0.08     0.29  -0.16  -0.08
    21   1     0.18  -0.09  -0.04    -0.18   0.10   0.05    -0.17   0.08   0.04
    22   1     0.26   0.14   0.06    -0.16  -0.01  -0.03    -0.03   0.03  -0.01
    23   1    -0.33  -0.27  -0.08     0.50   0.39   0.14    -0.00  -0.03   0.01
                     34                     35                     36
                      A                      A                      A
 Frequencies --   1341.1310              1357.2276              1372.2617
 Red. masses --      1.3819                 1.3985                 1.3843
 Frc consts  --      1.4645                 1.5178                 1.5358
 IR Inten    --      4.2980                 2.6487                 3.9810
  Atom  AN      X      Y      Z        X      Y      Z        X      Y      Z
     1   8    -0.00   0.00  -0.00     0.02   0.01  -0.01    -0.01   0.00   0.01
     2   6     0.02   0.01   0.03     0.01   0.01   0.02    -0.00  -0.05  -0.03
     3   6    -0.01  -0.01  -0.01    -0.05   0.02   0.01    -0.00   0.01   0.02
     4   6     0.02   0.04   0.00     0.01   0.04  -0.02    -0.01   0.08  -0.03
     5   6    -0.01  -0.02  -0.00     0.01  -0.03  -0.02     0.01  -0.04  -0.02
     6   6     0.03  -0.06  -0.04    -0.08  -0.05   0.01    -0.00  -0.11   0.01
     7   6    -0.00   0.01   0.04     0.01   0.03  -0.04     0.01   0.03   0.00
     8   6     0.09   0.02  -0.06    -0.02   0.06   0.03    -0.00   0.00  -0.02
     9   6    -0.08  -0.05   0.02    -0.07  -0.07  -0.04     0.06   0.07   0.01
    10   1    -0.06   0.02   0.00     0.16  -0.09   0.01    -0.13   0.08   0.06
    11   1     0.09  -0.01  -0.01     0.18  -0.03  -0.00     0.11   0.01   0.02
    12   1    -0.04  -0.06   0.04     0.15  -0.22   0.29     0.13  -0.23   0.32
    13   1     0.04   0.05  -0.01     0.02   0.05  -0.06     0.03   0.07  -0.07
    14   1     0.01  -0.03   0.03    -0.03  -0.02   0.08    -0.04  -0.02   0.08
    15   1    -0.00   0.05   0.01    -0.01   0.05   0.06    -0.01   0.06   0.08
    16   1    -0.40   0.27   0.10     0.53   0.17   0.05    -0.14   0.43   0.21
    17   1    -0.13   0.01  -0.07     0.08  -0.05   0.10    -0.08  -0.07   0.04
    18   1    -0.01  -0.01  -0.09     0.13  -0.01   0.09     0.04   0.01  -0.00
    19   1     0.07  -0.06   0.01    -0.07  -0.03  -0.04    -0.02  -0.10  -0.03
    20   1    -0.51   0.11   0.00     0.13  -0.12  -0.03     0.30  -0.17  -0.09
    21   1    -0.09   0.11   0.13     0.26  -0.07  -0.00    -0.40   0.19   0.10
    22   1     0.51   0.24   0.13     0.19   0.13   0.06    -0.26  -0.09  -0.06
    23   1     0.03   0.07   0.01     0.38   0.17   0.13    -0.17  -0.05  -0.08
                     37                     38                     39
                      A                      A                      A
 Frequencies --   1373.3150              1403.1582              1417.7433
 Red. masses --      1.5365                 1.3900                 1.5087
 Frc consts  --      1.7074                 1.6125                 1.7866
 IR Inten    --     11.6190                 0.7774                 0.6583
  Atom  AN      X      Y      Z        X      Y      Z        X      Y      Z
     1   8     0.01   0.01  -0.00    -0.01  -0.00   0.00     0.01  -0.00  -0.00
     2   6     0.01  -0.07  -0.02     0.00   0.03   0.01    -0.01   0.02   0.01
     3   6    -0.08   0.10   0.04     0.03  -0.03  -0.04    -0.00   0.00  -0.01
     4   6    -0.05  -0.11   0.00     0.07  -0.03   0.10    -0.03  -0.06   0.05
     5   6     0.01   0.03   0.01    -0.03  -0.01   0.03    -0.00   0.02   0.02
     6   6    -0.01  -0.00  -0.03    -0.09  -0.05  -0.02     0.11  -0.06  -0.04
     7   6    -0.01   0.01  -0.00     0.00   0.02  -0.03    -0.05   0.01   0.02
     8   6     0.05  -0.04  -0.01     0.04  -0.01  -0.01    -0.10   0.07   0.01
     9   6     0.01   0.05   0.03     0.01   0.01   0.00    -0.00  -0.04  -0.02
    10   1     0.40  -0.15   0.05    -0.08   0.02   0.01     0.08  -0.04  -0.01
    11   1     0.21  -0.12  -0.03    -0.24   0.09   0.00    -0.07   0.00  -0.00
    12   1     0.53   0.39   0.04    -0.34   0.20  -0.38     0.16   0.41  -0.19
    13   1    -0.07  -0.04  -0.00     0.02   0.15  -0.05    -0.06   0.02  -0.03
    14   1     0.00   0.03  -0.08     0.01   0.01  -0.22    -0.00   0.03  -0.11
    15   1     0.01  -0.08  -0.06     0.06   0.14  -0.21     0.03  -0.01  -0.12
    16   1     0.21   0.14   0.01     0.45   0.37   0.11    -0.35   0.39   0.15
    17   1     0.02   0.01   0.01     0.06  -0.05   0.09     0.06   0.06   0.03
    18   1     0.06  -0.02  -0.01     0.11  -0.01   0.08     0.11  -0.08  -0.07
    19   1     0.01  -0.01  -0.01     0.01  -0.03  -0.04     0.16  -0.07  -0.03
    20   1    -0.26   0.17   0.07    -0.07   0.01   0.00     0.37  -0.19  -0.09
    21   1    -0.24   0.09   0.03    -0.20   0.10   0.06     0.30  -0.11  -0.01
    22   1    -0.02  -0.04  -0.02    -0.02  -0.01  -0.01    -0.01   0.08   0.04
    23   1    -0.09   0.02  -0.03    -0.07  -0.04  -0.02     0.14   0.08   0.00
                     40                     41                     42
                      A                      A                      A
 Frequencies --   1440.5032              1447.5536              1491.5731
 Red. masses --      1.2594                 1.2410                 1.0978
 Frc consts  --      1.5397                 1.5321                 1.4390
 IR Inten    --      3.3367                 7.7937                 7.0879
  Atom  AN      X      Y      Z        X      Y      Z        X      Y      Z
     1   8    -0.00   0.00   0.00    -0.00  -0.00   0.00    -0.00  -0.00   0.00
     2   6     0.00  -0.01  -0.00    -0.00   0.00  -0.00     0.00   0.01   0.00
     3   6    -0.00  -0.00   0.01     0.01  -0.01  -0.02    -0.02  -0.03  -0.05
     4   6    -0.00   0.03  -0.04     0.01  -0.01   0.03    -0.00   0.00  -0.01
     5   6     0.01  -0.03   0.04    -0.01   0.07  -0.11    -0.00  -0.00   0.02
     6   6     0.01   0.02   0.02    -0.01  -0.01  -0.01    -0.00   0.01   0.00
     7   6    -0.12  -0.01  -0.03    -0.05   0.01  -0.01    -0.00  -0.01  -0.00
     8   6     0.02  -0.02  -0.01     0.01   0.00   0.00     0.01  -0.01   0.00
     9   6     0.00   0.01   0.01     0.00   0.00   0.00     0.03  -0.05   0.01
    10   1    -0.04   0.02  -0.04    -0.02   0.01   0.08     0.07  -0.05   0.49
    11   1     0.05  -0.05  -0.01    -0.05   0.10   0.02     0.23   0.41   0.12
    12   1    -0.01  -0.14   0.10    -0.07   0.07  -0.09    -0.01  -0.02  -0.00
    13   1    -0.03   0.12  -0.10     0.14  -0.39   0.31    -0.04   0.05  -0.05
    14   1    -0.10   0.04  -0.16     0.13  -0.07   0.48     0.03  -0.01  -0.04
    15   1     0.06   0.13  -0.09    -0.19  -0.25   0.37     0.02  -0.03  -0.06
    16   1    -0.07  -0.16  -0.04     0.07   0.12   0.04    -0.00  -0.06  -0.02
    17   1     0.42   0.17   0.24     0.18   0.05   0.14     0.00   0.02  -0.03
    18   1     0.44  -0.22   0.18     0.18  -0.09   0.02     0.01  -0.01   0.02
    19   1     0.51   0.09  -0.07     0.20  -0.04  -0.05    -0.00   0.05   0.01
    20   1    -0.08   0.03   0.01    -0.06  -0.04  -0.01    -0.04  -0.02   0.00
    21   1    -0.06   0.01  -0.00    -0.06   0.03  -0.05     0.00  -0.01  -0.04
    22   1     0.02  -0.02  -0.01    -0.02   0.01   0.01    -0.27   0.34   0.21
    23   1    -0.05  -0.03  -0.00    -0.03   0.01  -0.03    -0.11   0.30  -0.38
                     43                     44                     45
                      A                      A                      A
 Frequencies --   1501.1168              1520.0072              1526.0870
 Red. masses --      1.0854                 1.0689                 1.0485
 Frc consts  --      1.4410                 1.4551                 1.4388
 IR Inten    --      9.3097                 0.1105                 7.3661
  Atom  AN      X      Y      Z        X      Y      Z        X      Y      Z
     1   8    -0.01  -0.00   0.00     0.00  -0.00  -0.00     0.00   0.00  -0.00
     2   6    -0.00   0.01  -0.01    -0.00   0.00   0.01    -0.00  -0.00  -0.00
     3   6    -0.01  -0.03  -0.04     0.01   0.01   0.01    -0.00  -0.00  -0.00
     4   6    -0.00  -0.00  -0.00    -0.01   0.00  -0.00    -0.01  -0.02  -0.00
     5   6    -0.01   0.00   0.01    -0.03   0.00  -0.00    -0.01  -0.02  -0.01
     6   6     0.01   0.00  -0.00    -0.01   0.02   0.00     0.02   0.01  -0.02
     7   6    -0.00   0.00   0.01    -0.00   0.02   0.00     0.01   0.01  -0.04
     8   6    -0.01  -0.00  -0.01    -0.02  -0.03  -0.04    -0.00   0.00   0.00
     9   6    -0.02   0.05  -0.01     0.00  -0.02  -0.00    -0.00   0.00  -0.00
    10   1     0.06  -0.05   0.47    -0.00   0.01  -0.08     0.04  -0.02   0.07
    11   1     0.19   0.42   0.12    -0.04  -0.07  -0.02     0.03   0.06   0.02
    12   1    -0.00  -0.00  -0.00     0.01  -0.03   0.04     0.04   0.05  -0.03
    13   1    -0.02   0.07  -0.05     0.26   0.29   0.00     0.24   0.01   0.15
    14   1     0.10  -0.04  -0.03     0.36  -0.15  -0.19    -0.11   0.05  -0.16
    15   1     0.00  -0.10  -0.04    -0.10  -0.18   0.17    -0.05   0.24   0.21
    16   1    -0.04  -0.00  -0.00     0.02  -0.03  -0.01    -0.07  -0.00  -0.02
    17   1     0.03   0.02   0.00     0.11  -0.05   0.17    -0.24  -0.43   0.25
    18   1     0.01  -0.01  -0.05    -0.06   0.01  -0.18    -0.27   0.20   0.45
    19   1     0.00  -0.03  -0.01     0.03  -0.27  -0.08     0.34   0.05  -0.05
    20   1     0.07   0.09   0.02     0.18   0.39   0.09    -0.01   0.00   0.00
    21   1     0.03  -0.01   0.11     0.09  -0.04   0.42     0.03  -0.01  -0.02
    22   1     0.24  -0.36  -0.22    -0.05   0.08   0.05     0.02  -0.02  -0.01
    23   1     0.11  -0.30   0.37    -0.03   0.06  -0.09     0.01  -0.01   0.02
                     46                     47                     48
                      A                      A                      A
 Frequencies --   1530.4733              1537.8892              1541.5922
 Red. masses --      1.0463                 1.0695                 1.0507
 Frc consts  --      1.4440                 1.4904                 1.4711
 IR Inten    --      6.6388                 5.0714                 0.8966
  Atom  AN      X      Y      Z        X      Y      Z        X      Y      Z
     1   8     0.00   0.00  -0.00     0.00  -0.00  -0.00     0.00   0.00  -0.00
     2   6    -0.00   0.00  -0.00    -0.00   0.00   0.00     0.00  -0.00   0.00
     3   6    -0.00  -0.00  -0.00    -0.00  -0.00   0.00     0.01   0.00   0.01
     4   6    -0.01  -0.02  -0.00     0.02   0.01   0.00    -0.01   0.02   0.00
     5   6    -0.01  -0.02  -0.02     0.03   0.01  -0.00    -0.03   0.02   0.01
     6   6    -0.00  -0.02   0.00    -0.01  -0.02  -0.01     0.00  -0.02  -0.01
     7   6     0.00  -0.03   0.01     0.00  -0.01  -0.01     0.00  -0.03  -0.02
     8   6    -0.01  -0.00  -0.01    -0.02  -0.03  -0.04     0.00   0.01   0.01
     9   6     0.00   0.00  -0.00    -0.00  -0.01  -0.00    -0.00   0.00  -0.00
    10   1     0.02  -0.01   0.04    -0.02   0.01  -0.02    -0.03   0.02  -0.07
    11   1     0.01   0.04   0.01     0.00  -0.01  -0.00    -0.03  -0.06  -0.02
    12   1     0.03   0.04  -0.03    -0.02  -0.01  -0.01     0.02   0.00   0.04
    13   1     0.38   0.04   0.22    -0.30  -0.28  -0.04    -0.01   0.24  -0.14
    14   1    -0.11   0.05  -0.22    -0.21   0.08   0.27     0.44  -0.19  -0.00
    15   1    -0.08   0.32   0.34     0.08  -0.00  -0.19    -0.05  -0.44  -0.05
    16   1     0.01   0.03   0.02     0.01   0.04   0.01    -0.01   0.04   0.01
    17   1    -0.02   0.29  -0.36    -0.10  -0.04  -0.07    -0.18  -0.01  -0.19
    18   1     0.23  -0.12   0.03     0.02   0.02   0.24     0.08   0.01   0.40
    19   1    -0.20   0.36   0.14     0.07   0.23   0.05     0.08   0.45   0.11
    20   1     0.09   0.09   0.02     0.22   0.45   0.10    -0.03  -0.09  -0.02
    21   1     0.01  -0.00   0.13     0.08  -0.03   0.50    -0.02   0.01  -0.07
    22   1    -0.00  -0.01  -0.01    -0.01   0.04   0.02     0.00  -0.00  -0.00
    23   1     0.01  -0.01   0.01    -0.01   0.02  -0.03     0.01  -0.00   0.01
                     49                     50                     51
                      A                      A                      A
 Frequencies --   1817.1845              2991.1319              3017.2524
 Red. masses --     10.9574                 1.0828                 1.0713
 Frc consts  --     21.3185                 5.7080                 5.7463
 IR Inten    --    183.2644                22.2675                 2.7185
  Atom  AN      X      Y      Z        X      Y      Z        X      Y      Z
     1   8    -0.43  -0.11   0.20    -0.00   0.00   0.00    -0.00  -0.00  -0.00
     2   6     0.66   0.18  -0.32     0.00  -0.00  -0.00     0.00   0.00   0.00
     3   6    -0.04  -0.01   0.03     0.00  -0.00   0.00    -0.01   0.00  -0.05
     4   6    -0.02  -0.00   0.00    -0.01   0.01   0.01    -0.02   0.02   0.02
     5   6     0.00  -0.00  -0.00     0.00  -0.00  -0.00     0.00  -0.00  -0.00
     6   6     0.00   0.00  -0.00    -0.00   0.03  -0.08    -0.00  -0.00   0.00
     7   6    -0.00  -0.00  -0.00    -0.00  -0.00   0.01     0.00  -0.00  -0.00
     8   6    -0.01  -0.01   0.00    -0.00  -0.00   0.01     0.00   0.01  -0.00
     9   6    -0.04  -0.02   0.02     0.00  -0.00   0.00     0.01  -0.03   0.03
    10   1     0.20  -0.11  -0.14    -0.00  -0.01   0.00     0.08   0.16  -0.02
    11   1    -0.10   0.06   0.03     0.00   0.02  -0.05    -0.01  -0.20   0.58
    12   1     0.02   0.01   0.03     0.08  -0.08  -0.10     0.22  -0.24  -0.30
    13   1     0.03   0.01   0.00    -0.02   0.01   0.02    -0.02   0.02   0.03
    14   1     0.01  -0.00  -0.01    -0.00  -0.01  -0.00     0.01   0.01   0.00
    15   1    -0.01   0.00   0.04     0.01  -0.00   0.00    -0.01  -0.00  -0.00
    16   1    -0.00  -0.00  -0.00     0.05  -0.33   0.91    -0.00   0.02  -0.05
    17   1     0.00   0.00   0.00     0.02  -0.03  -0.02    -0.01   0.02   0.02
    18   1     0.00  -0.00   0.00     0.02   0.04  -0.00    -0.01  -0.01   0.00
    19   1     0.00   0.00  -0.00    -0.01   0.01  -0.05    -0.00   0.00  -0.01
    20   1     0.05   0.01   0.00    -0.01   0.03  -0.11     0.00  -0.02   0.06
    21   1     0.02  -0.03   0.02     0.01   0.02   0.00    -0.02  -0.05   0.00
    22   1    -0.09  -0.07  -0.02     0.00   0.02  -0.03    -0.03   0.27  -0.53
    23   1     0.18   0.20  -0.02    -0.00   0.00   0.01    -0.08   0.07   0.10
                     52                     53                     54
                      A                      A                      A
 Frequencies --   3021.7361              3031.8670              3041.0812
 Red. masses --      1.0745                 1.0760                 1.0531
 Frc consts  --      5.7808                 5.8275                 5.7383
 IR Inten    --     21.4021                42.2290                15.0416
  Atom  AN      X      Y      Z        X      Y      Z        X      Y      Z
     1   8    -0.00   0.00   0.00    -0.00  -0.00  -0.00    -0.00  -0.00   0.00
     2   6     0.00  -0.00  -0.00    -0.00   0.00  -0.00     0.00   0.00   0.00
     3   6    -0.00   0.00  -0.02    -0.01   0.00  -0.05    -0.00  -0.00  -0.00
     4   6    -0.02   0.03   0.03     0.03  -0.03  -0.04     0.00   0.00  -0.00
     5   6     0.00  -0.00  -0.00    -0.00   0.01   0.00    -0.00  -0.00   0.01
     6   6    -0.00  -0.00   0.01     0.00   0.00  -0.01    -0.00   0.00  -0.01
     7   6     0.00  -0.00  -0.00    -0.00   0.00   0.00     0.02  -0.00   0.01
     8   6     0.00  -0.00   0.01    -0.00  -0.00   0.01    -0.02  -0.03  -0.05
     9   6    -0.01   0.03  -0.04    -0.00   0.01  -0.01    -0.00   0.01  -0.00
    10   1     0.04   0.08  -0.01     0.09   0.17  -0.01     0.01   0.01  -0.00
    11   1    -0.01  -0.09   0.26    -0.01  -0.22   0.64     0.00  -0.01   0.04
    12   1     0.29  -0.32  -0.39    -0.32   0.34   0.43     0.00  -0.00  -0.00
    13   1    -0.03   0.03   0.05     0.02  -0.01  -0.02     0.06  -0.06  -0.09
    14   1     0.01   0.01   0.00    -0.03  -0.05  -0.01     0.02   0.06   0.01
    15   1    -0.01  -0.00  -0.00     0.04  -0.00   0.01    -0.04   0.00  -0.01
    16   1    -0.00   0.02  -0.06     0.00  -0.05   0.12     0.01  -0.03   0.07
    17   1    -0.01   0.02   0.02     0.03  -0.05  -0.04    -0.15   0.20   0.17
    18   1    -0.01  -0.02   0.00     0.02   0.05  -0.01    -0.11  -0.26   0.04
    19   1     0.00   0.00  -0.00     0.00  -0.00   0.02    -0.03   0.08  -0.28
    20   1    -0.01   0.04  -0.13    -0.00   0.02  -0.06     0.03  -0.20   0.60
    21   1     0.01   0.02   0.00     0.02   0.04  -0.00     0.22   0.50  -0.04
    22   1     0.03  -0.32   0.64     0.01  -0.10   0.21     0.00  -0.03   0.05
    23   1     0.09  -0.09  -0.13     0.03  -0.03  -0.04     0.04  -0.04  -0.05
                     55                     56                     57
                      A                      A                      A
 Frequencies --   3045.3020              3053.8465              3077.9564
 Red. masses --      1.0408                 1.0387                 1.1029
 Frc consts  --      5.6868                 5.7075                 6.1564
 IR Inten    --     37.5716                20.1275                37.9677
  Atom  AN      X      Y      Z        X      Y      Z        X      Y      Z
     1   8    -0.00  -0.00   0.00     0.00   0.00  -0.00     0.00   0.00  -0.00
     2   6     0.00   0.00   0.00    -0.00  -0.00   0.00     0.00   0.00   0.00
     3   6    -0.00  -0.00  -0.00     0.00   0.00  -0.00     0.00   0.00   0.00
     4   6    -0.00   0.00   0.00     0.00  -0.00  -0.00    -0.00   0.00   0.00
     5   6    -0.00  -0.01   0.02    -0.01  -0.02   0.04     0.00  -0.01  -0.00
     6   6     0.00   0.00  -0.00     0.00   0.00  -0.00    -0.00  -0.00   0.01
     7   6    -0.04   0.00  -0.01     0.01  -0.00  -0.00     0.00   0.01  -0.01
     8   6    -0.01  -0.01  -0.03     0.01   0.01   0.01    -0.02  -0.07   0.05
     9   6    -0.00   0.00   0.00     0.00  -0.00  -0.00     0.00  -0.01   0.00
    10   1     0.00   0.01  -0.00    -0.00  -0.01   0.00    -0.01  -0.01   0.00
    11   1     0.00  -0.00   0.01     0.00  -0.01   0.04    -0.00   0.01  -0.02
    12   1     0.04  -0.05  -0.06    -0.01   0.01   0.02     0.00  -0.00  -0.00
    13   1     0.11  -0.11  -0.15     0.29  -0.29  -0.41    -0.01   0.01   0.02
    14   1     0.08   0.17   0.02     0.22   0.49   0.06     0.03   0.07   0.01
    15   1    -0.18   0.02  -0.05    -0.45   0.05  -0.13    -0.06   0.01  -0.02
    16   1    -0.00  -0.01   0.02     0.00  -0.01   0.02    -0.00   0.03  -0.09
    17   1     0.25  -0.33  -0.29    -0.08   0.11   0.09     0.00  -0.00  -0.01
    18   1     0.18   0.42  -0.06    -0.05  -0.12   0.02    -0.02  -0.06   0.01
    19   1     0.05  -0.12   0.44    -0.01   0.03  -0.10     0.01  -0.02   0.07
    20   1     0.01  -0.11   0.33    -0.01   0.06  -0.18    -0.04   0.17  -0.59
    21   1     0.10   0.24  -0.02    -0.09  -0.20   0.01     0.31   0.68  -0.03
    22   1     0.00  -0.01   0.02     0.00  -0.01   0.01    -0.01   0.05  -0.11
    23   1     0.02  -0.02  -0.03    -0.01   0.01   0.02    -0.05   0.05   0.07
                     58                     59                     60
                      A                      A                      A
 Frequencies --   3108.4409              3110.2510              3112.7431
 Red. masses --      1.1023                 1.0978                 1.1004
 Frc consts  --      6.2751                 6.2570                 6.2821
 IR Inten    --     28.6593                 0.5512                48.8749
  Atom  AN      X      Y      Z        X      Y      Z        X      Y      Z
     1   8    -0.00   0.00   0.00     0.00   0.00  -0.00    -0.00  -0.00   0.00
     2   6     0.00  -0.00  -0.00    -0.00  -0.00   0.00     0.00   0.00  -0.00
     3   6     0.00   0.00  -0.00    -0.03  -0.06   0.02     0.01   0.03  -0.01
     4   6     0.00  -0.00  -0.00    -0.00   0.00   0.00     0.00  -0.00  -0.00
     5   6    -0.00   0.01   0.00     0.01   0.04   0.02     0.02   0.00  -0.00
     6   6     0.00  -0.00  -0.00     0.00   0.00  -0.00    -0.00   0.00  -0.01
     7   6     0.00  -0.09  -0.03     0.01   0.01  -0.03     0.02   0.03  -0.07
     8   6    -0.00  -0.00   0.00     0.00   0.00   0.00     0.00   0.00  -0.00
     9   6     0.00  -0.00  -0.00     0.00  -0.00  -0.01    -0.01   0.01   0.01
    10   1    -0.01  -0.02   0.00     0.35   0.68  -0.02    -0.18  -0.35   0.01
    11   1     0.00  -0.00   0.00    -0.00   0.06  -0.20     0.00  -0.03   0.11
    12   1    -0.00   0.01   0.01     0.01  -0.01  -0.01    -0.01   0.01   0.02
    13   1     0.02  -0.02  -0.03     0.13  -0.12  -0.18    -0.05   0.05   0.08
    14   1    -0.02  -0.04  -0.00    -0.16  -0.35  -0.04    -0.04  -0.11  -0.01
    15   1     0.02  -0.00   0.01    -0.13   0.02  -0.04    -0.17   0.02  -0.06
    16   1    -0.00   0.00  -0.00     0.00  -0.01   0.02     0.01  -0.03   0.08
    17   1    -0.36   0.44   0.40    -0.06   0.08   0.06    -0.15   0.20   0.16
[...]
 3432,-0.00031451,0.11772826,-0.24072045,0.00046095,-0.00019246,0.00128
 480,0.00062309,-0.00018809,0.00006780,-0.00003418,0.00003958,0.0001174
 9,-0.00048883,0.00008634,0.00021149,0.00002434,-0.00049634,0.00032442,
 0.00054640,-0.00021479,0.00030236,-0.00001743,0.00005839,0.00083804,0.
 00033115,0.01345565,-0.02100490,-0.00032419,-0.13004190,0.25890137,0.0
 0004269,-0.00017143,0.00006862,0.00008624,0.00036894,-0.00000109,-0.00
 114681,0.00110020,0.00123382,-0.01607912,0.02774328,-0.00148700,0.0011
 1339,-0.00054556,-0.04753610,-0.00144658,-0.00107223,-0.00600188,0.000
 46217,-0.00045723,-0.00060494,-0.00043798,-0.00055517,-0.00022721,-0.0
 0002674,-0.00013388,0.00014421,0.00066207,-0.00042833,-0.00047483,-0.0
 0001967,-0.00037276,0.00039270,0.00046295,-0.00045268,0.00129660,0.004
 15739,-0.00524875,-0.00072200,0.00159894,0.00003055,0.05267034,0.00044
 177,0.00000095,0.00034453,-0.00060667,-0.00019147,-0.00060137,-0.00074
 700,0.00108798,-0.00240498,0.01228289,0.00060895,-0.01122481,-0.174262
 06,-0.01097445,0.13229298,0.00037695,0.00023145,0.00075132,-0.00065753
 ,0.00116385,0.00016638,0.00004640,-0.00001411,-0.00001197,-0.00000641,
 0.00001208,-0.00008375,0.00005248,-0.00024368,-0.00016518,0.00047857,0
 .00000494,-0.00072551,0.00080525,-0.00009559,0.00083557,-0.01381937,0.
 00052195,0.01433282,-0.01187163,-0.00199225,0.01149644,0.18855571,0.00
 036206,-0.00001536,0.00020275,-0.00031413,0.00021617,-0.00060685,0.001
 10658,0.00041830,0.00044483,-0.00311892,-0.00159282,0.00273598,-0.0105
 2420,-0.05050078,0.01018527,-0.00065477,0.00021482,0.00026138,0.000618
 31,0.00005029,0.00072480,0.00004491,-0.00020527,0.00003011,0.00000331,
 0.00011212,-0.00008167,-0.00034793,0.00018367,0.00015122,-0.00028054,0
 .00038686,0.00022375,0.00036694,0.00012148,-0.00028482,-0.01733961,-0.
 00070258,0.01966101,0.01967704,0.00289017,-0.02167767,0.00961414,0.049
 35199,0.00060851,0.00041009,0.00023848,-0.00116386,-0.00158115,-0.0002
 3280,-0.00412467,0.00107958,-0.00467226,0.02139361,0.00172948,-0.02007
 404,0.13154045,0.01048938,-0.18863533,0.00121924,-0.00057618,0.0003133
 3,0.00014414,-0.00031084,-0.00026763,-0.00006854,0.00012605,-0.0000786
 0,-0.00000975,0.00009198,-0.00000435,-0.00025953,-0.00001508,0.0003522
 4,0.00125340,0.00036399,-0.00159540,-0.00001346,-0.00057094,0.00104729
 ,-0.00540464,0.00051325,0.00617621,-0.00051317,-0.00068370,0.00040497,
 -0.14420448,-0.01143515,0.20538550,0.00021284,0.00005251,-0.00007719,-
 0.00047726,-0.00016037,0.00007182,0.00017258,-0.00043238,-0.00123797,-
 0.01007895,0.00096109,-0.01818226,-0.00135958,0.00368352,0.00142969,-0
 .09211054,-0.00386112,-0.09252058,0.00861549,0.00162716,0.02550102,-0.
 00970851,-0.00249858,-0.01773684,0.00061206,0.00064501,-0.00105724,0.0
 0034958,0.00001084,0.00023307,-0.00028863,0.00034619,0.00077997,0.0009
 1488,-0.00012593,0.00052459,0.00011157,-0.00026080,0.00023880,-0.00046
 496,0.00021671,-0.00123190,0.00011593,0.00007147,-0.00004147,0.1052567
 6,-0.00007981,0.00013889,-0.00003379,0.00010067,-0.00034006,0.00003395
 ,-0.00059805,0.00086465,0.00064643,0.01458481,-0.00221037,0.02628696,0
 .00298758,-0.00438527,-0.00150093,-0.00415570,-0.04880208,-0.00750592,
 0.00009864,0.00003640,-0.00070941,-0.01467679,-0.00378715,-0.02704980,
 0.00088912,0.00112498,-0.00054382,-0.00041611,-0.00002717,-0.00000856,
 0.00010159,0.00003168,-0.00057508,-0.00063995,0.00100207,0.00030578,0.
 00025068,0.00008824,0.00004608,0.00086080,-0.00021726,0.00157621,-0.00
 033920,0.00006643,-0.00015203,0.00340218,0.05909395,0.00002943,0.00003
 841,-0.00009972,-0.00011183,-0.00011176,0.00015818,0.00068513,-0.00070
 353,0.00041943,-0.00199990,0.00030044,-0.00487598,0.00008586,0.0011335
 8,0.00149201,-0.09290438,-0.00736210,-0.24646709,-0.00773004,-0.001348
 08,-0.02316680,-0.00125889,-0.00075836,-0.00284171,0.00034005,0.000339
 91,0.00060204,0.00009794,0.00012917,0.00034347,-0.00020391,-0.00000233
 ,0.00076002,0.00030472,0.00051203,0.00030980,0.00006316,-0.00014010,0.
 00008164,-0.00026313,0.00005749,-0.00029397,0.00008961,-0.00015888,0.0
 0015058,0.09876885,0.00906174,0.27143827,-0.00012913,0.00044164,-0.000
 00208,0.00037984,-0.00108727,-0.00015114,0.00040081,0.00038192,0.00005
 206,0.00050849,-0.00170068,-0.00063691,-0.00018336,0.00024146,0.000059
 55,-0.01392391,-0.02111704,-0.00242743,-0.12144986,-0.11643351,-0.0055
 7360,-0.00299450,0.00198813,0.00449398,-0.00056331,-0.00143793,-0.0003
 7985,0.00003472,0.00006659,-0.00004523,-0.00003175,-0.00001854,-0.0000
 2979,0.00004971,0.00108294,0.00029026,0.00029162,0.00001642,0.00006942
 ,0.00002676,0.00006363,-0.00006311,-0.00014944,-0.00008777,-0.00029717
 ,0.00095054,0.00041506,-0.00006037,0.13074302,-0.00015071,0.00014335,-
 0.00003756,0.00018739,-0.00030010,0.00006722,-0.00006269,0.00029313,0.
 00004193,0.00082121,0.00058477,-0.00004202,-0.00016154,0.00019574,0.00
 002141,0.00139658,0.00109594,0.00037428,-0.11686896,-0.23752921,-0.008
 02460,0.00036664,0.00087089,0.00060500,0.00000173,0.00021980,-0.000346
 10,-0.00005240,0.00002973,0.00003915,0.00000361,-0.00001473,-0.0000021
 8,-0.00029453,0.00048035,0.00002140,0.00007486,-0.00000008,-0.00003697
 ,-0.00004099,0.00002314,-0.00000526,-0.00009596,-0.00006244,-0.0000745
 6,-0.00013799,0.00010662,0.00056586,0.12898417,0.25637308,0.00011111,-
 0.00024656,0.00001458,-0.00020537,0.00058127,0.00003987,-0.00030286,0.
 00002018,-0.00009401,-0.00049992,0.00063753,0.00089087,-0.00007043,-0.
 00012569,0.00016758,0.01197507,0.02059638,0.00104959,-0.00571454,-0.00
 811875,-0.05009482,0.00281407,-0.00138853,-0.00321742,0.00101374,0.001
 06601,0.00062658,-0.00006691,-0.00003640,0.00004467,0.00003620,0.00001
 622,-0.00004999,-0.00011189,-0.00056377,0.00002888,0.00007358,0.000027
 45,-0.00012741,0.00002650,0.00003739,0.00003590,0.00000106,-0.00009953
 ,-0.00012859,-0.00086492,0.00025309,0.00065045,0.00296692,0.00894775,0
 .05055406,-0.00007436,-0.00041251,0.00003320,0.00029465,0.00099293,-0.
 00018754,-0.00071374,0.00129004,-0.00038389,-0.00239928,-0.00219333,0.
 00370340,0.00036011,-0.00000102,0.00036732,-0.01577376,0.01901355,-0.0
 0576605,-0.14853013,0.12267067,-0.03261403,0.00042142,0.00145179,-0.00
 080275,0.00034591,-0.00048767,0.00014679,-0.00039357,-0.00008743,0.000
 44624,0.00006416,-0.00001259,0.00002392,0.00018380,0.00017458,0.000102
 67,-0.00003236,-0.00003544,-0.00005508,-0.00007368,0.00003272,0.000008
 40,-0.00004302,-0.00014350,0.00002853,0.00126501,-0.00032466,-0.000064
 07,0.01256039,-0.01361834,0.00412956,0.16020037,0.00014347,0.00013278,
 0.00003045,-0.00018680,-0.00027316,-0.00006622,0.00024532,0.00007166,0
 .00025684,-0.00017596,0.00085448,-0.00057850,-0.00018133,0.00018804,-0
 .00002954,-0.00061465,-0.00088462,-0.00052030,0.12314100,-0.20189906,0
 .03971899,-0.00062951,0.00058011,0.00004632,0.00007798,0.00022083,-0.0
 0008523,0.00008565,0.00000589,-0.00008234,-0.00003960,0.00001149,-0.00
 001214,-0.00010800,0.00041384,0.00015664,0.00011334,0.00001557,0.00000
 099,0.00002760,-0.00001295,0.00001277,-0.00009116,-0.00003910,-0.00014
 084,0.00000709,0.00015617,-0.00053255,0.01778129,-0.02055540,0.0061030
 9,-0.13596538,0.21672350,0.00011966,0.00019774,0.00003636,-0.00016961,
 -0.00048863,-0.00000695,0.00092581,-0.00107199,0.00044447,0.00319251,0
 .00145067,-0.00339836,0.00005173,0.00045230,-0.00068260,0.01532957,-0.
 01922507,0.00390597,-0.03320305,0.04000960,-0.05886574,-0.00055849,-0.
 00060002,0.00041277,-0.00022466,-0.00010787,-0.00005322,0.00038086,-0.
 00000875,-0.00038859,-0.00009878,-0.00001652,0.00004274,-0.00016072,0.
 00025364,-0.00004127,0.00001720,-0.00003050,0.00006810,-0.00014711,-0.
 00004042,0.00031984,-0.00025462,-0.00025677,0.00057166,-0.00066320,-0.
 00042337,0.00100574,0.00133264,-0.00168784,-0.00056920,0.03283841,-0.0
 4383016,0.06226479,0.00001586,-0.00001768,0.00001086,0.00005953,0.0000
 3851,-0.00001303,-0.00000938,-0.00008081,-0.00005056,0.00103185,-0.000
 15765,-0.00022419,-0.00042001,0.00063704,-0.00029720,0.01052004,0.0023
 4094,0.02426916,-0.08267748,-0.01161267,-0.08687448,0.00177650,0.00073
 037,0.00045398,0.00005218,0.00011415,0.00004765,-0.00006694,0.00003379
 ,-0.00009882,0.00004649,-0.00002231,-0.00016482,-0.00008124,0.00008394
 ,0.00001688,-0.00015320,0.00000213,-0.00005158,0.00001338,-0.00008267,
 0.00003241,-0.00100828,0.00097776,-0.00006628,-0.00340861,0.00012230,0
 .00413002,-0.00659651,-0.00049902,-0.01576814,-0.00759005,-0.00371438,
 -0.01853079,0.08879808,0.00005306,-0.00010640,0.00003665,-0.00002085,0
 .00027826,-0.00006697,0.00017165,-0.00000083,0.00013302,-0.00056952,-0
 .00005221,-0.00075003,0.00067188,0.00009553,-0.00051546,-0.00044972,-0
 .00102635,-0.00034840,-0.01115610,-0.05340674,-0.02817426,0.00047282,0
 .00027601,0.00093191,0.00001969,-0.00013109,-0.00000130,0.00003268,-0.
 00003556,-0.00001535,-0.00003494,-0.00003450,0.00011611,0.00008294,0.0
 0008121,-0.00001185,-0.00012347,-0.00000883,0.00007771,-0.00023244,-0.
 00002751,0.00017658,0.00079801,-0.00084057,0.00048468,0.00001235,0.000
 66089,0.00009390,-0.00982473,-0.00237348,-0.02746117,0.00882143,0.0039
 2421,0.02487879,0.01138742,0.05255123,0.00017965,0.00005092,0.00004131
 ,-0.00027796,-0.00013552,-0.00004904,0.00020678,-0.00012441,0.00008865
 ,-0.00086842,0.00083854,-0.00026142,0.00004682,0.00062435,-0.00055932,
 -0.00796070,-0.00225053,-0.02186912,-0.08626353,-0.02841773,-0.2737524
 1,-0.00146876,-0.00088595,0.00060065,0.00028896,0.00005780,0.00037433,
 0.00017855,-0.00003537,-0.00002004,-0.00004396,0.00001886,0.00025745,0
 .00005556,0.00004242,0.00003747,0.00012166,-0.00003411,0.00003512,-0.0
 0019931,0.00003507,0.00054897,-0.00076630,-0.00007694,0.00091981,0.004
 30265,-0.00015812,-0.00203371,-0.00017179,-0.00026248,0.00037146,-0.00
 226394,-0.00049422,-0.00526242,0.09400333,0.03042427,0.29986280,-0.000
 23661,-0.00017043,-0.00033418,0.00170483,-0.00097703,0.00057467,0.0000
 3034,0.00013374,0.00021649,-0.00003242,0.00086310,0.00030467,0.0001313
 3,0.00030154,-0.00017142,-0.00927551,-0.00199741,-0.01712337,0.0006969
 6,0.00049356,-0.00150649,-0.09449281,-0.00719745,-0.09704348,0.0093920
 0,0.00215327,0.02400400,0.00008545,0.00003397,-0.00003276,-0.00010910,
 -0.00000036,0.00002328,-0.00000034,-0.00001259,0.00002212,0.00026219,0
 .00072226,-0.00008149,0.00008105,0.00008008,0.00019553,-0.00004424,-0.
 00012604,0.00005352,-0.00155003,-0.00372458,0.00030621,0.00026112,0.00
 008504,0.00039100,-0.00002437,-0.00004882,-0.00005373,-0.00016595,-0.0
 0016199,0.00092299,0.10387137,-0.00006053,0.00008309,0.00017207,-0.000
 30276,-0.00021151,-0.00077680,0.00016505,-0.00023331,0.00011501,-0.000
 02395,0.00116795,-0.00077605,-0.00004347,-0.00068479,0.00026996,-0.013
 55425,-0.00271756,-0.02677741,0.00114970,0.00083927,-0.00084461,-0.006
 82013,-0.05291532,-0.01893310,-0.00015349,-0.00021096,0.00073679,0.000
 07231,-0.00002620,-0.00004941,-0.00005611,0.00010256,0.00016368,0.0000
 8875,0.00028202,0.00031245,0.00088644,-0.00109688,0.00073521,0.0001777
 8,0.00028407,0.00007698,0.00002540,-0.00001388,0.00006696,-0.00349122,
 -0.00467155,-0.00048043,0.00033427,-0.00000668,0.00011156,-0.00001830,
 -0.00002271,0.00014363,-0.00014554,0.00026809,0.00073713,0.01090147,0.
 05589848,0.00124506,-0.00039300,0.00032607,-0.00195972,0.00166609,-0.0
 0043896,0.00004157,-0.00029938,-0.00020127,-0.00057871,0.00026526,-0.0
 0041667,-0.00104531,0.00008738,-0.00034611,-0.00088137,-0.00139190,-0.
 00170506,0.00049311,0.00017576,0.00080290,-0.09638820,-0.01889441,-0.2
 5610983,-0.00727981,-0.00208248,-0.02089886,0.00001154,-0.00011619,-0.
 00001268,0.00003207,0.00001833,0.00016806,0.00008213,-0.00017744,0.000
 12525,0.00056824,0.00106857,0.00024700,0.00032056,0.00031650,0.0001752
 0,0.00007176,0.00006412,0.00000840,0.00016693,-0.00026766,0.00118054,-
 0.00001652,-0.00009369,0.00027525,0.00004800,-0.00000999,0.00000712,-0
 .00044973,-0.00005843,0.00048511,0.10398306,0.01977588,0.28156040,-0.0
 0186728,0.00188799,-0.00078881,-0.00088364,-0.00497828,0.00387168,-0.0
 0001559,0.00016691,-0.00054012,-0.00245194,-0.00277392,0.00000156,-0.0
 0018903,-0.00012505,-0.00024098,0.01122505,-0.01583761,0.00326928,0.00
 110309,-0.00056279,-0.00016159,-0.13933772,0.12262127,-0.02210978,-0.0
 1511830,0.02004281,-0.00018909,0.00007042,0.00010946,-0.00008426,-0.00
 001764,-0.00005920,0.00000288,0.00074769,-0.00098539,-0.00009828,0.000
 19839,0.00011074,0.00018997,0.00014525,0.00007858,0.00010642,0.0000413
 2,0.00002912,-0.00002107,0.00077427,0.00077298,0.00015086,0.00023352,0
 .00010314,-0.00016656,-0.00002719,0.00009751,-0.00007859,-0.00007576,0
 .00007722,0.00005740,-0.00860068,0.01111737,-0.00225580,0.15225959,0.0
 0005418,0.00008816,-0.00013269,-0.00061275,0.00062227,0.00028752,-0.00
 034195,0.00071130,0.00028397,-0.00549301,-0.00307951,-0.00063125,-0.00
 034472,0.00018749,-0.00057684,0.01705828,-0.02367506,0.00451714,0.0016
 0708,0.00075033,-0.00025332,0.12154816,-0.21061939,0.02670391,-0.00080
 892,0.00199854,-0.00018977,0.00013193,0.00003557,-0.00005885,-0.000003
 44,-0.00002534,-0.00003113,0.00099608,-0.00177162,0.00017183,0.0000901
 2,0.00020511,0.00005670,0.00012102,0.00001299,0.00009930,-0.00001874,-
 0.00003660,0.00009809,0.00016284,0.00109522,-0.00050099,-0.00016814,0.
 00041374,-0.00032247,-0.00112952,0.00037949,0.00036585,-0.00011289,-0.
 00003198,0.00007435,-0.00184896,0.00269620,0.00036140,-0.13116272,0.22
 950420,0.00235459,-0.00187549,0.00092023,0.00183863,0.00371572,-0.0037
 4061,-0.00025951,0.00012359,0.00044696,-0.00031420,-0.00046027,0.00009
 474,-0.00038207,-0.00007706,0.00003584,0.00097757,-0.00288550,-0.00051
 895,-0.00029260,0.00061760,0.00004275,-0.02209892,0.02743380,-0.053820
 37,0.01639400,-0.02166912,-0.00006079,-0.00002306,-0.00009817,0.000058
 29,0.00001241,-0.00000312,0.00000923,-0.00007948,-0.00014127,0.0002993
 8,0.00044975,0.00004066,0.00019666,0.00018014,0.00018593,0.00006951,0.
 00005168,0.00002891,0.00002367,0.00060887,-0.00008991,0.00027364,0.000
 07074,-0.00016430,-0.00014607,0.00028176,0.00010658,0.00019608,-0.0001
 1503,0.00012569,-0.00006199,-0.01827751,0.02461233,-0.00387497,0.02000
 045,-0.02951567,0.05751386,-0.00116341,0.00379912,0.00330208,-0.011403
 83,-0.00015551,-0.01797466,0.00025725,-0.00020393,0.00121140,-0.000084
 14,-0.00029377,0.00002858,-0.00005840,0.00002589,0.00001591,0.00151503
 ,0.00054138,0.00025477,-0.00002313,0.00031187,0.00017728,0.00932490,-0
 .00254292,0.02525826,-0.09097226,0.00698742,-0.10398786,-0.00007855,-0
 .00008659,0.00033484,0.00060225,0.00035546,0.00026966,-0.00001769,-0.0
 0000872,0.00002059,-0.00006490,0.00003810,-0.00000672,-0.00001493,-0.0
 0003123,-0.00004280,0.00002986,0.00003601,0.00000550,-0.00021442,-0.00
 006244,-0.00045671,0.00002163,0.00002230,-0.00015240,-0.00004881,-0.00
 000197,0.00002528,-0.00005124,-0.00003588,-0.00018640,-0.00324517,-0.0
 0051640,0.00383843,0.00167830,-0.00004394,-0.00081929,0.10218726,0.002
 53185,-0.00269172,-0.00356107,0.01239066,0.00130404,0.02888104,-0.0013
 4571,-0.00042058,-0.00331654,0.00042993,0.00029841,-0.00015490,0.00000
 387,0.00015979,0.00002532,0.00048390,0.00004061,0.00094272,-0.00010837
 ,0.00004670,-0.00002652,-0.00064408,0.00031385,-0.00155640,0.00825363,
 -0.05340986,0.02416605,0.00005055,0.00039294,-0.00043721,-0.00040144,-
 0.00163904,0.00001762,0.00005617,-0.00001315,-0.00002767,0.00000663,-0
 .00001920,-0.00005176,-0.00000733,0.00002004,-0.00002125,-0.00002468,-
 0.00002036,-0.00000518,-0.00022544,0.00003575,-0.00007517,0.00002001,0
 .00001107,-0.00000274,0.00002275,-0.00001492,0.00000264,-0.00001357,-0
 .00004529,-0.00004626,0.00056161,0.00095224,-0.00040483,-0.00047016,0.
 00025279,-0.00042386,-0.01109319,0.05088184,0.00067866,0.00068456,-0.0
 0072133,-0.00107173,-0.00006237,0.00044929,-0.00066347,-0.00016478,-0.
 00059962,0.00039204,0.00000022,-0.00007836,-0.00019408,-0.00012668,0.0
 0003515,-0.00140730,-0.00069343,0.00029851,0.00028092,-0.00001472,0.00
 027018,-0.00860312,0.00152235,-0.02476991,-0.09955402,0.01843635,-0.24
 508539,0.00004901,0.00016459,0.00023271,0.00030791,-0.00002937,0.00054
 595,-0.00001042,0.00005106,0.00000439,0.00012630,-0.00001904,0.0000699
 0,0.00003496,0.00006402,0.00003432,0.00001088,-0.00001207,0.00005260,0
 .00073612,0.00071771,0.00059922,0.00007529,0.00003124,0.00006209,0.000
 00437,-0.00002021,-0.00004042,-0.00016307,-0.00005599,0.00026243,0.004
 48010,0.00024651,-0.00224423,-0.00038427,-0.00040637,0.00145070,0.1063
 1032,-0.02019872,0.27221234,0.00185571,-0.00139139,-0.00014336,0.01165
 918,0.01583731,0.00287358,-0.00208048,0.00278331,-0.00041115,-0.000366
 33,0.00024311,0.00012330,0.00006975,-0.00010947,-0.00008217,-0.0022082
 2,0.00219251,0.00403550,-0.00025683,-0.00156680,-0.00027552,-0.0127427
 0,-0.01752915,-0.00412998,-0.15237177,-0.13122480,-0.02135771,0.000597
 16,0.00092084,-0.00008166,-0.00009719,-0.00008709,0.00004493,0.0000690
 0,-0.00012714,-0.00002946,-0.00001431,0.00000652,0.00002091,0.00005234
 ,-0.00004830,0.00006968,-0.00001147,0.00002977,-0.00005882,0.00030999,
 0.00043087,0.00000139,-0.00044040,-0.00006354,0.00038514,0.00002849,0.
 00003733,-0.00007030,-0.00000928,0.00000850,0.00010669,0.00126058,0.00
 026763,-0.00004728,0.00010786,0.00032003,-0.00055893,-0.00817559,-0.01
 047759,-0.00143543,0.16276451,0.00006145,0.00600572,0.00079503,-0.0221
 9366,-0.02641151,-0.00453346,0.00504362,-0.00331402,0.00070949,0.00047
 089,0.00023863,-0.00043712,-0.00017308,-0.00005783,-0.00002392,0.00059
 300,0.00094701,-0.00019401,0.00013463,0.00015642,-0.00018545,0.0014899
 5,0.00232204,0.00114783,-0.12673739,-0.20985810,-0.02694208,-0.0009237
 5,-0.00153079,0.00009717,0.00010488,0.00047183,-0.00015657,-0.00011528
 ,0.00003589,0.00011824,0.00004009,0.00001278,0.00003261,0.00000751,0.0
 0004044,-0.00004262,0.00001158,0.00001749,0.00009212,-0.00000513,-0.00
 006104,-0.00005825,0.00005806,0.00000076,-0.00003233,-0.00004077,0.000
 02387,0.00003306,-0.00000914,-0.00001408,0.00001793,-0.00006398,0.0002
 3738,0.00039013,-0.00025997,0.00028609,0.00041294,0.00295894,0.0035640
 5,-0.00011488,0.13954755,0.22688697,0.00075399,-0.00026542,-0.00117179
 ,-0.00062126,0.00260586,-0.00063587,-0.00007009,-0.00026804,0.00119759
 ,0.00017706,-0.00057540,-0.00009468,-0.00002033,0.00008972,0.00007976,
 0.00275949,-0.00181488,-0.00361261,0.00063825,0.00138594,0.00051924,0.
 01443093,0.02039328,0.00319442,-0.02097860,-0.02713115,-0.05455747,-0.
 00005297,-0.00006306,0.00039202,0.00035631,0.00038120,0.00023737,-0.00
 011025,0.00006731,0.00004490,-0.00000453,-0.00001430,-0.00002854,-0.00
 003951,0.00002073,-0.00004600,-0.00000204,-0.00002377,0.00004423,0.000
 25121,0.00009046,0.00031396,0.00044410,0.00006230,-0.00038434,-0.00002
 522,-0.00003045,0.00003313,-0.00009658,-0.00002010,-0.00001609,-0.0008
 5324,0.00036163,0.00088734,-0.00053130,-0.00040071,0.00059221,-0.01742
 607,-0.02372531,-0.00304052,0.02102064,0.02887415,0.05605175\\0.000047
 92,-0.00000160,-0.00001411,0.00002657,0.00001118,-0.00000903,-0.000050
 56,-0.00002500,0.00001751,0.00000861,0.00000441,-0.00001084,0.00001173
 ,0.00000776,0.00000932,0.00000941,0.00000012,0.00000884,-0.00000807,0.
 00000265,-0.00001166,0.00002843,0.00001729,-0.00002560,-0.00005510,-0.
 00001299,0.00004953,-0.00000256,0.00000123,-0.00000267,0.00001357,-0.0
 0000503,-0.00000471,-0.00000433,0.00000323,0.00000045,-0.00000170,-0.0
 0002346,-0.00000396,-0.00000970,0.00001549,-0.00000086,-0.00000493,0.0
 0001422,-0.00001960,0.00000481,0.00000142,0.00000905,-0.00000329,0.000
 00025,-0.00000086,0.00000552,0.00000051,0.00000404,-0.00001190,-0.0000
 0993,0.00001891,-0.00001073,-0.00000394,-0.00000565,-0.00000137,0.0000
 0003,0.00000053,0.00000626,-0.00000184,-0.00000377,0.00000140,0.000004
 00,-0.00000487\\\@


 The cat could very well be man's best friend
 but would never stoop to admitting it.
                               -- Doug Larson
 Job cpu time:       0 days  0 hours  1 minutes 33.2 seconds.
 Elapsed time:       0 days  0 hours  1 minutes 37.2 seconds.
 File lengths (MBytes):  RWF=     78 Int=      0 D2E=      0 Chk=      5 Scr=      1
 Normal termination of Gaussian 16 at Wed Feb 21 19:02:53 2024.
