 Entering Gaussian System, Link 0=g16
 Input=/Volumes/SSD-PMU3/b3lyp_6-31gd_freq/KMIVZYGUCIUIAK-WDEREUQCSA-N_calculating/gaussianinput2.gjf
 Output=/Volumes/SSD-PMU3/b3lyp_6-31gd_freq/KMIVZYGUCIUIAK-WDEREUQCSA-N_calculating/gaussianinput2.log
 Initial command:
 /Applications/g16/l1.exe "/Users/macmini_m1_2022/PycharmProjects/sphere_model/sphere_model_lib/Gau-85485.inp" -scrdir="/Users/macmini_m1_2022/PycharmProjects/sphere_model/sphere_model_lib/"
 Entering Link 1 = /Applications/g16/l1.exe PID=     85486.
  
 Copyright (c) 1988,1990,1992,1993,1995,1998,2003,2009,2016,
            Gaussian, Inc.  All Rights Reserved.
  
 This is part of the Gaussian(R) 16 program.  It is based on
 the Gaussian(R) 09 system (copyright 2009, Gaussian, Inc.),
 the Gaussian(R) 03 system (copyright 2003, Gaussian, Inc.),
 the Gaussian(R) 98 system (copyright 1998, Gaussian, Inc.),
 the Gaussian(R) 94 system (copyright 1995, Gaussian, Inc.),
 the Gaussian 92(TM) system (copyright 1992, Gaussian, Inc.),
 the Gaussian 90(TM) system (copyright 1990, Gaussian, Inc.),
 the Gaussian 88(TM) system (copyright 1988, Gaussian, Inc.),
 the Gaussian 86(TM) system (copyright 1986, Carnegie Mellon
 University), and the Gaussian 82(TM) system (copyright 1983,
 Carnegie Mellon University). Gaussian is a federally registered
 trademark of Gaussian, Inc.
  
 This software contains proprietary and confidential information,
 including trade secrets, belonging to Gaussian, Inc.
  
 This software is provided under written license and may be
 used, copied, transmitted, or stored only in accord with that
 written license.
  
 The following legend is applicable only to US Government
 contracts under FAR:
  
                    RESTRICTED RIGHTS LEGEND
  
 Use, reproduction and disclosure by the US Government is
 subject to restrictions as set forth in subparagraphs (a)
 and (c) of the Commercial Computer Software - Restricted
 Rights clause in FAR 52.227-19.
  
 Gaussian, Inc.
 340 Quinnipiac St., Bldg. 40, Wallingford CT 06492
  
  
 ---------------------------------------------------------------
 Warning -- This program may not be used in any manner that
 competes with the business of Gaussian, Inc. or will provide
 assistance to any competitor of Gaussian, Inc.  The licensee
 of this program is prohibited from giving any competitor of
 Gaussian, Inc. access to this program.  By using this program,
 the user acknowledges that Gaussian, Inc. is engaged in the
 business of creating and licensing software in the field of
 computational chemistry and represents and warrants to the
 licensee that it is not a competitor of Gaussian, Inc. and that
 it will not use this program in any manner prohibited above.
 ---------------------------------------------------------------
  

 Cite this work as:
 Gaussian 16, Revision A.03,
 M. J. Frisch, G. W. Trucks, H. B. Schlegel, G. E. Scuseria, 
 M. A. Robb, J. R. Cheeseman, G. Scalmani, V. Barone, 
 G. A. Petersson, H. Nakatsuji, X. Li, M. Caricato, A. V. Marenich, 
 J. Bloino, B. G. Janesko, R. Gomperts, B. Mennucci, H. P. Hratchian, 
 J. V. Ortiz, A. F. Izmaylov, J. L. Sonnenberg, D. Williams-Young, 
 F. Ding, F. Lipparini, F. Egidi, J. Goings, B. Peng, A. Petrone, 
 T. Henderson, D. Ranasinghe, V. G. Zakrzewski, J. Gao, N. Rega, 
 G. Zheng, W. Liang, M. Hada, M. Ehara, K. Toyota, R. Fukuda, 
 J. Hasegawa, M. Ishida, T. Nakajima, Y. Honda, O. Kitao, H. Nakai, 
 T. Vreven, K. Throssell, J. A. Montgomery, Jr., J. E. Peralta, 
 F. Ogliaro, M. J. Bearpark, J. J. Heyd, E. N. Brothers, K. N. Kudin, 
 V. N. Staroverov, T. A. Keith, R. Kobayashi, J. Normand, 
 K. Raghavachari, A. P. Rendell, J. C. Burant, S. S. Iyengar, 
 J. Tomasi, M. Cossi, J. M. Millam, M. Klene, C. Adamo, R. Cammi, 
 J. W. Ochterski, R. L. Martin, K. Morokuma, O. Farkas, 
 J. B. Foresman, and D. J. Fox, Gaussian, Inc., Wallingford CT, 2016.
 
 ******************************************
 Gaussian 16:  EM64M-G16RevA.03 25-Dec-2016
                24-Feb-2024 
 ******************************************
 %nprocshared=10
 Will use up to   10 processors via shared memory.
 %mem=12GB
 %chk= 2.chk
 ---------------------
 # freq b3lyp/6-31g(d)
 ---------------------
 1/10=4,30=1,38=1/1,3;
 2/12=2,17=6,18=5,40=1/2;
 3/5=1,6=6,7=1,11=2,25=1,30=1,71=2,74=-5,140=1/1,2,3;
 4//1;
 5/5=2,38=5,98=1/2;
 8/6=4,10=90,11=11/1;
 11/6=1,8=1,9=11,15=111,16=1/1,2,10;
 10/6=1/2;
 6/7=2,8=2,9=2,10=2,28=1/1;
 7/8=1,10=1,25=1/1,2,3,16;
 1/10=4,30=1/3;
 99//99;
 ---------
 good luck
 ---------
 Symbolic Z-matrix:
 Charge =  0 Multiplicity = 1
 O                     1.21743   0.        0. 
 C                     0.        0.        0. 
 C                    -0.84659  -1.27128   0.02754 
 C                    -0.01995  -2.54092   0.28286 
 C                     0.81756  -3.00686  -0.91679 
 C                     1.60375  -4.28879  -0.62487 
 C                    -1.98184  -1.07152   1.06334 
 C                    -2.93347   0.13615   0.77616 
 C                    -4.39683  -0.2865    0.40055 
 C                    -5.24433   0.96703   0.0939 
 C                    -5.04617  -1.00273   1.60457 
 C                    -4.4389   -1.22333  -0.82424 
 C                    -2.28932   1.11068  -0.23991 
 C                    -0.79288   1.30511   0.02754 
 H                    -1.31593  -1.3522   -0.96716 
 H                     0.64265  -2.36716   1.14104 
 H                    -0.70535  -3.35002   0.57418 
 H                     1.50803  -2.20646  -1.20134 
 H                     0.1527   -3.1753   -1.77705 
 H                     2.30464  -4.14105   0.20578 
 H                     0.93515  -5.11509  -0.3513 
 H                     2.18581  -4.60678  -1.49742 
 H                    -1.51961  -0.94767   2.05151 
 H                    -2.54825  -2.00557   1.12395 
 H                    -3.02886   0.69789   1.71703 
 H                    -4.91854   1.47381  -0.82043 
 H                    -5.19669   1.69118   0.91725 
 H                    -6.29672   0.69099  -0.0431 
 H                    -6.08067  -1.28286   1.37228 
 H                    -5.06821  -0.34936   2.48574 
 H                    -4.51559  -1.91961   1.88299 
 H                    -5.47574  -1.492    -1.05974 
 H                    -4.01618  -0.75011  -1.71795 
 H                    -3.89419  -2.15774  -0.6477 
 H                    -2.4234    0.74208  -1.26525 
 H                    -2.79246   2.08184  -0.19933 
 H                    -0.33285   1.99972  -0.68495 
 H                    -0.63778   1.74929   1.02254 
 

 GradGradGradGradGradGradGradGradGradGradGradGradGradGradGradGradGradGrad
 Berny optimization.
 Initialization pass.
 Trust Radius=3.00D-01 FncErr=1.00D-07 GrdErr=1.00D-07 EigMax=2.50D+02 EigMin=1.00D-04
 Number of steps in this run=      2 maximum allowed number of steps=      2.
 GradGradGradGradGradGradGradGradGradGradGradGradGradGradGradGradGradGrad

                          Input orientation:                          
 ---------------------------------------------------------------------
 Center     Atomic      Atomic             Coordinates (Angstroms)
 Number     Number       Type             X           Y           Z
 ---------------------------------------------------------------------
      1          8           0        1.217433    0.000000    0.000000
      2          6           0        0.000000    0.000000    0.000000
      3          6           0       -0.846587   -1.271279    0.027539
      4          6           0       -0.019954   -2.540922    0.282857
      5          6           0        0.817562   -3.006864   -0.916790
      6          6           0        1.603754   -4.288786   -0.624865
      7          6           0       -1.981844   -1.071521    1.063336
      8          6           0       -2.933469    0.136146    0.776155
      9          6           0       -4.396834   -0.286498    0.400548
     10          6           0       -5.244327    0.967030    0.093901
     11          6           0       -5.046171   -1.002730    1.604565
     12          6           0       -4.438899   -1.223331   -0.824241
     13          6           0       -2.289320    1.110677   -0.239910
     14          6           0       -0.792878    1.305110    0.027539
     15          1           0       -1.315927   -1.352198   -0.967158
     16          1           0        0.642647   -2.367165    1.141040
     17          1           0       -0.705350   -3.350023    0.574178
     18          1           0        1.508032   -2.206462   -1.201344
     19          1           0        0.152700   -3.175300   -1.777045
     20          1           0        2.304636   -4.141047    0.205782
     21          1           0        0.935146   -5.115088   -0.351304
     22          1           0        2.185807   -4.606778   -1.497422
     23          1           0       -1.519611   -0.947671    2.051505
     24          1           0       -2.548253   -2.005568    1.123951
     25          1           0       -3.028859    0.697891    1.717029
     26          1           0       -4.918539    1.473806   -0.820433
     27          1           0       -5.196693    1.691177    0.917250
     28          1           0       -6.296722    0.690994   -0.043098
     29          1           0       -6.080671   -1.282856    1.372279
     30          1           0       -5.068211   -0.349362    2.485743
     31          1           0       -4.515586   -1.919607    1.882994
     32          1           0       -5.475736   -1.492004   -1.059741
     33          1           0       -4.016184   -0.750106   -1.717951
     34          1           0       -3.894189   -2.157744   -0.647702
     35          1           0       -2.423399    0.742078   -1.265251
     36          1           0       -2.792463    2.081840   -0.199325
     37          1           0       -0.332850    1.999715   -0.684950
     38          1           0       -0.637775    1.749285    1.022541
 ---------------------------------------------------------------------
                    Distance matrix (angstroms):
                    1          2          3          4          5
     1  O    0.000000
     2  C    1.217433   0.000000
     3  C    2.424270   1.527618   0.000000
     4  C    2.840320   2.556695   1.536393   0.000000
     5  C    3.168853   3.248098   2.583293   1.535476   0.000000
     6  C    4.351251   4.621273   3.941466   2.552531   1.531875
     7  C    3.537544   2.491294   1.549706   2.572411   3.937401
     8  C    4.225037   3.037465   2.626090   3.987306   5.178302
     9  C    5.635824   4.424327   3.703132   4.924770   6.027080
    10  C    6.534394   5.333566   4.935033   6.295674   7.318458
    11  C    6.543151   5.389243   4.493955   5.419945   6.690078
    12  C    5.845511   4.677578   3.692226   4.742234   5.551571
    13  C    3.686255   2.555806   2.797628   4.330991   5.202406
    14  C    2.396961   1.527326   2.576949   3.931229   4.698765
    15  H    3.030140   2.120259   1.102837   2.157579   2.700413
    16  H    2.689948   2.705261   2.158395   1.098048   2.162053
    17  H    3.905052   3.471290   2.154052   1.099673   2.158704
    18  H    2.529061   2.930164   2.815839   2.156260   1.094698
    19  H    3.791316   3.641941   2.807204   2.162277   1.100205
    20  H    4.286330   4.743623   4.265858   2.823129   2.181268
    21  H    5.134903   5.211721   4.253582   2.817926   2.185911
    22  H    4.939881   5.314361   4.758831   3.507497   2.183793
    23  H    3.549389   2.723228   2.157341   2.813456   4.302723
    24  H    4.412024   3.432078   2.153362   2.717782   4.061518
    25  H    4.633167   3.550947   3.390327   4.647609   5.954592
    26  H    6.363597   5.199735   4.983507   6.428952   7.279323
    27  H    6.696450   5.541394   5.337711   6.716528   7.848984
    28  H    7.545983   6.334670   5.793054   7.067485   8.065391
    29  H    7.535993   6.364230   5.404081   6.285051   7.469783
    30  H    6.768330   5.655770   4.971399   5.927946   7.299443
    31  H    6.332303   5.255576   4.162283   4.812191   6.120734
    32  H    6.938850   5.773458   4.760243   5.715624   6.474630
    33  H    5.559205   4.432127   3.655776   4.814573   5.394434
    34  H    5.586059   4.498898   3.244942   4.002807   4.795207
    35  H    3.925200   2.832738   2.865528   4.353306   4.967879
    36  H    4.522505   3.488787   3.883466   5.411953   6.280282
    37  H    2.621334   2.139814   3.386882   4.653164   5.142279
    38  H    2.747250   2.124228   3.187074   4.397125   5.338536
                    6          7          8          9         10
     6  C    0.000000
     7  C    5.104638   0.000000
     8  C    6.490707   1.564136   0.000000
     9  C    7.285385   2.624448   1.568804   0.000000
    10  C    8.662358   3.967277   2.548706   1.543894   0.000000
    11  C    7.745323   3.112517   2.539057   1.544113   2.490246
    12  C    6.778674   3.102114   2.583750   1.542574   2.507864
    13  C    6.667714   2.560269   1.548233   2.608429   2.977269
    14  C    6.120551   2.852173   2.551281   3.957379   4.464762
    15  H    4.155147   2.155257   2.805486   3.535297   4.683694
    16  H    2.781146   2.927915   4.380447   5.502170   6.846154
    17  H    2.766034   2.657119   4.142304   4.800249   6.282509
    18  H    2.162768   4.312320   5.396781   6.412469   7.572520
    19  H    2.161696   4.129156   5.197013   5.812516   7.056007
    20  H    1.096830   5.341470   6.786564   7.733381   9.115471
    21  H    1.097564   5.182709   6.619124   7.232605   8.681950
    22  H    1.096020   6.035299   7.339718   8.099276   9.423722
    23  H    5.299190   1.097942   2.190929   3.382487   4.622965
    24  H    5.050802   1.094046   2.203700   2.625979   4.143206
    25  H    7.198091   2.157400   1.099955   2.138574   2.759579
    26  H    8.705517   4.318733   2.877313   2.204913   1.094973
    27  H    9.186085   4.241355   2.749584   2.194984   1.097525
    28  H    9.357039   4.790493   3.505781   2.182175   1.096586
    29  H    8.489675   4.115883   3.503400   2.184559   2.719505
    30  H    8.349255   3.474251   2.777685   2.191515   2.735839
    31  H    7.024862   2.794805   2.820338   2.208799   3.473412
    32  H    7.624322   4.109932   3.533342   2.179385   2.726039
    33  H    6.730587   3.460839   2.859769   2.201787   2.782031
    34  H    5.896545   2.786502   2.865708   2.202962   3.483828
    35  H    6.475928   2.984364   2.189672   2.779802   3.139352
    36  H    7.751947   3.492149   2.181094   2.922820   2.709321
    37  H    6.580220   3.899766   3.517234   4.787592   5.078942
    38  H    6.648060   3.124921   2.816582   4.319932   4.763887
                   11         12         13         14         15
    11  C    0.000000
    12  C    2.513273   0.000000
    13  C    3.933040   3.226411   0.000000
    14  C    5.089562   4.517965   1.532538   0.000000
    15  H    4.544294   3.128895   2.746295   2.885184   0.000000
    16  H    5.868491   5.567117   4.753824   4.097099   3.051339
    17  H    5.041251   4.518604   4.803077   4.687935   2.596117
    18  H    7.230468   6.039432   5.132996   4.374412   2.959621
    19  H    6.571423   5.079449   5.166802   4.921861   2.477193
    20  H    8.114185   7.419520   6.991686   6.267933   4.718256
    21  H    7.517517   6.652052   7.012114   6.659469   4.427860
    22  H    8.655229   7.469111   7.368676   6.793268   4.809949
    23  H    3.555195   4.107085   3.174875   3.114418   3.052451
    24  H    2.734277   2.825224   3.411473   3.904363   2.513614
    25  H    2.640891   3.483871   2.132351   2.867525   3.787065
    26  H    3.468449   2.739456   2.716921   4.215281   4.581118
    27  H    2.784276   3.478707   3.182580   4.509348   5.279533
    28  H    2.673457   2.779628   4.034122   5.538450   5.462311
    29  H    1.096639   2.742929   4.764714   6.038762   5.308536
    30  H    1.097201   3.480783   4.157299   5.201780   5.196907
    31  H    1.095311   2.796391   4.318055   5.263085   4.322399
    32  H    2.742707   1.096666   4.195154   5.561941   4.163187
    33  H    3.487665   1.096060   2.937546   4.202422   2.866634
    34  H    2.780976   1.095903   3.663943   4.697386   2.719998
    35  H    4.261353   2.849485   1.097801   2.155669   2.387749
    36  H    4.224665   3.745054   1.094512   2.157108   3.816064
    37  H    6.039201   5.221788   2.194590   1.096240   3.504483
    38  H    5.229368   5.166778   2.174673   1.100626   3.746730
                   16         17         18         19         20
    16  H    0.000000
    17  H    1.761942   0.000000
    18  H    2.502295   3.059292   0.000000
    19  H    3.067303   2.508989   1.762669   0.000000
    20  H    2.604529   3.133919   2.521349   3.081412   0.000000
    21  H    3.140657   2.581317   3.083970   2.531351   1.770481
    22  H    3.789286   3.772234   2.511684   2.502168   1.769726
    23  H    2.742129   2.935441   4.618680   4.734633   5.313117
    24  H    3.211368   2.346508   4.679829   4.132699   5.380877
    25  H    4.817291   4.805248   6.126626   6.110031   7.358353
    26  H    7.037558   6.554787   7.415543   6.945989   9.206191
    27  H    7.114641   6.760441   8.039488   7.717372   9.528429
    28  H    7.675243   6.926347   8.405413   7.716855   9.868836
    29  H    6.814118   5.814140   8.066288   7.235641   8.935510
    30  H    6.204325   5.629618   7.764689   7.308570   8.598487
    31  H    5.230504   4.275159   6.773433   6.063460   7.366360
    32  H    6.560789   5.373873   7.021646   5.918387   8.315838
    33  H    5.700300   4.793229   5.736272   4.823344   7.426439
    34  H    4.881223   3.617073   5.430735   4.322979   6.564096
    35  H    4.985807   4.804215   4.914684   4.716362   6.954363
    36  H    5.778426   5.870220   6.155309   6.229021   8.054120
    37  H    4.832750   5.508526   4.620328   5.311234   6.742306
    38  H    4.312619   5.119427   5.019770   5.719621   6.634824
                   21         22         23         24         25
    21  H    0.000000
    22  H    1.770909   0.000000
    23  H    5.400619   6.301910   0.000000
    24  H    4.896893   6.004100   1.742873   0.000000
    25  H    7.333625   8.103391   2.257782   2.809166   0.000000
    26  H    8.826054   9.375689   5.065994   4.637341   3.257552
    27  H    9.248455   9.999809   4.665939   4.552239   2.515108
    28  H    9.279305  10.106174   5.467483   4.762822   3.711741
    29  H    8.177923   9.360465   4.623523   3.614133   3.654554
    30  H    8.173205   9.306555   3.624789   3.308728   2.417978
    31  H    6.701766   7.972250   3.154191   2.110435   3.014830
    32  H    7.397839   8.282066   5.062319   3.688145   4.300384
    33  H    6.740657   7.306658   4.525562   3.436192   3.856241
    34  H    5.670645   6.609549   3.793233   2.230125   3.807282
    35  H    6.813334   7.064626   3.830529   3.643272   3.043440
    36  H    8.106413   8.438355   3.983004   4.303208   2.375628
    37  H    7.234608   7.116846   4.193289   4.921628   3.838322
    38  H    7.175036   7.397457   3.018273   4.214158   2.702781
                   26         27         28         29         30
    26  H    0.000000
    27  H    1.773179   0.000000
    28  H    1.765342   1.769943   0.000000
    29  H    3.709140   3.135816   2.438453   0.000000
    30  H    3.778511   2.576912   2.997769   1.770957   0.000000
    31  H    4.357309   3.799254   3.701015   1.765155   1.770415
    32  H    3.027171   3.757526   2.544221   2.514838   3.747288
    33  H    2.562336   3.781236   3.175335   3.754391   4.351827
    34  H    3.777206   4.354283   3.775317   3.102653   3.803558
    35  H    2.637994   3.654485   4.061884   4.942930   4.717651
    36  H    2.296885   2.679492   3.773419   4.960184   4.277775
    37  H    4.617735   5.130225   6.139421   6.931444   6.164017
    38  H    4.668767   4.560504   5.854848   6.240297   5.116057
                   31         32         33         34         35
    31  H    0.000000
    32  H    3.124807   0.000000
    33  H    3.818892   1.764637   0.000000
    34  H    2.616728   1.764731   1.772501   0.000000
    35  H    4.623122   3.788155   2.229016   3.309616   0.000000
    36  H    4.828746   4.551113   3.438551   4.403285   1.751391
    37  H    6.280979   6.227507   4.711216   5.474394   2.507747
    38  H    5.407270   6.184474   5.017061   5.353393   3.071956
                   36         37         38
    36  H    0.000000
    37  H    2.508440   0.000000
    38  H    2.499246   1.752490   0.000000
 Stoichiometry    C13H24O
 Framework group  C1[X(C13H24O)]
 Deg. of freedom   108
 Full point group                 C1      NOp   1
 Largest Abelian subgroup         C1      NOp   1
 Largest concise Abelian subgroup C1      NOp   1
                         Standard orientation:                         
 ---------------------------------------------------------------------
 Center     Atomic      Atomic             Coordinates (Angstroms)
 Number     Number       Type             X           Y           Z
 ---------------------------------------------------------------------
      1          8           0       -2.332231    2.066532   -0.231972
      2          6           0       -1.245308    1.539480   -0.080448
      3          6           0       -1.034915    0.026736   -0.049515
      4          6           0       -2.288459   -0.764867   -0.452623
      5          6           0       -3.391208   -0.797424    0.615353
      6          6           0       -4.609255   -1.618356    0.180526
      7          6           0        0.197705   -0.306106   -0.927839
      8          6           0        1.531993    0.376190   -0.479879
      9          6           0        2.607818   -0.630460    0.059012
     10          6           0        3.866446    0.138649    0.515013
     11          6           0        3.032630   -1.581897   -1.080543
     12          6           0        2.083792   -1.467651    1.243934
     13          6           0        1.247451    1.554278    0.483537
     14          6           0        0.029681    2.371818    0.039312
     15          1           0       -0.778365   -0.228837    0.992173
     16          1           0       -2.694965   -0.339144   -1.379566
     17          1           0       -1.988576   -1.796762   -0.686166
     18          1           0       -3.698509    0.228689    0.841232
     19          1           0       -2.980651   -1.219287    1.544829
     20          1           0       -5.064704   -1.198939   -0.724843
     21          1           0       -4.334065   -2.658118   -0.038135
     22          1           0       -5.378101   -1.634930    0.961462
     23          1           0       -0.034798   -0.014787   -1.960579
     24          1           0        0.307821   -1.394327   -0.952072
     25          1           0        1.980365    0.821709   -1.380088
     26          1           0        3.677191    0.755272    1.399843
     27          1           0        4.242186    0.794868   -0.280447
     28          1           0        4.669258   -0.562888    0.771602
     29          1           0        3.805483   -2.277405   -0.731854
     30          1           0        3.447426   -1.020820   -1.927295
     31          1           0        2.198693   -2.184230   -1.456642
     32          1           0        2.863265   -2.153783    1.596526
     33          1           0        1.796157   -0.839728    2.095008
     34          1           0        1.216608   -2.077569    0.966454
     35          1           0        1.076524    1.185224    1.503218
     36          1           0        2.121231    2.210827    0.541921
     37          1           0       -0.172435    3.211660    0.714261
     38          1           0        0.210583    2.818709   -0.950102
 ---------------------------------------------------------------------
 Rotational constants (GHZ):           1.0892315           0.3722887           0.3100498
 Standard basis: 6-31G(d) (6D, 7F)
 There are   258 symmetry adapted cartesian basis functions of A   symmetry.
 There are   258 symmetry adapted basis functions of A   symmetry.
   258 basis functions,   488 primitive gaussians,   258 cartesian basis functions
    55 alpha electrons       55 beta electrons
       nuclear repulsion energy       969.3625542284 Hartrees.
 NAtoms=   38 NActive=   38 NUniq=   38 SFac= 1.00D+00 NAtFMM=   60 NAOKFM=F Big=F
 Integral buffers will be    131072 words long.
 Raffenetti 2 integral format.
 Two-electron integral symmetry is turned on.
 One-electron integrals computed using PRISM.
 NBasis=   258 RedAO= T EigKep=  2.00D-03  NBF=   258
 NBsUse=   258 1.00D-06 EigRej= -1.00D+00 NBFU=   258
 ExpMin= 1.61D-01 ExpMax= 5.48D+03 ExpMxC= 8.25D+02 IAcc=3 IRadAn=         5 AccDes= 0.00D+00
 Harris functional with IExCor=  402 and IRadAn=       5 diagonalized for initial guess.
 HarFok:  IExCor=  402 AccDes= 0.00D+00 IRadAn=         5 IDoV= 1 UseB2=F ITyADJ=14
 ICtDFT=  3500011 ScaDFX=  1.000000  1.000000  1.000000  1.000000
 FoFCou: FMM=F IPFlag=           0 FMFlag=      100000 FMFlg1=           0
         NFxFlg=           0 DoJE=T BraDBF=F KetDBF=T FulRan=T
         wScrn=  0.000000 ICntrl=       500 IOpCl=  0 I1Cent=   200000004 NGrid=           0
         NMat0=    1 NMatS0=      1 NMatT0=    0 NMatD0=    1 NMtDS0=    0 NMtDT0=    0
 Petite list used in FoFCou.
 Requested convergence on RMS density matrix=1.00D-08 within 128 cycles.
 Requested convergence on MAX density matrix=1.00D-06.
 Requested convergence on             energy=1.00D-06.
 No special actions if energy rises.
 Integral accuracy reduced to 1.0D-05 until final iterations.
 Initial convergence to 1.0D-05 achieved.  Increase integral accuracy.
 SCF Done:  E(RB3LYP) =  -585.076429064     A.U. after   14 cycles
            NFock= 14  Conv=0.26D-08     -V/T= 2.0099
 DoSCS=F DFT=T ScalE2(SS,OS)=  1.000000  1.000000
 Range of M.O.s used for correlation:     1   258
 NBasis=   258 NAE=    55 NBE=    55 NFC=     0 NFV=     0
 NROrb=    258 NOA=    55 NOB=    55 NVA=   203 NVB=   203
 Symmetrizing basis deriv contribution to polar:
 IMax=3 JMax=2 DiffMx= 0.00D+00
 G2DrvN: will do    39 centers at a time, making    1 passes.
 Calling FoFCou, ICntrl=  3107 FMM=F I1Cent=   0 AccDes= 0.00D+00.
 End of G2Drv F.D. properties file   721 does not exist.
 End of G2Drv F.D. properties file   722 does not exist.
 End of G2Drv F.D. properties file   788 does not exist.
          IDoAtm=11111111111111111111111111111111111111
          Differentiating once with respect to electric field.
                with respect to dipole field.
          Differentiating once with respect to nuclear coordinates.
 Keep R1 ints in memory in canonical form, NReq=569063395.
          There are   117 degrees of freedom in the 1st order CPHF.  IDoFFX=6 NUNeed=     3.
    114 vectors produced by pass  0 Test12= 1.12D-14 1.00D-09 XBig12= 9.35D+01 1.80D+00.
 AX will form   114 AO Fock derivatives at one time.
    114 vectors produced by pass  1 Test12= 1.12D-14 1.00D-09 XBig12= 1.52D+01 9.58D-01.
    114 vectors produced by pass  2 Test12= 1.12D-14 1.00D-09 XBig12= 1.05D-01 4.29D-02.
    114 vectors produced by pass  3 Test12= 1.12D-14 1.00D-09 XBig12= 2.40D-04 1.85D-03.
    114 vectors produced by pass  4 Test12= 1.12D-14 1.00D-09 XBig12= 2.08D-07 4.55D-05.
     47 vectors produced by pass  5 Test12= 1.12D-14 1.00D-09 XBig12= 1.39D-10 7.41D-07.
      3 vectors produced by pass  6 Test12= 1.12D-14 1.00D-09 XBig12= 8.56D-14 2.77D-08.
 InvSVY:  IOpt=1 It=  1 EMax= 1.42D-14
 Solved reduced A of dimension   620 with   117 vectors.
 Isotropic polarizability for W=    0.000000      135.37 Bohr**3.
 End of Minotr F.D. properties file   721 does not exist.
 End of Minotr F.D. properties file   722 does not exist.
 End of Minotr F.D. properties file   788 does not exist.

 **********************************************************************

            Population analysis using the SCF density.

 **********************************************************************

 Orbital symmetries:
       Occupied  (A) (A) (A) (A) (A) (A) (A) (A) (A) (A) (A) (A)
                 (A) (A) (A) (A) (A) (A) (A) (A) (A) (A) (A) (A)
                 (A) (A) (A) (A) (A) (A) (A) (A) (A) (A) (A) (A)
                 (A) (A) (A) (A) (A) (A) (A) (A) (A) (A) (A) (A)
                 (A) (A) (A) (A) (A) (A) (A)
       Virtual   (A) (A) (A) (A) (A) (A) (A) (A) (A) (A) (A) (A)
                 (A) (A) (A) (A) (A) (A) (A) (A) (A) (A) (A) (A)
                 (A) (A) (A) (A) (A) (A) (A) (A) (A) (A) (A) (A)
                 (A) (A) (A) (A) (A) (A) (A) (A) (A) (A) (A) (A)
                 (A) (A) (A) (A) (A) (A) (A) (A) (A) (A) (A) (A)
                 (A) (A) (A) (A) (A) (A) (A) (A) (A) (A) (A) (A)
                 (A) (A) (A) (A) (A) (A) (A) (A) (A) (A) (A) (A)
                 (A) (A) (A) (A) (A) (A) (A) (A) (A) (A) (A) (A)
                 (A) (A) (A) (A) (A) (A) (A) (A) (A) (A) (A) (A)
                 (A) (A) (A) (A) (A) (A) (A) (A) (A) (A) (A) (A)
                 (A) (A) (A) (A) (A) (A) (A) (A) (A) (A) (A) (A)
                 (A) (A) (A) (A) (A) (A) (A) (A) (A) (A) (A) (A)
                 (A) (A) (A) (A) (A) (A) (A) (A) (A) (A) (A) (A)
                 (A) (A) (A) (A) (A) (A) (A) (A) (A) (A) (A) (A)
                 (A) (A) (A) (A) (A) (A) (A) (A) (A) (A) (A) (A)
                 (A) (A) (A) (A) (A) (A) (A) (A) (A) (A) (A) (A)
                 (A) (A) (A) (A) (A) (A) (A) (A) (A) (A) (A)
 The electronic state is 1-A.
 Alpha  occ. eigenvalues --  -19.13103 -10.26632 -10.20154 -10.19356 -10.19272
 Alpha  occ. eigenvalues --  -10.18962 -10.18807 -10.18797 -10.17644 -10.17587
 Alpha  occ. eigenvalues --  -10.17520 -10.17481 -10.17017 -10.16607  -1.03065
 Alpha  occ. eigenvalues --   -0.84529  -0.80691  -0.78259  -0.74555  -0.71270
 Alpha  occ. eigenvalues --   -0.68731  -0.68687  -0.66398  -0.61807  -0.59882
 Alpha  occ. eigenvalues --   -0.57637  -0.53358  -0.50609  -0.49101  -0.47168
 Alpha  occ. eigenvalues --   -0.45782  -0.45004  -0.44242  -0.43324  -0.42460
 Alpha  occ. eigenvalues --   -0.41475  -0.41087  -0.39738  -0.38805  -0.38422
 Alpha  occ. eigenvalues --   -0.37802  -0.37457  -0.36792  -0.36557  -0.35828
 Alpha  occ. eigenvalues --   -0.35158  -0.35110  -0.33535  -0.33004  -0.32225
 Alpha  occ. eigenvalues --   -0.31977  -0.30427  -0.30145  -0.29795  -0.23283
 Alpha virt. eigenvalues --   -0.00992   0.06553   0.09180   0.09911   0.10415
 Alpha virt. eigenvalues --    0.11450   0.12382   0.12868   0.13471   0.14581
 Alpha virt. eigenvalues --    0.15212   0.15303   0.16038   0.16566   0.17214
 Alpha virt. eigenvalues --    0.17379   0.18015   0.18753   0.18986   0.19280
 Alpha virt. eigenvalues --    0.20325   0.20567   0.20756   0.21440   0.21976
 Alpha virt. eigenvalues --    0.22229   0.22705   0.23636   0.24373   0.24857
 Alpha virt. eigenvalues --    0.25577   0.26110   0.27933   0.28175   0.30788
 Alpha virt. eigenvalues --    0.31780   0.33065   0.34120   0.38332   0.48264
 Alpha virt. eigenvalues --    0.49700   0.50214   0.51290   0.51833   0.52738
 Alpha virt. eigenvalues --    0.53789   0.55586   0.56572   0.58373   0.59834
 Alpha virt. eigenvalues --    0.60310   0.61431   0.62176   0.62396   0.63327
 Alpha virt. eigenvalues --    0.65391   0.66510   0.67377   0.68234   0.69566
 Alpha virt. eigenvalues --    0.70430   0.71572   0.72472   0.72884   0.74653
 Alpha virt. eigenvalues --    0.76995   0.77703   0.79721   0.80909   0.82280
 Alpha virt. eigenvalues --    0.83575   0.84017   0.85935   0.86019   0.87511
 Alpha virt. eigenvalues --    0.87824   0.88146   0.89008   0.89178   0.90159
 Alpha virt. eigenvalues --    0.90417   0.90994   0.91313   0.92202   0.92328
 Alpha virt. eigenvalues --    0.92990   0.93352   0.94068   0.94518   0.94762
 Alpha virt. eigenvalues --    0.95098   0.95999   0.97745   0.98543   0.99120
 Alpha virt. eigenvalues --    0.99344   1.00481   1.00841   1.02983   1.05524
 Alpha virt. eigenvalues --    1.06914   1.08783   1.12109   1.16005   1.18481
 Alpha virt. eigenvalues --    1.19379   1.21389   1.27057   1.34715   1.36854
 Alpha virt. eigenvalues --    1.40031   1.41174   1.43656   1.47373   1.48093
 Alpha virt. eigenvalues --    1.49882   1.54144   1.54638   1.56598   1.59875
 Alpha virt. eigenvalues --    1.62702   1.66411   1.68198   1.71312   1.72008
 Alpha virt. eigenvalues --    1.73018   1.76269   1.76849   1.78241   1.78528
 Alpha virt. eigenvalues --    1.81464   1.83936   1.85161   1.85737   1.87021
 Alpha virt. eigenvalues --    1.88391   1.89776   1.90397   1.92572   1.93201
 Alpha virt. eigenvalues --    1.95872   1.96545   1.98580   2.00377   2.00862
 Alpha virt. eigenvalues --    2.03002   2.03816   2.04984   2.06963   2.07351
 Alpha virt. eigenvalues --    2.09699   2.11178   2.12561   2.15641   2.17869
 Alpha virt. eigenvalues --    2.20590   2.22000   2.24281   2.25059   2.25549
 Alpha virt. eigenvalues --    2.26719   2.27126   2.29041   2.29903   2.33657
 Alpha virt. eigenvalues --    2.35079   2.36365   2.37737   2.41643   2.43525
 Alpha virt. eigenvalues --    2.45053   2.47527   2.51778   2.53183   2.55164
 Alpha virt. eigenvalues --    2.56444   2.58506   2.61874   2.64506   2.70566
 Alpha virt. eigenvalues --    2.72234   2.74299   2.74914   2.78372   2.80474
 Alpha virt. eigenvalues --    2.85571   2.88868   3.01085   3.07419   4.01440
 Alpha virt. eigenvalues --    4.10739   4.16336   4.21991   4.28819   4.31179
 Alpha virt. eigenvalues --    4.31803   4.33834   4.40607   4.46860   4.54586
 Alpha virt. eigenvalues --    4.62640   4.72499   4.74563
          Condensed to atoms (all electrons):
               1          2          3          4          5          6
     1  O    8.038917   0.555361  -0.082496   0.004422  -0.006956   0.000067
     2  C    0.555361   4.515244   0.322097  -0.029012  -0.002646   0.000043
     3  C   -0.082496   0.322097   5.229073   0.352241  -0.023801   0.003276
     4  C    0.004422  -0.029012   0.352241   5.004963   0.379629  -0.042608
     5  C   -0.006956  -0.002646  -0.023801   0.379629   4.975028   0.368951
     6  C    0.000067   0.000043   0.003276  -0.042608   0.368951   5.064879
     7  C    0.000425  -0.026898   0.348286  -0.040954   0.003267  -0.000104
     8  C    0.000168  -0.012638  -0.029610   0.003495  -0.000109   0.000001
     9  C   -0.000000   0.000126  -0.001401  -0.000008   0.000001  -0.000000
    10  C   -0.000000  -0.000011  -0.000022   0.000001  -0.000000   0.000000
    11  C    0.000000  -0.000021   0.000205   0.000003   0.000000  -0.000000
    12  C    0.000000   0.000049  -0.000205  -0.000067  -0.000002   0.000000
    13  C    0.003007  -0.031629   0.011008   0.000027   0.000016  -0.000000
    14  C   -0.073706   0.337320  -0.142137   0.006617  -0.000170   0.000002
    15  H    0.000907  -0.035667   0.355672  -0.040520  -0.004834   0.000073
    16  H    0.006458  -0.007404  -0.039906   0.369779  -0.035849  -0.002814
    17  H    0.000275   0.004706  -0.041552   0.366413  -0.041608  -0.003368
    18  H    0.011758   0.003365  -0.006943  -0.035823   0.375283  -0.033035
    19  H    0.000251  -0.000248  -0.005197  -0.043349   0.371021  -0.038531
    20  H    0.000033  -0.000012   0.000064  -0.004570  -0.035051   0.378887
    21  H   -0.000004  -0.000001   0.000003  -0.004244  -0.035368   0.375491
    22  H   -0.000002  -0.000001  -0.000116   0.004089  -0.026939   0.371832
    23  H    0.000457  -0.006406  -0.043159  -0.002828  -0.000009   0.000003
    24  H   -0.000072   0.003632  -0.033546  -0.002799   0.000035  -0.000010
    25  H    0.000001   0.000329   0.002998  -0.000128   0.000001  -0.000000
    26  H   -0.000000  -0.000005  -0.000001   0.000000  -0.000000  -0.000000
    27  H    0.000000   0.000000  -0.000001  -0.000000   0.000000  -0.000000
    28  H   -0.000000   0.000000   0.000001  -0.000000   0.000000  -0.000000
    29  H   -0.000000   0.000000  -0.000005  -0.000000   0.000000  -0.000000
    30  H   -0.000000   0.000001   0.000001  -0.000000   0.000000  -0.000000
    31  H   -0.000000  -0.000004   0.000081  -0.000002  -0.000000   0.000000
    32  H    0.000000  -0.000001   0.000033  -0.000000   0.000000   0.000000
    33  H   -0.000000  -0.000022  -0.000160   0.000007  -0.000000   0.000000
    34  H    0.000000   0.000041  -0.000725   0.000059  -0.000009  -0.000000
    35  H    0.000059  -0.004752   0.001895  -0.000085   0.000003  -0.000000
    36  H   -0.000063   0.003328  -0.000128  -0.000003  -0.000000   0.000000
    37  H    0.001064  -0.022547   0.005181  -0.000081   0.000003  -0.000000
    38  H   -0.000814  -0.024071   0.003010  -0.000204   0.000000   0.000000
               7          8          9         10         11         12
     1  O    0.000425   0.000168  -0.000000  -0.000000   0.000000   0.000000
     2  C   -0.026898  -0.012638   0.000126  -0.000011  -0.000021   0.000049
     3  C    0.348286  -0.029610  -0.001401  -0.000022   0.000205  -0.000205
     4  C   -0.040954   0.003495  -0.000008   0.000001   0.000003  -0.000067
     5  C    0.003267  -0.000109   0.000001  -0.000000   0.000000  -0.000002
     6  C   -0.000104   0.000001  -0.000000   0.000000  -0.000000   0.000000
     7  C    5.136658   0.341076  -0.025553   0.004571  -0.008606  -0.007903
     8  C    0.341076   4.970335   0.396247  -0.052789  -0.050633  -0.055085
     9  C   -0.025553   0.396247   4.740016   0.379208   0.381718   0.381954
    10  C    0.004571  -0.052789   0.379208   5.168805  -0.062751  -0.063107
    11  C   -0.008606  -0.050633   0.381718  -0.062751   5.170813  -0.062099
    12  C   -0.007903  -0.055085   0.381954  -0.063107  -0.062099   5.166496
    13  C   -0.060982   0.379859  -0.034044  -0.006223   0.004382  -0.008005
    14  C   -0.002042  -0.032324   0.003441   0.000305  -0.000109   0.000109
    15  H   -0.043275  -0.002778   0.000050  -0.000049   0.000037   0.001850
    16  H   -0.002037  -0.000091  -0.000001  -0.000000   0.000000   0.000001
    17  H   -0.004834   0.000190  -0.000018   0.000000  -0.000007  -0.000013
    18  H    0.000136   0.000002  -0.000000  -0.000000   0.000000   0.000000
    19  H    0.000077  -0.000002  -0.000000   0.000000  -0.000000  -0.000003
    20  H    0.000001   0.000000  -0.000000   0.000000   0.000000  -0.000000
    21  H   -0.000002   0.000000   0.000000  -0.000000   0.000000  -0.000000
    22  H    0.000001  -0.000000  -0.000000  -0.000000   0.000000   0.000000
    23  H    0.365935  -0.027320   0.002860  -0.000156   0.000468   0.000216
    24  H    0.370002  -0.040057  -0.006941   0.000319  -0.000495  -0.000679
    25  H   -0.042186   0.360226  -0.040499  -0.005946  -0.008108   0.006548
    26  H   -0.000034  -0.006818  -0.027118   0.366774   0.005684  -0.004983
    27  H    0.000047  -0.004608  -0.030519   0.365656  -0.004277   0.005859
    28  H   -0.000110   0.005187  -0.027742   0.365341  -0.006474  -0.004617
    29  H    0.000089   0.004993  -0.028233  -0.005860   0.365325  -0.005054
    30  H   -0.000006  -0.005891  -0.029469  -0.005128   0.365553   0.005853
    31  H    0.001604  -0.006039  -0.028402   0.005770   0.364964  -0.004513
    32  H    0.000033   0.005245  -0.028759  -0.005350  -0.005666   0.367784
    33  H   -0.000149  -0.004524  -0.029425  -0.004657   0.005684   0.365768
    34  H    0.002646  -0.006479  -0.028115   0.005728  -0.004786   0.365594
    35  H   -0.004000  -0.040966  -0.005595  -0.001756   0.000101   0.002653
    36  H    0.005450  -0.027811  -0.005017   0.003050  -0.000033   0.000082
    37  H    0.000253   0.003588  -0.000097   0.000003   0.000002  -0.000001
    38  H   -0.000724  -0.004531   0.000027  -0.000021  -0.000002   0.000001
              13         14         15         16         17         18
     1  O    0.003007  -0.073706   0.000907   0.006458   0.000275   0.011758
     2  C   -0.031629   0.337320  -0.035667  -0.007404   0.004706   0.003365
     3  C    0.011008  -0.142137   0.355672  -0.039906  -0.041552  -0.006943
     4  C    0.000027   0.006617  -0.040520   0.369779   0.366413  -0.035823
     5  C    0.000016  -0.000170  -0.004834  -0.035849  -0.041608   0.375283
     6  C   -0.000000   0.000002   0.000073  -0.002814  -0.003368  -0.033035
     7  C   -0.060982  -0.002042  -0.043275  -0.002037  -0.004834   0.000136
     8  C    0.379859  -0.032324  -0.002778  -0.000091   0.000190   0.000002
     9  C   -0.034044   0.003441   0.000050  -0.000001  -0.000018  -0.000000
    10  C   -0.006223   0.000305  -0.000049  -0.000000   0.000000  -0.000000
    11  C    0.004382  -0.000109   0.000037   0.000000  -0.000007   0.000000
    12  C   -0.008005   0.000109   0.001850   0.000001  -0.000013   0.000000
    13  C    5.096424   0.303030   0.000401  -0.000011   0.000009  -0.000017
    14  C    0.303030   5.320202   0.001227   0.000363  -0.000162   0.000206
    15  H    0.000401   0.001227   0.603577   0.005976  -0.001364  -0.000362
    16  H   -0.000011   0.000363   0.005976   0.593715  -0.038537  -0.005019
    17  H    0.000009  -0.000162  -0.001364  -0.038537   0.627669   0.005567
    18  H   -0.000017   0.000206  -0.000362  -0.005019   0.005567   0.558985
    19  H   -0.000005   0.000019   0.006703   0.005933  -0.005211  -0.036945
    20  H   -0.000000   0.000000   0.000012   0.004722  -0.000398  -0.004213
    21  H    0.000000  -0.000000   0.000004  -0.000422   0.005131   0.004742
    22  H    0.000000  -0.000000  -0.000002  -0.000036  -0.000034  -0.002538
    23  H    0.001792   0.000950   0.006303   0.003670  -0.000180  -0.000001
    24  H    0.004122  -0.000552  -0.005729  -0.000492   0.005976  -0.000004
    25  H   -0.046322  -0.003215  -0.000055  -0.000001  -0.000002  -0.000000
    26  H    0.002937   0.000026  -0.000006  -0.000000  -0.000000  -0.000000
    27  H   -0.001440  -0.000051  -0.000001  -0.000000  -0.000000  -0.000000
    28  H    0.000211  -0.000003   0.000001   0.000000  -0.000000   0.000000
    29  H   -0.000127   0.000001   0.000000   0.000000   0.000000  -0.000000
    30  H    0.000028  -0.000003  -0.000002  -0.000000   0.000000  -0.000000
    31  H   -0.000014  -0.000001  -0.000005   0.000000  -0.000007  -0.000000
    32  H    0.000084   0.000000  -0.000006   0.000000  -0.000000   0.000000
    33  H    0.000918  -0.000122   0.000562  -0.000000   0.000001  -0.000000
    34  H    0.000171  -0.000004   0.000832  -0.000002   0.000130   0.000000
    35  H    0.371627  -0.040804   0.000771  -0.000004   0.000002   0.000000
    36  H    0.364812  -0.026196   0.000066   0.000001   0.000000   0.000000
    37  H   -0.027322   0.351782  -0.000441  -0.000010   0.000002  -0.000005
    38  H   -0.034909   0.353769   0.000138  -0.000021   0.000003   0.000001
              19         20         21         22         23         24
     1  O    0.000251   0.000033  -0.000004  -0.000002   0.000457  -0.000072
     2  C   -0.000248  -0.000012  -0.000001  -0.000001  -0.006406   0.003632
     3  C   -0.005197   0.000064   0.000003  -0.000116  -0.043159  -0.033546
     4  C   -0.043349  -0.004570  -0.004244   0.004089  -0.002828  -0.002799
     5  C    0.371021  -0.035051  -0.035368  -0.026939  -0.000009   0.000035
     6  C   -0.038531   0.378887   0.375491   0.371832   0.000003  -0.000010
     7  C    0.000077   0.000001  -0.000002   0.000001   0.365935   0.370002
     8  C   -0.000002   0.000000   0.000000  -0.000000  -0.027320  -0.040057
     9  C   -0.000000  -0.000000   0.000000  -0.000000   0.002860  -0.006941
    10  C    0.000000   0.000000  -0.000000  -0.000000  -0.000156   0.000319
    11  C   -0.000000   0.000000   0.000000   0.000000   0.000468  -0.000495
    12  C   -0.000003  -0.000000  -0.000000   0.000000   0.000216  -0.000679
    13  C   -0.000005  -0.000000   0.000000   0.000000   0.001792   0.004122
    14  C    0.000019   0.000000  -0.000000  -0.000000   0.000950  -0.000552
    15  H    0.006703   0.000012   0.000004  -0.000002   0.006303  -0.005729
    16  H    0.005933   0.004722  -0.000422  -0.000036   0.003670  -0.000492
    17  H   -0.005211  -0.000398   0.005131  -0.000034  -0.000180   0.005976
    18  H   -0.036945  -0.004213   0.004742  -0.002538  -0.000001  -0.000004
    19  H    0.628569   0.005344  -0.004651  -0.002907   0.000008  -0.000007
    20  H    0.005344   0.574070  -0.033497  -0.030874  -0.000000   0.000000
    21  H   -0.004651  -0.033497   0.589164  -0.031740   0.000000  -0.000001
    22  H   -0.002907  -0.030874  -0.031740   0.578265  -0.000000   0.000000
    23  H    0.000008  -0.000000   0.000000  -0.000000   0.604546  -0.037575
    24  H   -0.000007   0.000000  -0.000001   0.000000  -0.037575   0.583070
    25  H    0.000000   0.000000  -0.000000   0.000000  -0.010748   0.003624
    26  H    0.000000   0.000000  -0.000000  -0.000000  -0.000002   0.000001
    27  H   -0.000000   0.000000  -0.000000   0.000000  -0.000009   0.000008
    28  H    0.000000  -0.000000  -0.000000   0.000000   0.000003  -0.000012
    29  H    0.000000  -0.000000   0.000000   0.000000   0.000008  -0.000243
    30  H   -0.000000   0.000000  -0.000000   0.000000  -0.000046   0.000103
    31  H    0.000000  -0.000000   0.000000  -0.000000  -0.000288   0.006530
    32  H    0.000000  -0.000000   0.000000   0.000000   0.000001  -0.000249
    33  H   -0.000000   0.000000  -0.000000   0.000000  -0.000016   0.000153
    34  H    0.000008   0.000000  -0.000000  -0.000000  -0.000031   0.004140
    35  H   -0.000004  -0.000000  -0.000000   0.000000  -0.000120   0.000210
    36  H    0.000000   0.000000   0.000000  -0.000000  -0.000129  -0.000131
    37  H   -0.000001  -0.000000   0.000000   0.000000  -0.000037   0.000006
    38  H   -0.000000   0.000000  -0.000000   0.000000   0.000302   0.000058
              25         26         27         28         29         30
     1  O    0.000001  -0.000000   0.000000  -0.000000  -0.000000  -0.000000
     2  C    0.000329  -0.000005   0.000000   0.000000   0.000000   0.000001
     3  C    0.002998  -0.000001  -0.000001   0.000001  -0.000005   0.000001
     4  C   -0.000128   0.000000  -0.000000  -0.000000  -0.000000  -0.000000
     5  C    0.000001  -0.000000   0.000000   0.000000   0.000000   0.000000
     6  C   -0.000000  -0.000000  -0.000000  -0.000000  -0.000000  -0.000000
     7  C   -0.042186  -0.000034   0.000047  -0.000110   0.000089  -0.000006
     8  C    0.360226  -0.006818  -0.004608   0.005187   0.004993  -0.005891
     9  C   -0.040499  -0.027118  -0.030519  -0.027742  -0.028233  -0.029469
    10  C   -0.005946   0.366774   0.365656   0.365341  -0.005860  -0.005128
    11  C   -0.008108   0.005684  -0.004277  -0.006474   0.365325   0.365553
    12  C    0.006548  -0.004983   0.005859  -0.004617  -0.005054   0.005853
    13  C   -0.046322   0.002937  -0.001440   0.000211  -0.000127   0.000028
    14  C   -0.003215   0.000026  -0.000051  -0.000003   0.000001  -0.000003
    15  H   -0.000055  -0.000006  -0.000001   0.000001   0.000000  -0.000002
    16  H   -0.000001  -0.000000  -0.000000   0.000000   0.000000  -0.000000
    17  H   -0.000002  -0.000000  -0.000000  -0.000000   0.000000   0.000000
    18  H   -0.000000  -0.000000  -0.000000   0.000000  -0.000000  -0.000000
    19  H    0.000000   0.000000  -0.000000   0.000000   0.000000  -0.000000
    20  H    0.000000   0.000000   0.000000  -0.000000  -0.000000   0.000000
    21  H   -0.000000  -0.000000  -0.000000  -0.000000   0.000000  -0.000000
    22  H    0.000000  -0.000000   0.000000   0.000000   0.000000   0.000000
    23  H   -0.010748  -0.000002  -0.000009   0.000003   0.000008  -0.000046
    24  H    0.003624   0.000001   0.000008  -0.000012  -0.000243   0.000103
    25  H    0.651546  -0.000066   0.005336  -0.000130   0.000007   0.006382
    26  H   -0.000066   0.575767  -0.031137  -0.030871  -0.000026  -0.000034
    27  H    0.005336  -0.031137   0.582864  -0.030446  -0.000129   0.003873
    28  H   -0.000130  -0.030871  -0.030446   0.581296   0.004916  -0.000150
    29  H    0.000007  -0.000026  -0.000129   0.004916   0.579688  -0.030036
    30  H    0.006382  -0.000034   0.003873  -0.000150  -0.030036   0.581032
    31  H   -0.000126  -0.000194  -0.000068   0.000007  -0.030000  -0.030539
    32  H   -0.000170  -0.000152  -0.000037   0.004120   0.004530  -0.000034
    33  H   -0.000054   0.003818  -0.000043  -0.000185  -0.000053  -0.000191
    34  H   -0.000001   0.000001  -0.000192  -0.000089  -0.000086  -0.000027
    35  H    0.006502   0.001122   0.000230  -0.000069   0.000001   0.000006
    36  H   -0.007365   0.000555   0.001062   0.000010   0.000000  -0.000019
    37  H   -0.000090   0.000005   0.000000  -0.000000  -0.000000   0.000000
    38  H    0.004178   0.000004   0.000007  -0.000000   0.000000   0.000001
              31         32         33         34         35         36
     1  O   -0.000000   0.000000  -0.000000   0.000000   0.000059  -0.000063
     2  C   -0.000004  -0.000001  -0.000022   0.000041  -0.004752   0.003328
     3  C    0.000081   0.000033  -0.000160  -0.000725   0.001895  -0.000128
     4  C   -0.000002  -0.000000   0.000007   0.000059  -0.000085  -0.000003
     5  C   -0.000000   0.000000  -0.000000  -0.000009   0.000003  -0.000000
     6  C    0.000000   0.000000   0.000000  -0.000000  -0.000000   0.000000
     7  C    0.001604   0.000033  -0.000149   0.002646  -0.004000   0.005450
     8  C   -0.006039   0.005245  -0.004524  -0.006479  -0.040966  -0.027811
     9  C   -0.028402  -0.028759  -0.029425  -0.028115  -0.005595  -0.005017
    10  C    0.005770  -0.005350  -0.004657   0.005728  -0.001756   0.003050
    11  C    0.364964  -0.005666   0.005684  -0.004786   0.000101  -0.000033
    12  C   -0.004513   0.367784   0.365768   0.365594   0.002653   0.000082
    13  C   -0.000014   0.000084   0.000918   0.000171   0.371627   0.364812
    14  C   -0.000001   0.000000  -0.000122  -0.000004  -0.040804  -0.026196
    15  H   -0.000005  -0.000006   0.000562   0.000832   0.000771   0.000066
    16  H    0.000000   0.000000  -0.000000  -0.000002  -0.000004   0.000001
    17  H   -0.000007  -0.000000   0.000001   0.000130   0.000002   0.000000
    18  H   -0.000000   0.000000  -0.000000   0.000000   0.000000   0.000000
    19  H    0.000000   0.000000  -0.000000   0.000008  -0.000004   0.000000
    20  H   -0.000000  -0.000000   0.000000   0.000000  -0.000000   0.000000
    21  H    0.000000   0.000000  -0.000000  -0.000000  -0.000000   0.000000
    22  H   -0.000000   0.000000   0.000000  -0.000000   0.000000  -0.000000
    23  H   -0.000288   0.000001  -0.000016  -0.000031  -0.000120  -0.000129
    24  H    0.006530  -0.000249   0.000153   0.004140   0.000210  -0.000131
    25  H   -0.000126  -0.000170  -0.000054  -0.000001   0.006502  -0.007365
    26  H   -0.000194  -0.000152   0.003818   0.000001   0.001122   0.000555
    27  H   -0.000068  -0.000037  -0.000043  -0.000192   0.000230   0.001062
    28  H    0.000007   0.004120  -0.000185  -0.000089  -0.000069   0.000010
    29  H   -0.030000   0.004530  -0.000053  -0.000086   0.000001   0.000000
    30  H   -0.030539  -0.000034  -0.000191  -0.000027   0.000006  -0.000019
    31  H    0.574276  -0.000095  -0.000033   0.002856  -0.000001  -0.000004
    32  H   -0.000095   0.577465  -0.030458  -0.030487  -0.000181  -0.000009
    33  H   -0.000033  -0.030458   0.578522  -0.031262   0.005043  -0.000033
    34  H    0.002856  -0.030487  -0.031262   0.576781  -0.000064  -0.000002
    35  H   -0.000001  -0.000181   0.005043  -0.000064   0.603972  -0.037917
    36  H   -0.000004  -0.000009  -0.000033  -0.000002  -0.037917   0.588142
    37  H    0.000000  -0.000000   0.000007   0.000000  -0.002641  -0.001735
    38  H    0.000000   0.000000   0.000001   0.000000   0.005338  -0.004911
              37         38
     1  O    0.001064  -0.000814
     2  C   -0.022547  -0.024071
     3  C    0.005181   0.003010
     4  C   -0.000081  -0.000204
     5  C    0.000003   0.000000
     6  C   -0.000000   0.000000
     7  C    0.000253  -0.000724
     8  C    0.003588  -0.004531
     9  C   -0.000097   0.000027
    10  C    0.000003  -0.000021
    11  C    0.000002  -0.000002
    12  C   -0.000001   0.000001
    13  C   -0.027322  -0.034909
    14  C    0.351782   0.353769
    15  H   -0.000441   0.000138
    16  H   -0.000010  -0.000021
    17  H    0.000002   0.000003
    18  H   -0.000005   0.000001
    19  H   -0.000001  -0.000000
    20  H   -0.000000   0.000000
    21  H    0.000000  -0.000000
    22  H    0.000000   0.000000
    23  H   -0.000037   0.000302
    24  H    0.000006   0.000058
    25  H   -0.000090   0.004178
    26  H    0.000005   0.000004
    27  H    0.000000   0.000007
    28  H   -0.000000  -0.000000
    29  H   -0.000000   0.000000
    30  H    0.000000   0.000001
    31  H    0.000000   0.000000
    32  H   -0.000000   0.000000
    33  H    0.000007   0.000001
    34  H    0.000000   0.000000
    35  H   -0.002641   0.005338
    36  H   -0.001735  -0.004911
    37  H    0.548123  -0.023843
    38  H   -0.023843   0.559085
 Mulliken charges:
               1
     1  O   -0.459517
     2  C    0.458355
     3  C   -0.184015
     4  C   -0.244460
     5  C   -0.259888
     6  C   -0.443034
     7  C   -0.310157
     8  C   -0.059510
     9  C    0.091310
    10  C   -0.451705
    11  C   -0.450874
    12  C   -0.454479
    13  C   -0.293813
    14  C   -0.357769
    15  H    0.149934
    16  H    0.142039
    17  H    0.121220
    18  H    0.164861
    19  H    0.119128
    20  H    0.145483
    21  H    0.135394
    22  H    0.141003
    23  H    0.141539
    24  H    0.147604
    25  H    0.117532
    26  H    0.144755
    27  H    0.138017
    28  H    0.139805
    29  H    0.140292
    30  H    0.138745
    31  H    0.144249
    32  H    0.142357
    33  H    0.140900
    34  H    0.143373
    35  H    0.139422
    36  H    0.144947
    37  H    0.168830
    38  H    0.168127
 Sum of Mulliken charges =  -0.00000
 Mulliken charges with hydrogens summed into heavy atoms:
               1
     1  O   -0.459517
     2  C    0.458355
     3  C   -0.034081
     4  C    0.018799
     5  C    0.024100
     6  C   -0.021155
     7  C   -0.021014
     8  C    0.058022
     9  C    0.091310
    10  C   -0.029129
    11  C   -0.027587
    12  C   -0.027849
    13  C   -0.009444
    14  C   -0.020812
 APT charges:
               1
     1  O   -0.680230
     2  C    0.730994
     3  C   -0.058485
     4  C    0.104935
     5  C    0.109756
     6  C    0.099102
     7  C    0.071932
     8  C    0.098397
     9  C    0.128302
    10  C    0.045153
    11  C    0.041284
    12  C    0.026628
    13  C    0.065422
    14  C   -0.025634
    15  H   -0.016050
    16  H   -0.031937
    17  H   -0.053003
    18  H   -0.005209
    19  H   -0.063167
    20  H   -0.027620
    21  H   -0.035767
    22  H   -0.047833
    23  H   -0.044905
    24  H   -0.020552
    25  H   -0.081331
    26  H   -0.019346
    27  H   -0.024955
    28  H   -0.033677
    29  H   -0.035056
    30  H   -0.025263
    31  H   -0.018194
    32  H   -0.027505
    33  H   -0.018215
    34  H   -0.022334
    35  H   -0.028663
    36  H   -0.036070
    37  H   -0.026909
    38  H   -0.013997
 Sum of APT charges =   0.00000
 APT charges with hydrogens summed into heavy atoms:
               1
     1  O   -0.680230
     2  C    0.730994
     3  C   -0.074536
     4  C    0.019995
     5  C    0.041380
     6  C   -0.012117
     7  C    0.006475
     8  C    0.017066
     9  C    0.128302
    10  C   -0.032825
    11  C   -0.037228
    12  C   -0.041425
    13  C    0.000689
    14  C   -0.066541
 Electronic spatial extent (au):  <R**2>=           3848.2239
 Charge=             -0.0000 electrons
 Dipole moment (field-independent basis, Debye):
    X=              2.7463    Y=             -1.0736    Z=              0.2641  Tot=              2.9605
 Quadrupole moment (field-independent basis, Debye-Ang):
   XX=            -96.6657   YY=            -92.1570   ZZ=            -88.4408
   XY=              6.0340   XZ=             -0.9212   YZ=              0.4627
 Traceless Quadrupole moment (field-independent basis, Debye-Ang):
   XX=             -4.2445   YY=              0.2642   ZZ=              3.9803
   XY=              6.0340   XZ=             -0.9212   YZ=              0.4627
 Octapole moment (field-independent basis, Debye-Ang**2):
  XXX=             13.1313  YYY=              3.9935  ZZZ=             -1.6394  XYY=             15.4563
  XXY=            -13.5498  XXZ=              2.6477  XZZ=             -4.4824  YZZ=              6.9183
  YYZ=              1.9112  XYZ=             -3.6384
 Hexadecapole moment (field-independent basis, Debye-Ang**3):
 XXXX=          -3770.6901 YYYY=          -1131.3674 ZZZZ=           -406.4506 XXXY=             -3.4416
 XXXZ=             -7.9105 YYYX=             14.2138 YYYZ=              4.7808 ZZZX=              2.4850
 ZZZY=             -4.2502 XXYY=           -851.6000 XXZZ=           -681.5259 YYZZ=           -254.0675
 XXYZ=             -5.5588 YYXZ=             -2.9709 ZZXY=             -4.0254
 N-N= 9.693625542284D+02 E-N=-3.293847241851D+03  KE= 5.793262774803D+02
  Exact polarizability: 159.843  -0.705 131.969   0.412   0.201 114.307
 Approx polarizability: 197.276  -7.131 187.289   1.868  -2.592 177.194
 Calling FoFJK, ICntrl=    100127 FMM=F ISym2X=0 I1Cent= 0 IOpClX= 0 NMat=1 NMatS=1 NMatT=0.
 Full mass-weighted force constant matrix:
 Low frequencies ---   -3.8667    0.0006    0.0008    0.0009    5.0205    9.6703
 Low frequencies ---   22.0131   50.8848   70.5162
 Diagonal vibrational polarizability:
        6.6945291       7.9213583     105.7344272
 Harmonic frequencies (cm**-1), IR intensities (KM/Mole), Raman scattering
 activities (A**4/AMU), depolarization ratios for plane and unpolarized
 incident light, reduced masses (AMU), force constants (mDyne/A),
 and normal coordinates:
                      1                      2                      3
                      A                      A                      A
 Frequencies --     21.9006                50.8791                70.5151
 Red. masses --      3.5525                 3.4504                 2.2655
 Frc consts  --      0.0010                 0.0053                 0.0066
 IR Inten    --      1.5976                 1.2154                 0.1254
  Atom  AN      X      Y      Z        X      Y      Z        X      Y      Z
     1   8    -0.02   0.01   0.20    -0.02  -0.01   0.23    -0.02  -0.07   0.00
     2   6     0.01   0.02   0.03    -0.00  -0.01   0.07    -0.01  -0.05  -0.01
     3   6     0.04   0.02  -0.05    -0.01  -0.02   0.03     0.01  -0.05  -0.01
     4   6     0.03   0.02  -0.04    -0.02   0.01  -0.03     0.00  -0.04   0.01
     5   6     0.09  -0.07   0.02    -0.05  -0.04  -0.06     0.06  -0.07   0.07
     6   6     0.09  -0.08   0.04    -0.07   0.05  -0.19    -0.10   0.22  -0.00
     7   6     0.01   0.09  -0.12    -0.01  -0.05   0.05     0.01  -0.03  -0.02
     8   6     0.02   0.02  -0.07     0.00  -0.03  -0.01     0.00  -0.01  -0.02
     9   6    -0.06  -0.02   0.02     0.03   0.01   0.01     0.02   0.02   0.00
    10   6    -0.07  -0.07   0.12     0.06   0.05  -0.14    -0.03   0.05   0.07
    11   6    -0.01  -0.05   0.07    -0.04  -0.09   0.06     0.09   0.06  -0.01
    12   6    -0.19   0.01  -0.01     0.10   0.11   0.11     0.00  -0.03  -0.04
    13   6     0.04   0.07  -0.12     0.02   0.02  -0.06    -0.01  -0.00  -0.03
    14   6     0.02   0.04  -0.12     0.01  -0.01  -0.07    -0.02  -0.03  -0.04
    15   1     0.08  -0.02  -0.08    -0.05  -0.04   0.04     0.03  -0.04  -0.01
    16   1    -0.03   0.07   0.01     0.01   0.06  -0.01    -0.04   0.01   0.05
    17   1     0.04   0.04  -0.12    -0.02   0.02  -0.08    -0.02  -0.03  -0.05
    18   1     0.08  -0.10   0.10    -0.02  -0.05   0.02     0.23  -0.06   0.27
    19   1     0.16  -0.12  -0.03    -0.10  -0.15  -0.09     0.05  -0.30  -0.03
    20   1     0.03  -0.04   0.09    -0.02   0.16  -0.16    -0.11   0.49   0.13
    21   1     0.11  -0.06  -0.04    -0.10   0.06  -0.29    -0.29   0.22  -0.25
    22   1     0.14  -0.15   0.08    -0.09  -0.00  -0.21    -0.04   0.17   0.06
    23   1    -0.01   0.20  -0.08    -0.01  -0.12   0.04     0.01  -0.03  -0.01
    24   1    -0.00   0.09  -0.23    -0.00  -0.05   0.12     0.03  -0.03  -0.03
    25   1     0.10  -0.04  -0.07    -0.03  -0.06  -0.04     0.00  -0.01  -0.02
    26   1    -0.12  -0.04   0.09     0.12   0.13  -0.19    -0.08   0.01   0.09
    27   1     0.03  -0.10   0.14     0.01  -0.03  -0.22    -0.02   0.09   0.11
    28   1    -0.12  -0.10   0.20     0.07   0.07  -0.13    -0.01   0.06   0.07
    29   1    -0.07  -0.08   0.14    -0.00  -0.04   0.07     0.08   0.05   0.01
    30   1     0.09  -0.08   0.10    -0.12  -0.16  -0.02     0.13   0.09   0.04
    31   1    -0.00  -0.02   0.01    -0.06  -0.14   0.18     0.12   0.07  -0.07
    32   1    -0.24  -0.01   0.06     0.11   0.12   0.10     0.02   0.01  -0.01
    33   1    -0.25   0.03  -0.04     0.17   0.18   0.08    -0.08  -0.06  -0.04
    34   1    -0.19   0.04  -0.08     0.06   0.11   0.22     0.05  -0.07  -0.09
    35   1     0.07   0.12  -0.10     0.04   0.07  -0.04    -0.01   0.01  -0.03
    36   1     0.04   0.08  -0.18     0.02   0.02  -0.11    -0.02   0.01  -0.04
    37   1     0.06   0.10  -0.18     0.05   0.06  -0.15    -0.03  -0.01  -0.06
    38   1    -0.04  -0.05  -0.17    -0.03  -0.12  -0.13    -0.04  -0.05  -0.05
                      4                      5                      6
                      A                      A                      A
 Frequencies --     88.4641               111.7580               139.0438
 Red. masses --      2.1117                 2.5612                 3.1156
 Frc consts  --      0.0097                 0.0188                 0.0355
 IR Inten    --      0.7196                 0.8910                 0.6714
  Atom  AN      X      Y      Z        X      Y      Z        X      Y      Z
     1   8    -0.01  -0.03   0.11     0.01   0.11   0.05    -0.04  -0.04   0.11
     2   6     0.00  -0.03   0.03     0.01   0.06  -0.05    -0.02  -0.05  -0.01
     3   6     0.01  -0.03   0.04    -0.07   0.05  -0.04    -0.00  -0.05  -0.17
     4   6     0.01  -0.05   0.06    -0.10   0.12  -0.09    -0.03  -0.01  -0.17
     5   6    -0.10   0.14  -0.05    -0.01  -0.04   0.00     0.03   0.12  -0.09
     6   6    -0.02   0.01  -0.02    -0.00  -0.09   0.06    -0.02   0.07   0.17
     7   6    -0.01  -0.04   0.02    -0.02  -0.09   0.07     0.04   0.00  -0.12
     8   6     0.00  -0.02  -0.02    -0.02  -0.06   0.04     0.01  -0.00   0.01
     9   6     0.02   0.00  -0.01     0.03  -0.02   0.02     0.02   0.01   0.02
    10   6    -0.03   0.03   0.07    -0.01   0.04   0.05     0.02   0.04  -0.02
    11   6     0.10   0.06  -0.03     0.08   0.05  -0.02     0.03  -0.02   0.05
    12   6     0.00  -0.06  -0.06     0.08  -0.08  -0.01     0.04   0.04   0.05
    13   6     0.02   0.01  -0.06    -0.03  -0.04   0.01    -0.06  -0.07   0.07
    14   6     0.01  -0.02  -0.08     0.05  -0.00  -0.11    -0.03  -0.05   0.05
    15   1     0.02  -0.01   0.04    -0.15   0.06  -0.02    -0.02  -0.12  -0.18
    16   1     0.11  -0.18  -0.05    -0.17   0.26   0.01    -0.04  -0.00  -0.16
    17   1     0.01  -0.09   0.25    -0.13   0.15  -0.26    -0.09  -0.03  -0.15
    18   1    -0.16   0.17  -0.29    -0.05  -0.08   0.12     0.06   0.15  -0.20
    19   1    -0.19   0.34   0.08     0.10  -0.09  -0.07     0.12   0.25  -0.07
    20   1     0.09  -0.22  -0.18    -0.13  -0.04   0.15    -0.10  -0.10   0.13
    21   1     0.03  -0.04   0.26     0.06  -0.05  -0.07    -0.08   0.01   0.35
    22   1    -0.13   0.18  -0.12     0.09  -0.22   0.14     0.05   0.25   0.25
    23   1    -0.03  -0.05   0.02     0.04  -0.24   0.01     0.11   0.06  -0.12
    24   1     0.00  -0.04   0.03    -0.04  -0.10   0.23     0.05   0.00  -0.17
    25   1    -0.02  -0.05  -0.05    -0.06  -0.05   0.03     0.05   0.06   0.06
    26   1    -0.08  -0.03   0.10    -0.04  -0.04   0.10     0.02   0.08  -0.04
    27   1    -0.03   0.09   0.12    -0.07   0.13   0.09     0.01   0.02  -0.05
    28   1    -0.01   0.05   0.06     0.04   0.07  -0.02     0.03   0.06   0.00
    29   1     0.06   0.03  -0.02     0.07   0.04  -0.03     0.10   0.05   0.06
    30   1     0.16   0.11   0.03     0.10   0.10   0.03    -0.05  -0.05  -0.00
    31   1     0.11   0.09  -0.13     0.09   0.07  -0.08     0.06  -0.11   0.13
    32   1     0.03  -0.00  -0.02     0.14  -0.01   0.00     0.02   0.00   0.01
    33   1    -0.10  -0.09  -0.07     0.01  -0.11  -0.01     0.11   0.05   0.06
    34   1     0.07  -0.12  -0.13     0.14  -0.16  -0.03    -0.00   0.09   0.09
    35   1     0.04   0.05  -0.04    -0.12  -0.02   0.01    -0.12  -0.14   0.03
    36   1     0.01   0.02  -0.10    -0.00  -0.08   0.06    -0.07  -0.07   0.17
    37   1     0.03   0.03  -0.13     0.08   0.09  -0.22    -0.06  -0.07   0.07
    38   1    -0.03  -0.09  -0.12     0.12  -0.14  -0.16     0.01  -0.02   0.07
                      7                      8                      9
                      A                      A                      A
 Frequencies --    181.8472               227.9434               239.4714
 Red. masses --      2.1486                 1.1340                 1.7835
 Frc consts  --      0.0419                 0.0347                 0.0603
 IR Inten    --      0.5286                 0.0552                 0.2982
  Atom  AN      X      Y      Z        X      Y      Z        X      Y      Z
     1   8     0.05   0.01  -0.03     0.01  -0.00  -0.01     0.02   0.05   0.01
     2   6     0.03  -0.01   0.05     0.01  -0.00   0.01     0.01   0.03  -0.01
     3   6    -0.02  -0.02   0.01    -0.01  -0.01   0.01     0.01   0.02  -0.01
     4   6    -0.06   0.06  -0.02    -0.03   0.02   0.01     0.03  -0.02   0.06
     5   6    -0.05   0.00  -0.00    -0.03   0.00   0.01     0.03  -0.01   0.05
     6   6    -0.03  -0.03   0.01    -0.02  -0.02  -0.00     0.05   0.02  -0.05
     7   6    -0.04  -0.04  -0.02    -0.01  -0.01  -0.00    -0.03   0.04  -0.07
     8   6    -0.01  -0.04  -0.10     0.00  -0.01  -0.02    -0.03  -0.03  -0.01
     9   6     0.00   0.01  -0.03     0.01   0.00  -0.00    -0.03  -0.02   0.00
    10   6    -0.05   0.08  -0.01    -0.01   0.01   0.04    -0.10   0.11  -0.03
    11   6     0.10  -0.05   0.06     0.04   0.01   0.00     0.00  -0.05   0.04
    12   6    -0.03   0.05  -0.01     0.00  -0.02  -0.02     0.02  -0.05   0.00
    13   6     0.08  -0.02  -0.09     0.02   0.01  -0.04    -0.04  -0.07   0.04
    14   6     0.01  -0.01   0.15     0.00  -0.00   0.01     0.03  -0.01  -0.01
    15   1    -0.01  -0.06  -0.00    -0.00  -0.01   0.01     0.07   0.03  -0.03
    16   1    -0.06   0.15   0.03    -0.03   0.05   0.02     0.01  -0.08   0.04
    17   1    -0.10   0.06  -0.11    -0.05   0.02  -0.02     0.06  -0.02   0.11
    18   1    -0.08  -0.01   0.02    -0.05  -0.00   0.01     0.04  -0.01   0.06
    19   1    -0.02  -0.00  -0.02    -0.03   0.00   0.01    -0.00  -0.04   0.05
    20   1    -0.07  -0.03   0.03    -0.05   0.00   0.03     0.19  -0.01  -0.13
    21   1     0.02  -0.02  -0.03     0.01   0.00  -0.05     0.04  -0.00   0.03
    22   1    -0.00  -0.09   0.03    -0.00  -0.07   0.01    -0.05   0.08  -0.15
    23   1    -0.08  -0.05  -0.02    -0.02   0.01   0.00    -0.03   0.14  -0.04
    24   1    -0.04  -0.04  -0.02    -0.01  -0.01  -0.03    -0.05   0.03  -0.16
    25   1    -0.03  -0.09  -0.13    -0.00  -0.03  -0.03     0.01  -0.00   0.03
    26   1    -0.08   0.04   0.01    -0.10   0.17  -0.09    -0.12  -0.02   0.06
    27   1    -0.10   0.13   0.00     0.15  -0.15  -0.02    -0.29   0.26   0.01
    28   1     0.00   0.13  -0.04    -0.09   0.00   0.28     0.04   0.21  -0.19
    29   1     0.00  -0.09   0.20     0.33   0.28  -0.10     0.23   0.18  -0.00
    30   1     0.26  -0.11   0.11    -0.31   0.04  -0.15    -0.28  -0.07  -0.11
    31   1     0.11  -0.01  -0.04     0.14  -0.28   0.25     0.07  -0.30   0.27
    32   1     0.02   0.20   0.16    -0.10  -0.24  -0.22     0.09   0.06   0.06
    33   1    -0.23   0.09  -0.11     0.28  -0.04   0.10    -0.12  -0.08  -0.03
    34   1     0.09  -0.10  -0.06    -0.18   0.22   0.05     0.12  -0.18  -0.05
    35   1     0.25  -0.03  -0.06     0.08   0.02  -0.02    -0.12  -0.11   0.01
    36   1     0.08  -0.01  -0.21     0.02   0.02  -0.09    -0.01  -0.11   0.12
    37   1     0.02  -0.17   0.36     0.01  -0.03   0.05     0.05   0.02  -0.05
    38   1    -0.09   0.24   0.25    -0.03   0.04   0.02     0.09  -0.05  -0.02
                     10                     11                     12
                      A                      A                      A
 Frequencies --    248.3852               260.1700               271.2734
 Red. masses --      1.1441                 1.5557                 1.8794
 Frc consts  --      0.0416                 0.0620                 0.0815
 IR Inten    --      0.1833                 1.1785                 0.5629
  Atom  AN      X      Y      Z        X      Y      Z        X      Y      Z
     1   8     0.01   0.03  -0.00     0.03   0.06   0.01    -0.03   0.07  -0.01
     2   6     0.00   0.01  -0.00     0.01   0.02  -0.01    -0.05   0.04  -0.01
     3   6    -0.01   0.00  -0.01    -0.02   0.01  -0.01    -0.04   0.03  -0.02
     4   6    -0.02   0.01  -0.02    -0.02  -0.04   0.06    -0.02  -0.06   0.02
     5   6     0.02  -0.08   0.02    -0.05  -0.03   0.04    -0.06  -0.06   0.00
     6   6    -0.03   0.00   0.00    -0.05  -0.03  -0.01    -0.10  -0.03   0.02
     7   6    -0.00  -0.01   0.01    -0.02   0.04  -0.06    -0.00   0.10  -0.04
     8   6     0.00   0.00  -0.00     0.00  -0.01  -0.02     0.04   0.02   0.01
     9   6     0.00   0.01  -0.00     0.02   0.01  -0.01     0.05  -0.01   0.00
    10   6     0.01  -0.01   0.01     0.01   0.03  -0.02     0.09  -0.06  -0.01
    11   6     0.01   0.01  -0.00     0.08  -0.01   0.02     0.07  -0.04   0.03
    12   6    -0.01   0.01  -0.00    -0.01   0.05   0.00     0.06  -0.04  -0.01
    13   6     0.01   0.01  -0.01    -0.02  -0.07   0.04     0.00   0.02   0.01
    14   6     0.01   0.00   0.01     0.04  -0.03  -0.02    -0.02   0.01  -0.01
    15   1    -0.03   0.01  -0.00     0.03   0.02  -0.02    -0.00   0.05  -0.02
    16   1    -0.07   0.10   0.04    -0.03  -0.13   0.02    -0.02  -0.14  -0.02
    17   1    -0.01   0.04  -0.14     0.01  -0.05   0.13     0.04  -0.06   0.10
    18   1     0.06  -0.09   0.11    -0.06  -0.03   0.02    -0.05  -0.05  -0.01
    19   1     0.04  -0.17  -0.02    -0.09  -0.03   0.05    -0.08  -0.05   0.01
    20   1     0.31  -0.24  -0.28    -0.05   0.02   0.01    -0.12  -0.02   0.04
    21   1    -0.20  -0.14   0.48    -0.03  -0.01  -0.08    -0.14  -0.04   0.01
    22   1    -0.25   0.48  -0.20    -0.05  -0.08  -0.02    -0.07  -0.01   0.05
    23   1     0.00  -0.04   0.00    -0.02   0.14  -0.04     0.01   0.22  -0.01
    24   1     0.00  -0.01   0.04    -0.04   0.04  -0.16    -0.03   0.10  -0.17
    25   1    -0.01  -0.00  -0.01     0.01   0.04   0.01     0.06   0.03   0.03
    26   1     0.00   0.02  -0.01     0.02   0.01  -0.00     0.07   0.15  -0.15
    27   1     0.04  -0.04  -0.00    -0.01   0.04  -0.02     0.26  -0.27  -0.10
    28   1    -0.02  -0.02   0.05     0.03   0.03  -0.05    -0.03  -0.11   0.22
    29   1    -0.01  -0.01  -0.00    -0.12  -0.17   0.16     0.12   0.02   0.05
    30   1     0.03   0.01   0.01     0.37  -0.03   0.15     0.02  -0.07  -0.01
    31   1     0.00   0.03  -0.03     0.05   0.17  -0.20     0.09  -0.11   0.09
    32   1    -0.03  -0.03  -0.03    -0.16  -0.22  -0.20     0.19   0.21   0.20
    33   1     0.05   0.02   0.01     0.33   0.06   0.11    -0.29  -0.05  -0.12
    34   1    -0.05   0.06   0.02    -0.25   0.34   0.10     0.29  -0.30  -0.14
    35   1     0.03   0.01  -0.00    -0.12  -0.14  -0.00    -0.00   0.02   0.01
    36   1     0.01   0.01  -0.02    -0.01  -0.10   0.16    -0.02   0.05   0.02
    37   1     0.01  -0.00   0.02     0.05   0.01  -0.07    -0.01   0.02  -0.01
    38   1     0.00   0.02   0.01     0.09  -0.09  -0.04    -0.01   0.01  -0.01
                     13                     14                     15
                      A                      A                      A
 Frequencies --    277.8435               283.6155               286.9736
 Red. masses --      2.4620                 1.9009                 2.2206
 Frc consts  --      0.1120                 0.0901                 0.1077
 IR Inten    --      0.6057                 0.5001                 1.2651
  Atom  AN      X      Y      Z        X      Y      Z        X      Y      Z
     1   8    -0.12   0.01   0.02    -0.04  -0.05  -0.04     0.00   0.14   0.04
     2   6    -0.09   0.05  -0.04    -0.03  -0.01   0.03    -0.02   0.06  -0.04
     3   6    -0.01   0.07  -0.04    -0.00   0.00   0.02    -0.03   0.04  -0.05
     4   6     0.03   0.04   0.03    -0.03   0.05  -0.01     0.08  -0.16  -0.03
     5   6     0.08   0.06   0.05    -0.02   0.01   0.00     0.04  -0.07  -0.08
     6   6     0.15   0.05  -0.06    -0.02  -0.01   0.00    -0.05   0.00   0.04
     7   6    -0.01  -0.05   0.01    -0.02   0.10  -0.05     0.01  -0.05   0.04
     8   6    -0.02  -0.04  -0.03     0.02  -0.01   0.01    -0.01  -0.01  -0.02
     9   6     0.01  -0.03  -0.01     0.01  -0.04   0.04    -0.02  -0.01   0.01
    10   6    -0.00  -0.02  -0.01    -0.00  -0.00   0.02    -0.04   0.01   0.03
    11   6     0.07  -0.06   0.03    -0.02  -0.03   0.03    -0.04  -0.00  -0.01
    12   6     0.06  -0.07  -0.01     0.14  -0.11   0.05     0.03  -0.03   0.02
    13   6    -0.08  -0.03  -0.04     0.04   0.08  -0.07     0.05   0.04  -0.06
    14   6    -0.09   0.03   0.05    -0.04   0.02  -0.01    -0.00   0.04   0.06
    15   1    -0.01   0.14  -0.02     0.03  -0.05  -0.00    -0.05   0.12  -0.02
    16   1    -0.01  -0.02   0.03    -0.04   0.13   0.03     0.11  -0.38  -0.15
    17   1     0.04   0.03   0.07    -0.06   0.06  -0.09     0.23  -0.16   0.19
    18   1     0.07   0.06   0.06    -0.04  -0.00   0.03     0.10  -0.03  -0.14
    19   1     0.08   0.04   0.05    -0.01  -0.01  -0.01     0.02  -0.02  -0.05
    20   1     0.25   0.06  -0.11    -0.01  -0.04  -0.02    -0.15   0.05   0.11
    21   1     0.21   0.07  -0.05    -0.01  -0.02   0.04    -0.15  -0.01  -0.01
    22   1     0.05   0.01  -0.15    -0.03   0.02  -0.01     0.06   0.04   0.15
    23   1     0.01  -0.18  -0.03    -0.02   0.29   0.00     0.04  -0.20  -0.01
    24   1    -0.05  -0.06   0.15    -0.04   0.10  -0.25    -0.00  -0.05   0.21
    25   1    -0.02  -0.05  -0.03     0.08  -0.08   0.01    -0.01  -0.07  -0.05
    26   1    -0.07   0.20  -0.18     0.05  -0.22   0.19    -0.04  -0.13   0.13
    27   1     0.16  -0.24  -0.11    -0.20   0.23   0.12    -0.13   0.15   0.11
    28   1    -0.09  -0.02   0.27     0.12   0.04  -0.26     0.03   0.03  -0.11
    29   1    -0.06  -0.15   0.15    -0.10  -0.11   0.04    -0.02   0.00  -0.04
    30   1     0.28  -0.10   0.10     0.07  -0.05   0.06    -0.07   0.01  -0.02
    31   1     0.06   0.04  -0.11    -0.06   0.05  -0.03    -0.05  -0.00   0.02
    32   1     0.07  -0.12  -0.12     0.15  -0.21  -0.17     0.01  -0.11  -0.11
    33   1     0.16  -0.11   0.05     0.33  -0.18   0.17     0.17  -0.05   0.08
    34   1     0.01  -0.02   0.04     0.04  -0.02   0.13    -0.06   0.05   0.09
    35   1    -0.06  -0.05  -0.04     0.14   0.15  -0.02     0.16   0.07  -0.03
    36   1    -0.09  -0.01  -0.02     0.02   0.11  -0.19     0.05   0.05  -0.18
    37   1    -0.07  -0.06   0.17    -0.03   0.01   0.01    -0.01  -0.07   0.19
    38   1    -0.10   0.18   0.11    -0.11   0.04  -0.01    -0.04   0.20   0.13
                     16                     17                     18
                      A                      A                      A
 Frequencies --    318.5671               333.9139               385.4726
 Red. masses --      1.6093                 2.4915                 2.7986
 Frc consts  --      0.0962                 0.1637                 0.2450
 IR Inten    --      0.2035                 0.2956                 0.1934
  Atom  AN      X      Y      Z        X      Y      Z        X      Y      Z
     1   8     0.06   0.01  -0.01     0.03   0.02   0.03    -0.03   0.06  -0.05
     2   6     0.04  -0.02   0.03     0.03  -0.01  -0.05    -0.07   0.01   0.11
     3   6     0.01  -0.03   0.03     0.00  -0.02  -0.10    -0.05  -0.00   0.14
     4   6     0.03  -0.02  -0.03    -0.05  -0.01   0.06     0.07  -0.01  -0.06
     5   6     0.02  -0.01  -0.04    -0.04   0.02   0.09     0.09   0.00  -0.09
     6   6    -0.01   0.00   0.02     0.02  -0.01  -0.04     0.06   0.04   0.02
     7   6    -0.02   0.02  -0.00    -0.01  -0.03  -0.13    -0.11   0.07   0.04
     8   6    -0.03  -0.01   0.03    -0.02  -0.04  -0.04    -0.04  -0.07  -0.03
     9   6    -0.05  -0.01   0.02    -0.02   0.00   0.02    -0.02  -0.06  -0.03
    10   6    -0.10   0.09  -0.04    -0.01  -0.05   0.11    -0.03  -0.08   0.01
    11   6    -0.06   0.02  -0.00    -0.09   0.11  -0.08     0.10   0.03  -0.07
    12   6     0.04  -0.07   0.02     0.10   0.07   0.13     0.02   0.09   0.09
    13   6     0.02   0.01   0.01     0.01  -0.05  -0.05    -0.01  -0.08  -0.04
    14   6     0.04  -0.01  -0.01     0.02  -0.02   0.02    -0.02  -0.07  -0.02
    15   1     0.01  -0.07   0.02     0.08  -0.01  -0.11    -0.08  -0.08   0.13
    16   1     0.06  -0.00  -0.04    -0.11  -0.07   0.06     0.14   0.05  -0.07
    17   1     0.04  -0.02  -0.03    -0.08  -0.03   0.10     0.10   0.01  -0.09
    18   1     0.04  -0.00  -0.05    -0.06   0.01   0.08     0.13   0.02  -0.10
    19   1     0.03   0.00  -0.04    -0.06   0.00   0.09     0.13   0.02  -0.10
    20   1    -0.05  -0.00   0.04     0.10   0.02  -0.07    -0.00   0.02   0.04
    21   1    -0.04  -0.01   0.02     0.09   0.02  -0.07     0.01   0.02   0.04
    22   1     0.03   0.03   0.06    -0.06  -0.08  -0.12     0.12   0.09   0.08
    23   1    -0.03   0.10   0.02     0.02  -0.00  -0.13    -0.21   0.26   0.12
    24   1    -0.02   0.03  -0.08    -0.03  -0.03  -0.13    -0.17   0.07  -0.16
    25   1    -0.00  -0.03   0.03     0.03  -0.05  -0.03    -0.05  -0.09  -0.05
    26   1    -0.23   0.44  -0.31    -0.06  -0.04   0.09    -0.03  -0.12   0.04
    27   1     0.06  -0.24  -0.23     0.15  -0.09   0.15     0.01  -0.04   0.06
    28   1    -0.17   0.16   0.38    -0.11  -0.13   0.21    -0.05  -0.11  -0.01
    29   1    -0.21  -0.13   0.02    -0.08   0.04  -0.25     0.20   0.12  -0.12
    30   1     0.12   0.04   0.10    -0.15   0.23  -0.03     0.03   0.17  -0.01
    31   1    -0.12   0.19  -0.15    -0.13   0.19  -0.11     0.18  -0.04  -0.14
    32   1     0.10  -0.04  -0.05     0.22   0.24   0.20     0.04   0.16   0.20
    33   1     0.04  -0.13   0.07     0.07   0.17   0.05     0.07   0.25  -0.02
    34   1     0.06  -0.11   0.04     0.17  -0.08   0.27    -0.00   0.05   0.25
    35   1     0.06   0.05   0.03     0.03  -0.06  -0.05    -0.00  -0.08  -0.04
    36   1     0.03   0.01  -0.05     0.03  -0.08  -0.06    -0.02  -0.07  -0.04
    37   1     0.04   0.03  -0.06     0.01  -0.10   0.12     0.10   0.03  -0.11
    38   1     0.03  -0.08  -0.04     0.02   0.10   0.08    -0.08  -0.21  -0.09
                     19                     20                     21
                      A                      A                      A
 Frequencies --    390.5171               432.0918               459.1547
 Red. masses --      2.1943                 3.0505                 2.5917
 Frc consts  --      0.1972                 0.3356                 0.3219
 IR Inten    --      0.1506                 5.2947                 0.5213
  Atom  AN      X      Y      Z        X      Y      Z        X      Y      Z
     1   8    -0.01  -0.01  -0.01    -0.02  -0.14   0.02     0.01  -0.00  -0.00
     2   6    -0.00   0.01   0.03     0.09   0.08  -0.04     0.02   0.03   0.02
     3   6     0.02   0.01   0.06     0.11   0.08   0.03     0.03   0.01   0.08
     4   6     0.03   0.02  -0.01     0.08   0.07   0.04     0.06   0.03   0.01
     5   6    -0.00  -0.01  -0.03    -0.04  -0.05  -0.06     0.01  -0.02  -0.05
[...]
 .00000430,0.00000250,-0.00000502,-0.00000991,0.00000713,0.00001085,-0.
 00001272,-0.00000352,-0.00002389,-0.00010994,0.00005612,-0.00054873,-0
 .00027129,-0.00093929,0.00010213,0.00016638,0.00007176,-0.00008180,0.0
 0007549,-0.00021187,0.00039423,0.00021555,-0.00016939,0.00047770,-0.00
 028423,-0.00007092,-0.00010442,0.00014469,-0.00002456,-0.00000476,-0.0
 0024139,0.00008111,0.00024319,-0.00008813,0.00040261,-0.01508316,0.027
 77006,-0.00588626,0.00745378,-0.01262720,0.00164068,0.12244853,0.00021
 098,0.00036277,-0.00002800,-0.00019707,-0.00089842,0.00012273,-0.00018
 828,0.00048537,-0.00019884,-0.00004876,0.00009926,0.00007767,-0.000046
 40,-0.00000987,0.00001159,0.00000925,0.00002573,-0.00002028,-0.0002039
 8,-0.00043284,0.00065807,0.00141458,-0.00023925,0.00068779,0.00963423,
 -0.01687195,0.00479814,-0.00129140,-0.00171875,-0.00466024,-0.00036774
 ,0.00049979,0.00117534,0.11058588,-0.23699205,0.03874061,-0.00031587,-
 0.00001847,0.00006340,0.00006254,0.00009744,-0.00002707,-0.00033404,-0
 .00013213,0.00037966,0.00005485,-0.00004408,0.00002568,-0.00002096,0.0
 0005298,-0.00003858,0.00002285,0.00000146,-0.00000428,0.00000477,0.000
 00864,0.00003312,0.00000733,-0.00000574,0.00001337,-0.00000678,-0.0000
 0088,0.00000435,0.00002000,-0.00002231,-0.00001339,0.00023968,0.000518
 77,0.00009328,0.00002117,0.00088473,-0.00062449,-0.00005611,0.00013495
 ,0.00000294,-0.00020289,0.00044658,-0.00001516,0.00107317,-0.00112984,
 0.00002622,0.00014121,0.00020695,0.00005833,-0.00003376,0.00002332,-0.
 00009398,-0.00026837,0.00014377,-0.00007167,0.00012483,0.00066092,-0.0
 0061128,-0.00391114,0.00799120,-0.00131273,0.00720007,-0.01172856,0.00
 229743,-0.12339902,0.25749583,0.00006710,-0.00000793,0.00003969,0.0000
 1976,0.00003000,-0.00016109,0.00002622,0.00018212,0.00014959,-0.000046
 31,-0.00003645,-0.00004962,0.00006499,0.00002583,0.00009066,-0.0000021
 7,-0.00001179,-0.00002844,-0.00110241,-0.00092476,-0.00017843,0.000096
 73,0.00058664,0.00106260,0.01490363,-0.02119194,0.00607079,-0.00083923
 ,-0.00273425,-0.00457137,0.00027908,-0.00062465,0.00168071,-0.02227426
 ,0.03904899,-0.05791704,0.00005683,-0.00002015,-0.00022482,-0.00005800
 ,0.00001306,0.00012661,0.00005741,0.00006153,-0.00011787,-0.00001606,0
 .00002024,-0.00002432,-0.00000612,0.00003091,0.00002652,-0.00001165,-0
 .00000101,-0.00001695,-0.00001034,-0.00001134,-0.00005627,-0.00001320,
 0.00000582,-0.00000757,0.00000173,-0.00000251,0.00001027,0.00000743,-0
 .00000376,0.00000018,0.00016528,0.00014261,-0.00001913,-0.00097291,0.0
 0021796,-0.00112489,0.00027997,0.00020842,0.00008806,-0.00019833,-0.00
 021005,0.00017382,0.00087213,-0.00166846,0.00039182,0.00000664,0.00019
 621,-0.00013092,0.00002822,0.00004521,-0.00008902,-0.00023948,0.000169
 86,0.00027639,-0.00009038,0.00043157,-0.00036102,-0.00260242,0.0055635
 4,-0.00202225,-0.01507503,0.02173390,-0.00404833,0.02661669,-0.0413688
 4,0.06088752,-0.00016273,0.00023018,0.00046551,0.00138386,-0.00133474,
 -0.00085782,-0.00022057,0.00025157,-0.00055688,0.00008969,0.00013275,0
 .00009638,-0.00001454,-0.00002548,0.00002529,0.00000586,0.00001111,-0.
 00001343,-0.00008283,0.00026758,-0.00035720,0.00068990,0.00545874,0.01
 403029,0.00059053,0.00044971,0.00037512,-0.00001101,0.00010762,0.00045
 332,0.00005299,-0.00002494,-0.00004253,-0.00060655,-0.00076405,0.00043
 311,-0.05162113,-0.00813268,-0.02724727,-0.00648884,-0.01238560,-0.032
 51329,0.00011712,0.00081698,-0.00000309,0.00004503,-0.00007431,0.00004
 607,-0.00000345,0.00000264,0.00001383,-0.00000855,-0.00000724,-0.00002
 225,0.00001396,0.00002667,0.00001176,0.00000524,-0.00000739,0.00000879
 ,-0.00000086,-0.00000699,0.00000512,0.00000658,-0.00000893,-0.00000434
 ,-0.00002948,-0.00006230,0.00008757,0.00001557,-0.00006463,0.00003527,
 -0.00095323,-0.00250349,0.00239399,-0.00027541,0.00030617,-0.00005685,
 0.00010000,-0.00017144,-0.00011611,0.00002887,0.00001955,-0.00024295,-
 0.00004896,-0.00002954,-0.00007565,0.00008501,-0.00001771,-0.00016457,
 0.00002094,0.00004558,-0.00003301,0.00007275,0.00019494,-0.00016062,-0
 .00069728,-0.00102437,-0.00058792,0.00007336,0.00013439,-0.00006698,0.
 06115851,-0.00030525,0.00017299,0.00002903,0.00040567,-0.00030757,0.00
 054112,0.00037845,-0.00048137,-0.00027807,0.00001157,0.00004027,-0.000
 06414,0.00001291,-0.00000670,-0.00000140,0.00000203,-0.00000636,0.0000
 0610,-0.00015040,0.00087970,-0.00024561,0.00263453,0.00847943,0.019843
 58,0.00009090,0.00111060,-0.00056977,-0.00017743,0.00008582,-0.0006392
 8,0.00029336,-0.00005166,0.00001261,-0.00048649,-0.00057705,0.00013482
 ,-0.00835966,-0.08180414,-0.08053672,-0.00098938,-0.00145467,-0.003601
 34,0.00101598,-0.00114628,0.00028794,-0.00001430,0.00002057,0.00002110
 ,-0.00000491,0.00004358,-0.00000217,0.00000286,-0.00000930,-0.00001371
 ,0.00000178,0.00000017,-0.00000169,0.00000024,-0.00000083,-0.00000185,
 0.00000175,0.00000221,-0.00000165,-0.00000765,0.00000753,0.00000632,0.
 00002336,0.00006691,-0.00017317,0.00003973,0.00005585,-0.00000465,-0.0
 0185623,-0.00187282,0.00337619,0.00001112,-0.00012965,0.00015382,0.000
 02103,-0.00001174,0.00017418,-0.00001819,0.00002253,0.00013019,-0.0000
 1176,-0.00000161,-0.00010907,0.00008564,-0.00000139,-0.00012128,0.0000
 0365,-0.00001158,0.00002781,0.00011976,0.00016041,-0.00009571,-0.00108
 228,-0.00070531,-0.00032103,-0.00003608,-0.00010563,0.00003670,0.01351
 386,0.08710351,-0.00027300,0.00056886,0.00000904,0.00006374,-0.0014377
 2,-0.00002383,-0.00013187,-0.00012919,-0.00077679,0.00009717,0.0002598
 1,0.00050462,-0.00008281,0.00002424,-0.00003209,0.00000179,0.00001372,
 0.00001745,0.00060314,-0.00066812,0.00022330,0.00011157,-0.00750779,-0
 .02148744,-0.00161585,-0.00072082,-0.00027070,0.00025252,0.00029192,-0
 .00017701,0.00019837,-0.00001535,0.00011854,-0.00016231,-0.00007138,-0
 .00061613,-0.02786975,-0.08095210,-0.26833481,-0.00142985,-0.00160816,
 -0.00469371,0.00021657,0.00043247,0.00106348,0.00011738,-0.00017433,0.
 00006557,-0.00000895,-0.00002735,-0.00000552,0.00000251,-0.00001021,-0
 .00001808,0.00001348,0.00003007,0.00002875,0.00000690,-0.00000759,0.00
 000734,-0.00000086,-0.00000197,-0.00000107,-0.00000304,0.00000170,-0.0
 0000373,-0.00013581,0.00001358,0.00022859,-0.00012455,0.00021768,-0.00
 005624,0.00150516,0.00369426,-0.00229054,0.00021892,-0.00032475,0.0001
 4187,-0.00021706,0.00008679,0.00020991,0.00009510,-0.00004715,0.000136
 39,0.00015677,0.00010919,0.00004002,-0.00008883,0.00007535,0.00024060,
 -0.00004401,-0.00004880,0.00001021,-0.00016184,-0.00005745,0.00052162,
 -0.00040898,-0.00046279,0.00116578,-0.00004772,-0.00009290,0.00011606,
 0.03046921,0.09007016,0.29354229,-0.00291376,0.00293330,0.00040532,-0.
 00382720,-0.00627311,-0.00172397,0.00022764,-0.00006457,0.00041943,0.0
 0015280,-0.00003655,-0.00004704,-0.00001919,-0.00002696,0.00000088,0.0
 0002425,-0.00000019,0.00000002,-0.00120751,-0.00132166,0.00156849,0.00
 681029,-0.01245973,-0.00095372,0.00065394,-0.00007673,-0.00032940,-0.0
 0173903,-0.00058034,-0.00054415,0.00003362,0.00017197,0.00009661,-0.00
 016973,-0.00000977,-0.00010972,-0.10185154,0.10795375,0.00608247,-0.01
 742814,0.03084828,0.00147016,0.00001767,0.00022789,-0.00000905,-0.0000
 4302,-0.00006160,0.00003219,0.00000449,0.00011784,-0.00000137,0.000051
 67,-0.00004402,-0.00008842,0.00001990,0.00001713,0.00000710,-0.0000013
 9,-0.00000451,-0.00000126,-0.00000037,0.00002077,-0.00000572,-0.000009
 56,0.00000739,0.00000780,0.00011494,-0.00018823,0.00010139,0.00043904,
 -0.00050812,0.00006849,0.00079166,0.00036594,-0.00048869,-0.00197218,-
 0.00069101,0.00003144,-0.00020118,0.00012150,0.00010582,-0.00004208,-0
 .00007113,0.00019385,0.00000270,0.00003838,-0.00003348,0.00000355,-0.0
 0001679,0.00002150,0.00002424,0.00006136,-0.00005662,-0.00001190,-0.00
 004611,0.00001357,0.00003301,-0.00003908,0.00006316,0.00000626,0.00004
 745,0.00004222,0.00198143,-0.00406987,0.00007177,0.11738003,-0.0002628
 4,0.00053047,0.00010516,-0.00171526,-0.00011246,-0.00045654,-0.0004969
 5,0.00050839,0.00006947,0.00007822,0.00015966,-0.00002373,-0.00001612,
 -0.00001201,0.00007811,0.00001092,0.00001685,-0.00004143,-0.00271743,-
 0.00090623,0.00209587,0.00932626,-0.01764224,-0.00106874,0.00109739,-0
 .00061047,0.00030917,0.00071728,-0.00010611,0.00073696,-0.00022107,0.0
 0018859,-0.00002444,-0.00024867,0.00006151,-0.00016545,0.10707437,-0.2
 5733127,-0.01271256,-0.00331279,0.00625409,0.00020341,-0.00004862,0.00
 016624,0.00021758,0.00002544,-0.00006535,0.00001306,-0.00000383,0.0000
 3557,0.00000866,0.00001532,0.00000335,-0.00001591,0.00000097,-0.000000
 17,-0.00000937,-0.00000065,-0.00000117,0.00000966,-0.00000511,-0.00000
 271,0.00000812,0.00002214,-0.00002538,-0.00001294,0.00017946,-0.000397
 24,0.00022458,0.00060511,-0.00082733,0.00041877,0.00001914,0.00150202,
 0.00010949,-0.00026674,0.00038731,-0.00110371,-0.00022194,0.00009897,0
 .00036341,0.00023617,0.00062531,-0.00035332,-0.00013164,-0.00002406,0.
 00004020,0.00000296,-0.00000949,0.00005310,0.00006997,0.00016560,-0.00
 014120,-0.00011122,-0.00008832,0.00002114,0.00008311,-0.00007219,0.000
 14130,0.00001156,0.00019357,0.00007691,0.00513746,-0.01032353,-0.00132
 242,-0.11601522,0.27683338,-0.00068388,0.00043034,0.00005174,-0.000816
 66,-0.00065903,0.00036378,0.00009249,-0.00078132,-0.00067110,0.0000621
 9,0.00015182,0.00031352,-0.00004795,-0.00000099,-0.00003477,0.00000269
 ,0.00000630,0.00002088,0.00335371,0.00283197,-0.00218970,-0.01075541,0
 .02142789,-0.00116372,-0.00037986,-0.00040381,-0.00006686,0.00006926,-
 0.00003132,0.00099229,-0.00019285,0.00006961,-0.00001091,-0.00021977,-
 0.00002464,-0.00030325,0.00617230,-0.01368504,-0.05025017,-0.00396620,
 0.00619079,-0.00011153,0.00017118,0.00013787,0.00049946,0.00006869,-0.
 00009680,0.00003110,0.00001730,-0.00007986,-0.00000351,-0.00001464,-0.
 00000887,-0.00000243,0.00000556,0.00002061,0.00001601,0.00000216,-0.00
 000445,0.00000094,0.00000062,-0.00000390,-0.00000169,-0.00000551,0.000
 00541,-0.00000048,-0.00019754,0.00020789,-0.00013398,-0.00078128,0.001
 10518,-0.00045684,-0.00076845,-0.00004453,0.00095946,-0.00031462,-0.00
 016718,-0.00016886,0.00023720,-0.00014271,-0.00023802,0.00003385,-0.00
 000217,-0.00022113,0.00004371,-0.00007053,0.00001484,0.00001013,-0.000
 00849,-0.00001493,-0.00004127,-0.00004844,0.00001502,-0.00005223,-0.00
 009660,0.00013126,0.00007729,-0.00008601,0.00025158,0.00000837,-0.0000
 4381,-0.00005303,0.01503837,-0.02813257,-0.00149327,-0.00687654,0.0117
 6235,0.05352901,-0.00015659,-0.00018616,0.00160380,0.00711660,0.008977
 89,-0.01319655,-0.00057287,0.00130519,0.00105683,0.00034565,0.00033925
 ,0.00000547,0.00000419,-0.00002694,-0.00001882,0.00000612,-0.00000349,
 0.00000568,-0.00062333,0.00066367,-0.00016729,-0.00603624,0.00029268,-
 0.00377163,0.00015103,-0.00103648,0.00187497,0.00013825,-0.00020047,0.
 00008870,-0.00071693,-0.00008286,-0.00045095,-0.00011737,0.00012018,0.
 00014887,-0.01172693,-0.02022528,0.02252040,-0.09320114,-0.06783331,0.
 07085659,0.00005035,0.00034830,0.00004710,0.00003646,-0.00003813,0.000
 04255,-0.00004953,0.00021599,-0.00001503,0.00003958,-0.00003101,-0.000
 03661,0.00000627,0.00000553,0.00000785,-0.00000092,-0.00000077,-0.0000
 0263,0.00000147,0.00001110,-0.00000421,-0.00000929,0.00000622,0.000005
 24,0.00006546,-0.00009718,0.00010283,0.00010418,-0.00008937,0.00001049
 ,0.00011046,0.00024695,0.00004932,0.00003460,0.00003421,-0.00005225,0.
 00001650,0.00001229,0.00000913,-0.00007210,0.00003275,-0.00002747,-0.0
 0018357,-0.00016552,0.00021618,0.00002728,0.00002783,0.00000141,0.0000
 4394,-0.00003801,0.00000747,-0.00003558,-0.00007370,-0.00008215,0.0000
 3203,0.00002244,-0.00005446,0.00001112,-0.00005679,0.00000135,0.001473
 52,-0.00001243,-0.00045293,0.00090846,0.00064358,0.00032246,0.10105321
 ,-0.00086001,0.00422637,-0.00291155,-0.01298431,-0.02302101,0.02060982
 ,0.00321470,-0.00265176,-0.00178799,-0.00095102,-0.00074424,-0.0002673
 6,-0.00004473,-0.00005805,0.00016731,0.00003943,0.00000415,-0.00008737
 ,0.00065496,0.00087241,-0.00053228,-0.00003437,0.00063038,-0.00044908,
 0.00010831,0.00013899,0.00024819,-0.00003225,-0.00003347,-0.00000184,-
 0.00005395,-0.00002239,-0.00005597,0.00000215,-0.00003048,0.00004209,-
 0.00050659,-0.00140786,0.00056315,-0.06800161,-0.15022296,0.11399460,-
 0.00033380,-0.00052869,-0.00007204,0.00001299,0.00004767,0.00001553,0.
 00020036,-0.00039040,0.00005762,0.00002987,0.00001581,-0.00001489,-0.0
 0001744,-0.00001270,-0.00001965,-0.00000412,0.00000096,0.00000905,-0.0
 0000642,0.00002306,0.00000281,0.00003745,-0.00003835,-0.00001209,-0.00
 000440,0.00005324,0.00011304,0.00010995,-0.00001881,-0.00003360,-0.000
 13070,0.00001609,0.00014996,0.00000658,0.00000470,0.00000943,0.0000034
 6,0.00000422,-0.00000721,-0.00001986,0.00000285,-0.00000216,-0.0000053
 2,-0.00001128,0.00001923,0.00000065,0.00000767,-0.00000081,0.00001265,
 0.00000347,-0.00000169,-0.00000926,0.00001229,-0.00000489,0.00000522,0
 .00000444,-0.00001098,0.00000963,0.00002193,-0.00000719,-0.00012009,-0
 .00010736,-0.00012287,-0.00018993,0.00039449,-0.00031831,0.07418073,0.
 16335286,-0.00158942,-0.00013980,0.00085509,0.00096943,-0.00391933,0.0
 0073524,0.00015599,-0.00062389,-0.00040375,-0.00002807,-0.00010783,-0.
 00004108,-0.00000461,0.00001253,-0.00000685,0.00000267,-0.00000841,0.0
 0000899,-0.00019071,0.00011366,-0.00019938,-0.00109036,-0.00015324,0.0
 0035798,-0.00035875,-0.00008678,0.00038510,0.00004710,-0.00000846,0.00
 002541,-0.00012081,-0.00003063,-0.00004460,0.00010348,0.00004235,0.000
 05554,-0.00320549,-0.00622682,0.00551415,0.07072339,0.11195040,-0.1600
 9411,-0.00005679,-0.00001489,0.00003219,-0.00000761,-0.00000180,0.,-0.
 00001061,-0.00003825,0.00000937,0.00000715,-0.00000157,0.00000128,-0.0
 0000347,-0.00000406,0.00000123,-0.00000118,0.00000178,-0.00000543,0.00
 000126,0.00000395,-0.00000323,-0.00000535,0.00000780,0.00000460,0.0000
 2472,-0.00009966,0.00016878,0.00004952,0.00001174,0.00006863,-0.000261
 34,-0.00007442,0.00029513,-0.00000015,0.00001267,-0.00001091,-0.000004
 28,-0.00000178,-0.00001174,0.00000993,0.00000094,-0.00000459,-0.000025
 43,-0.00002996,0.00003544,-0.00000142,0.00000452,-0.00001280,0.0000020
 1,-0.00000957,-0.00000159,0.00001652,0.00001335,0.00001254,-0.00000501
 ,0.00000042,-0.00002588,-0.00000394,-0.00001590,-0.00000567,0.00050200
 ,-0.00017832,0.00062886,0.00062814,0.00000103,0.00011126,-0.07816436,-
 0.12009565,0.17207557,-0.00103681,0.00068056,-0.00301144,0.00112245,0.
 00514105,0.01743589,-0.00060154,0.00070928,-0.00123030,0.00027657,0.00
 008641,-0.00007395,-0.00002190,-0.00006089,-0.00005360,0.00002169,-0.0
 0000146,0.00001802,0.00041015,0.00017349,0.00008223,0.00178235,0.00059
 452,-0.00133579,-0.00008920,0.00027620,-0.00007041,0.00002051,0.000080
 32,-0.00014412,0.00005233,0.00001967,0.00003677,0.00003847,0.00006673,
 -0.00023765,-0.00580797,-0.01451726,-0.03174089,-0.04901543,-0.0116257
 0,-0.02699023,-0.00021626,-0.00019937,0.00008133,-0.00001330,-0.000038
 67,0.00003787,-0.00002349,0.00011254,-0.00003168,0.00003688,-0.0000171
 6,-0.00002606,0.00000997,0.00001792,0.00001779,0.00000006,-0.00000428,
 -0.00000331,-0.00000170,0.00001392,-0.00000673,-0.00001369,0.00001111,
 0.00000799,0.00006941,-0.00019476,0.00002679,0.00006431,0.00004811,-0.
 00006694,-0.00026662,0.00011188,0.00086106,0.00008033,-0.00009783,0.00
 008152,-0.00004673,0.00001602,0.00005480,-0.00001232,-0.00002453,0.000
 06068,0.00003269,0.00000265,0.00000005,-0.00002458,0.00000233,0.000034
 12,-0.00000736,-0.00003644,0.00001822,-0.00003661,-0.00004539,0.000142
 64,0.00000643,0.00001825,0.00028217,-0.00000939,-0.00005986,0.00003186
 ,-0.00678533,-0.00108784,-0.00094205,0.00175617,0.00043928,0.00032512,
 0.00172568,0.00568110,0.01189585,0.05652375,-0.00040686,0.00132785,0.0
 0327309,-0.00310089,-0.01428575,-0.02906007,0.00238304,-0.00177996,0.0
 0369979,-0.00087943,-0.00037098,0.00031843,-0.00006348,0.00008730,0.00
 010738,-0.00000068,0.00000310,-0.00003249,-0.00038420,-0.00074894,-0.0
 0043596,0.00012258,-0.00001619,-0.00073000,-0.00010170,0.00005769,0.00
 014413,0.00001378,0.00003779,-0.00001503,0.00000246,-0.00003069,0.0000
 1042,0.00010085,0.00000114,-0.00000471,-0.00086693,-0.00113660,-0.0023
 7516,-0.01297403,-0.08704215,-0.09851876,0.00042876,0.00109692,-0.0000
 5474,0.00007153,-0.00001591,0.00000196,0.00014229,-0.00032815,0.000086
 96,0.00001453,-0.00000194,-0.00001780,0.00000049,-0.00000919,-0.000017
 02,-0.00000050,0.00000453,0.00000354,-0.00000050,0.00000379,0.00000240
 ,0.00001748,-0.00001230,-0.00000747,-0.00002230,-0.00036955,0.00038351
 ,-0.00012851,0.00008077,0.00028442,-0.00033404,0.00006437,0.00027211,0
 .00001107,-0.00001136,0.00003082,-0.00000828,0.00000491,-0.00001444,0.
 00001567,-0.00002206,0.00001164,0.00001854,0.00001336,0.00000830,-0.00
 002073,0.00000896,0.00001449,-0.00000932,-0.00000241,-0.00000372,0.000
 01220,0.00002241,0.00004219,0.00000670,0.00000215,0.00002705,0.0000004
 8,-0.00000520,-0.00000294,-0.00034159,0.00086449,-0.00007858,-0.000137
 71,0.00043233,0.00059335,0.00271113,0.00946175,0.01969387,0.01370809,0
 .09261370,0.00002960,0.00001026,0.00160071,0.00014027,-0.00040319,-0.0
 0095155,0.00046455,-0.00034176,-0.00080507,-0.00010219,-0.00000512,-0.
 00005871,-0.00000975,-0.00000851,0.00000559,0.00000690,0.00000583,-0.0
 0001145,0.00010092,0.00030229,-0.00019927,0.00040584,0.00065134,0.0007
 2830,-0.00008693,-0.00000215,0.00017250,-0.00000088,0.00000237,-0.0000
 8259,-0.00005136,0.00000304,-0.00004881,0.00012968,0.00009822,-0.00007
 403,-0.00171725,-0.00188384,-0.00545191,-0.02949556,-0.09172375,-0.252
 90510,-0.00004494,0.00008047,0.00002693,0.00002551,-0.00002676,0.00002
 057,0.00004193,-0.00001177,0.00001692,0.00000279,-0.00000354,-0.000017
 73,0.00001307,0.00001277,0.00001235,0.00000492,-0.00000387,0.00000741,
 -0.00000201,0.00000134,0.00000152,0.00000444,-0.00000575,-0.00000217,0
 .00011458,0.00001201,0.00024899,0.00009938,-0.00000264,0.00010376,-0.0
 0045921,-0.00044504,0.00038074,0.00003811,-0.00003455,0.00004936,-0.00
 000772,0.00000188,0.00002672,-0.00002449,-0.00001236,0.00002298,-0.000
 01965,-0.00002149,0.00001758,0.00000123,0.00000504,0.00000854,0.000006
 92,-0.00001471,0.00000605,-0.00000582,0.00000275,0.00002649,-0.0000032
 2,-0.00001101,0.00006450,-0.00001374,-0.00002827,0.00001676,-0.0013682
 4,0.00024150,0.00126067,-0.00016267,0.00038426,0.00028801,-0.00248735,
 -0.00918436,-0.02051078,0.03443237,0.10235904,0.27600521\\-0.00003068,
 -0.00001616,-0.00002169,-0.00002796,-0.00002361,0.00001482,-0.00006068
 ,-0.00005621,-0.00008202,-0.00004421,0.00000274,0.00004625,0.00001597,
 -0.00001860,-0.00002436,0.00000068,0.00001143,0.00000363,0.00000524,-0
 .00001401,0.00001100,-0.00008348,-0.00000490,-0.00000302,0.00007370,0.
 00000577,-0.00005031,-0.00000565,-0.00000360,-0.00001089,0.00001074,0.
 00000506,0.00000959,0.00006113,-0.00003223,-0.00000894,0.00005930,0.00
 011532,0.00000200,-0.00000257,0.00001890,-0.00001243,0.00001233,0.0000
 1469,0.00002333,-0.00000313,0.00001259,-0.00000313,0.00000050,0.000002
 09,-0.00000366,-0.00000122,0.00000496,0.00000606,0.00000368,-0.0000156
 5,0.00000174,-0.00000259,0.00000734,-0.00000320,-0.00000785,0.00000298
 ,-0.00000165,-0.00000696,-0.00000104,0.00000178,0.00003630,0.00004875,
 -0.00002490,0.00001917,0.00000007,0.00007098,-0.00005660,-0.00004343,0
 .00001075,0.00000368,-0.00001082,0.00002384,0.00000094,0.00000234,0.00
 000531,0.00000157,-0.00000325,-0.00000188,0.00000899,0.00000128,-0.000
 00468,-0.00000273,-0.00001129,0.00000061,0.00000493,-0.00000062,0.0000
 0746,0.00000791,0.00000566,-0.00000448,-0.00000448,-0.00000376,-0.0000
 0249,-0.00001355,0.00003183,0.00000479,0.00000087,-0.00002879,-0.00001
 256,0.00002462,0.00000676,0.00000573,0.00001009,0.00000453,0.00002112,
 -0.00000798,-0.00001709,0.00000553\\\@


 BRING ME INTO THE COMPANY OF THOSE WHO SEEK TRUTH,
 AND DELIVER ME FROM THOSE WHO HAVE FOUND IT.
 Job cpu time:       0 days  0 hours  4 minutes 33.8 seconds.
 Elapsed time:       0 days  0 hours  4 minutes 55.7 seconds.
 File lengths (MBytes):  RWF=    297 Int=      0 D2E=      0 Chk=     11 Scr=      1
 Normal termination of Gaussian 16 at Sat Feb 24 02:10:39 2024.
