 Entering Gaussian System, Link 0=g16
 Input=/Volumes/SSD-PMU3/b3lyp_6-31gd_freq/KMIVZYGUCIUIAK-WDEREUQCSA-N_calculating/gaussianinput0.gjf
 Output=/Volumes/SSD-PMU3/b3lyp_6-31gd_freq/KMIVZYGUCIUIAK-WDEREUQCSA-N_calculating/gaussianinput0.log
 Initial command:
 /Applications/g16/l1.exe "/Users/macmini_m1_2022/PycharmProjects/sphere_model/sphere_model_lib/Gau-85097.inp" -scrdir="/Users/macmini_m1_2022/PycharmProjects/sphere_model/sphere_model_lib/"
 Entering Link 1 = /Applications/g16/l1.exe PID=     85098.
  
 Copyright (c) 1988,1990,1992,1993,1995,1998,2003,2009,2016,
            Gaussian, Inc.  All Rights Reserved.
  
 This is part of the Gaussian(R) 16 program.  It is based on
 the Gaussian(R) 09 system (copyright 2009, Gaussian, Inc.),
 the Gaussian(R) 03 system (copyright 2003, Gaussian, Inc.),
 the Gaussian(R) 98 system (copyright 1998, Gaussian, Inc.),
 the Gaussian(R) 94 system (copyright 1995, Gaussian, Inc.),
 the Gaussian 92(TM) system (copyright 1992, Gaussian, Inc.),
 the Gaussian 90(TM) system (copyright 1990, Gaussian, Inc.),
 the Gaussian 88(TM) system (copyright 1988, Gaussian, Inc.),
 the Gaussian 86(TM) system (copyright 1986, Carnegie Mellon
 University), and the Gaussian 82(TM) system (copyright 1983,
 Carnegie Mellon University). Gaussian is a federally registered
 trademark of Gaussian, Inc.
  
 This software contains proprietary and confidential information,
 including trade secrets, belonging to Gaussian, Inc.
  
 This software is provided under written license and may be
 used, copied, transmitted, or stored only in accord with that
 written license.
  
 The following legend is applicable only to US Government
 contracts under FAR:
  
                    RESTRICTED RIGHTS LEGEND
  
 Use, reproduction and disclosure by the US Government is
 subject to restrictions as set forth in subparagraphs (a)
 and (c) of the Commercial Computer Software - Restricted
 Rights clause in FAR 52.227-19.
  
 Gaussian, Inc.
 340 Quinnipiac St., Bldg. 40, Wallingford CT 06492
  
  
 ---------------------------------------------------------------
 Warning -- This program may not be used in any manner that
 competes with the business of Gaussian, Inc. or will provide
 assistance to any competitor of Gaussian, Inc.  The licensee
 of this program is prohibited from giving any competitor of
 Gaussian, Inc. access to this program.  By using this program,
 the user acknowledges that Gaussian, Inc. is engaged in the
 business of creating and licensing software in the field of
 computational chemistry and represents and warrants to the
 licensee that it is not a competitor of Gaussian, Inc. and that
 it will not use this program in any manner prohibited above.
 ---------------------------------------------------------------
  

 Cite this work as:
 Gaussian 16, Revision A.03,
 M. J. Frisch, G. W. Trucks, H. B. Schlegel, G. E. Scuseria, 
 M. A. Robb, J. R. Cheeseman, G. Scalmani, V. Barone, 
 G. A. Petersson, H. Nakatsuji, X. Li, M. Caricato, A. V. Marenich, 
 J. Bloino, B. G. Janesko, R. Gomperts, B. Mennucci, H. P. Hratchian, 
 J. V. Ortiz, A. F. Izmaylov, J. L. Sonnenberg, D. Williams-Young, 
 F. Ding, F. Lipparini, F. Egidi, J. Goings, B. Peng, A. Petrone, 
 T. Henderson, D. Ranasinghe, V. G. Zakrzewski, J. Gao, N. Rega, 
 G. Zheng, W. Liang, M. Hada, M. Ehara, K. Toyota, R. Fukuda, 
 J. Hasegawa, M. Ishida, T. Nakajima, Y. Honda, O. Kitao, H. Nakai, 
 T. Vreven, K. Throssell, J. A. Montgomery, Jr., J. E. Peralta, 
 F. Ogliaro, M. J. Bearpark, J. J. Heyd, E. N. Brothers, K. N. Kudin, 
 V. N. Staroverov, T. A. Keith, R. Kobayashi, J. Normand, 
 K. Raghavachari, A. P. Rendell, J. C. Burant, S. S. Iyengar, 
 J. Tomasi, M. Cossi, J. M. Millam, M. Klene, C. Adamo, R. Cammi, 
 J. W. Ochterski, R. L. Martin, K. Morokuma, O. Farkas, 
 J. B. Foresman, and D. J. Fox, Gaussian, Inc., Wallingford CT, 2016.
 
 ******************************************
 Gaussian 16:  EM64M-G16RevA.03 25-Dec-2016
                24-Feb-2024 
 ******************************************
 %nprocshared=10
 Will use up to   10 processors via shared memory.
 %mem=12GB
 %chk= 0.chk
 ---------------------
 # freq b3lyp/6-31g(d)
 ---------------------
 1/10=4,30=1,38=1/1,3;
 2/12=2,17=6,18=5,40=1/2;
 3/5=1,6=6,7=1,11=2,25=1,30=1,71=2,74=-5,140=1/1,2,3;
 4//1;
 5/5=2,38=5,98=1/2;
 8/6=4,10=90,11=11/1;
 11/6=1,8=1,9=11,15=111,16=1/1,2,10;
 10/6=1/2;
 6/7=2,8=2,9=2,10=2,28=1/1;
 7/8=1,10=1,25=1/1,2,3,16;
 1/10=4,30=1/3;
 99//99;
 ---------
 good luck
 ---------
 Symbolic Z-matrix:
 Charge =  0 Multiplicity = 1
 O                     1.21806   0.        0. 
 C                     0.        0.        0. 
 C                    -0.81232  -1.29356   0.0045 
 C                    -1.31756  -1.62544   1.43211 
 C                    -0.19902  -1.88582   2.45065 
 C                    -0.73731  -2.25543   3.83662 
 C                    -1.96006  -1.22421  -1.035 
 C                    -2.84011   0.04127  -0.9225 
 C                    -4.07822   0.04498  -1.88863 
 C                    -4.93162   1.30743  -1.63487 
 C                    -3.66809   0.01676  -3.37553 
 C                    -4.9712   -1.18136  -1.59695 
 C                    -1.92915   1.28067  -1.05529 
 C                    -0.80859   1.28942   0.0045 
 H                    -0.11739  -2.08934  -0.29069 
 H                    -1.95431  -2.51907   1.35946 
 H                    -1.96861  -0.8228    1.80477 
 H                     0.44517  -2.69343   2.07722 
 H                     0.447    -1.00246   2.52939 
 H                     0.07945  -2.44308   4.54253 
 H                    -1.35671  -3.16009   3.79573 
 H                    -1.35647  -1.4502    4.25155 
 H                    -1.51469  -1.25905  -2.03846 
 H                    -2.564    -2.13248  -0.93274 
 H                    -3.26713   0.06301   0.09282 
 H                    -4.41554   2.22641  -1.93102 
 H                    -5.86252   1.25895  -2.2122 
 H                    -5.20339   1.39883  -0.57545 
 H                    -3.09897  -0.88475  -3.62801 
 H                    -3.06173   0.88697  -3.6507 
 H                    -4.56071   0.0273   -4.01268 
 H                    -5.89905  -1.12239  -2.17819 
 H                    -5.24738  -1.22985  -0.53591 
 H                    -4.48381  -2.12521  -1.86161 
 H                    -2.50397   2.20716  -0.96004 
 H                    -1.47074   1.29766  -2.05334 
 H                    -1.26033   1.40352   1.00174 
 H                    -0.11912   2.12689  -0.13853 
 

 GradGradGradGradGradGradGradGradGradGradGradGradGradGradGradGradGradGrad
 Berny optimization.
 Initialization pass.
 Trust Radius=3.00D-01 FncErr=1.00D-07 GrdErr=1.00D-07 EigMax=2.50D+02 EigMin=1.00D-04
 Number of steps in this run=      2 maximum allowed number of steps=      2.
 GradGradGradGradGradGradGradGradGradGradGradGradGradGradGradGradGradGrad

                          Input orientation:                          
 ---------------------------------------------------------------------
 Center     Atomic      Atomic             Coordinates (Angstroms)
 Number     Number       Type             X           Y           Z
 ---------------------------------------------------------------------
      1          8           0        1.218061    0.000000    0.000000
      2          6           0        0.000000    0.000000    0.000000
      3          6           0       -0.812321   -1.293555    0.004504
      4          6           0       -1.317562   -1.625444    1.432112
      5          6           0       -0.199019   -1.885817    2.450652
      6          6           0       -0.737309   -2.255427    3.836616
      7          6           0       -1.960059   -1.224214   -1.034997
      8          6           0       -2.840110    0.041270   -0.922496
      9          6           0       -4.078216    0.044982   -1.888632
     10          6           0       -4.931623    1.307430   -1.634865
     11          6           0       -3.668085    0.016755   -3.375528
     12          6           0       -4.971200   -1.181364   -1.596952
     13          6           0       -1.929154    1.280669   -1.055292
     14          6           0       -0.808592    1.289424    0.004504
     15          1           0       -0.117392   -2.089340   -0.290694
     16          1           0       -1.954308   -2.519069    1.359464
     17          1           0       -1.968609   -0.822804    1.804765
     18          1           0        0.445171   -2.693431    2.077221
     19          1           0        0.446997   -1.002460    2.529386
     20          1           0        0.079445   -2.443076    4.542528
     21          1           0       -1.356713   -3.160085    3.795725
     22          1           0       -1.356468   -1.450200    4.251548
     23          1           0       -1.514688   -1.259052   -2.038456
     24          1           0       -2.564000   -2.132478   -0.932742
     25          1           0       -3.267133    0.063013    0.092822
     26          1           0       -4.415543    2.226410   -1.931017
     27          1           0       -5.862519    1.258948   -2.212196
     28          1           0       -5.203388    1.398825   -0.575451
     29          1           0       -3.098971   -0.884748   -3.628006
     30          1           0       -3.061725    0.886965   -3.650695
     31          1           0       -4.560706    0.027304   -4.012679
     32          1           0       -5.899048   -1.122390   -2.178193
     33          1           0       -5.247382   -1.229854   -0.535907
     34          1           0       -4.483805   -2.125206   -1.861611
     35          1           0       -2.503967    2.207159   -0.960039
     36          1           0       -1.470739    1.297655   -2.053337
     37          1           0       -1.260332    1.403520    1.001740
     38          1           0       -0.119119    2.126886   -0.138530
 ---------------------------------------------------------------------
                    Distance matrix (angstroms):
                    1          2          3          4          5
     1  O    0.000000
     2  C    1.218061   0.000000
     3  C    2.407438   1.527472   0.000000
     4  C    3.335026   2.535544   1.550317   0.000000
     5  C    3.401487   3.098646   2.590474   1.535043   0.000000
     6  C    4.861074   4.511119   3.951697   2.552491   1.532078
     7  C    3.559546   2.532143   1.550056   2.580778   3.960900
     8  C    4.161905   2.986457   2.598656   3.261942   4.697569
     9  C    5.623122   4.494530   4.005211   4.630213   6.132336
    10  C    6.496212   5.357524   5.140166   5.574005   7.020386
    11  C    5.938762   4.984909   4.614858   5.597783   7.042625
    12  C    6.500218   5.353383   4.457973   4.766708   6.297068
    13  C    3.557909   2.544679   2.999519   3.873850   5.031068
    14  C    2.402073   1.521991   2.582982   3.285357   4.054303
    15  H    2.496654   2.112729   1.096969   2.150272   2.750102
    16  H    4.272912   3.466002   2.154515   1.099677   2.161652
    17  H    3.753538   2.794567   2.190787   1.098619   2.163011
    18  H    3.488091   3.430393   2.799481   2.159627   1.098486
    19  H    2.827943   2.757268   2.836485   2.169283   1.097203
    20  H    5.282010   5.158439   4.765533   3.506400   2.182665
    21  H    5.569841   5.121946   4.260710   2.818390   2.184774
    22  H    5.177542   4.692414   4.284626   2.825145   2.184646
    23  H    3.634341   2.834571   2.160601   3.495418   4.719736
    24  H    4.440885   3.462884   2.156525   2.720887   4.135376
    25  H    4.486597   3.269059   2.806097   2.906099   4.332508
    26  H    6.357926   5.308743   5.396258   5.978704   7.340879
    27  H    7.524186   6.391235   6.077296   6.500564   7.981662
    28  H    6.597186   5.418773   5.183312   5.317533   6.707450
    29  H    5.708062   4.852713   4.311731   5.415426   6.808961
    30  H    5.694809   4.846487   4.814038   5.932051   7.287650
    31  H    7.035374   6.074733   5.650913   6.549451   8.028636
    32  H    7.527119   6.387727   5.537893   5.854689   7.382368
    33  H    6.603158   5.416157   4.468318   4.412831   5.902185
    34  H    6.363440   5.299680   4.201645   4.596027   6.083774
    35  H    4.432462   3.473194   4.005872   4.671059   5.805002
    36  H    3.623499   2.839573   3.373810   4.551519   5.660184
    37  H    3.019236   2.135834   2.910225   3.059921   3.747729
    38  H    2.516125   2.134719   3.492908   4.240656   4.776194
                    6          7          8          9         10
     6  C    0.000000
     7  C    5.127488   0.000000
     8  C    5.687331   1.545508   0.000000
     9  C    7.016552   2.612688   1.570458   0.000000
    10  C    7.760369   3.949589   2.546578   1.544822   0.000000
    11  C    8.109703   3.152054   2.589114   1.542681   2.508441
    12  C    6.971593   3.063429   2.547797   1.544805   2.489397
    13  C    6.152661   2.505156   1.543886   2.615310   3.058013
    14  C    5.220741   2.953780   2.558180   3.977819   4.437030
    15  H    4.176909   2.167453   3.514522   4.774606   6.043315
    16  H    2.772522   2.722155   3.542220   4.651394   5.698465
    17  H    2.774334   2.868005   2.990667   4.341045   5.014818
    18  H    2.164619   4.198765   5.222065   6.609684   7.661357
    19  H    2.163644   4.306730   4.879542   6.410427   7.183741
    20  H    1.095724   6.062507   6.675497   8.052105   8.794162
    21  H    1.097151   5.239036   5.891583   7.070428   7.888598
    22  H    1.097231   5.325688   5.585374   6.880792   7.418633
    23  H    6.009455   1.098407   2.166321   2.880040   4.292454
    24  H    5.108688   1.095511   2.191238   2.819203   4.234570
    25  H    5.078500   2.153456   1.101677   2.141107   2.702592
    26  H    8.178133   4.328864   2.876446   2.207762   1.094792
    27  H    8.672182   4.772953   3.504429   2.182234   1.096462
    28  H    7.264004   4.196510   2.747449   2.196212   1.097528
    29  H    7.948383   2.852377   2.871289   2.201986   3.483801
    30  H    8.446145   3.537318   2.864853   2.201603   2.781525
    31  H    9.024448   4.146836   3.536930   2.178230   2.725858
    32  H    8.006575   4.102792   3.505422   2.182208   2.671169
    33  H    6.364866   3.324999   2.749576   2.195910   2.783024
    34  H    6.820776   2.804349   2.877028   2.207929   3.469142
    35  H    6.785547   3.475022   2.192140   2.831175   2.675522
    36  H    6.917648   2.763381   2.175427   2.897456   3.486106
    37  H    4.658108   3.397485   2.837976   4.259149   4.520984
    38  H    5.948833   3.927160   3.516844   4.803294   5.105950
                   11         12         13         14         15
    11  C    0.000000
    12  C    2.509369   0.000000
    13  C    3.163045   3.950829   0.000000
    14  C    4.606626   5.098702   1.542369   0.000000
    15  H    5.153567   5.107855   3.901801   3.461350   0.000000
    16  H    5.638048   4.430743   4.502187   4.201571   2.506382
    17  H    5.516205   4.551461   3.550504   3.008004   3.069538
    18  H    7.348228   6.717363   5.589591   4.661675   2.507673
    19  H    7.269161   6.812894   4.869157   3.633767   3.074523
    20  H    9.098921   8.049481   7.016861   5.942544   4.850145
    21  H    8.176896   6.786812   6.601542   5.871280   4.402412
    22  H    8.103568   6.880662   5.995679   5.083610   4.751397
    23  H    2.837704   3.485461   2.754737   3.341704   2.386731
    24  H    3.435900   2.672154   3.473848   3.958447   2.529818
    25  H    3.491755   2.703267   2.142671   2.748874   3.834133
    26  H    2.743698   3.468902   2.800616   4.199319   6.307968
    27  H    2.777035   2.669850   4.100032   5.518774   6.921682
    28  H    3.479613   2.784735   3.311316   4.434247   6.173794
    29  H    1.095602   2.778201   3.560388   4.813314   4.634491
    30  H    1.095744   3.484529   2.858992   4.312663   5.368156
    31  H    1.096743   2.732237   4.152364   5.639953   6.170607
    32  H    2.776411   1.096458   4.774480   6.041006   6.158343
    33  H    3.480181   1.097472   4.193224   5.132413   5.207268
    34  H    2.746878   1.094731   4.333172   5.352502   4.640542
    35  H    3.462315   4.239692   1.094471   2.155662   4.960208
    36  H    2.866570   4.313589   1.098420   2.161762   4.050950
    37  H    5.184676   5.215876   2.166517   1.100712   3.895737
    38  H    5.246520   6.050967   2.198354   1.094155   4.218971
                   16         17         18         19         20
    16  H    0.000000
    17  H    1.753799   0.000000
    18  H    2.510593   3.065911   0.000000
    19  H    3.071659   2.528340   1.750383   0.000000
    20  H    3.778071   3.783537   2.504830   2.502641   0.000000
    21  H    2.589090   3.130690   2.533339   3.084207   1.770414
    22  H    3.140707   2.599055   3.085324   2.533535   1.769836
    23  H    3.650585   3.894445   4.778837   4.977874   6.874047
    24  H    2.403203   3.092520   4.292977   4.725397   6.087927
    25  H    3.161493   2.324131   5.031603   4.568023   6.105731
    26  H    6.277301   5.407519   7.993582   7.346094   9.160557
    27  H    6.504174   5.969271   8.591120   8.210150   9.728217
    28  H    5.445210   4.589647   7.462536   6.879901   8.298327
    29  H    5.371789   5.549464   6.955709   7.106421   8.904400
    30  H    6.158663   5.820675   7.610951   7.353534   9.385362
    31  H    6.491321   6.425286   8.339549   8.302778  10.041182
    32  H    5.479663   5.603754   7.799092   7.902403   9.091462
    33  H    4.012336   4.049048   6.432391   6.470988   7.459055
    34  H    4.114463   4.633009   6.334989   6.697329   7.870025
    35  H    5.293340   4.136596   6.475967   5.584436   7.653558
    36  H    5.142804   4.430482   6.054832   5.474449   7.739611
    37  H    3.999534   2.470430   4.566225   3.322260   5.397081
    38  H    5.215055   3.987189   5.335113   4.151032   6.544943
                   21         22         23         24         25
    21  H    0.000000
    22  H    1.769599   0.000000
    23  H    6.138123   6.294896   0.000000
    24  H    4.987175   5.366610   1.756853   0.000000
    25  H    5.267785   4.820317   3.059618   2.523164   0.000000
    26  H    8.436015   7.816618   4.535962   4.839904   3.177272
    27  H    8.713510   8.332104   5.027340   4.900918   3.671430
    28  H    7.395117   6.798210   4.776107   4.423135   2.445417
    29  H    7.957663   8.089711   2.275242   3.017859   3.843318
    30  H    8.644932   8.415206   3.098068   4.092925   3.838621
    31  H    9.021984   8.985967   3.851038   4.258815   4.304619
    32  H    7.776420   7.879344   4.388715   3.700537   3.672828
    33  H    6.134014   6.173126   4.023868   2.858802   2.447078
    34  H    6.546383   6.899752   3.097927   2.132722   3.176224
    35  H    7.262286   6.469441   3.762483   4.340138   2.507648
    36  H    7.354997   6.878615   2.557128   3.770513   3.058982
    37  H    5.351834   4.325993   4.049294   4.236160   2.578826
    38  H    6.705376   5.796496   4.125761   4.974977   3.771351
                   26         27         28         29         30
    26  H    0.000000
    27  H    1.763174   0.000000
    28  H    1.772895   1.770015   0.000000
    29  H    3.780534   3.773215   4.354465   0.000000
    30  H    2.565975   3.170504   3.782307   1.772250   0.000000
    31  H    3.031577   2.540355   3.756148   1.765356   1.765501
    32  H    3.671014   2.381861   3.067450   3.162098   3.775735
    33  H    3.818907   3.063082   2.629344   3.780985   4.354299
    34  H    4.352705   3.671003   3.819791   2.564498   3.781046
    35  H    2.144130   3.707678   2.843974   4.126980   3.048547
    36  H    3.090213   4.394823   4.015850   3.145410   2.291605
    37  H    4.385609   5.615195   4.246792   5.481908   5.015675
    38  H    4.656412   6.167662   5.154684   5.488707   4.746750
                   31         32         33         34         35
    31  H    0.000000
    32  H    2.545249   0.000000
    33  H    3.760308   1.770119   0.000000
    34  H    3.044061   1.763172   1.772624   0.000000
    35  H    4.277915   4.908805   4.418062   4.847884   0.000000
    36  H    3.873075   5.047983   4.791026   4.564132   1.757856
    37  H    6.158802   6.165215   5.019520   5.571487   2.457853
    38  H    6.256594   6.937262   6.142043   6.332439   2.523652
                   36         37         38
    36  H    0.000000
    37  H    3.064143   0.000000
    38  H    2.486159   1.768005   0.000000
 Stoichiometry    C13H24O
 Framework group  C1[X(C13H24O)]
 Deg. of freedom   108
 Full point group                 C1      NOp   1
 Largest Abelian subgroup         C1      NOp   1
 Largest concise Abelian subgroup C1      NOp   1
                         Standard orientation:                         
 ---------------------------------------------------------------------
 Center     Atomic      Atomic             Coordinates (Angstroms)
 Number     Number       Type             X           Y           Z
 ---------------------------------------------------------------------
      1          8           0        2.172346    2.348544   -0.599384
      2          6           0        1.375014    1.518189   -0.201331
      3          6           0        1.209848    0.159807   -0.880072
      4          6           0        1.974319   -0.943606   -0.104477
      5          6           0        3.494511   -0.737239   -0.051715
      6          6           0        4.218719   -1.870462    0.682173
      7          6           0       -0.290498   -0.176912   -1.075661
      8          6           0       -1.143138   -0.034968    0.205532
      9          6           0       -2.632710   -0.502444    0.035291
     10          6           0       -3.367910   -0.398942    1.390003
     11          6           0       -3.399879    0.335583   -1.008273
     12          6           0       -2.668007   -1.985339   -0.396216
     13          6           0       -0.988233    1.406735    0.735702
     14          6           0        0.486628    1.765539    1.009471
     15          1           0        1.681127    0.253965   -1.866161
     16          1           0        1.757578   -1.904186   -0.593963
     17          1           0        1.584200   -1.033597    0.918593
     18          1           0        3.880993   -0.654708   -1.076650
     19          1           0        3.724477    0.220931    0.430865
     20          1           0        5.301516   -1.703589    0.699902
     21          1           0        4.038717   -2.838370    0.197928
     22          1           0        3.878420   -1.953487    1.721991
     23          1           0       -0.693446    0.493772   -1.846579
     24          1           0       -0.358898   -1.191965   -1.482025
     25          1           0       -0.716179   -0.705866    0.967958
     26          1           0       -3.496118    0.637975    1.717012
     27          1           0       -4.368841   -0.839994    1.313592
     28          1           0       -2.827939   -0.937850    2.179039
     29          1           0       -2.951274    0.261808   -2.005095
     30          1           0       -3.440562    1.395645   -0.733922
     31          1           0       -4.434325   -0.019566   -1.089742
     32          1           0       -3.699876   -2.356103   -0.397302
     33          1           0       -2.090483   -2.614713    0.292841
     34          1           0       -2.269549   -2.136382   -1.404608
     35          1           0       -1.557935    1.553036    1.658688
     36          1           0       -1.393401    2.116380    0.001693
     37          1           0        0.858772    1.142117    1.836769
     38          1           0        0.602287    2.810751    1.311680
 ---------------------------------------------------------------------
 Rotational constants (GHZ):           1.0473586           0.3776020           0.3250896
 Standard basis: 6-31G(d) (6D, 7F)
 There are   258 symmetry adapted cartesian basis functions of A   symmetry.
 There are   258 symmetry adapted basis functions of A   symmetry.
   258 basis functions,   488 primitive gaussians,   258 cartesian basis functions
    55 alpha electrons       55 beta electrons
       nuclear repulsion energy       971.3531514616 Hartrees.
 NAtoms=   38 NActive=   38 NUniq=   38 SFac= 1.00D+00 NAtFMM=   60 NAOKFM=F Big=F
 Integral buffers will be    131072 words long.
 Raffenetti 2 integral format.
 Two-electron integral symmetry is turned on.
 One-electron integrals computed using PRISM.
 NBasis=   258 RedAO= T EigKep=  2.42D-03  NBF=   258
 NBsUse=   258 1.00D-06 EigRej= -1.00D+00 NBFU=   258
 ExpMin= 1.61D-01 ExpMax= 5.48D+03 ExpMxC= 8.25D+02 IAcc=3 IRadAn=         5 AccDes= 0.00D+00
 Harris functional with IExCor=  402 and IRadAn=       5 diagonalized for initial guess.
 HarFok:  IExCor=  402 AccDes= 0.00D+00 IRadAn=         5 IDoV= 1 UseB2=F ITyADJ=14
 ICtDFT=  3500011 ScaDFX=  1.000000  1.000000  1.000000  1.000000
 FoFCou: FMM=F IPFlag=           0 FMFlag=      100000 FMFlg1=           0
         NFxFlg=           0 DoJE=T BraDBF=F KetDBF=T FulRan=T
         wScrn=  0.000000 ICntrl=       500 IOpCl=  0 I1Cent=   200000004 NGrid=           0
         NMat0=    1 NMatS0=      1 NMatT0=    0 NMatD0=    1 NMtDS0=    0 NMtDT0=    0
 Petite list used in FoFCou.
 Requested convergence on RMS density matrix=1.00D-08 within 128 cycles.
 Requested convergence on MAX density matrix=1.00D-06.
 Requested convergence on             energy=1.00D-06.
 No special actions if energy rises.
 Integral accuracy reduced to 1.0D-05 until final iterations.
 Initial convergence to 1.0D-05 achieved.  Increase integral accuracy.
 SCF Done:  E(RB3LYP) =  -585.079119710     A.U. after   13 cycles
            NFock= 13  Conv=0.85D-08     -V/T= 2.0099
 DoSCS=F DFT=T ScalE2(SS,OS)=  1.000000  1.000000
 Range of M.O.s used for correlation:     1   258
 NBasis=   258 NAE=    55 NBE=    55 NFC=     0 NFV=     0
 NROrb=    258 NOA=    55 NOB=    55 NVA=   203 NVB=   203
 Symmetrizing basis deriv contribution to polar:
 IMax=3 JMax=2 DiffMx= 0.00D+00
 G2DrvN: will do    39 centers at a time, making    1 passes.
 Calling FoFCou, ICntrl=  3107 FMM=F I1Cent=   0 AccDes= 0.00D+00.
 End of G2Drv F.D. properties file   721 does not exist.
 End of G2Drv F.D. properties file   722 does not exist.
 End of G2Drv F.D. properties file   788 does not exist.
          IDoAtm=11111111111111111111111111111111111111
          Differentiating once with respect to electric field.
                with respect to dipole field.
          Differentiating once with respect to nuclear coordinates.
 Keep R1 ints in memory in canonical form, NReq=569063395.
          There are   117 degrees of freedom in the 1st order CPHF.  IDoFFX=6 NUNeed=     3.
    114 vectors produced by pass  0 Test12= 1.12D-14 1.00D-09 XBig12= 8.98D+01 1.93D+00.
 AX will form   114 AO Fock derivatives at one time.
    114 vectors produced by pass  1 Test12= 1.12D-14 1.00D-09 XBig12= 9.48D+00 7.50D-01.
    114 vectors produced by pass  2 Test12= 1.12D-14 1.00D-09 XBig12= 6.42D-02 2.37D-02.
    114 vectors produced by pass  3 Test12= 1.12D-14 1.00D-09 XBig12= 1.60D-04 1.30D-03.
    114 vectors produced by pass  4 Test12= 1.12D-14 1.00D-09 XBig12= 1.51D-07 2.47D-05.
     48 vectors produced by pass  5 Test12= 1.12D-14 1.00D-09 XBig12= 8.02D-11 6.13D-07.
      3 vectors produced by pass  6 Test12= 1.12D-14 1.00D-09 XBig12= 4.19D-14 1.32D-08.
 InvSVY:  IOpt=1 It=  1 EMax= 2.40D-15
 Solved reduced A of dimension   621 with   117 vectors.
 Isotropic polarizability for W=    0.000000      135.51 Bohr**3.
 End of Minotr F.D. properties file   721 does not exist.
 End of Minotr F.D. properties file   722 does not exist.
 End of Minotr F.D. properties file   788 does not exist.

 **********************************************************************

            Population analysis using the SCF density.

 **********************************************************************

 Orbital symmetries:
       Occupied  (A) (A) (A) (A) (A) (A) (A) (A) (A) (A) (A) (A)
                 (A) (A) (A) (A) (A) (A) (A) (A) (A) (A) (A) (A)
                 (A) (A) (A) (A) (A) (A) (A) (A) (A) (A) (A) (A)
                 (A) (A) (A) (A) (A) (A) (A) (A) (A) (A) (A) (A)
                 (A) (A) (A) (A) (A) (A) (A)
       Virtual   (A) (A) (A) (A) (A) (A) (A) (A) (A) (A) (A) (A)
                 (A) (A) (A) (A) (A) (A) (A) (A) (A) (A) (A) (A)
                 (A) (A) (A) (A) (A) (A) (A) (A) (A) (A) (A) (A)
                 (A) (A) (A) (A) (A) (A) (A) (A) (A) (A) (A) (A)
                 (A) (A) (A) (A) (A) (A) (A) (A) (A) (A) (A) (A)
                 (A) (A) (A) (A) (A) (A) (A) (A) (A) (A) (A) (A)
                 (A) (A) (A) (A) (A) (A) (A) (A) (A) (A) (A) (A)
                 (A) (A) (A) (A) (A) (A) (A) (A) (A) (A) (A) (A)
                 (A) (A) (A) (A) (A) (A) (A) (A) (A) (A) (A) (A)
                 (A) (A) (A) (A) (A) (A) (A) (A) (A) (A) (A) (A)
                 (A) (A) (A) (A) (A) (A) (A) (A) (A) (A) (A) (A)
                 (A) (A) (A) (A) (A) (A) (A) (A) (A) (A) (A) (A)
                 (A) (A) (A) (A) (A) (A) (A) (A) (A) (A) (A) (A)
                 (A) (A) (A) (A) (A) (A) (A) (A) (A) (A) (A) (A)
                 (A) (A) (A) (A) (A) (A) (A) (A) (A) (A) (A) (A)
                 (A) (A) (A) (A) (A) (A) (A) (A) (A) (A) (A) (A)
                 (A) (A) (A) (A) (A) (A) (A) (A) (A) (A) (A)
 The electronic state is 1-A.
 Alpha  occ. eigenvalues --  -19.12962 -10.26340 -10.20158 -10.19241 -10.19110
 Alpha  occ. eigenvalues --  -10.18897 -10.18845 -10.18806 -10.18622 -10.17974
 Alpha  occ. eigenvalues --  -10.17475 -10.17464 -10.17445 -10.17396  -1.02812
 Alpha  occ. eigenvalues --   -0.84555  -0.80954  -0.78334  -0.74950  -0.71563
 Alpha  occ. eigenvalues --   -0.68626  -0.68578  -0.66635  -0.61434  -0.60072
 Alpha  occ. eigenvalues --   -0.58734  -0.53723  -0.51554  -0.47626  -0.46837
 Alpha  occ. eigenvalues --   -0.45073  -0.44544  -0.44281  -0.43986  -0.42793
 Alpha  occ. eigenvalues --   -0.42163  -0.41449  -0.40556  -0.39641  -0.38552
 Alpha  occ. eigenvalues --   -0.37711  -0.37427  -0.37194  -0.36894  -0.35866
 Alpha  occ. eigenvalues --   -0.34556  -0.34349  -0.34272  -0.33335  -0.32702
 Alpha  occ. eigenvalues --   -0.32208  -0.30867  -0.30303  -0.29956  -0.22977
 Alpha virt. eigenvalues --   -0.01046   0.07121   0.08427   0.09913   0.11189
 Alpha virt. eigenvalues --    0.11547   0.12148   0.12657   0.13442   0.13890
 Alpha virt. eigenvalues --    0.14999   0.15137   0.16018   0.16282   0.16714
 Alpha virt. eigenvalues --    0.17223   0.17660   0.18655   0.18894   0.19335
 Alpha virt. eigenvalues --    0.19677   0.20330   0.20366   0.21337   0.22192
 Alpha virt. eigenvalues --    0.22754   0.23164   0.24073   0.24449   0.24828
 Alpha virt. eigenvalues --    0.26117   0.26972   0.27252   0.28344   0.29091
 Alpha virt. eigenvalues --    0.29486   0.30286   0.34303   0.37741   0.48944
 Alpha virt. eigenvalues --    0.49301   0.50133   0.50846   0.52394   0.52998
 Alpha virt. eigenvalues --    0.53595   0.54548   0.55056   0.55832   0.56758
 Alpha virt. eigenvalues --    0.58607   0.60775   0.62803   0.63946   0.64950
 Alpha virt. eigenvalues --    0.65831   0.66020   0.67475   0.69224   0.69779
 Alpha virt. eigenvalues --    0.70386   0.71408   0.71786   0.72726   0.74231
 Alpha virt. eigenvalues --    0.74768   0.78054   0.81004   0.82644   0.83258
 Alpha virt. eigenvalues --    0.83708   0.84812   0.85798   0.86570   0.86894
 Alpha virt. eigenvalues --    0.87865   0.88379   0.88716   0.89711   0.89920
 Alpha virt. eigenvalues --    0.91088   0.91342   0.91902   0.92376   0.92560
 Alpha virt. eigenvalues --    0.93332   0.93427   0.94373   0.95334   0.95908
 Alpha virt. eigenvalues --    0.96299   0.96950   0.98155   0.98537   0.99238
 Alpha virt. eigenvalues --    1.00528   1.01667   1.02469   1.03438   1.05693
 Alpha virt. eigenvalues --    1.06175   1.08583   1.10582   1.11492   1.17788
 Alpha virt. eigenvalues --    1.19429   1.23535   1.26763   1.32660   1.36884
 Alpha virt. eigenvalues --    1.38541   1.40574   1.42195   1.47105   1.49035
 Alpha virt. eigenvalues --    1.50217   1.51140   1.54160   1.58679   1.60219
 Alpha virt. eigenvalues --    1.62286   1.64209   1.67809   1.69372   1.71190
 Alpha virt. eigenvalues --    1.73140   1.74353   1.77182   1.79173   1.80507
 Alpha virt. eigenvalues --    1.81256   1.83185   1.85115   1.86228   1.87549
 Alpha virt. eigenvalues --    1.88132   1.88822   1.91665   1.92596   1.95215
 Alpha virt. eigenvalues --    1.96132   1.97090   1.97869   1.97969   2.00780
 Alpha virt. eigenvalues --    2.00837   2.03442   2.05352   2.05700   2.07594
 Alpha virt. eigenvalues --    2.08931   2.09916   2.11965   2.13925   2.17331
 Alpha virt. eigenvalues --    2.17986   2.20744   2.24290   2.25565   2.26055
 Alpha virt. eigenvalues --    2.26812   2.28402   2.29182   2.30244   2.31339
 Alpha virt. eigenvalues --    2.35411   2.37026   2.39007   2.39580   2.41497
 Alpha virt. eigenvalues --    2.45466   2.47128   2.48948   2.52683   2.54086
 Alpha virt. eigenvalues --    2.58323   2.60770   2.61641   2.64733   2.67552
 Alpha virt. eigenvalues --    2.71697   2.72985   2.77603   2.79346   2.81077
 Alpha virt. eigenvalues --    2.82920   2.87705   2.99870   3.03715   4.05629
 Alpha virt. eigenvalues --    4.10370   4.16003   4.21070   4.28414   4.30925
 Alpha virt. eigenvalues --    4.31152   4.34443   4.38426   4.51155   4.58374
 Alpha virt. eigenvalues --    4.62781   4.68616   4.72309
          Condensed to atoms (all electrons):
               1          2          3          4          5          6
     1  O    8.035329   0.560906  -0.076467  -0.001707   0.000935   0.000050
     2  C    0.560906   4.507558   0.329896  -0.035536   0.000027   0.000225
     3  C   -0.076467   0.329896   5.219724   0.355420  -0.041834   0.003514
     4  C   -0.001707  -0.035536   0.355420   5.047130   0.380910  -0.042713
     5  C    0.000935   0.000027  -0.041834   0.380910   4.969663   0.365353
     6  C    0.000050   0.000225   0.003514  -0.042713   0.365353   5.071629
     7  C    0.002261  -0.021018   0.318400  -0.037900   0.004223  -0.000104
     8  C    0.000123  -0.016895  -0.027383  -0.004782   0.000115   0.000001
     9  C    0.000001   0.000277   0.003251   0.000103   0.000000  -0.000000
    10  C   -0.000000  -0.000008  -0.000106  -0.000003  -0.000000   0.000000
    11  C   -0.000000  -0.000023   0.000141  -0.000001   0.000000   0.000000
    12  C   -0.000000  -0.000009   0.000168  -0.000011   0.000000  -0.000000
    13  C    0.001378  -0.021802  -0.001224  -0.001636   0.000006  -0.000000
    14  C   -0.078220   0.326456  -0.130150   0.000693   0.000092   0.000022
    15  H    0.004535  -0.036083   0.348973  -0.037934  -0.004795   0.000149
    16  H   -0.000120   0.003905  -0.033883   0.367388  -0.039210  -0.003575
    17  H   -0.000023  -0.008619  -0.038068   0.367194  -0.041068  -0.002462
    18  H    0.000308  -0.001258  -0.002465  -0.041294   0.378885  -0.037899
    19  H    0.002600   0.007592  -0.005608  -0.038495   0.377611  -0.036966
    20  H    0.000001  -0.000000  -0.000120   0.004093  -0.027830   0.373893
    21  H   -0.000001  -0.000000  -0.000018  -0.004564  -0.034369   0.376227
    22  H    0.000001  -0.000014   0.000068  -0.004866  -0.034548   0.376325
    23  H    0.000233  -0.001482  -0.036336   0.004894  -0.000129   0.000002
    24  H   -0.000086   0.003271  -0.030083  -0.008606  -0.000019  -0.000012
    25  H   -0.000011  -0.001660  -0.003897   0.002807  -0.000110   0.000006
    26  H   -0.000000  -0.000004  -0.000000  -0.000000   0.000000   0.000000
    27  H   -0.000000   0.000000   0.000001   0.000000   0.000000  -0.000000
    28  H   -0.000000  -0.000001   0.000000  -0.000002   0.000000   0.000000
    29  H   -0.000000   0.000001  -0.000046  -0.000001  -0.000000   0.000000
    30  H   -0.000000  -0.000004  -0.000009  -0.000000  -0.000000   0.000000
    31  H    0.000000   0.000000  -0.000000   0.000000  -0.000000   0.000000
    32  H   -0.000000   0.000000  -0.000001  -0.000000  -0.000000  -0.000000
    33  H   -0.000000   0.000000  -0.000069   0.000018   0.000000   0.000000
    34  H   -0.000000  -0.000004  -0.000039  -0.000000  -0.000000   0.000000
    35  H   -0.000068   0.003047  -0.000158  -0.000021   0.000001   0.000000
    36  H    0.000422  -0.002686   0.000146   0.000069  -0.000001  -0.000000
    37  H    0.001144  -0.028724   0.001212   0.001089   0.000085  -0.000055
    38  H    0.004875  -0.024447   0.006505  -0.000026  -0.000027  -0.000000
               7          8          9         10         11         12
     1  O    0.002261   0.000123   0.000001  -0.000000  -0.000000  -0.000000
     2  C   -0.021018  -0.016895   0.000277  -0.000008  -0.000023  -0.000009
     3  C    0.318400  -0.027383   0.003251  -0.000106   0.000141   0.000168
     4  C   -0.037900  -0.004782   0.000103  -0.000003  -0.000001  -0.000011
     5  C    0.004223   0.000115   0.000000  -0.000000   0.000000   0.000000
     6  C   -0.000104   0.000001  -0.000000   0.000000   0.000000  -0.000000
     7  C    5.134556   0.372156  -0.033333   0.004340  -0.007503  -0.006886
     8  C    0.372156   4.970213   0.381550  -0.050601  -0.051209  -0.050134
     9  C   -0.033333   0.381550   4.752818   0.380629   0.382420   0.380567
    10  C    0.004340  -0.050601   0.380629   5.169670  -0.064029  -0.063284
    11  C   -0.007503  -0.051209   0.382420  -0.064029   5.161566  -0.063806
    12  C   -0.006886  -0.050134   0.380567  -0.063284  -0.063806   5.169026
    13  C   -0.050358   0.372898  -0.033752  -0.006766  -0.007667   0.004459
    14  C   -0.006183  -0.032605   0.003477   0.000144   0.000165  -0.000119
    15  H   -0.035287   0.003846  -0.000100   0.000002  -0.000002   0.000001
    16  H   -0.006298  -0.000511  -0.000055   0.000000   0.000001  -0.000013
    17  H   -0.003631   0.001674  -0.000092   0.000007  -0.000000   0.000005
    18  H    0.000041   0.000001   0.000000   0.000000  -0.000000   0.000000
    19  H    0.000077  -0.000011  -0.000000   0.000000   0.000000  -0.000000
    20  H    0.000001   0.000000   0.000000  -0.000000  -0.000000   0.000000
    21  H   -0.000004  -0.000000  -0.000000   0.000000  -0.000000  -0.000000
    22  H    0.000002  -0.000001   0.000000   0.000000  -0.000000   0.000000
    23  H    0.364598  -0.038391  -0.006155   0.000026   0.002804  -0.000391
    24  H    0.359312  -0.032669  -0.006308   0.000078  -0.000399   0.003009
    25  H   -0.051777   0.365989  -0.040136  -0.006896   0.006270  -0.007150
    26  H   -0.000041  -0.005584  -0.027231   0.366341  -0.005065   0.005736
    27  H   -0.000117   0.004915  -0.027981   0.364934  -0.004092  -0.006969
    28  H    0.000035  -0.005510  -0.029785   0.364973   0.005870  -0.004038
    29  H    0.001755  -0.005752  -0.028364   0.005618   0.367338  -0.004788
    30  H   -0.000043  -0.005633  -0.028527  -0.004741   0.367265   0.005629
    31  H    0.000081   0.005263  -0.029663  -0.005235   0.367489  -0.005170
    32  H    0.000245   0.004888  -0.028014  -0.006943  -0.004113   0.364755
    33  H   -0.000548  -0.005384  -0.029986  -0.004020   0.005838   0.365343
    34  H    0.000492  -0.005557  -0.027309   0.005728  -0.005014   0.366323
    35  H    0.005369  -0.031321  -0.006173   0.003168  -0.000273   0.000068
    36  H   -0.006763  -0.037953  -0.005574  -0.000399   0.002688   0.000017
    37  H   -0.001005  -0.004035   0.000007  -0.000013   0.000002  -0.000004
    38  H   -0.000162   0.003494  -0.000093  -0.000000   0.000001   0.000001
              13         14         15         16         17         18
     1  O    0.001378  -0.078220   0.004535  -0.000120  -0.000023   0.000308
     2  C   -0.021802   0.326456  -0.036083   0.003905  -0.008619  -0.001258
     3  C   -0.001224  -0.130150   0.348973  -0.033883  -0.038068  -0.002465
     4  C   -0.001636   0.000693  -0.037934   0.367388   0.367194  -0.041294
     5  C    0.000006   0.000092  -0.004795  -0.039210  -0.041068   0.378885
     6  C   -0.000000   0.000022   0.000149  -0.003575  -0.002462  -0.037899
     7  C   -0.050358  -0.006183  -0.035287  -0.006298  -0.003631   0.000041
     8  C    0.372898  -0.032605   0.003846  -0.000511   0.001674   0.000001
     9  C   -0.033752   0.003477  -0.000100  -0.000055  -0.000092   0.000000
    10  C   -0.006766   0.000144   0.000002   0.000000   0.000007   0.000000
    11  C   -0.007667   0.000165  -0.000002   0.000001  -0.000000  -0.000000
    12  C    0.004459  -0.000119   0.000001  -0.000013   0.000005   0.000000
    13  C    5.089650   0.320193  -0.000159   0.000096  -0.000240  -0.000001
    14  C    0.320193   5.319440   0.007387  -0.000335   0.002869   0.000029
    15  H   -0.000159   0.007387   0.605646  -0.005027   0.005843   0.005607
    16  H    0.000096  -0.000335  -0.005027   0.607102  -0.038579  -0.005321
    17  H   -0.000240   0.002869   0.005843  -0.038579   0.610840   0.005834
    18  H   -0.000001   0.000029   0.005607  -0.005321   0.005834   0.596376
    19  H    0.000019   0.000039  -0.000201   0.005609  -0.004721  -0.036652
    20  H    0.000000  -0.000000  -0.000002  -0.000042  -0.000047  -0.002703
    21  H    0.000000  -0.000000  -0.000000   0.005144  -0.000401  -0.004370
    22  H    0.000000  -0.000004   0.000006  -0.000346   0.004981   0.005113
    23  H   -0.007788   0.000473  -0.004295   0.000072  -0.000059  -0.000006
    24  H    0.005631  -0.000268  -0.001997   0.007563  -0.000115   0.000003
    25  H   -0.051995  -0.003046  -0.000015   0.000469   0.003442   0.000000
    26  H    0.000642  -0.000060   0.000000  -0.000000   0.000000   0.000000
    27  H    0.000240  -0.000000  -0.000000  -0.000000  -0.000000  -0.000000
    28  H   -0.000609  -0.000052   0.000000   0.000000  -0.000005  -0.000000
    29  H   -0.000005  -0.000011   0.000004   0.000000  -0.000000   0.000000
    30  H    0.001936  -0.000055   0.000000   0.000000  -0.000000  -0.000000
    31  H    0.000063  -0.000001  -0.000000  -0.000000  -0.000000   0.000000
    32  H   -0.000119   0.000001  -0.000000   0.000000   0.000000   0.000000
    33  H    0.000033  -0.000003  -0.000000   0.000051   0.000004  -0.000000
    34  H   -0.000046  -0.000001   0.000004  -0.000013   0.000002   0.000000
    35  H    0.365538  -0.028392   0.000019  -0.000001   0.000011   0.000000
    36  H    0.370538  -0.042255  -0.000101   0.000003  -0.000004  -0.000000
    37  H   -0.035432   0.349944  -0.000110   0.000070   0.002162  -0.000005
    38  H   -0.025826   0.344133  -0.000190   0.000005  -0.000071   0.000000
              19         20         21         22         23         24
     1  O    0.002600   0.000001  -0.000001   0.000001   0.000233  -0.000086
     2  C    0.007592  -0.000000  -0.000000  -0.000014  -0.001482   0.003271
     3  C   -0.005608  -0.000120  -0.000018   0.000068  -0.036336  -0.030083
     4  C   -0.038495   0.004093  -0.004564  -0.004866   0.004894  -0.008606
     5  C    0.377611  -0.027830  -0.034369  -0.034548  -0.000129  -0.000019
     6  C   -0.036966   0.373893   0.376227   0.376325   0.000002  -0.000012
     7  C    0.000077   0.000001  -0.000004   0.000002   0.364598   0.359312
     8  C   -0.000011   0.000000  -0.000000  -0.000001  -0.038391  -0.032669
     9  C   -0.000000   0.000000  -0.000000   0.000000  -0.006155  -0.006308
    10  C    0.000000  -0.000000   0.000000   0.000000   0.000026   0.000078
    11  C    0.000000  -0.000000  -0.000000  -0.000000   0.002804  -0.000399
    12  C   -0.000000   0.000000  -0.000000   0.000000  -0.000391   0.003009
    13  C    0.000019   0.000000   0.000000   0.000000  -0.007788   0.005631
    14  C    0.000039  -0.000000  -0.000000  -0.000004   0.000473  -0.000268
    15  H   -0.000201  -0.000002  -0.000000   0.000006  -0.004295  -0.001997
    16  H    0.005609  -0.000042   0.005144  -0.000346   0.000072   0.007563
    17  H   -0.004721  -0.000047  -0.000401   0.004981  -0.000059  -0.000115
    18  H   -0.036652  -0.002703  -0.004370   0.005113  -0.000006   0.000003
    19  H    0.580181  -0.002450   0.004917  -0.004139   0.000002   0.000003
    20  H   -0.002450   0.570304  -0.031000  -0.030915  -0.000000   0.000000
    21  H    0.004917  -0.031000   0.580911  -0.033222   0.000000  -0.000000
    22  H   -0.004139  -0.030915  -0.033222   0.581916  -0.000000   0.000001
    23  H    0.000002  -0.000000   0.000000  -0.000000   0.602393  -0.036734
    24  H    0.000003   0.000000  -0.000000   0.000001  -0.036734   0.598772
    25  H    0.000006  -0.000000   0.000000  -0.000003   0.006318  -0.003567
    26  H    0.000000  -0.000000  -0.000000   0.000000  -0.000003  -0.000002
    27  H   -0.000000   0.000000  -0.000000   0.000000   0.000002  -0.000004
    28  H   -0.000000  -0.000000  -0.000000  -0.000000   0.000004  -0.000010
    29  H    0.000000  -0.000000   0.000000   0.000000   0.003414   0.000246
    30  H    0.000000  -0.000000   0.000000  -0.000000   0.000072   0.000032
    31  H    0.000000  -0.000000  -0.000000   0.000000  -0.000080  -0.000034
    32  H   -0.000000   0.000000   0.000000   0.000000  -0.000032  -0.000105
    33  H    0.000000  -0.000000   0.000000   0.000000   0.000071   0.000494
    34  H   -0.000000  -0.000000   0.000000  -0.000000   0.000305   0.003788
    35  H    0.000000   0.000000   0.000000  -0.000000   0.000014  -0.000187
    36  H    0.000000  -0.000000   0.000000  -0.000000   0.005285   0.000011
    37  H    0.000049   0.000000   0.000001   0.000000   0.000077  -0.000012
    38  H    0.000008  -0.000000   0.000000   0.000000  -0.000039   0.000019
              25         26         27         28         29         30
     1  O   -0.000011  -0.000000  -0.000000  -0.000000  -0.000000  -0.000000
     2  C   -0.001660  -0.000004   0.000000  -0.000001   0.000001  -0.000004
     3  C   -0.003897  -0.000000   0.000001   0.000000  -0.000046  -0.000009
     4  C    0.002807  -0.000000   0.000000  -0.000002  -0.000001  -0.000000
     5  C   -0.000110   0.000000   0.000000   0.000000  -0.000000  -0.000000
     6  C    0.000006   0.000000  -0.000000   0.000000   0.000000   0.000000
     7  C   -0.051777  -0.000041  -0.000117   0.000035   0.001755  -0.000043
     8  C    0.365989  -0.005584   0.004915  -0.005510  -0.005752  -0.005633
     9  C   -0.040136  -0.027231  -0.027981  -0.029785  -0.028364  -0.028527
    10  C   -0.006896   0.366341   0.364934   0.364973   0.005618  -0.004741
    11  C    0.006270  -0.005065  -0.004092   0.005870   0.367338   0.367265
    12  C   -0.007150   0.005736  -0.006969  -0.004038  -0.004788   0.005629
    13  C   -0.051995   0.000642   0.000240  -0.000609  -0.000005   0.001936
    14  C   -0.003046  -0.000060  -0.000000  -0.000052  -0.000011  -0.000055
    15  H   -0.000015   0.000000  -0.000000   0.000000   0.000004   0.000000
    16  H    0.000469  -0.000000  -0.000000   0.000000   0.000000   0.000000
    17  H    0.003442   0.000000  -0.000000  -0.000005  -0.000000  -0.000000
    18  H    0.000000   0.000000  -0.000000  -0.000000   0.000000  -0.000000
    19  H    0.000006   0.000000  -0.000000  -0.000000   0.000000   0.000000
    20  H   -0.000000  -0.000000   0.000000  -0.000000  -0.000000  -0.000000
    21  H    0.000000  -0.000000  -0.000000  -0.000000   0.000000   0.000000
    22  H   -0.000003   0.000000   0.000000  -0.000000   0.000000  -0.000000
    23  H    0.006318  -0.000003   0.000002   0.000004   0.003414   0.000072
    24  H   -0.003567  -0.000002  -0.000004  -0.000010   0.000246   0.000032
    25  H    0.650101  -0.000110  -0.000078   0.006281  -0.000028  -0.000028
    26  H   -0.000110   0.575475  -0.030252  -0.031584  -0.000015   0.003871
    27  H   -0.000078  -0.030252   0.580674  -0.030191  -0.000081  -0.000161
    28  H    0.006281  -0.031584  -0.030191   0.583986  -0.000192  -0.000040
    29  H   -0.000028  -0.000015  -0.000081  -0.000192   0.574087  -0.030923
    30  H   -0.000028   0.003871  -0.000161  -0.000040  -0.030923   0.574873
    31  H   -0.000150  -0.000128   0.003978  -0.000035  -0.030513  -0.030528
    32  H   -0.000057   0.000019   0.005372  -0.000103  -0.000157  -0.000081
    33  H    0.006017  -0.000072  -0.000103   0.003352  -0.000035  -0.000192
    34  H   -0.000084  -0.000195   0.000021  -0.000074   0.003868  -0.000017
    35  H   -0.003873   0.003519  -0.000106   0.000532   0.000022   0.000178
    36  H    0.006269   0.000311  -0.000031   0.000081   0.000032   0.003335
    37  H    0.004466   0.000006  -0.000000   0.000015  -0.000000  -0.000000
    38  H    0.000035   0.000003  -0.000000   0.000000   0.000000   0.000006
              31         32         33         34         35         36
     1  O    0.000000  -0.000000  -0.000000  -0.000000  -0.000068   0.000422
     2  C    0.000000   0.000000   0.000000  -0.000004   0.003047  -0.002686
     3  C   -0.000000  -0.000001  -0.000069  -0.000039  -0.000158   0.000146
     4  C    0.000000  -0.000000   0.000018  -0.000000  -0.000021   0.000069
     5  C   -0.000000  -0.000000   0.000000  -0.000000   0.000001  -0.000001
     6  C    0.000000  -0.000000   0.000000   0.000000   0.000000  -0.000000
     7  C    0.000081   0.000245  -0.000548   0.000492   0.005369  -0.006763
     8  C    0.005263   0.004888  -0.005384  -0.005557  -0.031321  -0.037953
     9  C   -0.029663  -0.028014  -0.029986  -0.027309  -0.006173  -0.005574
    10  C   -0.005235  -0.006943  -0.004020   0.005728   0.003168  -0.000399
    11  C    0.367489  -0.004113   0.005838  -0.005014  -0.000273   0.002688
    12  C   -0.005170   0.364755   0.365343   0.366323   0.000068   0.000017
    13  C    0.000063  -0.000119   0.000033  -0.000046   0.365538   0.370538
    14  C   -0.000001   0.000001  -0.000003  -0.000001  -0.028392  -0.042255
    15  H   -0.000000  -0.000000  -0.000000   0.000004   0.000019  -0.000101
    16  H   -0.000000   0.000000   0.000051  -0.000013  -0.000001   0.000003
    17  H   -0.000000   0.000000   0.000004   0.000002   0.000011  -0.000004
    18  H    0.000000   0.000000  -0.000000   0.000000   0.000000  -0.000000
    19  H    0.000000  -0.000000   0.000000  -0.000000   0.000000   0.000000
    20  H   -0.000000   0.000000  -0.000000  -0.000000   0.000000  -0.000000
    21  H   -0.000000   0.000000   0.000000   0.000000   0.000000   0.000000
    22  H    0.000000   0.000000   0.000000  -0.000000  -0.000000  -0.000000
    23  H   -0.000080  -0.000032   0.000071   0.000305   0.000014   0.005285
    24  H   -0.000034  -0.000105   0.000494   0.003788  -0.000187   0.000011
    25  H   -0.000150  -0.000057   0.006017  -0.000084  -0.003873   0.006269
    26  H   -0.000128   0.000019  -0.000072  -0.000195   0.003519   0.000311
    27  H    0.003978   0.005372  -0.000103   0.000021  -0.000106  -0.000031
    28  H   -0.000035  -0.000103   0.003352  -0.000074   0.000532   0.000081
    29  H   -0.030513  -0.000157  -0.000035   0.003868   0.000022   0.000032
    30  H   -0.030528  -0.000081  -0.000192  -0.000017   0.000178   0.003335
    31  H    0.580458   0.003944  -0.000039  -0.000130  -0.000032  -0.000078
    32  H    0.003944   0.581133  -0.030205  -0.030247  -0.000003   0.000002
    33  H   -0.000039  -0.030205   0.583327  -0.031436  -0.000009   0.000003
    34  H   -0.000130  -0.030247  -0.031436   0.575018  -0.000002  -0.000002
    35  H   -0.000032  -0.000003  -0.000009  -0.000002   0.591725  -0.037704
    36  H   -0.000078   0.000002   0.000003  -0.000002  -0.037704   0.598093
    37  H    0.000000   0.000000   0.000000   0.000000  -0.006185   0.005590
    38  H   -0.000000  -0.000000   0.000000   0.000000  -0.002416  -0.002985
              37         38
     1  O    0.001144   0.004875
     2  C   -0.028724  -0.024447
     3  C    0.001212   0.006505
     4  C    0.001089  -0.000026
     5  C    0.000085  -0.000027
     6  C   -0.000055  -0.000000
     7  C   -0.001005  -0.000162
     8  C   -0.004035   0.003494
     9  C    0.000007  -0.000093
    10  C   -0.000013  -0.000000
    11  C    0.000002   0.000001
    12  C   -0.000004   0.000001
    13  C   -0.035432  -0.025826
    14  C    0.349944   0.344133
    15  H   -0.000110  -0.000190
    16  H    0.000070   0.000005
    17  H    0.002162  -0.000071
    18  H   -0.000005   0.000000
    19  H    0.000049   0.000008
    20  H    0.000000  -0.000000
    21  H    0.000001   0.000000
    22  H    0.000000   0.000000
    23  H    0.000077  -0.000039
    24  H   -0.000012   0.000019
    25  H    0.004466   0.000035
    26  H    0.000006   0.000003
    27  H   -0.000000  -0.000000
    28  H    0.000015   0.000000
    29  H   -0.000000   0.000000
    30  H   -0.000000   0.000006
    31  H    0.000000  -0.000000
    32  H    0.000000  -0.000000
    33  H    0.000000   0.000000
    34  H    0.000000   0.000000
    35  H   -0.006185  -0.002416
    36  H    0.005590  -0.002985
    37  H    0.581140  -0.027032
    38  H   -0.027032   0.562558
 Mulliken charges:
               1
     1  O   -0.458396
     2  C    0.457113
     3  C   -0.159459
     4  C   -0.271712
     5  C   -0.253967
     6  C   -0.443610
     7  C   -0.298983
     8  C   -0.075204
     9  C    0.103529
    10  C   -0.452614
    11  C   -0.456660
    12  C   -0.452333
    13  C   -0.287893
    14  C   -0.353799
    15  H    0.144275
    16  H    0.135848
    17  H    0.133340
    18  H    0.139778
    19  H    0.150531
    20  H    0.146818
    21  H    0.140748
    22  H    0.139645
    23  H    0.140862
    24  H    0.138983
    25  H    0.116195
    26  H    0.144425
    27  H    0.140027
    28  H    0.137101
    29  H    0.144523
    30  H    0.143787
    31  H    0.140538
    32  H    0.139819
    33  H    0.137549
    34  H    0.144620
    35  H    0.143716
    36  H    0.143638
    37  H    0.155552
    38  H    0.161671
 Sum of Mulliken charges =  -0.00000
 Mulliken charges with hydrogens summed into heavy atoms:
               1
     1  O   -0.458396
     2  C    0.457113
     3  C   -0.015184
     4  C   -0.002524
     5  C    0.036341
     6  C   -0.016399
     7  C   -0.019138
     8  C    0.040991
     9  C    0.103529
    10  C   -0.031060
    11  C   -0.027813
    12  C   -0.030346
    13  C   -0.000539
    14  C   -0.036576
 APT charges:
               1
     1  O   -0.638390
     2  C    0.687343
     3  C   -0.044617
     4  C    0.106880
     5  C    0.122421
     6  C    0.091816
     7  C    0.084472
     8  C    0.062025
     9  C    0.145933
    10  C    0.034240
    11  C    0.026638
    12  C    0.032594
    13  C    0.106742
    14  C   -0.035840
    15  H   -0.056804
    16  H   -0.049378
    17  H   -0.036025
    18  H   -0.048880
    19  H   -0.031942
    20  H   -0.041625
    21  H   -0.029602
    22  H   -0.029117
    23  H   -0.042396
    24  H   -0.033218
    25  H   -0.060076
    26  H   -0.017379
    27  H   -0.033335
    28  H   -0.024351
    29  H   -0.016733
    30  H   -0.017547
    31  H   -0.028332
    32  H   -0.033218
    33  H   -0.023971
    34  H   -0.016704
    35  H   -0.038143
    36  H   -0.033047
    37  H   -0.007391
    38  H   -0.033043
 Sum of APT charges =  -0.00000
 APT charges with hydrogens summed into heavy atoms:
               1
     1  O   -0.638390
     2  C    0.687343
     3  C   -0.101421
     4  C    0.021477
     5  C    0.041599
     6  C   -0.008529
     7  C    0.008859
     8  C    0.001949
     9  C    0.145933
    10  C   -0.040825
    11  C   -0.035973
    12  C   -0.041299
    13  C    0.035552
    14  C   -0.076274
 Electronic spatial extent (au):  <R**2>=           3765.0510
 Charge=             -0.0000 electrons
 Dipole moment (field-independent basis, Debye):
    X=             -1.9689    Y=             -2.0792    Z=              0.8789  Tot=              2.9953
 Quadrupole moment (field-independent basis, Debye-Ang):
   XX=            -93.4458   YY=            -95.9852   ZZ=            -88.6629
   XY=             -7.1682   XZ=              2.0616   YZ=              3.1466
 Traceless Quadrupole moment (field-independent basis, Debye-Ang):
   XX=             -0.7478   YY=             -3.2873   ZZ=              4.0351
   XY=             -7.1682   XZ=              2.0616   YZ=              3.1466
 Octapole moment (field-independent basis, Debye-Ang**2):
  XXX=             -3.6461  YYY=             -5.2536  ZZZ=             -2.7098  XYY=            -17.4271
  XXY=            -15.3971  XXZ=              3.2370  XZZ=              4.4382  YZZ=              2.5361
  YYZ=              5.5928  XYZ=              6.7784
 Hexadecapole moment (field-independent basis, Debye-Ang**3):
 XXXX=          -3524.7106 YYYY=          -1104.7172 ZZZZ=           -507.5317 XXXY=             -5.1122
 XXXZ=              4.4645 YYYX=            -34.1227 YYYZ=             16.1985 ZZZX=             -3.5376
 ZZZY=             -2.7881 XXYY=           -820.8315 XXZZ=           -687.9013 YYZZ=           -262.1852
 XXYZ=             20.4025 YYXZ=              7.3400 ZZXY=              2.8472
 N-N= 9.713531514616D+02 E-N=-3.297699117456D+03  KE= 5.793382961429D+02
  Exact polarizability: 156.245   2.962 131.303  -2.302   1.153 118.979
 Approx polarizability: 191.980   9.130 191.667  -5.653  -3.195 182.346
 Calling FoFJK, ICntrl=    100127 FMM=F ISym2X=0 I1Cent= 0 IOpClX= 0 NMat=1 NMatS=1 NMatT=0.
 Full mass-weighted force constant matrix:
 Low frequencies ---   -5.1360   -0.0007   -0.0004    0.0003    2.2768    5.2879
 Low frequencies ---   28.4523   52.9877   61.7799
 Diagonal vibrational polarizability:
       14.0471225      12.5470685      14.1617526
 Harmonic frequencies (cm**-1), IR intensities (KM/Mole), Raman scattering
 activities (A**4/AMU), depolarization ratios for plane and unpolarized
 incident light, reduced masses (AMU), force constants (mDyne/A),
 and normal coordinates:
                      1                      2                      3
                      A                      A                      A
 Frequencies --     28.4372                52.9875                61.7761
 Red. masses --      2.6937                 2.9834                 2.5525
 Frc consts  --      0.0013                 0.0049                 0.0057
 IR Inten    --      0.1162                 1.5988                 0.0523
  Atom  AN      X      Y      Z        X      Y      Z        X      Y      Z
     1   8     0.02   0.01   0.09     0.15  -0.04   0.13    -0.01  -0.05   0.03
     2   6    -0.00   0.01   0.05     0.01   0.04   0.03    -0.01  -0.04   0.03
     3   6    -0.01   0.04   0.01    -0.01   0.04   0.02     0.00  -0.06   0.06
     4   6    -0.00   0.01  -0.03    -0.03   0.04   0.05     0.06  -0.00   0.08
     5   6    -0.00  -0.01  -0.06    -0.01  -0.10  -0.11     0.07  -0.01  -0.14
     6   6     0.00  -0.04  -0.11    -0.05  -0.06  -0.01     0.17   0.11  -0.05
     7   6    -0.01   0.05   0.00     0.00   0.04  -0.01     0.01  -0.10   0.07
     8   6    -0.00   0.01   0.01    -0.01   0.06  -0.02    -0.03  -0.02   0.04
     9   6     0.00  -0.01  -0.01     0.01  -0.03   0.01    -0.05   0.03  -0.02
    10   6    -0.07   0.15  -0.06     0.04  -0.09   0.03    -0.09   0.04  -0.04
    11   6     0.06  -0.14  -0.15    -0.06  -0.06   0.04     0.01   0.07  -0.03
    12   6     0.03  -0.06   0.17     0.09  -0.03  -0.00    -0.09   0.04  -0.04
    13   6    -0.01  -0.01   0.05    -0.07   0.09  -0.11    -0.02  -0.01  -0.01
    14   6    -0.01  -0.01   0.05    -0.09   0.13  -0.06    -0.03  -0.02   0.02
    15   1    -0.01   0.07   0.01     0.02   0.03   0.03    -0.01  -0.07   0.06
    16   1    -0.03   0.02  -0.05    -0.16   0.01   0.15    -0.01  -0.05   0.20
    17   1     0.02  -0.01  -0.02     0.06   0.16   0.09     0.18   0.10   0.14
    18   1    -0.02   0.01  -0.07    -0.09  -0.28  -0.16    -0.06  -0.19  -0.20
    19   1     0.02  -0.03  -0.04     0.13  -0.05  -0.27     0.14   0.07  -0.33
    20   1     0.01  -0.06  -0.13    -0.03  -0.17  -0.15     0.17   0.10  -0.24
    21   1    -0.02  -0.03  -0.13    -0.20  -0.12   0.15     0.08   0.02   0.15
    22   1     0.03  -0.07  -0.11     0.05   0.14   0.03     0.32   0.30   0.02
    23   1    -0.00   0.08   0.03     0.01   0.03  -0.02     0.02  -0.16   0.02
    24   1    -0.02   0.07  -0.04     0.01   0.03   0.00     0.03  -0.12   0.14
    25   1     0.00  -0.01  -0.00     0.02   0.12   0.01    -0.08  -0.01   0.08
    26   1    -0.15   0.20  -0.23     0.03  -0.10   0.07    -0.04   0.04  -0.02
    27   1    -0.04   0.08  -0.04     0.05  -0.11   0.04    -0.11   0.09  -0.08
    28   1    -0.08   0.31   0.05     0.08  -0.10  -0.00    -0.14  -0.01  -0.03
    29   1     0.06  -0.33  -0.13    -0.05   0.01   0.04     0.05   0.08  -0.01
    30   1     0.12  -0.09  -0.32    -0.15  -0.07   0.07     0.02   0.06  -0.00
    31   1     0.04  -0.09  -0.09    -0.03  -0.15   0.02     0.01   0.09  -0.08
    32   1     0.02  -0.05   0.09     0.11  -0.10   0.05    -0.10   0.07  -0.06
    33   1    -0.07   0.01   0.32     0.17   0.00  -0.05    -0.12   0.01  -0.04
    34   1     0.15  -0.20   0.24     0.03   0.01  -0.03    -0.08   0.04  -0.04
    35   1    -0.00  -0.04   0.06    -0.12   0.15  -0.14    -0.05   0.03  -0.03
    36   1    -0.03   0.01   0.07    -0.05   0.03  -0.17     0.01  -0.03  -0.04
    37   1    -0.01  -0.02   0.04    -0.13   0.21   0.02    -0.05  -0.01   0.03
    38   1    -0.01  -0.01   0.07    -0.11   0.15  -0.14    -0.02  -0.02   0.01
                      4                      5                      6
                      A                      A                      A
 Frequencies --     68.8788                87.9250               156.9355
 Red. masses --      2.0614                 4.0325                 2.7906
 Frc consts  --      0.0058                 0.0184                 0.0405
 IR Inten    --      0.4952                 2.0697                 1.2425
  Atom  AN      X      Y      Z        X      Y      Z        X      Y      Z
     1   8    -0.06   0.06  -0.04     0.19  -0.15   0.16     0.15  -0.09  -0.05
     2   6    -0.00   0.02  -0.01     0.04  -0.07   0.01     0.02   0.02  -0.08
     3   6     0.00   0.03  -0.03    -0.05  -0.00  -0.10    -0.04   0.00  -0.00
     4   6    -0.03   0.01  -0.02    -0.00  -0.04  -0.19    -0.06   0.05   0.08
     5   6    -0.01  -0.09  -0.12    -0.03   0.10  -0.04    -0.06   0.05   0.03
     6   6    -0.08   0.04   0.15    -0.00   0.22   0.13    -0.02   0.03  -0.04
     7   6    -0.00   0.06  -0.03    -0.05   0.00  -0.06    -0.04   0.04   0.03
     8   6     0.03  -0.02  -0.00    -0.02  -0.01  -0.04     0.01  -0.05   0.07
     9   6     0.02  -0.01  -0.01    -0.03   0.00   0.01     0.00  -0.03   0.00
    10   6     0.02  -0.00  -0.01     0.01   0.04   0.04    -0.07  -0.05  -0.04
    11   6     0.03  -0.00  -0.01    -0.05  -0.00   0.03     0.07   0.01  -0.02
    12   6     0.02  -0.01  -0.01    -0.06  -0.00   0.04    -0.01  -0.01  -0.04
    13   6     0.04  -0.05   0.09     0.01  -0.02  -0.02     0.01  -0.09   0.17
    14   6     0.05  -0.04   0.04     0.02  -0.07  -0.01     0.02   0.11  -0.09
    15   1     0.01   0.03  -0.02    -0.08   0.06  -0.11    -0.04  -0.08  -0.01
    16   1    -0.13  -0.01   0.06     0.12   0.00  -0.32    -0.08   0.01   0.16
    17   1     0.03   0.10   0.01    -0.08  -0.19  -0.23    -0.04   0.14   0.09
    18   1    -0.04  -0.38  -0.15     0.08   0.07   0.00    -0.10   0.08   0.01
    19   1     0.07   0.01  -0.37    -0.16   0.15  -0.07    -0.04   0.04   0.04
    20   1    -0.06  -0.06   0.03    -0.02   0.32   0.24    -0.02   0.05  -0.07
    21   1    -0.20  -0.08   0.43     0.14   0.16   0.19    -0.02   0.05  -0.08
    22   1    -0.02   0.36   0.19    -0.11   0.28   0.10     0.02  -0.01  -0.03
    23   1    -0.00   0.13   0.03    -0.07   0.02  -0.04    -0.05   0.12   0.10
    24   1    -0.03   0.10  -0.11    -0.07   0.01  -0.08    -0.07   0.08  -0.06
    25   1     0.04  -0.07  -0.06     0.00  -0.03  -0.06     0.01  -0.12   0.00
    26   1    -0.00  -0.00  -0.03     0.01   0.04   0.01    -0.04  -0.06  -0.00
    27   1     0.03  -0.03  -0.01     0.02   0.02   0.08    -0.09   0.00  -0.12
    28   1     0.03   0.02  -0.00     0.05   0.07   0.04    -0.15  -0.11  -0.03
    29   1     0.01  -0.04  -0.02    -0.10  -0.05   0.01     0.10   0.00  -0.00
    30   1     0.07   0.00  -0.03    -0.01   0.00  -0.00     0.09   0.01  -0.01
    31   1     0.02   0.03   0.01    -0.07   0.03   0.08     0.06   0.04  -0.06
    32   1     0.01   0.00  -0.04    -0.07   0.02   0.05    -0.02   0.02  -0.12
    33   1    -0.01  -0.01   0.02    -0.08  -0.00   0.06    -0.08  -0.05  -0.02
    34   1     0.05  -0.02   0.01    -0.06  -0.03   0.05     0.05  -0.00  -0.02
    35   1     0.09  -0.13   0.13     0.01  -0.02  -0.02     0.18  -0.24   0.30
    36   1    -0.01  -0.01   0.16     0.03  -0.00  -0.01    -0.23  -0.07   0.32
    37   1     0.09  -0.07  -0.00    -0.01  -0.10  -0.02     0.20   0.30  -0.03
    38   1     0.04  -0.05   0.07     0.05  -0.08   0.03    -0.07   0.17  -0.25
                      7                      8                      9
                      A                      A                      A
 Frequencies --    184.4292               189.0277               229.7812
 Red. masses --      2.0341                 2.5569                 1.7110
 Frc consts  --      0.0408                 0.0538                 0.0532
 IR Inten    --      0.0812                 0.1072                 0.1561
  Atom  AN      X      Y      Z        X      Y      Z        X      Y      Z
     1   8    -0.02  -0.04  -0.05    -0.01  -0.05  -0.02    -0.03   0.00  -0.02
     2   6     0.01  -0.04   0.01     0.02  -0.06   0.02    -0.01   0.00   0.02
     3   6    -0.03  -0.03   0.01    -0.01  -0.06   0.04     0.02  -0.02   0.04
     4   6    -0.03  -0.08  -0.06    -0.11  -0.06   0.15     0.03  -0.10  -0.06
     5   6    -0.03  -0.02  -0.03    -0.11  -0.01   0.05     0.03  -0.09  -0.03
     6   6     0.01   0.04   0.01     0.11   0.07  -0.05     0.09  -0.01   0.04
     7   6    -0.04   0.03   0.07    -0.02   0.11  -0.09     0.00   0.06   0.02
     8   6    -0.02   0.08   0.07    -0.01   0.05  -0.09    -0.01   0.02   0.02
     9   6     0.01   0.02   0.01     0.00   0.02  -0.03    -0.00   0.01   0.00
    10   6    -0.09  -0.04  -0.05     0.08   0.02   0.01    -0.00  -0.02   0.01
    11   6     0.02  -0.02  -0.03    -0.08  -0.03  -0.01    -0.01   0.01   0.01
    12   6     0.15   0.02   0.00     0.05   0.01  -0.02     0.00   0.01  -0.03
    13   6     0.01   0.09   0.03     0.02   0.01   0.00    -0.05   0.02   0.04
    14   6     0.04  -0.00   0.03     0.04  -0.06   0.04    -0.06   0.10  -0.03
    15   1    -0.07  -0.02  -0.00     0.09  -0.12   0.08     0.01   0.02   0.03
    16   1     0.01  -0.04  -0.15    -0.14  -0.09   0.24     0.02  -0.05  -0.16
    17   1    -0.04  -0.17  -0.08    -0.08   0.06   0.17     0.02  -0.20  -0.07
    18   1    -0.01  -0.01  -0.02    -0.21   0.04   0.01     0.06  -0.11  -0.02
    19   1    -0.09  -0.00  -0.03    -0.13   0.01   0.03    -0.02  -0.06  -0.06
    20   1    -0.00   0.12   0.06     0.09   0.20  -0.22     0.05   0.22   0.30
    21   1     0.11   0.02   0.01     0.15   0.05  -0.02     0.40  -0.01  -0.07
    22   1    -0.03   0.02  -0.01     0.28   0.04   0.00    -0.12  -0.16  -0.04
    23   1    -0.03   0.04   0.07     0.08   0.26  -0.02     0.04   0.13   0.06
    24   1    -0.09   0.03   0.08    -0.11   0.17  -0.22    -0.04   0.09  -0.05
    25   1    -0.03   0.10   0.09     0.01   0.01  -0.13     0.00   0.02   0.01
    26   1     0.04  -0.06   0.07    -0.04   0.02  -0.07    -0.19  -0.02  -0.08
    27   1    -0.16   0.13  -0.20     0.14  -0.14   0.12     0.08  -0.22   0.06
    28   1    -0.25  -0.22  -0.07     0.22   0.16   0.01     0.11   0.15   0.04
    29   1     0.18   0.14   0.03    -0.16  -0.09  -0.04    -0.09  -0.09  -0.02
    30   1    -0.19  -0.05   0.06    -0.04  -0.01  -0.06     0.11   0.03  -0.05
    31   1     0.09  -0.19  -0.22    -0.09  -0.02   0.10    -0.05   0.10   0.11
    32   1     0.22  -0.16   0.21     0.07  -0.04   0.02    -0.02   0.08  -0.23
    33   1     0.40   0.10  -0.12     0.10   0.05  -0.03    -0.17  -0.03   0.08
    34   1    -0.03   0.09  -0.08     0.02   0.02  -0.03     0.19   0.00   0.05
    35   1     0.01   0.14   0.03     0.02  -0.03   0.01    -0.02  -0.03   0.07
    36   1     0.05   0.10   0.01     0.05   0.08   0.05    -0.12   0.01   0.07
    37   1     0.00  -0.05   0.02    -0.00  -0.11   0.01    -0.03   0.20   0.04
    38   1     0.11  -0.02   0.05     0.08  -0.08   0.08    -0.09   0.13  -0.15
                     10                     11                     12
                      A                      A                      A
 Frequencies --    245.0697               249.6602               256.2473
 Red. masses --      1.6985                 1.2777                 1.3877
 Frc consts  --      0.0601                 0.0469                 0.0537
 IR Inten    --      0.1561                 0.0251                 0.1179
  Atom  AN      X      Y      Z        X      Y      Z        X      Y      Z
     1   8    -0.02  -0.03  -0.01    -0.00   0.01   0.02     0.02  -0.02  -0.01
     2   6    -0.02  -0.02   0.02    -0.00   0.00   0.01    -0.00  -0.00  -0.02
     3   6    -0.04  -0.01   0.01    -0.01   0.00  -0.00    -0.02   0.00  -0.01
     4   6    -0.06  -0.02  -0.01    -0.04   0.04   0.06     0.03   0.05   0.01
     5   6    -0.08   0.03  -0.00    -0.04  -0.01  -0.06     0.03   0.02  -0.03
     6   6    -0.05   0.04  -0.03    -0.03   0.03  -0.01    -0.04  -0.01   0.00
     7   6    -0.02  -0.04   0.04     0.00  -0.02  -0.01    -0.01  -0.06   0.05
     8   6     0.02   0.01   0.04     0.02  -0.02  -0.01    -0.02   0.02   0.03
     9   6     0.05  -0.01   0.02     0.02  -0.01   0.00    -0.02   0.01  -0.01
    10   6     0.01  -0.06   0.00     0.03   0.01   0.01    -0.02   0.02  -0.01
    11   6     0.13   0.05   0.00     0.06   0.01  -0.00    -0.06  -0.02  -0.01
    12   6     0.06   0.00  -0.02    -0.01  -0.01   0.02     0.06   0.03  -0.06
    13   6     0.01   0.06  -0.06     0.01  -0.01  -0.03     0.01   0.01   0.04
    14   6     0.00  -0.00   0.03     0.00  -0.02   0.01     0.03  -0.02   0.01
    15   1    -0.04  -0.01   0.00     0.01  -0.02   0.01    -0.04  -0.01  -0.02
    16   1    -0.03  -0.01  -0.04    -0.13  -0.01   0.20     0.01   0.02   0.08
    17   1    -0.07  -0.05  -0.02     0.03   0.18   0.10     0.06   0.11   0.03
    18   1    -0.09   0.06  -0.00    -0.09  -0.11  -0.09     0.03  -0.02  -0.03
    19   1    -0.10   0.03   0.01     0.01   0.02  -0.15     0.07   0.02  -0.04
    20   1    -0.04  -0.02  -0.16    -0.08   0.29   0.42    -0.05  -0.01   0.15
    21   1    -0.16   0.02   0.04     0.38   0.07  -0.25     0.02   0.02  -0.07
    22   1     0.06   0.11   0.01    -0.40  -0.24  -0.15    -0.18  -0.07  -0.05
    23   1    -0.06  -0.10   0.01    -0.01  -0.03  -0.02    -0.04  -0.15  -0.02
    24   1     0.01  -0.06   0.10     0.02  -0.02  -0.00     0.03  -0.10   0.15
    25   1     0.03   0.07   0.08     0.03  -0.01  -0.01    -0.06   0.01   0.05
    26   1    -0.07  -0.08   0.01     0.14  -0.00   0.07    -0.29   0.04  -0.19
    27   1     0.05  -0.14  -0.02    -0.02   0.12  -0.02     0.10  -0.27   0.08
    28   1     0.05  -0.03   0.00    -0.03  -0.10  -0.03     0.14   0.30   0.07
    29   1    -0.02  -0.23  -0.04     0.10   0.04   0.01    -0.24  -0.23  -0.07
    30   1     0.46   0.10  -0.15     0.05   0.01   0.02     0.13   0.03  -0.16
    31   1     0.02   0.33   0.19     0.06   0.02  -0.06    -0.13   0.11   0.22
    32   1     0.03   0.08  -0.28    -0.02   0.00   0.05     0.10  -0.10   0.12
    33   1    -0.17  -0.04   0.12     0.00  -0.01   0.01     0.28   0.05  -0.22
    34   1     0.29  -0.02   0.08    -0.04  -0.03   0.01    -0.13   0.13  -0.15
    35   1    -0.08   0.16  -0.12    -0.02   0.03  -0.06     0.03  -0.01   0.06
    36   1     0.11   0.01  -0.16     0.05  -0.02  -0.07     0.01   0.03   0.07
    37   1    -0.05  -0.03   0.03    -0.02  -0.04   0.00     0.04  -0.05  -0.02
    38   1     0.04  -0.01   0.04     0.00  -0.03   0.04     0.05  -0.03   0.04
                     13                     14                     15
                      A                      A                      A
 Frequencies --    260.4365               270.5231               328.1141
 Red. masses --      1.7789                 1.0983                 2.3759
 Frc consts  --      0.0711                 0.0474                 0.1507
 IR Inten    --      0.1775                 0.0109                 0.3643
  Atom  AN      X      Y      Z        X      Y      Z        X      Y      Z
     1   8    -0.04  -0.02   0.03     0.01  -0.01  -0.01     0.01  -0.01  -0.04
     2   6    -0.06  -0.01   0.02     0.01  -0.01  -0.01     0.02   0.01   0.04
     3   6    -0.02  -0.02   0.01    -0.01  -0.00  -0.01    -0.02   0.01   0.06
     4   6    -0.03  -0.04  -0.03    -0.00   0.02   0.01    -0.02  -0.02  -0.02
     5   6    -0.05   0.00  -0.00    -0.00   0.02  -0.01    -0.03   0.01  -0.03
     6   6    -0.01   0.02  -0.01    -0.03   0.01  -0.01    -0.04   0.03  -0.01
     7   6     0.00  -0.05  -0.01     0.00  -0.02   0.01     0.01  -0.03   0.09
     8   6     0.03  -0.04  -0.00    -0.00   0.01   0.01    -0.00   0.03   0.05
     9   6     0.05   0.00   0.00    -0.00   0.00   0.00     0.00   0.01  -0.02
    10   6     0.09   0.08   0.02    -0.03  -0.01  -0.01     0.15   0.01   0.04
    11   6     0.12   0.05  -0.01    -0.01   0.01   0.02    -0.03  -0.14  -0.12
    12   6     0.02   0.01  -0.02     0.03   0.01   0.00    -0.11   0.03  -0.10
    13   6    -0.04  -0.05   0.01     0.01   0.01  -0.01     0.03   0.06   0.05
    14   6    -0.08   0.04  -0.01     0.02  -0.03   0.01     0.05   0.05   0.05
    15   1    -0.00   0.02   0.02    -0.01  -0.02  -0.01    -0.04   0.02   0.04
    16   1    -0.00  -0.02  -0.08    -0.01   0.01   0.05     0.00   0.01  -0.09
    17   1    -0.05  -0.09  -0.04     0.01   0.06   0.02    -0.01  -0.10  -0.02
    18   1    -0.04   0.03   0.00    -0.01   0.01  -0.01    -0.03   0.02  -0.03
    19   1    -0.08   0.00   0.01     0.01   0.02  -0.02    -0.05   0.02  -0.03
    20   1    -0.01   0.00  -0.10    -0.03  -0.01   0.03    -0.04   0.01  -0.00
    21   1    -0.06   0.00   0.04    -0.02   0.02  -0.03    -0.05   0.02  -0.01
    22   1     0.06   0.06   0.02    -0.07  -0.01  -0.02    -0.06   0.04  -0.02
    23   1    -0.01  -0.06  -0.02    -0.01  -0.04  -0.01    -0.02  -0.11   0.03
    24   1     0.01  -0.06   0.01     0.02  -0.03   0.04     0.03  -0.07   0.18
    25   1     0.04  -0.04  -0.01    -0.01   0.01   0.01    -0.05   0.04   0.08
    26   1    -0.07   0.12  -0.16    -0.29   0.01  -0.16     0.27   0.00   0.10
    27   1     0.17  -0.11   0.15     0.09  -0.27   0.06     0.11   0.07   0.19
    28   1     0.23   0.32   0.08     0.11   0.24   0.07     0.23  -0.06  -0.06
    29   1     0.28   0.22   0.05     0.18   0.33   0.08     0.08  -0.17  -0.07
    30   1    -0.02   0.01   0.12    -0.32  -0.05   0.23    -0.24  -0.12  -0.23
    31   1     0.17  -0.04  -0.21     0.09  -0.22  -0.24     0.04  -0.34  -0.19
    32   1     0.05  -0.07   0.28     0.01   0.07  -0.29    -0.17   0.19  -0.21
    33   1     0.27   0.03  -0.21    -0.20  -0.02   0.18    -0.26  -0.12  -0.12
    34   1    -0.26   0.07  -0.14     0.31  -0.04   0.12    -0.08   0.06  -0.09
    35   1    -0.04  -0.11   0.02    -0.00   0.02  -0.02     0.04   0.09   0.05
    36   1    -0.11  -0.07   0.03     0.04   0.01  -0.02     0.04   0.05   0.04
    37   1    -0.04   0.14   0.05     0.01  -0.07  -0.02     0.04   0.07   0.07
    38   1    -0.12   0.08  -0.11     0.05  -0.05   0.05     0.05   0.06   0.02
                     16                     17                     18
                      A                      A                      A
 Frequencies --    338.1504               347.1805               380.5922
 Red. masses --      2.2202                 2.4476                 2.4396
 Frc consts  --      0.1496                 0.1738                 0.2082
 IR Inten    --      0.2181                 0.0517                 1.5475
  Atom  AN      X      Y      Z        X      Y      Z        X      Y      Z
     1   8    -0.06  -0.10   0.01    -0.02  -0.10  -0.04     0.03   0.06   0.07
     2   6    -0.08  -0.07   0.01    -0.03  -0.07  -0.01    -0.04   0.05  -0.10
     3   6    -0.02  -0.05  -0.00    -0.01  -0.04  -0.00    -0.03   0.04  -0.11
     4   6     0.06   0.02   0.01     0.10   0.06   0.02    -0.05   0.03  -0.01
     5   6     0.06   0.05  -0.02     0.12   0.06  -0.01    -0.02  -0.09   0.05
     6   6    -0.05  -0.00  -0.01    -0.03  -0.03   0.01     0.12  -0.05   0.04
     7   6     0.00  -0.04  -0.02    -0.05   0.13  -0.01    -0.04  -0.07   0.01
     8   6    -0.00   0.03  -0.04    -0.05   0.06   0.00    -0.05   0.06   0.00
     9   6     0.02   0.06  -0.04    -0.02  -0.00   0.01    -0.03   0.05  -0.02
    10   6     0.10   0.06  -0.01     0.03  -0.09   0.05     0.06  -0.07   0.04
    11   6    -0.06   0.04  -0.01     0.11   0.01  -0.06     0.03   0.03  -0.09
    12   6     0.14   0.05   0.02    -0.08  -0.01   0.03     0.01   0.04   0.05
    13   6    -0.05  -0.03   0.07    -0.07   0.07   0.01    -0.04   0.03   0.06
    14   6    -0.07  -0.00   0.00    -0.03  -0.05   0.00    -0.01  -0.06  -0.06
    15   1    -0.00  -0.01   0.01    -0.03  -0.03  -0.01    -0.07  -0.03  -0.13
    16   1     0.09  -0.01   0.06     0.13   0.00   0.11    -0.11   0.03   0.03
    17   1     0.10   0.04   0.03     0.16   0.11   0.05    -0.11   0.12  -0.03
    18   1     0.06   0.03  -0.02     0.14   0.04  -0.00    -0.01  -0.09   0.06
    19   1     0.08   0.04  -0.01     0.17   0.04   0.01     0.00  -0.09   0.04
    20   1    -0.03  -0.11   0.06    -0.00  -0.17   0.09     0.10   0.10  -0.06
    21   1    -0.12   0.02  -0.03    -0.12   0.01  -0.02     0.21  -0.07   0.06
    22   1    -0.12   0.01  -0.03    -0.11  -0.01  -0.02     0.22  -0.08   0.07
    23   1     0.03  -0.08  -0.08     0.06   0.32   0.10    -0.11  -0.27  -0.12
    24   1    -0.01  -0.06   0.04    -0.21   0.21  -0.19     0.02  -0.16   0.23
    25   1    -0.02  -0.00  -0.06     0.01   0.08  -0.01    -0.08   0.06   0.02
    26   1     0.37   0.04   0.14    -0.09  -0.11   0.09     0.02  -0.12   0.17
    27   1    -0.01   0.32  -0.02     0.08  -0.23   0.12     0.08  -0.15   0.11
    28   1     0.01  -0.19  -0.12     0.16  -0.04  -0.01     0.19  -0.12  -0.08
    29   1    -0.14   0.04  -0.05     0.25  -0.04   0.00     0.13  -0.02  -0.04
    30   1    -0.07   0.04  -0.02     0.13   0.02  -0.10     0.02   0.04  -0.15
    31   1    -0.06   0.01   0.08     0.10   0.07  -0.21     0.04   0.04  -0.18
    32   1     0.15   0.02  -0.22    -0.09   0.02   0.17     0.02   0.02   0.05
    33   1    -0.02   0.12   0.21    -0.01  -0.01  -0.03     0.00   0.11   0.12
    34   1     0.40  -0.01   0.13    -0.21  -0.04  -0.02     0.05  -0.03   0.08
    35   1     0.02  -0.17   0.14    -0.06   0.09   0.01     0.07  -0.08   0.15
    36   1    -0.16   0.04   0.19    -0.03   0.09   0.00    -0.14   0.10   0.19
    37   1    -0.04   0.06   0.03    -0.09  -0.14  -0.04     0.03  -0.21  -0.19
    38   1    -0.05   0.02  -0.07     0.07  -0.09   0.07     0.08  -0.12   0.10
                     19                     20                     21
                      A                      A                      A
 Frequencies --    396.0647               442.5254               459.0412
 Red. masses --      2.2905                 2.6272                 3.6364
 Frc consts  --      0.2117                 0.3031                 0.4515
 IR Inten    --      0.7672                 0.3435                 2.8212
  Atom  AN      X      Y      Z        X      Y      Z        X      Y      Z
     1   8     0.00  -0.01  -0.04    -0.04   0.02   0.04    -0.04  -0.15  -0.05
     2   6     0.03   0.01   0.07     0.01  -0.03   0.02    -0.11  -0.01   0.07
     3   6     0.02  -0.00   0.06     0.03  -0.03  -0.01    -0.12   0.09  -0.08
     4   6    -0.00  -0.03  -0.00     0.01  -0.02   0.01    -0.02   0.13  -0.04
     5   6    -0.02   0.02  -0.03    -0.00   0.02  -0.01     0.05  -0.05   0.05
[...]
 00115123,-0.00010565,-0.00003622,-0.00005731,0.00093232,-0.00103873,-0
 .00002815,0.00032102,-0.00017980,0.00037280,-0.00016391,-0.00001194,-0
 .00009186,0.00006686,0.00014109,0.00015538,0.00004513,0.00005562,-0.00
 032056,-0.00009510,0.00014532,0.00010538,-0.01255881,0.02362562,0.0082
 1866,-0.00413078,0.00569176,0.00089440,0.11432848,0.00014139,0.0002657
 8,-0.00004021,0.00004526,-0.00060879,0.00018121,0.00003959,0.00083508,
 -0.00004393,0.00006727,-0.00006668,-0.00005821,-0.00005071,0.00002060,
 0.00002086,0.00003297,-0.00000953,-0.00000012,0.00033251,-0.00082774,0
 .00056119,0.00104596,-0.00018006,0.00039560,0.01348618,-0.02079642,-0.
 00626302,-0.00492342,-0.00385104,0.00187583,0.00120879,0.00078871,-0.0
 0132179,0.10244536,-0.24198752,-0.05541526,-0.00013182,0.00012889,-0.0
 0004300,-0.00009222,0.00008213,-0.00001543,-0.00003401,0.00000127,-0.0
 0003046,0.00000378,0.00003887,-0.00002600,-0.00002418,0.00002505,0.000
 04264,-0.00000521,0.00000127,-0.00000260,0.00001563,0.00000218,0.00000
 766,0.00000148,-0.00000404,0.00001937,-0.00000284,0.00000152,-0.000003
 07,-0.00000748,0.00000629,0.00000457,-0.00005982,0.00004981,-0.0000230
 0,0.00048991,0.00146810,-0.00029741,-0.00005957,0.00001062,0.00007546,
 0.00095296,-0.00169647,-0.00039505,-0.00016262,0.00041479,0.00008253,-
 0.00005894,0.00026910,-0.00016303,-0.00070803,0.00045311,0.00089694,-0
 .00020165,0.00042407,-0.00008217,-0.00003188,-0.00007864,0.00009678,0.
 00101624,-0.00122695,-0.00005288,-0.00116433,0.00222979,0.00014241,-0.
 11365881,0.26361865,0.00014204,0.00014418,-0.00003293,-0.00006119,-0.0
 0034006,0.00009784,0.00011303,0.00040577,-0.00007375,-0.00003029,-0.00
 013106,-0.00004043,-0.00001789,0.00004320,-0.00000720,0.00001784,-0.00
 001422,-0.00000540,-0.00057847,-0.00088515,0.00031586,0.00033049,-0.00
 055965,-0.00019039,-0.00360589,0.00549622,-0.00005863,0.00049010,0.001
 32223,-0.00027330,-0.00070837,0.00086732,0.00059313,0.03007374,-0.0557
 4131,-0.06572959,-0.00021474,0.00013931,0.00007219,0.00000272,0.000001
 34,-0.00002893,0.00000160,-0.00000978,0.00000669,0.00000648,0.00006274
 ,-0.00003267,-0.00000592,0.00002280,0.00001943,-0.00000292,-0.00000343
 ,0.00000141,0.00002009,0.00000117,0.00001396,0.00000426,-0.00000070,0.
 00001567,-0.00000238,0.00000473,-0.00000561,-0.00000540,0.00000670,0.0
 0000337,0.00017865,0.00014119,-0.00006271,-0.00102257,0.00048461,-0.00
 022301,-0.00001534,-0.00003338,0.00011749,-0.00004399,0.00046464,0.000
 67393,0.00038354,-0.00011324,0.00003477,-0.00010839,0.00033690,0.00030
 740,0.00031685,0.00000831,0.00007153,-0.00013146,-0.00021263,0.0000313
 1,-0.00010496,0.00008653,-0.00005112,-0.00800007,0.01649568,0.00486049
 ,0.01523167,-0.02836809,-0.00660068,-0.03266926,0.05981220,0.06620417,
 -0.00178750,0.00175997,0.00081249,-0.00095369,-0.00452834,-0.00397870,
 -0.00014619,0.00013795,0.00052096,-0.00002733,-0.00007904,0.00015237,-
 0.00001491,-0.00004212,-0.00001406,-0.00000001,0.00001345,0.00002185,-
 0.00265915,-0.00289495,0.00026523,0.01243933,-0.01692478,-0.00240597,0
 .00073288,0.00045339,-0.00032312,-0.00187516,-0.00009242,-0.00105969,-
 0.00000106,0.00006209,-0.00007781,0.00013564,0.00005097,0.00026642,-0.
 12151672,0.11832497,0.01713324,-0.01467062,0.02137437,-0.00095274,0.00
 007097,0.00010844,0.00010503,0.00003227,0.00006045,-0.00006857,-0.0000
 1792,-0.00000372,-0.00003298,0.00000213,-0.00000353,0.00000827,0.00003
 130,0.00001939,0.00005839,-0.00000431,0.00000210,-0.00000904,0.0000105
 3,0.00000957,-0.00001252,0.00000575,-0.00000476,-0.00000459,-0.0000349
 6,-0.00003753,-0.00017000,0.00086126,-0.00124111,-0.00004500,0.0007218
 9,0.00082902,-0.00003368,-0.00272912,-0.00048288,-0.00098455,-0.000010
 00,-0.00016943,0.00008150,-0.00004714,0.00010865,0.00011398,-0.0000259
 7,-0.00001313,0.00007445,-0.00000975,0.00003826,-0.00000720,0.00003910
 ,0.00002717,-0.00003191,0.00004285,0.00007481,0.00000805,0.00000064,-0
 .00002486,0.00000390,0.00004405,0.00010270,0.00001964,0.13719173,0.000
 06462,0.00002595,0.00013538,-0.00055011,0.00086332,-0.00027544,-0.0004
 3930,0.00063314,-0.00019786,0.00012652,-0.00005086,-0.00006303,-0.0000
 8554,0.00000488,0.00002904,0.00006190,-0.00001072,-0.00000257,-0.00544
 351,-0.00358563,0.00116010,0.01437953,-0.02174187,-0.00364007,0.001410
 94,-0.00042102,0.00038082,0.00064667,-0.00051568,0.00080055,-0.0002971
 1,0.00001788,-0.00012905,-0.00006395,0.00017200,0.00003553,0.11658739,
 -0.23565213,-0.02163112,-0.00034614,0.00155787,-0.00006832,0.00012328,
 0.00004844,0.00007301,0.00000523,0.00003107,-0.00004365,-0.00002356,0.
 00001397,0.00000938,-0.00000115,0.00000261,0.00000248,0.00002255,0.000
 00426,0.00000965,0.00000229,-0.00000785,0.00003599,-0.00000817,-0.0000
 0024,-0.00000334,-0.00001404,0.00000931,0.00000747,-0.00005425,0.00034
 151,-0.00005969,0.00115888,-0.00171756,-0.00009326,0.00004109,0.000981
 32,0.00044013,0.00045278,0.00139956,-0.00052144,0.00029712,0.00073059,
 0.00001949,-0.00022743,-0.00009203,0.00009238,0.00000301,0.00016360,0.
 00018522,0.00008371,-0.00005981,-0.00011295,-0.00004877,0.00000589,-0.
 00010951,-0.00014833,0.00003081,-0.00005521,0.00004898,-0.00002011,-0.
 00000394,0.00009159,0.00021703,0.00007259,-0.12766608,0.25506141,-0.00
 230420,0.00178361,0.00089426,-0.00172218,-0.00346733,-0.00373787,0.000
 14482,-0.00015450,0.00022556,-0.00006723,-0.00002492,0.00019330,0.0000
 0963,-0.00002972,-0.00001886,-0.00001057,0.00001702,0.00001456,0.00044
 747,0.00021149,0.00021347,-0.00180600,0.00378895,-0.00061129,0.0003166
 7,-0.00063666,0.00015186,-0.00076745,-0.00064314,0.00047232,-0.0001931
 8,-0.00003970,-0.00004928,-0.00017244,0.00009969,-0.00002338,0.0167167
 0,-0.02181904,-0.05250682,-0.01542741,0.02247488,-0.00073760,0.0000241
 9,0.00010387,0.00004373,0.00003201,0.00003870,-0.00003424,0.00000503,-
 0.00001632,-0.00003583,0.00000771,-0.00000835,0.00000697,0.00001045,0.
 00001082,0.00003935,0.00000042,-0.00000009,-0.00000787,0.00000661,0.00
 000312,-0.00000832,0.00000742,-0.00000533,-0.00000968,-0.00026205,0.00
 037150,0.00035786,-0.00002801,0.00012278,0.00058940,-0.00054260,-0.000
 02831,0.00024425,-0.00115132,0.00026729,-0.00027392,0.00013086,0.00016
 644,-0.00014478,0.00021281,0.00011553,-0.00018478,0.00007529,0.0001784
 1,0.00006313,0.00019686,-0.00007597,-0.00003552,-0.00006237,0.00000306
 ,-0.00001896,-0.00001698,-0.00004165,-0.00001810,0.00001695,0.00001855
 ,-0.00002041,0.00001938,0.00005940,-0.00001658,-0.01185928,0.02342792,
 0.05536184,-0.00017672,-0.00031338,0.00033387,0.00174901,-0.00062263,-
 0.00048023,-0.00000914,-0.00000977,-0.00023774,0.00001224,0.00007481,0
 .00005870,-0.00003438,-0.00006901,-0.00003714,0.00001955,0.00000664,0.
 00000592,0.00025975,0.00141328,-0.00043410,-0.00983358,-0.00060229,0.0
 1926182,0.00063221,0.00034936,0.00132619,-0.00025803,-0.00005763,-0.00
 016276,-0.00051433,-0.00097690,0.00012689,-0.00004497,-0.00007716,-0.0
 0026321,-0.09416347,0.00135835,0.09813499,0.00925301,0.00025589,-0.024
 44486,0.00007776,0.00001914,0.00005275,-0.00000736,0.00006106,0.000016
 74,-0.00006111,-0.00007186,-0.00003805,0.00002573,0.00001395,0.0000101
 9,0.00004824,0.00000625,0.00000932,0.00000266,-0.00000256,0.00000813,-
 0.00000069,0.00000967,-0.00000592,-0.00001230,-0.00000452,0.00000291,0
 .00065235,-0.00039807,-0.00034310,-0.00002949,0.00006250,-0.00027557,-
 0.00191149,-0.00383664,-0.00007385,-0.00003829,0.00008739,0.00016144,-
 0.00011206,-0.00000631,-0.00009073,0.00030476,-0.00002622,-0.00016557,
 0.00006148,0.00006614,-0.00006763,-0.00042817,0.00027331,-0.00136742,0
 .00030112,0.00037189,-0.00015003,-0.00007914,-0.00003999,-0.00011158,0
 .00017691,0.00014538,-0.00017681,0.00000818,-0.00002978,-0.00000030,-0
 .00760785,-0.00042706,0.01651693,0.10389158,-0.00019558,0.00016021,-0.
 00015922,-0.00026146,-0.00027221,0.00074513,0.00012223,-0.00013946,-0.
 00021339,-0.00007195,0.00016125,0.00014987,0.00005616,-0.00004979,-0.0
 0008303,-0.00001380,0.00000732,-0.00000251,-0.00061237,0.00178997,0.00
 140807,-0.01172791,-0.00116452,0.02549437,0.00063783,0.00063755,0.0002
 9188,0.00008286,-0.00002458,0.00002059,-0.00015063,0.00017722,-0.00030
 432,0.00002080,-0.00001390,0.00006319,0.00176083,-0.05258353,0.0015906
 8,-0.00033831,-0.00002307,0.00021958,0.00005978,-0.00001917,0.00004262
 ,-0.00001326,0.00004789,-0.00003526,0.00002394,-0.00010081,-0.00011544
 ,0.00002657,-0.00000878,0.00002191,0.00001358,0.00000340,0.00002181,0.
 00000251,0.00000056,-0.00000629,0.00000063,0.00000520,-0.00000180,-0.0
 0000150,-0.00000465,-0.00000551,0.00036092,-0.00036670,-0.00063552,0.0
 0004666,0.00031458,-0.00037187,-0.00348400,-0.00422692,0.00078654,-0.0
 0004493,0.00004639,-0.00014731,0.00002042,0.00010253,0.00002233,-0.000
 01636,-0.00014248,0.00005247,-0.00006170,-0.00015984,-0.00010852,-0.00
 031377,0.00016428,-0.00040536,0.00011863,0.00002014,-0.00005349,-0.000
 01832,-0.00001251,-0.00013311,0.00012285,0.00007898,-0.00012241,0.0000
 0633,-0.00003132,-0.00002585,0.01140668,0.00093935,-0.02626893,0.00257
 972,0.05355979,-0.00126807,0.00034433,0.00034350,0.00205960,-0.0014974
 7,-0.00047421,-0.00020659,0.00023535,-0.00032065,0.00023414,-0.0001032
 1,-0.00005592,-0.00002427,-0.00001920,0.00006696,0.00001319,-0.0000081
 2,0.00001014,-0.00003806,-0.00063595,0.00011494,0.00264862,0.00087555,
 -0.00285736,-0.00026113,0.00032050,-0.00042992,0.00011124,0.00007068,0
 .00011494,-0.00061070,0.00016760,-0.00093887,0.00018911,-0.00005012,0.
 00008522,0.09791372,0.00116107,-0.25551338,0.00710034,0.00067317,-0.02
 137868,0.00000181,0.00012449,-0.00002445,-0.00001637,0.00010220,0.0000
 0532,-0.00014993,0.00007499,0.00010427,-0.00001643,0.00003103,-0.00001
 027,0.00004171,-0.00000538,0.00001063,-0.00000895,0.00000357,-0.000007
 84,0.00000740,0.00001134,-0.00000387,-0.00000770,0.00000034,0.00001401
 ,-0.00033191,0.00062837,0.00040322,-0.00015049,0.00007565,0.00034479,0
 .00012236,0.00057718,0.00106344,0.00007251,0.00001994,-0.00006171,0.00
 006321,0.00002712,0.00002484,-0.00008897,-0.00000994,0.00005412,0.0000
 4348,0.00002453,0.00002501,-0.00125543,-0.00104052,-0.00047826,-0.0002
 4763,-0.00023646,0.00023483,0.00006779,0.00007803,0.00000381,-0.000022
 75,-0.00001575,0.00008559,-0.00000260,0.00002607,0.,0.00131127,-0.0006
 3555,-0.00242505,-0.10345878,-0.00132643,0.28325381,-0.00115429,0.0037
 7043,-0.00335051,-0.01064045,-0.00028391,0.01737209,0.00012924,0.00029
 333,-0.00118061,0.00007757,0.00006788,0.00038140,0.00011663,0.00016557
 ,-0.00004573,-0.00002932,-0.00002682,-0.00002308,-0.00014452,-0.000281
 30,0.00002832,0.00170541,0.00053118,-0.00045120,0.00006099,0.00032658,
 -0.00014367,0.00004888,0.00002740,0.00001480,-0.00004385,0.00010364,-0
 .00015965,0.00004607,-0.00003266,0.00010294,0.00901658,-0.00333120,-0.
 02532827,-0.08852882,0.00966575,0.10170668,-0.00008160,-0.00007896,-0.
 00012157,0.00012703,-0.00014298,-0.00017170,0.00041685,-0.00037644,-0.
 00012261,-0.00001359,-0.00013269,0.00000304,-0.00022644,0.00000424,0.0
 0002167,0.00000048,0.00000379,-0.00000302,-0.00001071,-0.00003272,0.00
 001558,0.00004136,0.00001007,-0.00003098,-0.00009996,0.00008829,0.0000
 1619,0.00000086,0.00001494,-0.00002059,-0.00022527,-0.00002016,0.00043
 473,0.00001180,0.00000966,-0.00003924,0.00001785,0.00001271,0.00002460
 ,-0.00005357,-0.00000348,0.00002859,-0.00000278,-0.00000341,0.00001693
 ,-0.00004281,-0.00011791,0.00013489,-0.00005347,-0.00008838,0.00002945
 ,0.00003275,0.00003548,0.00000499,-0.00002009,-0.00002127,0.00000864,-
 0.00000339,0.00001561,0.00000146,0.00157500,-0.00009404,0.00090160,-0.
 00335840,-0.00036047,-0.00387933,0.09939497,0.00263984,-0.00288072,0.0
 0359913,0.01170397,0.00177126,-0.02903833,-0.00132222,-0.00020778,0.00
 350298,0.00004772,-0.00201465,-0.00049665,-0.00007219,0.00002470,0.000
 23308,-0.00000074,-0.00001851,0.00002282,0.00033236,0.00011524,0.00013
 102,0.00036908,0.00003879,-0.00097985,-0.00008484,0.00003958,0.0000788
 7,-0.00000627,0.00003014,-0.00000758,0.00003894,-0.00004199,0.00001893
 ,0.00002036,-0.00002363,-0.00000535,-0.00081010,0.00054386,0.00133567,
 0.01100868,-0.05443407,-0.02918963,0.00018399,0.00034980,0.00027926,-0
 .00020547,0.00005784,0.00048582,-0.00056296,-0.00058799,0.00043302,-0.
 00006370,0.00011947,-0.00008131,0.00014603,-0.00001860,-0.00004113,-0.
 00001311,0.00002656,-0.00001747,0.00000791,0.00001825,-0.00001257,-0.0
 0001033,0.00000129,0.00005077,-0.00000628,0.00009039,0.00005412,0.0000
 2987,-0.00002506,-0.00000600,-0.00024846,0.00005329,0.00001665,-0.0000
 0790,-0.00002163,0.00003495,0.00000835,-0.00002239,-0.00000146,0.00000
 552,0.00002199,-0.00001395,-0.00000151,-0.00000095,-0.00000780,-0.0000
 0879,0.00001478,-0.00000415,0.00001332,0.00000180,0.00002050,0.0000142
 4,0.00000689,0.00001695,-0.00001911,-0.00000324,0.00000601,-0.00000542
 ,-0.00000450,-0.00000160,-0.00054788,0.00019041,0.00041700,0.00049628,
 0.00100422,0.00033793,-0.01301402,0.05188293,-0.00078978,-0.00052002,-
 0.00075352,0.00090960,-0.00033938,0.00088883,0.00067112,-0.00074281,-0
 .00057630,0.00075495,0.00048671,-0.00052435,0.00006272,0.00008464,0.00
 028259,-0.00001179,-0.00002412,-0.00001526,-0.00021533,-0.00004854,-0.
 00007184,0.00164289,0.00074136,0.00043809,-0.00021899,0.00011243,0.000
 18789,0.00003601,0.00007193,-0.00008705,0.00014690,0.00021202,-0.00009
 169,-0.00003173,-0.00000104,0.00000158,0.00810694,-0.00238337,-0.02453
 639,0.09716007,-0.02318743,-0.24674801,-0.00006156,-0.00011982,0.00002
 694,-0.00022852,0.00034265,-0.00002052,-0.00043387,0.00057869,0.000530
 22,-0.00005557,0.00003220,-0.00003454,-0.00000073,-0.00011444,-0.00004
 931,-0.00000811,0.00000324,-0.00001288,-0.00000088,-0.00000460,0.00001
 220,-0.00000347,0.00000432,0.00001567,-0.00003259,0.00017208,0.0001329
 1,0.00000621,-0.00006433,0.00001229,-0.00073882,-0.00065104,0.00065198
 ,0.00003260,-0.00006081,-0.00000907,-0.00001898,-0.00001551,0.00003421
 ,-0.00006471,-0.00000982,0.00005522,-0.00000758,-0.00000762,0.00001670
 ,-0.00003933,-0.00017033,0.00015669,-0.00008181,-0.00008188,0.00007866
 ,-0.00000433,-0.00000334,0.00000438,-0.00002788,-0.00001732,0.00002530
 ,0.00000216,0.00000634,-0.00000248,0.00045256,0.00039900,0.00134893,-0
 .00449693,-0.00001916,-0.00221658,-0.10414107,0.02536423,0.27465159,0.
 00178058,-0.00107357,0.00012505,0.01131789,0.01551565,-0.00316824,-0.0
 0214521,0.00258936,0.00049538,-0.00018047,0.00004792,0.00030255,0.0000
 1383,-0.00005537,-0.00003415,-0.00000129,0.00000584,0.00000142,-0.0002
 7563,0.00021934,-0.00008674,-0.00248630,0.00200386,-0.00426504,-0.0000
 1240,-0.00147408,0.00056118,0.00007421,-0.00016363,-0.00000780,-0.0001
 7136,-0.00000371,0.00008449,-0.00035280,0.00021564,-0.00039539,-0.0134
 9246,-0.01715622,0.00427295,-0.15527067,-0.13136045,0.02430341,0.00056
 068,0.00087159,0.00008976,0.00004928,-0.00000626,-0.00006277,0.0000753
 2,-0.00010463,-0.00012491,0.00003505,-0.00001486,0.00003130,0.00001178
 ,-0.00000227,0.00001631,0.00000485,-0.00000330,0.00000162,0.00000025,0
 .00000532,-0.00000324,-0.00000315,-0.00000252,-0.00000970,0.00006071,-
 0.00005588,0.00000113,0.00005933,-0.00012065,0.00001741,0.00029752,0.0
 0042050,-0.00004346,0.00003139,0.00003634,-0.00000702,-0.00005625,0.00
 003042,-0.00002182,0.00001020,0.00000442,0.00001845,0.00001780,-0.0000
 1697,-0.00001445,0.00003998,0.00002746,-0.00000191,-0.00000953,0.00000
 105,-0.00009885,-0.00014766,-0.00016939,0.00000814,0.00001540,0.000011
 78,0.00002882,0.00002040,-0.00003625,-0.00000439,0.00020205,0.00033043
 ,0.00059344,0.00120442,0.00021640,0.00004458,-0.00808701,-0.01005516,0
 .00172964,0.16680923,-0.00007922,0.00611036,-0.00092361,-0.02219249,-0
 .02717853,0.00509655,0.00491254,-0.00298203,-0.00063367,0.00028680,0.0
 0019906,-0.00054612,-0.00015569,-0.00005676,-0.00002800,0.00007786,0.0
 0000961,0.00001995,0.00045582,0.00036352,0.00043681,0.00062643,0.00086
 077,0.00023981,0.00019129,0.00015640,0.00017213,-0.00003174,0.00000199
 ,-0.00004522,-0.00002920,-0.00003359,-0.00001135,0.00003968,-0.0000108
 9,-0.00001511,0.00172946,0.00234841,-0.00111536,-0.12703287,-0.2044312
 0,0.02991891,-0.00078702,-0.00150475,-0.00001528,-0.00011748,0.0000344
 7,0.00009838,-0.00007215,0.00015015,0.00012509,-0.00001245,0.00002441,
 -0.00000581,0.00002478,0.00003009,0.00002045,0.00000391,-0.00001719,0.
 00004728,-0.00000053,0.00000735,-0.00000876,-0.00001797,0.00000176,0.0
 0000621,-0.00002512,-0.00001799,-0.00008137,-0.00011534,0.00003097,-0.
 00005410,-0.00001183,-0.00004122,0.00006886,0.00000446,-0.00000184,0.0
 0000825,-0.00001969,0.00000928,0.00000147,-0.00000086,-0.00000210,0.00
 000369,-0.00000191,0.00000627,0.00001935,0.00000358,0.00001807,-0.0000
 0052,-0.00000029,0.00001152,-0.00000607,0.00000640,0.00001867,0.000000
 63,0.00000707,-0.00000301,-0.00000005,0.00000271,0.00001698,0.00001977
 ,-0.00020784,0.00042936,-0.00042008,-0.00007923,0.00012341,-0.00040689
 ,0.00329626,0.00390224,-0.00002510,0.13932189,0.22141597,-0.00082666,0
 .00022948,-0.00118078,0.00065272,-0.00279359,-0.00039152,0.00006830,-0
 .00011164,0.00108219,0.00012740,-0.00030442,-0.00001691,0.00002180,0.0
 0005195,0.00009994,-0.00002167,-0.00001986,0.00000368,-0.00007223,0.00
 048310,-0.00003108,-0.00276073,0.00162135,-0.00367091,-0.00047621,-0.0
 0127008,0.00073939,0.00008651,-0.00012559,-0.00003306,-0.00000891,-0.0
 0001723,0.00015672,-0.00036922,0.00016330,-0.00039612,-0.01481798,-0.0
 1965616,0.00355442,0.02387920,0.03030555,-0.05565582,0.00012820,0.0000
 5356,0.00017129,-0.00014060,0.00015164,0.00007864,-0.00031194,-0.00001
 090,0.00023954,-0.00004618,0.00001918,-0.00003434,0.00003865,-0.000018
 21,0.00000595,-0.00000781,0.00001588,-0.00001944,0.00000316,0.00000748
 ,0.00000046,0.00000415,0.00000075,0.00001822,0.00003078,-0.00003851,-0
 .00001418,0.00008321,-0.00008535,0.00005170,-0.00025505,-0.00002347,0.
 00030733,0.00002037,0.00002958,0.00000776,-0.00004277,0.00002320,-0.00
 000434,-0.00000733,0.00001076,0.00001274,0.00000755,-0.00001495,-0.000
 01754,0.00002701,0.00004036,-0.00002004,-0.00000194,0.00001299,-0.0000
 3809,-0.00014302,-0.00016610,0.00001071,0.00000804,0.00001872,0.000019
 06,0.00001881,-0.00003041,-0.00000520,0.00066180,0.00032990,0.00069834
 ,0.00085551,-0.00038632,0.00083363,0.01796425,0.02346513,-0.00380311,-
 0.02437714,-0.03196106,0.05724079\\0.00000033,-0.00001026,0.00001647,-
 0.00005673,-0.00006507,-0.00005734,0.00003092,-0.00004377,0.00001764,-
 0.00003989,-0.00000631,-0.00001236,0.00002918,0.00005344,0.00003767,-0
 .00001171,-0.00002216,-0.00001598,-0.00003654,0.00002508,-0.00006229,0
 .00002219,0.00004702,0.00000940,-0.00000277,-0.00001092,0.00000318,-0.
 00001431,0.00000636,0.00000298,0.00001576,-0.00001189,-0.00001728,0.00
 001521,-0.00001835,0.00002060,0.00003905,0.00004943,0.00003629,0.00001
 801,0.00001024,-0.00000635,-0.00000199,-0.00000053,-0.00001598,0.00000
 460,0.00001256,0.00001314,-0.00000688,0.00000639,0.00000388,-0.0000066
 8,0.00000946,0.00000860,-0.00001018,0.00000114,-0.00002009,-0.00000053
 ,0.00000103,-0.00000658,0.00000143,0.00000326,0.00000934,0.00000943,-0
 .00000329,-0.00000649,0.00000972,0.00000961,0.00001057,-0.00003149,-0.
 00000592,-0.00000960,0.00000059,0.00000074,0.00000966,-0.00001408,-0.0
 0003015,-0.00000899,-0.00000489,-0.00001198,-0.00000210,-0.00000656,0.
 00000356,-0.00000389,-0.00001094,0.00001400,-0.00000035,0.00000080,0.0
 0000085,-0.00000155,0.00000205,0.00000498,0.00000784,0.00001299,-0.000
 00334,0.00000698,0.00000474,0.00000624,-0.00000577,0.00000905,-0.00000
 621,0.00000206,0.00004087,-0.00001818,0.00001434,-0.00000401,0.0000080
 7,0.00000437,-0.00000646,-0.00000377,0.00000692,-0.00000027,-0.0000013
 6,0.00001105\\\@


 WHAT, THEN, IS TIME?  IF NO ONE ASKS ME, I KNOW WHAT IT IS.
 IF I WISH TO EXPLAIN WHAT IT IS TO HIM WHO ASKS ME, I DO NOT KNOW.
                                   -- ST. AUGUSTINE (FIFTH CENTURY)
 Job cpu time:       0 days  0 hours  4 minutes 46.3 seconds.
 Elapsed time:       0 days  0 hours  4 minutes 53.8 seconds.
 File lengths (MBytes):  RWF=    297 Int=      0 D2E=      0 Chk=     16 Scr=      1
 Normal termination of Gaussian 16 at Sat Feb 24 02:00:36 2024.
