 Entering Gaussian System, Link 0=g16
 Input=/Volumes/SSD-PMU3/b3lyp_6-31gd_freq/CSLWOZKAVGVFFY-FIRGSJFUSA-N_calculating/gaussianinput1.gjf
 Output=/Volumes/SSD-PMU3/b3lyp_6-31gd_freq/CSLWOZKAVGVFFY-FIRGSJFUSA-N_calculating/gaussianinput1.log
 Initial command:
 /Applications/g16/l1.exe "/Users/macmini_m1_2022/PycharmProjects/sphere_model/sphere_model_lib/Gau-84071.inp" -scrdir="/Users/macmini_m1_2022/PycharmProjects/sphere_model/sphere_model_lib/"
 Entering Link 1 = /Applications/g16/l1.exe PID=     84072.
  
 Copyright (c) 1988,1990,1992,1993,1995,1998,2003,2009,2016,
            Gaussian, Inc.  All Rights Reserved.
  
 This is part of the Gaussian(R) 16 program.  It is based on
 the Gaussian(R) 09 system (copyright 2009, Gaussian, Inc.),
 the Gaussian(R) 03 system (copyright 2003, Gaussian, Inc.),
 the Gaussian(R) 98 system (copyright 1998, Gaussian, Inc.),
 the Gaussian(R) 94 system (copyright 1995, Gaussian, Inc.),
 the Gaussian 92(TM) system (copyright 1992, Gaussian, Inc.),
 the Gaussian 90(TM) system (copyright 1990, Gaussian, Inc.),
 the Gaussian 88(TM) system (copyright 1988, Gaussian, Inc.),
 the Gaussian 86(TM) system (copyright 1986, Carnegie Mellon
 University), and the Gaussian 82(TM) system (copyright 1983,
 Carnegie Mellon University). Gaussian is a federally registered
 trademark of Gaussian, Inc.
  
 This software contains proprietary and confidential information,
 including trade secrets, belonging to Gaussian, Inc.
  
 This software is provided under written license and may be
 used, copied, transmitted, or stored only in accord with that
 written license.
  
 The following legend is applicable only to US Government
 contracts under FAR:
  
                    RESTRICTED RIGHTS LEGEND
  
 Use, reproduction and disclosure by the US Government is
 subject to restrictions as set forth in subparagraphs (a)
 and (c) of the Commercial Computer Software - Restricted
 Rights clause in FAR 52.227-19.
  
 Gaussian, Inc.
 340 Quinnipiac St., Bldg. 40, Wallingford CT 06492
  
  
 ---------------------------------------------------------------
 Warning -- This program may not be used in any manner that
 competes with the business of Gaussian, Inc. or will provide
 assistance to any competitor of Gaussian, Inc.  The licensee
 of this program is prohibited from giving any competitor of
 Gaussian, Inc. access to this program.  By using this program,
 the user acknowledges that Gaussian, Inc. is engaged in the
 business of creating and licensing software in the field of
 computational chemistry and represents and warrants to the
 licensee that it is not a competitor of Gaussian, Inc. and that
 it will not use this program in any manner prohibited above.
 ---------------------------------------------------------------
  

 Cite this work as:
 Gaussian 16, Revision A.03,
 M. J. Frisch, G. W. Trucks, H. B. Schlegel, G. E. Scuseria, 
 M. A. Robb, J. R. Cheeseman, G. Scalmani, V. Barone, 
 G. A. Petersson, H. Nakatsuji, X. Li, M. Caricato, A. V. Marenich, 
 J. Bloino, B. G. Janesko, R. Gomperts, B. Mennucci, H. P. Hratchian, 
 J. V. Ortiz, A. F. Izmaylov, J. L. Sonnenberg, D. Williams-Young, 
 F. Ding, F. Lipparini, F. Egidi, J. Goings, B. Peng, A. Petrone, 
 T. Henderson, D. Ranasinghe, V. G. Zakrzewski, J. Gao, N. Rega, 
 G. Zheng, W. Liang, M. Hada, M. Ehara, K. Toyota, R. Fukuda, 
 J. Hasegawa, M. Ishida, T. Nakajima, Y. Honda, O. Kitao, H. Nakai, 
 T. Vreven, K. Throssell, J. A. Montgomery, Jr., J. E. Peralta, 
 F. Ogliaro, M. J. Bearpark, J. J. Heyd, E. N. Brothers, K. N. Kudin, 
 V. N. Staroverov, T. A. Keith, R. Kobayashi, J. Normand, 
 K. Raghavachari, A. P. Rendell, J. C. Burant, S. S. Iyengar, 
 J. Tomasi, M. Cossi, J. M. Millam, M. Klene, C. Adamo, R. Cammi, 
 J. W. Ochterski, R. L. Martin, K. Morokuma, O. Farkas, 
 J. B. Foresman, and D. J. Fox, Gaussian, Inc., Wallingford CT, 2016.
 
 ******************************************
 Gaussian 16:  EM64M-G16RevA.03 25-Dec-2016
                24-Feb-2024 
 ******************************************
 %nprocshared=10
 Will use up to   10 processors via shared memory.
 %mem=12GB
 %chk= 1.chk
 ---------------------
 # freq b3lyp/6-31g(d)
 ---------------------
 1/10=4,30=1,38=1/1,3;
 2/12=2,17=6,18=5,40=1/2;
 3/5=1,6=6,7=1,11=2,25=1,30=1,71=2,74=-5,140=1/1,2,3;
 4//1;
 5/5=2,38=5,98=1/2;
 8/6=4,10=90,11=11/1;
 11/6=1,8=1,9=11,15=111,16=1/1,2,10;
 10/6=1/2;
 6/7=2,8=2,9=2,10=2,28=1/1;
 7/8=1,10=1,25=1/1,2,3,16;
 1/10=4,30=1/3;
 99//99;
 ---------
 good luck
 ---------
 Symbolic Z-matrix:
 Charge =  0 Multiplicity = 1
 O                     1.20757   0.        0. 
 C                     0.        0.        0. 
 C                    -1.00787  -1.15776  -0.00205 
 C                    -1.78945  -0.79537  -1.29873 
 C                    -3.14567  -1.48213  -1.44334 
 O                    -2.92772  -2.88004  -1.39882 
 C                    -4.11606  -3.62572  -1.5552 
 C                    -1.78946   0.79537  -1.29873 
 C                    -3.14567   1.48213  -1.44333 
 O                    -2.92772   2.88004  -1.39882 
 C                    -4.11608   3.62571  -1.55519 
 C                    -1.00787   1.15776  -0.00205 
 C                    -1.82334   0.78612   1.25934 
 C                    -1.82334  -0.78612   1.25934 
 H                    -0.58274  -2.16043  -0.00389 
 H                    -1.18887  -1.13921  -2.14908 
 H                    -3.60999  -1.20151  -2.40438 
 H                    -3.84972  -1.18511  -0.64893 
 H                    -4.5991   -3.42534  -2.52539 
 H                    -3.84187  -4.6827   -1.50699 
 H                    -4.84361  -3.4083   -0.75614 
 H                    -1.18887   1.13921  -2.14909 
 H                    -3.84972   1.18511  -0.64892 
 H                    -3.61      1.20151  -2.40438 
 H                    -4.59912   3.42533  -2.52539 
 H                    -3.84189   4.68269  -1.50699 
 H                    -4.84362   3.40829  -0.75614 
 H                    -0.58274   2.16043  -0.00389 
 H                    -2.83157   1.20942   1.24598 
 H                    -1.32677   1.17764   2.15328 
 H                    -1.32678  -1.17764   2.15328 
 H                    -2.83157  -1.20942   1.24598 
 

 GradGradGradGradGradGradGradGradGradGradGradGradGradGradGradGradGradGrad
 Berny optimization.
 Initialization pass.
 Trust Radius=3.00D-01 FncErr=1.00D-07 GrdErr=1.00D-07 EigMax=2.50D+02 EigMin=1.00D-04
 Number of steps in this run=      2 maximum allowed number of steps=      2.
 GradGradGradGradGradGradGradGradGradGradGradGradGradGradGradGradGradGrad

                          Input orientation:                          
 ---------------------------------------------------------------------
 Center     Atomic      Atomic             Coordinates (Angstroms)
 Number     Number       Type             X           Y           Z
 ---------------------------------------------------------------------
      1          8           0        1.207570    0.000000    0.000000
      2          6           0        0.000000    0.000000    0.000000
      3          6           0       -1.007867   -1.157764   -0.002048
      4          6           0       -1.789454   -0.795373   -1.298730
      5          6           0       -3.145667   -1.482127   -1.443337
      6          8           0       -2.927716   -2.880040   -1.398824
      7          6           0       -4.116064   -3.625717   -1.555196
      8          6           0       -1.789455    0.795374   -1.298729
      9          6           0       -3.145670    1.482125   -1.443333
     10          8           0       -2.927723    2.880038   -1.398824
     11          6           0       -4.116075    3.625711   -1.555194
     12          6           0       -1.007867    1.157764   -0.002048
     13          6           0       -1.823341    0.786122    1.259335
     14          6           0       -1.823342   -0.786121    1.259335
     15          1           0       -0.582735   -2.160426   -0.003894
     16          1           0       -1.188865   -1.139212   -2.149085
     17          1           0       -3.609989   -1.201510   -2.404385
     18          1           0       -3.849718   -1.185111   -0.648928
     19          1           0       -4.599104   -3.425341   -2.525394
     20          1           0       -3.841871   -4.682698   -1.506987
     21          1           0       -4.843610   -3.408295   -0.756142
     22          1           0       -1.188869    1.139214   -2.149086
     23          1           0       -3.849718    1.185108   -0.648921
     24          1           0       -3.609995    1.201505   -2.404378
     25          1           0       -4.599118    3.425330   -2.525390
     26          1           0       -3.841885    4.682693   -1.506989
     27          1           0       -4.843617    3.408288   -0.756137
     28          1           0       -0.582735    2.160426   -0.003893
     29          1           0       -2.831568    1.209417    1.245982
     30          1           0       -1.326773    1.177642    2.153279
     31          1           0       -1.326775   -1.177643    2.153279
     32          1           0       -2.831569   -1.209416    1.245980
 ---------------------------------------------------------------------
                    Distance matrix (angstroms):
                    1          2          3          4          5
     1  O    0.000000
     2  C    1.207570   0.000000
     3  C    2.499717   1.534998   0.000000
     4  C    3.361766   2.349779   1.556788   0.000000
     5  C    4.819813   3.764989   2.598599   1.527042   0.000000
     6  O    5.229907   4.338532   2.933094   2.377287   1.415502
     7  C    6.626125   5.701442   4.261919   3.672838   2.355666
     8  C    3.361767   2.349780   2.471236   1.590747   2.654663
     9  C    4.819814   3.764989   3.690057   2.654662   2.964252
    10  O    5.229912   4.338535   4.684087   3.848938   4.367833
    11  C    6.626130   5.701446   5.912263   5.002492   5.200405
    12  C    2.499717   1.534998   2.315528   2.471236   3.690058
    13  C    3.374957   2.351273   2.456578   3.007652   3.768015
    14  C    3.374958   2.351273   1.547322   2.558306   3.088269
    15  H    2.805824   2.237641   1.089069   2.235205   3.016738
    16  H    3.414567   2.707355   2.154733   1.096374   2.108256
    17  H    5.516663   4.500746   3.541776   2.168356   1.103610
    18  H    5.234669   4.079942   2.914673   2.195182   1.102267
    19  H    7.199169   6.265966   4.940259   4.039254   2.656954
    20  H    7.049505   6.241686   4.766716   4.400805   3.276035
    21  H    6.986058   5.970660   4.510706   4.055815   2.658076
    22  H    3.414572   2.707358   3.149388   2.196915   3.346426
    23  H    5.234667   4.079940   3.739467   2.930741   2.870702
    24  H    5.516664   4.500746   4.255398   2.919649   2.888093
    25  H    7.199174   6.265969   6.345793   5.216631   5.231299
    26  H    7.049512   6.241691   6.663891   5.853636   6.204335
    27  H    6.986060   5.970661   6.010862   5.224278   5.222206
    28  H    2.805824   2.237641   3.345314   3.445217   4.680685
    29  H    4.396566   3.321587   3.238365   3.403049   3.817788
    30  H    3.527938   2.789942   3.193941   4.002902   4.828912
    31  H    3.527940   2.789944   2.178883   3.503793   4.041872
    32  H    4.396567   3.321586   2.210459   2.780824   2.721297
                    6          7          8          9         10
     6  O    0.000000
     7  C    1.411615   0.000000
     8  C    3.848938   5.002492   0.000000
     9  C    4.367833   5.200406   1.527042   0.000000
    10  O    5.760078   6.615244   2.377288   1.415501   0.000000
    11  C    6.615243   7.251428   3.672838   2.355665   1.411616
    12  C    4.684086   5.912262   1.556788   2.598599   2.933097
    13  C    4.661137   5.713360   2.558305   3.088266   3.559488
    14  C    3.559487   4.608846   3.007651   3.768011   4.661136
    15  H    2.821810   4.127715   3.445218   4.680684   5.731586
    16  H    2.572348   3.886374   2.196915   3.346428   4.443072
    17  H    2.072224   2.618017   2.919652   2.888098   4.258600
    18  H    2.070076   2.617025   2.930742   2.870699   4.235311
    19  H    2.088074   1.102163   5.216634   5.231305   6.619704
    20  H    2.024093   1.093030   5.853636   6.204336   7.618552
    21  H    2.088718   1.102308   5.224280   5.222206   6.605058
    22  H    4.443072   5.623677   1.096374   2.108256   2.572348
    23  H    4.235312   4.902684   2.195183   1.102267   2.070077
    24  H    4.258598   4.927402   2.168356   1.103609   2.072223
    25  H    6.619700   7.133855   4.039254   2.656954   2.088075
    26  H    7.618552   8.313073   4.400806   3.276035   2.024094
    27  H    6.605058   7.116534   4.055814   2.658076   2.088718
    28  H    5.731585   6.954884   2.235205   3.016739   2.821815
    29  H    4.871129   5.733677   2.780825   2.721295   3.129731
    30  H    5.625410   6.678712   3.503793   4.041870   4.251897
    31  H    4.251894   5.246521   4.002902   4.828909   5.625411
    32  H    3.129731   3.915996   3.403047   3.817782   4.871126
                   11         12         13         14         15
    11  C    0.000000
    12  C    4.261922   0.000000
    13  C    4.608847   1.547321   0.000000
    14  C    5.713358   2.456578   1.572243   0.000000
    15  H    6.954884   3.345314   3.437586   2.241332   0.000000
    16  H    5.623678   3.149385   3.965703   3.484905   2.451962
    17  H    4.927404   4.255401   4.534935   4.097255   3.980722
    18  H    4.902680   3.739470   3.410782   2.811914   3.469940
    19  H    7.133859   6.345795   6.305986   5.384655   4.908074
    20  H    8.313072   6.663889   6.452518   5.187515   4.386697
    21  H    7.116532   6.010863   5.547730   4.478835   4.503122
    22  H    3.886375   2.154734   3.484905   3.965704   3.982069
    23  H    2.617025   2.914671   2.811909   3.410775   4.720364
    24  H    2.618016   3.541775   4.097251   4.534929   5.121446
    25  H    1.102163   4.940263   5.384654   6.305981   7.327342
    26  H    1.093030   4.766721   5.187517   6.452518   7.727201
    27  H    1.102308   4.510708   4.478833   5.547725   7.052061
    28  H    4.127722   1.089069   2.241330   3.437585   4.320852
    29  H    3.915996   2.210460   1.093562   2.235815   4.239727
    30  H    5.246525   2.178883   1.094990   2.214065   4.043474
    31  H    6.678711   3.193942   2.214066   1.094990   2.484523
    32  H    5.733671   3.238364   2.235816   1.093562   2.742965
                   16         17         18         19         20
    16  H    0.000000
    17  H    2.435344   0.000000
    18  H    3.054949   1.771826   0.000000
    19  H    4.122830   2.436887   3.016842   0.000000
    20  H    4.472921   3.602466   3.601311   1.786477   0.000000
    21  H    4.521746   3.018017   2.437594   1.786148   1.786436
    22  H    2.278426   3.377275   3.838369   5.710208   6.430037
    23  H    3.838371   2.972384   2.370219   5.033783   5.930218
    24  H    3.377277   2.403015   2.972374   4.732936   5.956754
    25  H    5.710208   4.732934   5.033774   6.850671   8.206746
    26  H    6.430037   5.956756   5.930215   8.206750   9.365391
    27  H    5.998106   5.048643   4.700919   7.063182   8.187266
    28  H    3.982066   5.121449   4.720367   7.327345   7.727199
    29  H    4.443086   4.443387   3.218863   6.231247   6.581532
    30  H    4.888473   5.625455   4.449744   7.333866   7.353016
    31  H    4.304745   5.097640   3.770631   6.135981   5.657620
    32  H    3.772250   3.732448   2.151254   4.717814   4.545682
                   21         22         23         24         25
    21  H    0.000000
    22  H    5.998105   0.000000
    23  H    4.700922   3.054950   0.000000
    24  H    5.048638   2.435345   1.771825   0.000000
    25  H    7.063175   4.122830   3.016841   2.436884   0.000000
    26  H    8.187265   4.472921   3.601311   3.602464   1.786478
    27  H    6.816583   4.521746   2.437593   3.018015   1.786148
    28  H    7.052063   2.451964   3.469940   3.980724   4.908081
    29  H    5.420339   3.772251   2.151250   3.732444   4.717812
    30  H    6.470216   4.304746   3.770628   5.097638   6.135983
    31  H    5.080223   4.888475   4.449737   5.625449   7.333862
    32  H    3.590525   4.443084   3.218854   4.443377   6.231238
                   26         27         28         29         30
    26  H    0.000000
    27  H    1.786436   0.000000
    28  H    4.386706   4.503126   0.000000
    29  H    4.545683   3.590523   2.742965   0.000000
    30  H    5.657626   5.080224   2.484522   1.757443   0.000000
    31  H    7.353018   6.470212   4.043475   2.964059   2.355285
    32  H    6.581529   5.420332   4.239725   2.418833   2.964059
                   31         32
    31  H    0.000000
    32  H    1.757443   0.000000
 Stoichiometry    C11H18O3
 Framework group  C1[X(C11H18O3)]
 Deg. of freedom    90
 Full point group                 C1      NOp   1
 Largest Abelian subgroup         C1      NOp   1
 Largest concise Abelian subgroup C1      NOp   1
                         Standard orientation:                         
 ---------------------------------------------------------------------
 Center     Atomic      Atomic             Coordinates (Angstroms)
 Number     Number       Type             X           Y           Z
 ---------------------------------------------------------------------
      1          8           0        0.000006    3.274261   -1.027068
      2          6           0        0.000003    2.214299   -0.448531
      3          6           0        1.157765    1.328646    0.032533
      4          6           0        0.795373    0.021367   -0.731197
      5          6           0        1.482124   -1.238350   -0.208377
      6          8           0        2.880038   -1.025717   -0.273722
      7          6           0        3.625713   -2.143725    0.158349
      8          6           0       -0.795374    0.021369   -0.731197
      9          6           0       -1.482128   -1.238346   -0.208375
     10          8           0       -2.880040   -1.025714   -0.273724
     11          6           0       -3.625715   -2.143722    0.158349
     12          6           0       -1.157763    1.328649    0.032531
     13          6           0       -0.786122    1.217173    1.530416
     14          6           0        0.786121    1.217169    1.530418
     15          1           0        2.160428    1.700925   -0.172764
     16          1           0        1.139213    0.141144   -1.765346
     17          1           0        1.201507   -2.106346   -0.829498
     18          1           0        1.185107   -1.475746    0.826232
     19          1           0        3.425336   -3.032534   -0.461836
     20          1           0        4.682694   -1.879953    0.069303
     21          1           0        3.408289   -2.399519    1.208292
     22          1           0       -1.139213    0.141144   -1.765347
     23          1           0       -1.185112   -1.475739    0.826236
     24          1           0       -1.201508   -2.106344   -0.829491
     25          1           0       -3.425335   -3.032533   -0.461833
     26          1           0       -4.682697   -1.879951    0.069298
     27          1           0       -3.408294   -2.399511    1.208293
     28          1           0       -2.160424    1.700933   -0.172767
     29          1           0       -1.209419    0.325790    2.001728
     30          1           0       -1.177641    2.081325    2.077186
     31          1           0        1.177644    2.081319    2.077189
     32          1           0        1.209414    0.325784    2.001729
 ---------------------------------------------------------------------
 Rotational constants (GHZ):           0.7486802           0.5423020           0.3704716
 Standard basis: 6-31G(d) (6D, 7F)
 There are   246 symmetry adapted cartesian basis functions of A   symmetry.
 There are   246 symmetry adapted basis functions of A   symmetry.
   246 basis functions,   464 primitive gaussians,   246 cartesian basis functions
    54 alpha electrons       54 beta electrons
       nuclear repulsion energy       973.9057818492 Hartrees.
 NAtoms=   32 NActive=   32 NUniq=   32 SFac= 1.00D+00 NAtFMM=   60 NAOKFM=F Big=F
 Integral buffers will be    131072 words long.
 Raffenetti 2 integral format.
 Two-electron integral symmetry is turned on.
 One-electron integrals computed using PRISM.
 NBasis=   246 RedAO= T EigKep=  1.18D-03  NBF=   246
 NBsUse=   246 1.00D-06 EigRej= -1.00D+00 NBFU=   246
 ExpMin= 1.61D-01 ExpMax= 5.48D+03 ExpMxC= 8.25D+02 IAcc=3 IRadAn=         5 AccDes= 0.00D+00
 Harris functional with IExCor=  402 and IRadAn=       5 diagonalized for initial guess.
 HarFok:  IExCor=  402 AccDes= 0.00D+00 IRadAn=         5 IDoV= 1 UseB2=F ITyADJ=14
 ICtDFT=  3500011 ScaDFX=  1.000000  1.000000  1.000000  1.000000
 FoFCou: FMM=F IPFlag=           0 FMFlag=      100000 FMFlg1=           0
         NFxFlg=           0 DoJE=T BraDBF=F KetDBF=T FulRan=T
         wScrn=  0.000000 ICntrl=       500 IOpCl=  0 I1Cent=   200000004 NGrid=           0
         NMat0=    1 NMatS0=      1 NMatT0=    0 NMatD0=    1 NMtDS0=    0 NMtDT0=    0
 Petite list used in FoFCou.
 Requested convergence on RMS density matrix=1.00D-08 within 128 cycles.
 Requested convergence on MAX density matrix=1.00D-06.
 Requested convergence on             energy=1.00D-06.
 No special actions if energy rises.
 Integral accuracy reduced to 1.0D-05 until final iterations.
 Initial convergence to 1.0D-05 achieved.  Increase integral accuracy.
 SCF Done:  E(RB3LYP) =  -655.623747185     A.U. after   14 cycles
            NFock= 14  Conv=0.37D-08     -V/T= 2.0092
 DoSCS=F DFT=T ScalE2(SS,OS)=  1.000000  1.000000
 Range of M.O.s used for correlation:     1   246
 NBasis=   246 NAE=    54 NBE=    54 NFC=     0 NFV=     0
 NROrb=    246 NOA=    54 NOB=    54 NVA=   192 NVB=   192
 Symmetrizing basis deriv contribution to polar:
 IMax=3 JMax=2 DiffMx= 0.00D+00
 G2DrvN: will do    33 centers at a time, making    1 passes.
 Calling FoFCou, ICntrl=  3107 FMM=F I1Cent=   0 AccDes= 0.00D+00.
 End of G2Drv F.D. properties file   721 does not exist.
 End of G2Drv F.D. properties file   722 does not exist.
 End of G2Drv F.D. properties file   788 does not exist.
          IDoAtm=11111111111111111111111111111111
          Differentiating once with respect to electric field.
                with respect to dipole field.
          Differentiating once with respect to nuclear coordinates.
 Keep R1 ints in memory in canonical form, NReq=472278237.
          There are    99 degrees of freedom in the 1st order CPHF.  IDoFFX=6 NUNeed=     3.
     96 vectors produced by pass  0 Test12= 1.05D-14 1.01D-09 XBig12= 8.28D+01 2.90D+00.
 AX will form    96 AO Fock derivatives at one time.
     96 vectors produced by pass  1 Test12= 1.05D-14 1.01D-09 XBig12= 1.27D+01 8.93D-01.
     96 vectors produced by pass  2 Test12= 1.05D-14 1.01D-09 XBig12= 1.53D-01 4.30D-02.
     96 vectors produced by pass  3 Test12= 1.05D-14 1.01D-09 XBig12= 8.55D-04 2.89D-03.
     96 vectors produced by pass  4 Test12= 1.05D-14 1.01D-09 XBig12= 9.86D-07 1.01D-04.
     54 vectors produced by pass  5 Test12= 1.05D-14 1.01D-09 XBig12= 6.36D-10 3.22D-06.
      5 vectors produced by pass  6 Test12= 1.05D-14 1.01D-09 XBig12= 3.36D-13 7.21D-08.
      2 vectors produced by pass  7 Test12= 1.05D-14 1.01D-09 XBig12= 2.11D-16 1.40D-09.
 InvSVY:  IOpt=1 It=  1 EMax= 1.07D-14
 Solved reduced A of dimension   541 with    99 vectors.
 Isotropic polarizability for W=    0.000000      118.73 Bohr**3.
 End of Minotr F.D. properties file   721 does not exist.
 End of Minotr F.D. properties file   722 does not exist.
 End of Minotr F.D. properties file   788 does not exist.

 **********************************************************************

            Population analysis using the SCF density.

 **********************************************************************

 Orbital symmetries:
       Occupied  (A) (A) (A) (A) (A) (A) (A) (A) (A) (A) (A) (A)
                 (A) (A) (A) (A) (A) (A) (A) (A) (A) (A) (A) (A)
                 (A) (A) (A) (A) (A) (A) (A) (A) (A) (A) (A) (A)
                 (A) (A) (A) (A) (A) (A) (A) (A) (A) (A) (A) (A)
                 (A) (A) (A) (A) (A) (A)
       Virtual   (A) (A) (A) (A) (A) (A) (A) (A) (A) (A) (A) (A)
                 (A) (A) (A) (A) (A) (A) (A) (A) (A) (A) (A) (A)
                 (A) (A) (A) (A) (A) (A) (A) (A) (A) (A) (A) (A)
                 (A) (A) (A) (A) (A) (A) (A) (A) (A) (A) (A) (A)
                 (A) (A) (A) (A) (A) (A) (A) (A) (A) (A) (A) (A)
                 (A) (A) (A) (A) (A) (A) (A) (A) (A) (A) (A) (A)
                 (A) (A) (A) (A) (A) (A) (A) (A) (A) (A) (A) (A)
                 (A) (A) (A) (A) (A) (A) (A) (A) (A) (A) (A) (A)
                 (A) (A) (A) (A) (A) (A) (A) (A) (A) (A) (A) (A)
                 (A) (A) (A) (A) (A) (A) (A) (A) (A) (A) (A) (A)
                 (A) (A) (A) (A) (A) (A) (A) (A) (A) (A) (A) (A)
                 (A) (A) (A) (A) (A) (A) (A) (A) (A) (A) (A) (A)
                 (A) (A) (A) (A) (A) (A) (A) (A) (A) (A) (A) (A)
                 (A) (A) (A) (A) (A) (A) (A) (A) (A) (A) (A) (A)
                 (A) (A) (A) (A) (A) (A) (A) (A) (A) (A) (A) (A)
                 (A) (A) (A) (A) (A) (A) (A) (A) (A) (A) (A) (A)
 The electronic state is 1-A.
 Alpha  occ. eigenvalues --  -19.15390 -19.15390 -19.13720 -10.26321 -10.23804
 Alpha  occ. eigenvalues --  -10.23803 -10.23241 -10.23241 -10.20155 -10.20141
 Alpha  occ. eigenvalues --  -10.19012 -10.18996 -10.18834 -10.18831  -1.03819
 Alpha  occ. eigenvalues --   -1.03755  -1.03479  -0.87493  -0.77822  -0.76143
 Alpha  occ. eigenvalues --   -0.71359  -0.70867  -0.67212  -0.64825  -0.61334
 Alpha  occ. eigenvalues --   -0.59777  -0.53325  -0.53223  -0.51773  -0.49149
 Alpha  occ. eigenvalues --   -0.48217  -0.47770  -0.47453  -0.46923  -0.45292
 Alpha  occ. eigenvalues --   -0.44092  -0.42434  -0.42101  -0.41503  -0.39281
 Alpha  occ. eigenvalues --   -0.38362  -0.37127  -0.36583  -0.36182  -0.35821
 Alpha  occ. eigenvalues --   -0.34584  -0.34105  -0.32933  -0.32005  -0.31410
 Alpha  occ. eigenvalues --   -0.29791  -0.26554  -0.25793  -0.22508
 Alpha virt. eigenvalues --   -0.00660   0.06777   0.08397   0.08583   0.10569
 Alpha virt. eigenvalues --    0.11116   0.12767   0.12791   0.13992   0.14712
 Alpha virt. eigenvalues --    0.14936   0.15513   0.15823   0.15839   0.16904
 Alpha virt. eigenvalues --    0.17565   0.17752   0.18363   0.19088   0.20159
 Alpha virt. eigenvalues --    0.21122   0.22027   0.22370   0.22801   0.23214
 Alpha virt. eigenvalues --    0.23251   0.25321   0.26168   0.27031   0.30617
 Alpha virt. eigenvalues --    0.31342   0.32725   0.34772   0.37042   0.47478
 Alpha virt. eigenvalues --    0.50529   0.52035   0.52909   0.53512   0.55427
 Alpha virt. eigenvalues --    0.56327   0.56544   0.56925   0.57292   0.58325
 Alpha virt. eigenvalues --    0.60184   0.60760   0.62626   0.63917   0.64135
 Alpha virt. eigenvalues --    0.64964   0.66333   0.66776   0.69015   0.70302
 Alpha virt. eigenvalues --    0.70874   0.75611   0.75838   0.77754   0.77785
 Alpha virt. eigenvalues --    0.80547   0.81195   0.82214   0.83008   0.83285
 Alpha virt. eigenvalues --    0.84938   0.85441   0.85653   0.85827   0.86284
 Alpha virt. eigenvalues --    0.87165   0.87660   0.88690   0.90218   0.91498
 Alpha virt. eigenvalues --    0.93243   0.93383   0.93732   0.94331   0.94886
 Alpha virt. eigenvalues --    0.95153   0.97007   0.99300   1.00451   1.01718
 Alpha virt. eigenvalues --    1.02595   1.04364   1.07184   1.09462   1.09875
 Alpha virt. eigenvalues --    1.13529   1.18689   1.20816   1.20939   1.22966
 Alpha virt. eigenvalues --    1.27335   1.30566   1.33889   1.37012   1.38133
 Alpha virt. eigenvalues --    1.40048   1.42590   1.43704   1.46043   1.50171
 Alpha virt. eigenvalues --    1.50233   1.55765   1.57804   1.59484   1.60343
 Alpha virt. eigenvalues --    1.62302   1.64914   1.66809   1.69351   1.72301
 Alpha virt. eigenvalues --    1.73104   1.74833   1.75707   1.78405   1.79698
 Alpha virt. eigenvalues --    1.81056   1.84616   1.84907   1.88900   1.89573
 Alpha virt. eigenvalues --    1.91201   1.93852   1.96302   1.96812   1.99682
 Alpha virt. eigenvalues --    2.00126   2.02046   2.02099   2.04516   2.07505
 Alpha virt. eigenvalues --    2.08109   2.08691   2.09380   2.10806   2.13414
 Alpha virt. eigenvalues --    2.14026   2.15124   2.15210   2.16637   2.20263
 Alpha virt. eigenvalues --    2.21332   2.23067   2.25467   2.26757   2.30603
 Alpha virt. eigenvalues --    2.32147   2.32699   2.33275   2.38883   2.39316
 Alpha virt. eigenvalues --    2.46693   2.46751   2.49743   2.50690   2.50769
 Alpha virt. eigenvalues --    2.55348   2.60128   2.62582   2.63877   2.67088
 Alpha virt. eigenvalues --    2.69019   2.69433   2.72823   2.73187   2.74482
 Alpha virt. eigenvalues --    2.76951   2.78579   2.86465   2.94845   2.94901
 Alpha virt. eigenvalues --    3.02603   3.04408   3.10202   3.90311   4.04686
 Alpha virt. eigenvalues --    4.09088   4.18214   4.22467   4.24977   4.28292
 Alpha virt. eigenvalues --    4.30655   4.43279   4.49243   4.55143   4.70991
 Alpha virt. eigenvalues --    4.77932   5.00438
          Condensed to atoms (all electrons):
               1          2          3          4          5          6
     1  O    7.962957   0.595951  -0.062293   0.000719  -0.000043  -0.000000
     2  C    0.595951   4.657885   0.299608  -0.057182   0.003521   0.000240
     3  C   -0.062293   0.299608   5.232126   0.349983  -0.036468   0.005662
     4  C    0.000719  -0.057182   0.349983   5.093911   0.375599  -0.047333
     5  C   -0.000043   0.003521  -0.036468   0.375599   4.878789   0.233056
     6  O   -0.000000   0.000240   0.005662  -0.047333   0.233056   8.199377
     7  C   -0.000000  -0.000003   0.000037   0.005472  -0.041016   0.257988
     8  C    0.000719  -0.057182  -0.049512   0.305318  -0.027665   0.002097
     9  C   -0.000043   0.003521  -0.000391  -0.027665  -0.010835   0.000066
    10  O   -0.000000   0.000240  -0.000051   0.002097   0.000066  -0.000000
    11  C   -0.000000  -0.000003   0.000003  -0.000152   0.000006  -0.000000
    12  C   -0.062293   0.299608  -0.149111  -0.049512  -0.000391  -0.000051
    13  C    0.001375  -0.060612  -0.051581  -0.014515   0.000393   0.000041
    14  C    0.001375  -0.060612   0.359069  -0.031449  -0.008590  -0.001623
    15  H    0.000967  -0.027734   0.360302  -0.028999  -0.002886   0.004741
    16  H    0.000683   0.000299  -0.046799   0.363552  -0.042434   0.002629
    17  H    0.000000   0.000001   0.006348  -0.033998   0.354036  -0.039813
    18  H   -0.000000   0.000103  -0.012202  -0.035269   0.347133  -0.043552
    19  H   -0.000000   0.000001   0.000069  -0.000198  -0.008354  -0.038248
    20  H    0.000000  -0.000000  -0.000001  -0.000235   0.006056  -0.033246
    21  H    0.000000  -0.000000  -0.000126   0.000182  -0.009067  -0.037821
    22  H    0.000683   0.000299   0.003253  -0.029965   0.003269  -0.000034
    23  H   -0.000000   0.000103  -0.000251   0.000104   0.001012  -0.000006
    24  H    0.000000   0.000001   0.000050  -0.001025  -0.000278  -0.000010
    25  H   -0.000000   0.000001  -0.000000   0.000007  -0.000003   0.000000
    26  H    0.000000  -0.000000   0.000000   0.000001   0.000000  -0.000000
    27  H    0.000000  -0.000000  -0.000001   0.000016  -0.000002   0.000000
    28  H    0.000967  -0.027734   0.006169   0.005312  -0.000033   0.000000
    29  H   -0.000061   0.004281   0.000698   0.000980  -0.000054  -0.000002
    30  H    0.000430   0.000582   0.002225  -0.000029  -0.000012  -0.000000
    31  H    0.000430   0.000582  -0.034201   0.005038   0.000127  -0.000044
    32  H   -0.000061   0.004281  -0.027527  -0.013671   0.003961   0.001378
               7          8          9         10         11         12
     1  O   -0.000000   0.000719  -0.000043  -0.000000  -0.000000  -0.062293
     2  C   -0.000003  -0.057182   0.003521   0.000240  -0.000003   0.299608
     3  C    0.000037  -0.049512  -0.000391  -0.000051   0.000003  -0.149111
     4  C    0.005472   0.305318  -0.027665   0.002097  -0.000152  -0.049512
     5  C   -0.041016  -0.027665  -0.010835   0.000066   0.000006  -0.000391
     6  O    0.257988   0.002097   0.000066  -0.000000  -0.000000  -0.000051
     7  C    4.876069  -0.000152   0.000006  -0.000000   0.000000   0.000003
     8  C   -0.000152   5.093911   0.375599  -0.047333   0.005472   0.349983
     9  C    0.000006   0.375599   4.878789   0.233056  -0.041016  -0.036468
    10  O   -0.000000  -0.047333   0.233056   8.199377   0.257988   0.005662
    11  C    0.000000   0.005472  -0.041016   0.257988   4.876070   0.000037
    12  C    0.000003   0.349983  -0.036468   0.005662   0.000037   5.232125
    13  C    0.000001  -0.031449  -0.008590  -0.001623  -0.000019   0.359069
    14  C   -0.000019  -0.014515   0.000393   0.000041   0.000001  -0.051581
    15  H   -0.000110   0.005312  -0.000033   0.000000  -0.000000   0.006169
    16  H   -0.000050  -0.029965   0.003269  -0.000034   0.000002   0.003253
    17  H   -0.006196  -0.001024  -0.000278  -0.000010  -0.000000   0.000050
    18  H   -0.006063   0.000104   0.001012  -0.000006   0.000002  -0.000251
    19  H    0.360233   0.000007  -0.000003   0.000000   0.000000  -0.000000
    20  H    0.386046   0.000001   0.000000  -0.000000  -0.000000   0.000000
    21  H    0.359601   0.000016  -0.000002   0.000000  -0.000000  -0.000001
    22  H    0.000002   0.363552  -0.042434   0.002629  -0.000050  -0.046798
    23  H    0.000002  -0.035269   0.347133  -0.043552  -0.006063  -0.012202
    24  H   -0.000000  -0.033998   0.354036  -0.039813  -0.006196   0.006348
    25  H    0.000000  -0.000198  -0.008354  -0.038248   0.360232   0.000069
    26  H   -0.000000  -0.000235   0.006056  -0.033246   0.386046  -0.000001
    27  H   -0.000000   0.000182  -0.009067  -0.037821   0.359601  -0.000126
    28  H   -0.000000  -0.028999  -0.002886   0.004741  -0.000110   0.360302
    29  H    0.000000  -0.013671   0.003961   0.001378   0.000059  -0.027527
    30  H   -0.000000   0.005038   0.000127  -0.000044   0.000001  -0.034201
    31  H    0.000001  -0.000029  -0.000012  -0.000000  -0.000000   0.002225
    32  H    0.000059   0.000980  -0.000054  -0.000002   0.000000   0.000698
              13         14         15         16         17         18
     1  O    0.001375   0.001375   0.000967   0.000683   0.000000  -0.000000
     2  C   -0.060612  -0.060612  -0.027734   0.000299   0.000001   0.000103
     3  C   -0.051581   0.359069   0.360302  -0.046799   0.006348  -0.012202
     4  C   -0.014515  -0.031449  -0.028999   0.363552  -0.033998  -0.035269
     5  C    0.000393  -0.008590  -0.002886  -0.042434   0.354036   0.347133
     6  O    0.000041  -0.001623   0.004741   0.002629  -0.039813  -0.043552
     7  C    0.000001  -0.000019  -0.000110  -0.000050  -0.006196  -0.006063
     8  C   -0.031449  -0.014515   0.005312  -0.029965  -0.001024   0.000104
     9  C   -0.008590   0.000393  -0.000033   0.003269  -0.000278   0.001012
    10  O   -0.001623   0.000041   0.000000  -0.000034  -0.000010  -0.000006
    11  C   -0.000019   0.000001  -0.000000   0.000002  -0.000000   0.000002
    12  C    0.359069  -0.051581   0.006169   0.003253   0.000050  -0.000251
    13  C    5.104034   0.336508   0.005376  -0.000113  -0.000000  -0.000324
    14  C    0.336508   5.104034  -0.032058   0.005613  -0.000044   0.004114
    15  H    0.005376  -0.032058   0.560680  -0.003134   0.000030   0.000038
    16  H   -0.000113   0.005613  -0.003134   0.600362  -0.007561   0.006912
    17  H   -0.000000  -0.000044   0.000030  -0.007561   0.654425  -0.062289
    18  H   -0.000324   0.004114   0.000038   0.006912  -0.062289   0.666290
    19  H    0.000000  -0.000006   0.000007  -0.000075   0.013681  -0.002846
    20  H   -0.000000   0.000004  -0.000007   0.000004  -0.000146  -0.000162
    21  H   -0.000001   0.000015   0.000015   0.000051  -0.002651   0.014173
    22  H    0.005613  -0.000113  -0.000210  -0.011504   0.000165  -0.000158
    23  H    0.004114  -0.000324  -0.000010  -0.000158  -0.000288   0.002386
    24  H   -0.000044  -0.000000   0.000001   0.000165   0.003184  -0.000288
    25  H   -0.000006   0.000000   0.000000   0.000000   0.000001  -0.000000
    26  H    0.000004  -0.000000   0.000000  -0.000000  -0.000000  -0.000000
    27  H    0.000015  -0.000001  -0.000000  -0.000000  -0.000001   0.000001
    28  H   -0.032059   0.005376  -0.000145  -0.000210   0.000001  -0.000010
    29  H    0.368421  -0.030534  -0.000072   0.000002  -0.000016   0.000059
    30  H    0.369983  -0.028837  -0.000171   0.000011   0.000000   0.000018
    31  H   -0.028837   0.369983  -0.002932  -0.000162  -0.000003  -0.000110
    32  H   -0.030534   0.368421   0.000550   0.000024   0.000040   0.002776
              19         20         21         22         23         24
     1  O   -0.000000   0.000000   0.000000   0.000683  -0.000000   0.000000
     2  C    0.000001  -0.000000  -0.000000   0.000299   0.000103   0.000001
     3  C    0.000069  -0.000001  -0.000126   0.003253  -0.000251   0.000050
     4  C   -0.000198  -0.000235   0.000182  -0.029965   0.000104  -0.001025
     5  C   -0.008354   0.006056  -0.009067   0.003269   0.001012  -0.000278
     6  O   -0.038248  -0.033246  -0.037821  -0.000034  -0.000006  -0.000010
     7  C    0.360233   0.386046   0.359601   0.000002   0.000002  -0.000000
     8  C    0.000007   0.000001   0.000016   0.363552  -0.035269  -0.033998
     9  C   -0.000003   0.000000  -0.000002  -0.042434   0.347133   0.354036
    10  O    0.000000  -0.000000   0.000000   0.002629  -0.043552  -0.039813
    11  C    0.000000  -0.000000  -0.000000  -0.000050  -0.006063  -0.006196
    12  C   -0.000000   0.000000  -0.000001  -0.046798  -0.012202   0.006348
    13  C    0.000000  -0.000000  -0.000001   0.005613   0.004114  -0.000044
    14  C   -0.000006   0.000004   0.000015  -0.000113  -0.000324  -0.000000
    15  H    0.000007  -0.000007   0.000015  -0.000210  -0.000010   0.000001
    16  H   -0.000075   0.000004   0.000051  -0.011504  -0.000158   0.000165
    17  H    0.013681  -0.000146  -0.002651   0.000165  -0.000288   0.003184
    18  H   -0.002846  -0.000162   0.014173  -0.000158   0.002386  -0.000288
    19  H    0.630103  -0.033514  -0.051616   0.000000  -0.000000   0.000001
    20  H   -0.033514   0.546794  -0.033676  -0.000000  -0.000000  -0.000000
    21  H   -0.051616  -0.033676   0.631557  -0.000000   0.000001  -0.000001
    22  H    0.000000  -0.000000  -0.000000   0.600362   0.006912  -0.007561
    23  H   -0.000000  -0.000000   0.000001   0.006912   0.666291  -0.062289
    24  H    0.000001  -0.000000  -0.000001  -0.007561  -0.062289   0.654425
    25  H   -0.000000  -0.000000   0.000000  -0.000075  -0.002846   0.013681
    26  H   -0.000000  -0.000000  -0.000000   0.000004  -0.000162  -0.000146
    27  H    0.000000  -0.000000  -0.000000   0.000051   0.014173  -0.002652
    28  H    0.000000   0.000000  -0.000000  -0.003134   0.000038   0.000030
    29  H   -0.000000   0.000000   0.000000   0.000024   0.002776   0.000040
    30  H    0.000000  -0.000000   0.000000  -0.000162  -0.000110  -0.000003
    31  H   -0.000000  -0.000000   0.000001   0.000011   0.000018   0.000000
    32  H    0.000013  -0.000007  -0.000043   0.000002   0.000059  -0.000016
              25         26         27         28         29         30
     1  O   -0.000000   0.000000   0.000000   0.000967  -0.000061   0.000430
     2  C    0.000001  -0.000000  -0.000000  -0.027734   0.004281   0.000582
     3  C   -0.000000   0.000000  -0.000001   0.006169   0.000698   0.002225
     4  C    0.000007   0.000001   0.000016   0.005312   0.000980  -0.000029
     5  C   -0.000003   0.000000  -0.000002  -0.000033  -0.000054  -0.000012
     6  O    0.000000  -0.000000   0.000000   0.000000  -0.000002  -0.000000
     7  C    0.000000  -0.000000  -0.000000  -0.000000   0.000000  -0.000000
     8  C   -0.000198  -0.000235   0.000182  -0.028999  -0.013671   0.005038
     9  C   -0.008354   0.006056  -0.009067  -0.002886   0.003961   0.000127
    10  O   -0.038248  -0.033246  -0.037821   0.004741   0.001378  -0.000044
    11  C    0.360232   0.386046   0.359601  -0.000110   0.000059   0.000001
    12  C    0.000069  -0.000001  -0.000126   0.360302  -0.027527  -0.034201
    13  C   -0.000006   0.000004   0.000015  -0.032059   0.368421   0.369983
    14  C    0.000000  -0.000000  -0.000001   0.005376  -0.030534  -0.028837
    15  H    0.000000   0.000000  -0.000000  -0.000145  -0.000072  -0.000171
    16  H    0.000000  -0.000000  -0.000000  -0.000210   0.000002   0.000011
    17  H    0.000001  -0.000000  -0.000001   0.000001  -0.000016   0.000000
    18  H   -0.000000  -0.000000   0.000001  -0.000010   0.000059   0.000018
    19  H   -0.000000  -0.000000   0.000000   0.000000  -0.000000   0.000000
    20  H   -0.000000  -0.000000  -0.000000   0.000000   0.000000  -0.000000
    21  H    0.000000  -0.000000  -0.000000  -0.000000   0.000000   0.000000
    22  H   -0.000075   0.000004   0.000051  -0.003134   0.000024  -0.000162
    23  H   -0.002846  -0.000162   0.014173   0.000038   0.002776  -0.000110
    24  H    0.013681  -0.000146  -0.002652   0.000030   0.000040  -0.000003
    25  H    0.630103  -0.033514  -0.051616   0.000007   0.000013  -0.000000
    26  H   -0.033514   0.546794  -0.033675  -0.000007  -0.000007  -0.000000
    27  H   -0.051616  -0.033675   0.631556   0.000015  -0.000043   0.000001
    28  H    0.000007  -0.000007   0.000015   0.560680   0.000550  -0.002932
    29  H    0.000013  -0.000007  -0.000043   0.000550   0.580618  -0.035678
    30  H   -0.000000  -0.000000   0.000001  -0.002932  -0.035678   0.576740
    31  H    0.000000  -0.000000   0.000000  -0.000171   0.003577  -0.009916
    32  H   -0.000000   0.000000   0.000000  -0.000072  -0.008110   0.003577
              31         32
     1  O    0.000430  -0.000061
     2  C    0.000582   0.004281
     3  C   -0.034201  -0.027527
     4  C    0.005038  -0.013671
     5  C    0.000127   0.003961
     6  O   -0.000044   0.001378
     7  C    0.000001   0.000059
     8  C   -0.000029   0.000980
     9  C   -0.000012  -0.000054
    10  O   -0.000000  -0.000002
    11  C   -0.000000   0.000000
    12  C    0.002225   0.000698
    13  C   -0.028837  -0.030534
    14  C    0.369983   0.368421
    15  H   -0.002932   0.000550
    16  H   -0.000162   0.000024
    17  H   -0.000003   0.000040
    18  H   -0.000110   0.002776
    19  H   -0.000000   0.000013
    20  H   -0.000000  -0.000007
    21  H    0.000001  -0.000043
    22  H    0.000011   0.000002
    23  H    0.000018   0.000059
    24  H    0.000000  -0.000016
    25  H    0.000000  -0.000000
    26  H   -0.000000   0.000000
    27  H    0.000000   0.000000
    28  H   -0.000171  -0.000072
    29  H    0.003577  -0.008110
    30  H   -0.009916   0.003577
    31  H    0.576740  -0.035678
    32  H   -0.035678   0.580618
 Mulliken charges:
               1
     1  O   -0.442460
     2  C    0.419956
     3  C   -0.155086
     4  C   -0.137095
     5  C   -0.018891
     6  O   -0.465492
     7  C   -0.191910
     8  C   -0.137095
     9  C   -0.018891
    10  O   -0.465492
    11  C   -0.191910
    12  C   -0.155086
    13  C   -0.294641
    14  C   -0.294641
    15  H    0.154314
    16  H    0.155369
    17  H    0.122357
    18  H    0.118407
    19  H    0.130746
    20  H    0.162088
    21  H    0.129391
    22  H    0.155369
    23  H    0.118406
    24  H    0.122357
    25  H    0.130746
    26  H    0.162088
    27  H    0.129391
    28  H    0.154314
    29  H    0.148336
    30  H    0.153360
    31  H    0.153360
    32  H    0.148336
 Sum of Mulliken charges =  -0.00000
 Mulliken charges with hydrogens summed into heavy atoms:
               1
     1  O   -0.442460
     2  C    0.419956
     3  C   -0.000772
     4  C    0.018273
     5  C    0.221872
     6  O   -0.465492
     7  C    0.230315
     8  C    0.018273
     9  C    0.221872
    10  O   -0.465492
    11  C    0.230316
    12  C   -0.000772
    13  C    0.007055
    14  C    0.007055
 APT charges:
               1
     1  O   -0.666963
     2  C    0.775131
     3  C   -0.089328
     4  C    0.091026
     5  C    0.523246
     6  O   -0.769579
     7  C    0.566228
     8  C    0.091026
     9  C    0.523246
    10  O   -0.769579
    11  C    0.566227
    12  C   -0.089327
    13  C    0.091705
    14  C    0.091705
    15  H   -0.012795
    16  H   -0.051589
    17  H   -0.088739
    18  H   -0.072792
    19  H   -0.075405
    20  H   -0.028563
    21  H   -0.073385
    22  H   -0.051589
    23  H   -0.072793
    24  H   -0.088739
    25  H   -0.075405
    26  H   -0.028562
    27  H   -0.073385
    28  H   -0.012795
    29  H   -0.026972
    30  H   -0.037143
    31  H   -0.037143
    32  H   -0.026972
 Sum of APT charges =   0.00000
 APT charges with hydrogens summed into heavy atoms:
               1
     1  O   -0.666963
     2  C    0.775131
     3  C   -0.102122
     4  C    0.039437
     5  C    0.361714
     6  O   -0.769579
     7  C    0.388875
     8  C    0.039437
     9  C    0.361714
    10  O   -0.769579
    11  C    0.388875
    12  C   -0.102122
    13  C    0.027590
    14  C    0.027590
 Electronic spatial extent (au):  <R**2>=           3213.9560
 Charge=             -0.0000 electrons
 Dipole moment (field-independent basis, Debye):
    X=             -0.0000    Y=             -4.5675    Z=              2.0180  Tot=              4.9934
 Quadrupole moment (field-independent basis, Debye-Ang):
   XX=            -82.2310   YY=            -90.1212   ZZ=            -84.7471
   XY=             -0.0000   XZ=             -0.0000   YZ=              4.8012
 Traceless Quadrupole moment (field-independent basis, Debye-Ang):
   XX=              3.4687   YY=             -4.4214   ZZ=              0.9527
   XY=             -0.0000   XZ=             -0.0000   YZ=              4.8012
 Octapole moment (field-independent basis, Debye-Ang**2):
  XXX=             -0.0001  YYY=            -57.0751  ZZZ=             -5.4949  XYY=             -0.0001
  XXY=            -24.2962  XXZ=              7.9452  XZZ=              0.0000  YZZ=             -3.1957
  YYZ=             19.2593  XYZ=              0.0000
 Hexadecapole moment (field-independent basis, Debye-Ang**3):
 XXXX=          -2011.9447 YYYY=          -1651.6841 ZZZZ=           -433.7715 XXXY=              0.0004
 XXXZ=             -0.0000 YYYX=             -0.0003 YYYZ=             67.7839 ZZZX=             -0.0000
 ZZZY=             -5.4780 XXYY=           -534.4626 XXZZ=           -445.7564 YYZZ=           -335.5451
 XXYZ=            -15.1142 YYXZ=              0.0001 ZZXY=             -0.0000
 N-N= 9.739057818492D+02 E-N=-3.474368364730D+03  KE= 6.496375106504D+02
  Exact polarizability: 130.010   0.000 123.885   0.000  -1.043 102.293
 Approx polarizability: 163.574   0.000 174.569  -0.000  -9.013 156.241
 Calling FoFJK, ICntrl=    100127 FMM=F ISym2X=0 I1Cent= 0 IOpClX= 0 NMat=1 NMatS=1 NMatT=0.
 Full mass-weighted force constant matrix:
 Low frequencies ---   -1.4086   -0.0005   -0.0004    0.0007    2.8056    5.2045
 Low frequencies ---   31.9416   65.9334   86.5093
 Diagonal vibrational polarizability:
       29.2767662      12.6553611      25.8966608
 Harmonic frequencies (cm**-1), IR intensities (KM/Mole), Raman scattering
 activities (A**4/AMU), depolarization ratios for plane and unpolarized
 incident light, reduced masses (AMU), force constants (mDyne/A),
 and normal coordinates:
                      1                      2                      3
                      A                      A                      A
 Frequencies --     31.9287                65.9329                86.5087
 Red. masses --      3.4183                 3.2000                 3.7131
 Frc consts  --      0.0021                 0.0082                 0.0164
 IR Inten    --      0.5433                 0.0942                 0.3104
  Atom  AN      X      Y      Z        X      Y      Z        X      Y      Z
     1   8    -0.13   0.00   0.00     0.00   0.04   0.10     0.00  -0.11  -0.07
     2   6    -0.04   0.00   0.00     0.00  -0.01   0.02     0.00  -0.07   0.00
     3   6     0.03   0.03  -0.12    -0.00  -0.04  -0.04    -0.00  -0.06   0.03
     4   6    -0.02  -0.01  -0.04     0.00  -0.00  -0.10    -0.00  -0.07   0.05
     5   6    -0.03   0.01   0.04    -0.00  -0.02  -0.12     0.07  -0.03   0.04
     6   8    -0.03  -0.00   0.05    -0.00   0.04   0.02     0.05   0.08  -0.04
     7   6    -0.05   0.02   0.13    -0.00   0.10   0.19     0.20   0.17  -0.06
     8   6    -0.02   0.01   0.04    -0.00  -0.00  -0.10     0.00  -0.07   0.05
     9   6    -0.03  -0.01  -0.04     0.00  -0.02  -0.12    -0.07  -0.03   0.04
    10   8    -0.03   0.00  -0.05     0.00   0.04   0.02    -0.05   0.08  -0.04
    11   6    -0.05  -0.02  -0.13     0.00   0.10   0.19    -0.20   0.17  -0.06
    12   6     0.03  -0.03   0.12     0.00  -0.04  -0.04     0.00  -0.06   0.03
    13   6     0.20  -0.07   0.08    -0.00  -0.12  -0.04     0.00  -0.04   0.03
    14   6     0.20   0.07  -0.08    -0.00  -0.12  -0.04    -0.00  -0.04   0.03
    15   1    -0.00   0.05  -0.25    -0.00  -0.03  -0.02    -0.00  -0.06   0.03
    16   1    -0.06  -0.09  -0.06     0.01   0.04  -0.09    -0.01  -0.06   0.04
    17   1    -0.03  -0.02   0.08     0.08   0.01  -0.19     0.10  -0.06   0.06
    18   1    -0.05   0.07   0.04    -0.08  -0.08  -0.16     0.13  -0.04   0.05
    19   1    -0.04  -0.02   0.17     0.12   0.05   0.22     0.26   0.13  -0.02
    20   1    -0.04   0.01   0.13    -0.00   0.15   0.31     0.16   0.29  -0.13
    21   1    -0.07   0.08   0.14    -0.13   0.17   0.18     0.30   0.18  -0.03
    22   1    -0.06   0.09   0.06    -0.01   0.04  -0.09     0.01  -0.06   0.04
    23   1    -0.05  -0.07  -0.04     0.08  -0.08  -0.16    -0.13  -0.04   0.05
    24   1    -0.03   0.02  -0.08    -0.08   0.01  -0.19    -0.10  -0.06   0.06
    25   1    -0.04   0.02  -0.17    -0.12   0.05   0.22    -0.26   0.13  -0.02
    26   1    -0.04  -0.01  -0.13     0.00   0.15   0.31    -0.16   0.29  -0.13
    27   1    -0.07  -0.08  -0.14     0.13   0.17   0.18    -0.30   0.18  -0.03
    28   1    -0.00  -0.05   0.25     0.00  -0.03  -0.02     0.00  -0.06   0.03
    29   1     0.34  -0.14   0.08    -0.00  -0.14  -0.09     0.00  -0.04   0.04
    30   1     0.18  -0.14   0.17     0.00  -0.14   0.00    -0.00  -0.04   0.03
    31   1     0.18   0.14  -0.17    -0.00  -0.14   0.00     0.00  -0.04   0.03
    32   1     0.34   0.14  -0.08     0.00  -0.14  -0.09    -0.00  -0.04   0.04
                      4                      5                      6
                      A                      A                      A
 Frequencies --     90.3223                94.8325               104.9434
 Red. masses --      3.0911                 2.0745                 2.2120
 Frc consts  --      0.0149                 0.0110                 0.0144
 IR Inten    --      0.0107                 0.2612                 7.2396
  Atom  AN      X      Y      Z        X      Y      Z        X      Y      Z
     1   8     0.12   0.00   0.00     0.04  -0.00  -0.00     0.00  -0.03  -0.06
     2   6     0.06   0.00   0.00     0.03  -0.00  -0.00     0.00  -0.01  -0.02
     3   6     0.01  -0.06  -0.00     0.01  -0.03  -0.02    -0.00  -0.00  -0.01
     4   6    -0.05  -0.02  -0.04    -0.03  -0.01  -0.03     0.00   0.00  -0.02
     5   6    -0.03  -0.03  -0.11    -0.02  -0.02  -0.07    -0.00   0.00  -0.02
     6   8    -0.04   0.01  -0.11    -0.03   0.08   0.13    -0.00   0.07   0.17
     7   6     0.01   0.13   0.13    -0.01   0.02  -0.04    -0.00  -0.02  -0.06
     8   6    -0.05   0.02   0.04    -0.03   0.01   0.03    -0.00   0.00  -0.02
     9   6    -0.03   0.03   0.11    -0.02   0.02   0.07     0.00   0.00  -0.02
    10   8    -0.04  -0.01   0.11    -0.03  -0.08  -0.13     0.00   0.07   0.17
    11   6     0.01  -0.13  -0.13    -0.01  -0.02   0.04     0.00  -0.02  -0.06
    12   6     0.01   0.06   0.00     0.01   0.03   0.02     0.00  -0.00  -0.01
    13   6     0.01   0.08   0.00     0.04   0.05   0.02     0.00  -0.03  -0.01
    14   6     0.01  -0.08  -0.00     0.04  -0.05  -0.02    -0.00  -0.03  -0.01
    15   1     0.03  -0.11   0.00     0.02  -0.05  -0.04    -0.00  -0.00  -0.00
    16   1    -0.10   0.02  -0.05    -0.07   0.02  -0.04     0.00   0.01  -0.02
    17   1    -0.01  -0.02  -0.14     0.11   0.03  -0.20     0.11   0.03  -0.12
    18   1    -0.01  -0.08  -0.12    -0.13  -0.14  -0.13    -0.11  -0.08  -0.07
    19   1     0.07  -0.00   0.31     0.16   0.17  -0.30     0.15   0.16  -0.37
    20   1    -0.01   0.17   0.11    -0.01   0.13   0.19    -0.00   0.08   0.18
    21   1    -0.01   0.34   0.18    -0.15  -0.26  -0.14    -0.15  -0.36  -0.17
    22   1    -0.10  -0.02   0.05    -0.07  -0.02   0.04    -0.00   0.01  -0.02
    23   1    -0.01   0.08   0.12    -0.13   0.14   0.13     0.11  -0.08  -0.07
    24   1    -0.01   0.02   0.14     0.11  -0.03   0.20    -0.11   0.03  -0.12
    25   1     0.07   0.00  -0.31     0.16  -0.17   0.30    -0.15   0.16  -0.37
    26   1    -0.01  -0.17  -0.11    -0.01  -0.13  -0.19     0.00   0.08   0.18
    27   1    -0.01  -0.34  -0.18    -0.15   0.26   0.14     0.15  -0.36  -0.17
    28   1     0.03   0.11  -0.00     0.02   0.05   0.04     0.00  -0.00  -0.00
    29   1    -0.09   0.14   0.04    -0.01   0.10   0.07    -0.00  -0.04  -0.03
    30   1     0.10   0.14  -0.03     0.11   0.10  -0.01     0.00  -0.04   0.01
    31   1     0.10  -0.14   0.03     0.11  -0.10   0.01    -0.00  -0.04   0.01
    32   1    -0.09  -0.14  -0.04    -0.01  -0.10  -0.07     0.00  -0.04  -0.03
                      7                      8                      9
                      A                      A                      A
 Frequencies --    132.7391               158.8332               228.5120
 Red. masses --      5.7206                 3.1757                 1.3775
 Frc consts  --      0.0594                 0.0472                 0.0424
 IR Inten    --      4.6045                 0.9221                 5.0021
  Atom  AN      X      Y      Z        X      Y      Z        X      Y      Z
     1   8     0.00   0.23   0.34     0.15  -0.00   0.00     0.00   0.00   0.01
     2   6     0.00   0.00  -0.06     0.07   0.00   0.00     0.00   0.00   0.00
     3   6    -0.00  -0.05  -0.15     0.02  -0.05  -0.00     0.00   0.01   0.01
     4   6    -0.00  -0.11  -0.02    -0.06  -0.06   0.04     0.00  -0.00   0.03
     5   6     0.03  -0.05   0.10    -0.08  -0.02   0.16     0.01  -0.02  -0.01
     6   8     0.02  -0.01   0.07    -0.09   0.04   0.04     0.02  -0.04  -0.08
     7   6     0.10  -0.00  -0.05     0.05   0.10  -0.08     0.02  -0.00   0.02
     8   6     0.00  -0.11  -0.02    -0.06   0.06  -0.04    -0.00  -0.00   0.03
     9   6    -0.03  -0.05   0.10    -0.08   0.02  -0.16    -0.01  -0.02  -0.01
    10   8    -0.02  -0.01   0.07    -0.09  -0.04  -0.04    -0.02  -0.04  -0.08
    11   6    -0.10  -0.00  -0.05     0.05  -0.10   0.08    -0.02  -0.00   0.02
    12   6     0.00  -0.05  -0.15     0.02   0.05   0.00    -0.00   0.01   0.01
    13   6    -0.00   0.08  -0.13     0.03  -0.03  -0.00    -0.00   0.06   0.02
    14   6     0.00   0.08  -0.13     0.03   0.03   0.00     0.00   0.06   0.02
    15   1    -0.00  -0.06  -0.17     0.03  -0.11  -0.03     0.00   0.00   0.01
    16   1    -0.01  -0.22  -0.03     0.01  -0.15   0.06    -0.01   0.01   0.02
    17   1     0.05  -0.12   0.18    -0.09  -0.10   0.27    -0.04  -0.01   0.01
    18   1     0.04   0.03   0.12    -0.01   0.09   0.20     0.07  -0.01   0.01
    19   1     0.12   0.04  -0.11     0.00   0.08  -0.03     0.34   0.05  -0.16
    20   1     0.08   0.06  -0.07     0.02   0.17  -0.27     0.01   0.15   0.41
    21   1     0.16  -0.10  -0.06     0.27   0.10  -0.03    -0.30  -0.17  -0.08
    22   1     0.01  -0.22  -0.03     0.01   0.15  -0.06     0.01   0.01   0.02
    23   1    -0.04   0.03   0.12    -0.01  -0.09  -0.20    -0.07  -0.01   0.01
    24   1    -0.05  -0.12   0.18    -0.09   0.10  -0.27     0.04  -0.01   0.01
    25   1    -0.12   0.04  -0.11     0.00  -0.08   0.03    -0.34   0.05  -0.16
    26   1    -0.08   0.06  -0.07     0.02  -0.17   0.27    -0.01   0.15   0.41
    27   1    -0.16  -0.10  -0.06     0.27  -0.10   0.03     0.30  -0.17  -0.08
    28   1     0.00  -0.06  -0.17     0.03   0.11   0.03    -0.00   0.00   0.01
    29   1    -0.01   0.13  -0.06     0.07  -0.09  -0.08     0.00   0.07   0.05
    30   1    -0.00   0.14  -0.22    -0.01  -0.10   0.07    -0.00   0.08  -0.01
    31   1     0.00   0.14  -0.22    -0.01   0.10  -0.07     0.00   0.08  -0.01
    32   1     0.01   0.13  -0.06     0.07   0.09   0.08    -0.00   0.07   0.05
                     10                     11                     12
                      A                      A                      A
 Frequencies --    231.7670               275.1606               281.0254
 Red. masses --      1.2685                 2.6158                 4.3617
 Frc consts  --      0.0401                 0.1167                 0.2030
 IR Inten    --      0.0020                 2.5702                 0.4120
  Atom  AN      X      Y      Z        X      Y      Z        X      Y      Z
     1   8    -0.02   0.00   0.00     0.15   0.00   0.00     0.00  -0.03   0.02
     2   6    -0.01  -0.00   0.00     0.05   0.00  -0.00     0.00  -0.04   0.00
     3   6    -0.00  -0.00  -0.01     0.01   0.02   0.03    -0.00  -0.04  -0.01
     4   6     0.00   0.01  -0.02    -0.01   0.05  -0.01    -0.05  -0.03  -0.00
     5   6     0.01   0.01  -0.02     0.01   0.07  -0.07    -0.18  -0.01   0.11
     6   8     0.01   0.03   0.07     0.01   0.09  -0.01    -0.22   0.02  -0.04
     7   6    -0.01  -0.01  -0.01    -0.11   0.01  -0.01    -0.10   0.13  -0.05
     8   6     0.00  -0.01   0.02    -0.01  -0.05   0.01     0.05  -0.03  -0.00
     9   6     0.01  -0.01   0.02     0.01  -0.07   0.07     0.18  -0.01   0.11
    10   8     0.01  -0.03  -0.07     0.01  -0.09   0.01     0.22   0.02  -0.04
    11   6    -0.01   0.01   0.01    -0.11  -0.01   0.01     0.10   0.13  -0.05
    12   6    -0.00   0.00   0.01     0.01  -0.02  -0.03     0.00  -0.04  -0.01
    13   6     0.01   0.05   0.01    -0.00  -0.13  -0.02    -0.00  -0.05  -0.01
    14   6     0.01  -0.05  -0.01    -0.00   0.13   0.02     0.00  -0.05  -0.01
    15   1    -0.00   0.00  -0.00     0.01   0.01   0.01     0.00  -0.06  -0.02
    16   1    -0.02   0.02  -0.02    -0.03   0.12  -0.01     0.03  -0.11   0.01
    17   1     0.07   0.03  -0.07     0.06   0.08  -0.11    -0.24  -0.09   0.24
    18   1    -0.05  -0.04  -0.05    -0.02   0.03  -0.09    -0.11   0.13   0.16
    19   1    -0.33  -0.07   0.17    -0.26   0.02   0.02     0.08   0.13  -0.11
    20   1    -0.00  -0.17  -0.38    -0.08  -0.14  -0.04    -0.13   0.29   0.04
    21   1     0.28   0.16   0.09    -0.13   0.06   0.00    -0.13   0.04  -0.08
    22   1    -0.02  -0.02   0.02    -0.03  -0.12   0.01    -0.03  -0.11   0.01
    23   1    -0.05   0.04   0.05    -0.02  -0.03   0.09     0.11   0.13   0.16
    24   1     0.07  -0.03   0.08     0.06  -0.08   0.11     0.24  -0.09   0.24
    25   1    -0.33   0.07  -0.17    -0.26  -0.02  -0.02    -0.08   0.13  -0.11
    26   1    -0.00   0.17   0.38    -0.08   0.14   0.04     0.13   0.29   0.04
    27   1     0.28  -0.16  -0.09    -0.13  -0.06  -0.00     0.13   0.04  -0.08
    28   1    -0.00  -0.00   0.00     0.01  -0.01  -0.01    -0.00  -0.06  -0.02
    29   1    -0.05   0.11   0.07     0.15  -0.28  -0.17    -0.01  -0.05  -0.01
    30   1     0.08   0.12  -0.04    -0.18  -0.30   0.11     0.00  -0.05  -0.01
    31   1     0.08  -0.12   0.04    -0.18   0.30  -0.11    -0.00  -0.05  -0.01
    32   1    -0.05  -0.11  -0.07     0.15   0.28   0.17     0.01  -0.05  -0.01
                     13                     14                     15
                      A                      A                      A
 Frequencies --    308.8007               315.4281               367.9790
 Red. masses --      2.2337                 2.5523                 3.4083
 Frc consts  --      0.1255                 0.1496                 0.2719
 IR Inten    --      1.5252                 2.1121                 0.2835
  Atom  AN      X      Y      Z        X      Y      Z        X      Y      Z
     1   8     0.03   0.00  -0.00     0.00  -0.03   0.03    -0.00  -0.11   0.08
     2   6     0.02   0.00  -0.00     0.00  -0.04   0.01    -0.00  -0.14   0.01
     3   6     0.01   0.01  -0.00     0.00  -0.03   0.03    -0.00  -0.10  -0.00
     4   6     0.00   0.02  -0.01    -0.01  -0.02   0.01    -0.01  -0.07  -0.01
     5   6     0.03   0.11   0.09    -0.06  -0.10  -0.12     0.07   0.04  -0.01
     6   8     0.02   0.07  -0.05    -0.07  -0.02   0.04     0.06   0.14  -0.04
     7   6    -0.10   0.01  -0.01     0.02   0.03  -0.01    -0.15   0.02  -0.01
     8   6     0.00  -0.02   0.01     0.01  -0.02   0.01     0.01  -0.07  -0.01
     9   6     0.03  -0.11  -0.09     0.06  -0.10  -0.12    -0.07   0.04  -0.01
    10   8     0.02  -0.07   0.05     0.07  -0.02   0.04    -0.06   0.14  -0.04
    11   6    -0.10  -0.01   0.01    -0.02   0.03  -0.01     0.15   0.02  -0.01
    12   6     0.01  -0.01   0.00    -0.00  -0.03   0.03     0.00  -0.10  -0.00
    13   6     0.03   0.10   0.01    -0.00   0.16   0.05    -0.00   0.07   0.02
    14   6     0.03  -0.10  -0.01     0.00   0.16   0.05     0.00   0.07   0.02
    15   1     0.01   0.01  -0.00    -0.00  -0.03   0.01    -0.01  -0.10  -0.03
    16   1     0.01  -0.02  -0.01    -0.01   0.06   0.02    -0.02  -0.04  -0.01
    17   1    -0.03   0.02   0.25     0.02   0.01  -0.31     0.15  -0.03   0.06
    18   1     0.12   0.25   0.15    -0.16  -0.27  -0.19     0.13   0.07   0.02
    19   1    -0.11   0.05  -0.07    -0.02  -0.01   0.06    -0.31   0.07  -0.03
    20   1    -0.07  -0.08   0.14    -0.01   0.07  -0.16    -0.09  -0.21   0.07
    21   1    -0.26  -0.02  -0.05     0.17   0.07   0.03    -0.30   0.05  -0.03
    22   1     0.01   0.02   0.01     0.01   0.06   0.02     0.02  -0.04  -0.01
    23   1     0.12  -0.25  -0.15     0.16  -0.27  -0.19    -0.13   0.07   0.02
    24   1    -0.03  -0.02  -0.25    -0.02   0.01  -0.31    -0.15  -0.03   0.06
    25   1    -0.11  -0.05   0.07     0.02  -0.01   0.06     0.31   0.07  -0.03
    26   1    -0.07   0.08  -0.14     0.01   0.07  -0.16     0.09  -0.21   0.07
    27   1    -0.26   0.02   0.05    -0.17   0.07   0.03     0.30   0.05  -0.03
    28   1     0.01  -0.01   0.00     0.00  -0.03   0.01     0.01  -0.10  -0.03
    29   1    -0.10   0.21   0.12     0.00   0.21   0.16    -0.01   0.14   0.16
    30   1     0.15   0.23  -0.11    -0.01   0.23  -0.08     0.00   0.16  -0.13
    31   1     0.15  -0.23   0.11     0.01   0.23  -0.08    -0.00   0.16  -0.13
    32   1    -0.10  -0.21  -0.12    -0.00   0.21   0.16     0.01   0.14   0.16
                     16                     17                     18
                      A                      A                      A
 Frequencies --    404.3446               483.5875               495.9416
 Red. masses --      4.7445                 3.2877                 3.0061
 Frc consts  --      0.4570                 0.4530                 0.4356
 IR Inten    --      7.4823                 2.1393                 2.1604
  Atom  AN      X      Y      Z        X      Y      Z        X      Y      Z
     1   8     0.18  -0.00   0.00     0.19  -0.00   0.00     0.00   0.13  -0.06
     2   6    -0.10   0.00  -0.00    -0.11   0.00   0.00    -0.00   0.10  -0.10
     3   6    -0.16  -0.09  -0.16    -0.08   0.15   0.00    -0.00   0.04  -0.01
     4   6    -0.10  -0.07  -0.09     0.04   0.12  -0.01    -0.03  -0.07   0.19
     5   6     0.08   0.01   0.02    -0.06   0.09  -0.02     0.03  -0.10  -0.00
     6   8     0.12  -0.01   0.01    -0.05  -0.07   0.02    -0.01   0.05  -0.03
     7   6     0.06  -0.07   0.03     0.06  -0.01   0.00    -0.07   0.03  -0.01
     8   6    -0.10   0.07   0.09     0.04  -0.12   0.01     0.03  -0.07   0.19
     9   6     0.08  -0.01  -0.02    -0.06  -0.09   0.02    -0.03  -0.10  -0.00
    10   8     0.12   0.01  -0.01    -0.05   0.07  -0.02     0.01   0.05  -0.03
    11   6     0.06   0.07  -0.03     0.06   0.01  -0.00     0.07   0.03  -0.01
    12   6    -0.16   0.09   0.16    -0.08  -0.15  -0.00     0.00   0.04  -0.01
    13   6    -0.09   0.01   0.12     0.04   0.00   0.02     0.00  -0.03  -0.03
    14   6    -0.09  -0.01  -0.12     0.04  -0.00  -0.02    -0.00  -0.03  -0.03
    15   1    -0.19  -0.02  -0.17    -0.17   0.33  -0.09     0.03  -0.05  -0.01
    16   1    -0.20  -0.14  -0.13     0.02   0.16  -0.01    -0.10  -0.13   0.16
    17   1     0.13  -0.09   0.13    -0.18   0.14  -0.04     0.09   0.02  -0.21
    18   1     0.12   0.11   0.05    -0.14   0.12  -0.03     0.11  -0.40  -0.05
    19   1     0.01  -0.05   0.01     0.16  -0.03   0.01    -0.13   0.04   0.00
    20   1     0.08  -0.14   0.05     0.02   0.14  -0.04    -0.05  -0.06   0.02
    21   1     0.02  -0.07   0.02     0.15  -0.03   0.02    -0.14   0.06  -0.01
    22   1    -0.20   0.14   0.13     0.02  -0.16   0.01     0.10  -0.13   0.16
    23   1     0.12  -0.11  -0.05    -0.14  -0.12   0.03    -0.11  -0.40  -0.05
    24   1     0.13   0.09  -0.13    -0.18  -0.14   0.04    -0.09   0.02  -0.21
    25   1     0.01   0.05  -0.01     0.16   0.03  -0.01     0.13   0.04   0.00
    26   1     0.08   0.14  -0.05     0.02  -0.14   0.04     0.05  -0.06   0.02
    27   1     0.02   0.07  -0.02     0.15   0.03  -0.02     0.14   0.06  -0.01
    28   1    -0.19   0.02   0.17    -0.17  -0.33   0.09    -0.03  -0.05  -0.01
    29   1    -0.02  -0.07   0.05     0.04   0.09   0.19     0.03  -0.13  -0.18
    30   1    -0.04  -0.07   0.28     0.08   0.10  -0.12    -0.02  -0.13   0.12
    31   1    -0.04   0.07  -0.28     0.08  -0.10   0.12     0.02  -0.13   0.12
    32   1    -0.02   0.07  -0.05     0.04  -0.09  -0.19    -0.03  -0.13  -0.18
                     19                     20                     21
                      A                      A                      A
 Frequencies --    556.0602               612.0445               628.8780
 Red. masses --      2.9834                 4.1920                 4.2796
 Frc consts  --      0.5435                 0.9252                 0.9972
 IR Inten    --      3.4069                 1.4097                 0.8406
  Atom  AN      X      Y      Z        X      Y      Z        X      Y      Z
     1   8     0.06   0.00   0.00     0.05   0.00  -0.00     0.00   0.21  -0.13
     2   6    -0.14   0.00  -0.00    -0.04   0.00  -0.00     0.00   0.21  -0.05
     3   6    -0.10   0.03   0.05     0.02   0.05  -0.12    -0.06  -0.09   0.06
     4   6    -0.04  -0.05   0.17     0.25  -0.05  -0.03    -0.03  -0.11  -0.16
     5   6     0.05  -0.11   0.03     0.02  -0.11   0.02     0.01  -0.05  -0.00
     6   8     0.03   0.04  -0.03    -0.07   0.02  -0.01     0.01   0.01   0.00
     7   6    -0.04   0.01  -0.00    -0.09   0.07  -0.03    -0.01   0.00  -0.00
     8   6    -0.04   0.05  -0.17     0.25   0.05   0.03     0.03  -0.11  -0.16
     9   6     0.05   0.11  -0.03     0.02   0.11  -0.02    -0.01  -0.05  -0.00
    10   8     0.03  -0.04   0.03    -0.07  -0.02   0.01    -0.01   0.01   0.00
    11   6    -0.04  -0.01   0.00    -0.09  -0.07   0.03     0.01   0.00  -0.00
    12   6    -0.10  -0.03  -0.05     0.02  -0.05   0.12     0.06  -0.09   0.06
    13   6     0.10  -0.01  -0.03    -0.11  -0.00   0.12     0.03  -0.01   0.16
    14   6     0.10   0.01   0.03    -0.11   0.00  -0.12    -0.03  -0.01   0.16
    15   1    -0.16   0.11  -0.12    -0.03   0.29   0.02     0.05  -0.31   0.19
    16   1     0.10  -0.06   0.21     0.31  -0.21  -0.03     0.09  -0.04  -0.11
    17   1     0.12  -0.01  -0.15     0.03  -0.07  -0.05     0.08  -0.21   0.19
    18   1     0.16  -0.39   0.00    -0.00  -0.18  -0.00    -0.00   0.18   0.04
    19   1    -0.10   0.02   0.00    -0.11   0.07  -0.02    -0.04   0.02  -0.01
    20   1    -0.01  -0.09   0.04    -0.08   0.04  -0.02    -0.00  -0.03   0.00
    21   1    -0.11   0.04  -0.01    -0.11   0.08  -0.03    -0.02  -0.01  -0.01
    22   1     0.10   0.06  -0.21     0.31   0.21   0.03    -0.09  -0.04  -0.11
    23   1     0.16   0.39  -0.00    -0.00   0.18   0.00     0.00   0.18   0.04
    24   1     0.12   0.01   0.15     0.03   0.07   0.05    -0.08  -0.21   0.19
    25   1    -0.10  -0.02  -0.00    -0.11  -0.07   0.02     0.04   0.02  -0.01
    26   1    -0.01   0.09  -0.04    -0.08  -0.04   0.02     0.00  -0.03   0.00
    27   1    -0.11  -0.04   0.01    -0.11  -0.08   0.03     0.02  -0.01  -0.01
    28   1    -0.16  -0.11   0.12    -0.03  -0.29  -0.02    -0.05  -0.31   0.19
    29   1     0.09   0.06   0.09    -0.07  -0.00   0.16    -0.03   0.08   0.27
    30   1     0.12   0.06  -0.12    -0.08   0.01   0.11    -0.00   0.08   0.01
    31   1     0.12  -0.06   0.12    -0.08  -0.01  -0.11     0.00   0.08   0.01
    32   1     0.09  -0.06  -0.09    -0.07   0.00  -0.16     0.03   0.08   0.27
                     22                     23                     24
                      A                      A                      A
 Frequencies --    749.9882               766.8263               781.5992
 Red. masses --      3.4193                 2.8563                 2.6256
 Frc consts  --      1.1332                 0.9896                 0.9450
 IR Inten    --      5.4266                 1.7268                 1.0157
  Atom  AN      X      Y      Z        X      Y      Z        X      Y      Z
     1   8    -0.01  -0.00   0.00     0.00  -0.06  -0.00    -0.00  -0.02  -0.06
     2   6     0.20  -0.00   0.00    -0.00   0.04   0.19     0.00   0.16   0.27
     3   6     0.09   0.16  -0.09     0.01   0.14  -0.02     0.03  -0.02   0.01
     4   6    -0.13   0.01   0.08     0.03  -0.07  -0.11    -0.03   0.00   0.02
     5   6    -0.01   0.00   0.03     0.04  -0.12   0.02     0.00  -0.02   0.01
     6   8     0.03   0.01  -0.01    -0.00   0.01  -0.00     0.00   0.00  -0.00
     7   6     0.02  -0.02   0.01    -0.03   0.02  -0.01    -0.00   0.00  -0.00
     8   6    -0.13  -0.01  -0.08    -0.03  -0.07  -0.11     0.03   0.00   0.02
     9   6    -0.01  -0.00  -0.03    -0.04  -0.12   0.02    -0.00  -0.02   0.01
    10   8     0.03  -0.01   0.01     0.00   0.01  -0.00    -0.00   0.00  -0.00
    11   6     0.02   0.02  -0.01     0.03   0.02  -0.01     0.00   0.00  -0.00
    12   6     0.09  -0.16   0.09    -0.01   0.14  -0.02    -0.03  -0.02   0.01
    13   6    -0.10  -0.07   0.08    -0.04   0.06   0.02    -0.03  -0.05  -0.12
    14   6    -0.10   0.07  -0.08     0.04   0.06   0.02     0.03  -0.05  -0.12
    15   1     0.17  -0.05  -0.04    -0.09   0.36  -0.12     0.05  -0.07   0.01
    16   1    -0.14  -0.12   0.06     0.11  -0.13  -0.09    -0.05  -0.04   0.01
    17   1    -0.01   0.12  -0.14     0.11  -0.22   0.11     0.02   0.01  -0.04
    18   1     0.07  -0.24  -0.01     0.06  -0.05   0.05     0.02  -0.09   0.00
    19   1     0.01  -0.03   0.01    -0.07   0.03  -0.01    -0.01   0.00   0.00
    20   1     0.03  -0.04   0.02    -0.01  -0.03   0.01     0.00  -0.01   0.01
    21   1     0.00  -0.01   0.01    -0.06   0.02  -0.01    -0.01   0.00  -0.00
    22   1    -0.14   0.12  -0.06    -0.11  -0.13  -0.09     0.05  -0.04   0.01
    23   1     0.07   0.24   0.01    -0.06  -0.05   0.05    -0.02  -0.09   0.00
    24   1    -0.01  -0.12   0.14    -0.11  -0.22   0.11    -0.02   0.01  -0.04
    25   1     0.01   0.03  -0.01     0.07   0.03  -0.01     0.01   0.00   0.00
    26   1     0.03   0.04  -0.02     0.01  -0.03   0.01    -0.00  -0.01   0.01
    27   1     0.00   0.01  -0.01     0.06   0.02  -0.01     0.01   0.00  -0.00
    28   1     0.17   0.05   0.04     0.09   0.36  -0.12    -0.05  -0.07   0.01
    29   1    -0.05   0.07   0.39     0.10  -0.11  -0.17    -0.26   0.22   0.18
    30   1    -0.09   0.11  -0.19    -0.16  -0.12   0.22     0.27   0.24  -0.35
    31   1    -0.09  -0.11   0.19     0.16  -0.12   0.22    -0.27   0.24  -0.35
    32   1    -0.05  -0.07  -0.39    -0.10  -0.11  -0.17     0.26   0.22   0.18
                     25                     26                     27
                      A                      A                      A
 Frequencies --    810.7728               854.2417               877.5865
 Red. masses --      2.3451                 1.9902                 2.5143
 Frc consts  --      0.9083                 0.8557                 1.1409
 IR Inten    --      0.7403                 3.0939                 2.8430
  Atom  AN      X      Y      Z        X      Y      Z        X      Y      Z
     1   8     0.02   0.00   0.00     0.00  -0.02  -0.02    -0.00   0.01  -0.01
     2   6    -0.03  -0.00  -0.00    -0.00   0.06   0.13     0.00   0.02   0.00
     3   6     0.04   0.11   0.01    -0.06  -0.06  -0.01     0.12  -0.05   0.10
     4   6    -0.04  -0.07  -0.12    -0.11  -0.03   0.02     0.10   0.03  -0.02
     5   6     0.02  -0.09  -0.02    -0.03   0.06  -0.02     0.02  -0.05   0.01
     6   8     0.00   0.01   0.01     0.01   0.01  -0.00    -0.00  -0.00   0.01
     7   6    -0.01   0.01  -0.00     0.02  -0.03   0.01    -0.02   0.02  -0.01
     8   6    -0.04   0.07   0.12     0.11  -0.03   0.02    -0.10   0.03  -0.02
     9   6     0.02   0.09   0.02     0.03   0.06  -0.02    -0.02  -0.05   0.01
    10   8     0.00  -0.01  -0.01    -0.01   0.01  -0.00     0.00  -0.00   0.01
    11   6    -0.01  -0.01   0.00    -0.02  -0.03   0.01     0.02   0.02  -0.01
    12   6     0.04  -0.11  -0.01     0.06  -0.06  -0.01    -0.12  -0.05   0.10
    13   6     0.01  -0.03  -0.12     0.00   0.07  -0.03     0.11   0.05  -0.12
    14   6     0.01   0.03   0.12    -0.00   0.07  -0.03    -0.11   0.05  -0.12
    15   1    -0.04   0.27  -0.09    -0.01  -0.26  -0.10     0.19  -0.11   0.34
    16   1    -0.19  -0.08  -0.17    -0.14   0.02   0.02     0.15   0.10   0.01
    17   1     0.11  -0.29   0.22    -0.04   0.06  -0.01     0.03  -0.10   0.07
    18   1     0.02   0.15   0.04    -0.02   0.05  -0.02     0.02   0.03   0.03
    19   1    -0.04   0.02  -0.01     0.04  -0.03   0.01    -0.03   0.03  -0.01
    20   1     0.00  -0.03   0.00     0.02  -0.00   0.00    -0.01   0.00  -0.00
    21   1    -0.02  -0.01  -0.01     0.04  -0.03   0.01    -0.03   0.02  -0.01
    22   1    -0.19   0.08   0.17     0.14   0.02   0.02    -0.15   0.10   0.01
    23   1     0.02  -0.15  -0.04     0.02   0.05  -0.02    -0.02   0.03   0.03
    24   1     0.11   0.29  -0.22     0.04   0.06  -0.01    -0.03  -0.10   0.07
    25   1    -0.04  -0.02   0.01    -0.04  -0.03   0.01     0.03   0.03  -0.01
    26   1     0.00   0.03  -0.00    -0.02  -0.00   0.00     0.01   0.00  -0.00
    27   1    -0.02   0.01   0.01    -0.04  -0.03   0.01     0.03   0.02  -0.01
    28   1    -0.04  -0.27   0.09     0.01  -0.26  -0.10    -0.19  -0.11   0.34
    29   1    -0.06   0.04  -0.05     0.35  -0.17  -0.18     0.44  -0.08  -0.06
    30   1    -0.08   0.04  -0.31    -0.35  -0.17   0.08    -0.04  -0.09  -0.01
    31   1    -0.08  -0.04   0.31     0.35  -0.17   0.08     0.04  -0.09  -0.01
    32   1    -0.06  -0.04   0.05    -0.35  -0.17  -0.18    -0.44  -0.08  -0.06
                     28                     29                     30
                      A                      A                      A
 Frequencies --    888.5358               948.2023               985.3214
 Red. masses --      4.4368                 1.8992                 3.5369
 Frc consts  --      2.0638                 1.0061                 2.0232
 IR Inten    --      2.9577                 6.0361                20.5830
  Atom  AN      X      Y      Z        X      Y      Z        X      Y      Z
     1   8     0.00   0.04  -0.03    -0.01   0.00   0.00    -0.00   0.01  -0.02
     2   6    -0.00   0.04  -0.01     0.05  -0.00  -0.00     0.00   0.04   0.05
     3   6     0.27  -0.08  -0.04    -0.04   0.03   0.12    -0.09  -0.07  -0.05
     4   6     0.04   0.02   0.02    -0.01   0.00  -0.02     0.13   0.02   0.00
     5   6    -0.01   0.01  -0.01     0.02  -0.06  -0.03     0.17   0.07   0.04
     6   8     0.00   0.00   0.00    -0.00  -0.00   0.01    -0.05  -0.12   0.03
     7   6     0.00   0.00   0.00    -0.01   0.01  -0.00    -0.09   0.09  -0.04
     8   6    -0.04   0.02   0.02    -0.01  -0.00   0.02    -0.13   0.02   0.00
     9   6     0.01   0.01  -0.01     0.02   0.06   0.03    -0.17   0.07   0.04
    10   8    -0.00   0.00   0.00    -0.00   0.00  -0.01     0.05  -0.12   0.03
    11   6    -0.00   0.00   0.00    -0.01  -0.01   0.00     0.09   0.09  -0.04
    12   6    -0.27  -0.08  -0.04    -0.04  -0.03  -0.12     0.09  -0.07  -0.05
    13   6    -0.25   0.01   0.06     0.01  -0.03   0.12    -0.03   0.00   0.02
    14   6     0.25   0.01   0.06     0.01   0.03  -0.12     0.03   0.00   0.02
    15   1     0.27  -0.18  -0.27     0.04  -0.06   0.35    -0.12  -0.00  -0.06
    16   1    -0.06  -0.02  -0.02    -0.03   0.22   0.00     0.17  -0.02   0.01
    17   1    -0.02  -0.00   0.02     0.05  -0.24   0.20     0.07   0.25  -0.19
    18   1    -0.02   0.07  -0.00     0.02   0.18   0.03     0.10  -0.18  -0.03
    19   1    -0.00   0.00  -0.00    -0.03   0.03  -0.02     0.04   0.03  -0.01
    20   1     0.00   0.00  -0.00    -0.00  -0.01  -0.01    -0.15   0.28  -0.09
    21   1     0.00  -0.00   0.00    -0.01  -0.01  -0.00     0.01   0.08  -0.01
    22   1     0.06  -0.02  -0.02    -0.03  -0.22  -0.00    -0.17  -0.02   0.01
    23   1     0.02   0.07  -0.00     0.02  -0.18  -0.03    -0.10  -0.18  -0.03
    24   1     0.02  -0.00   0.02     0.05   0.24  -0.20    -0.07   0.25  -0.19
    25   1     0.00   0.00  -0.00    -0.03  -0.03   0.02    -0.04   0.03  -0.01
    26   1    -0.00   0.00  -0.00    -0.00   0.01   0.01     0.15   0.28  -0.09
    27   1    -0.00  -0.00   0.00    -0.01   0.01   0.00    -0.01   0.08  -0.01
    28   1    -0.27  -0.18  -0.27     0.04   0.06  -0.35     0.12  -0.00  -0.06
    29   1    -0.01  -0.09   0.11     0.16  -0.01   0.30     0.07  -0.04   0.04
    30   1    -0.35  -0.06   0.11     0.12   0.03   0.12    -0.24  -0.00  -0.12
    31   1     0.35  -0.06   0.11     0.12  -0.03  -0.12     0.24  -0.00  -0.12
    32   1     0.01  -0.09   0.11     0.16   0.01  -0.30    -0.07  -0.04   0.04
                     31                     32                     33
                      A                      A                      A
 Frequencies --    998.5312               999.3305              1009.4473
 Red. masses --      1.8890                 3.7187                 2.3633
 Frc consts  --      1.1097                 2.1880                 1.4188
 IR Inten    --     11.2112                18.5112                 1.7367
  Atom  AN      X      Y      Z        X      Y      Z        X      Y      Z
     1   8     0.00   0.00   0.01    -0.01  -0.00   0.00    -0.00  -0.01  -0.00
     2   6    -0.00  -0.02  -0.03     0.04  -0.00  -0.00    -0.00   0.02   0.05
     3   6     0.00   0.03   0.05    -0.03  -0.02  -0.04     0.12   0.03  -0.10
     4   6    -0.06  -0.04   0.04    -0.03   0.02   0.02    -0.03  -0.05   0.01
     5   6     0.09   0.00  -0.09     0.22   0.04  -0.01     0.03   0.06  -0.02
     6   8    -0.03  -0.05   0.04    -0.06  -0.15   0.06    -0.02  -0.03   0.01
     7   6    -0.04   0.04  -0.01    -0.11   0.10  -0.04    -0.02   0.01  -0.00
     8   6     0.06  -0.04   0.04    -0.03  -0.02  -0.02     0.03  -0.05   0.01
     9   6    -0.09   0.00  -0.09     0.22  -0.04   0.01    -0.03   0.06  -0.02
    10   8     0.03  -0.05   0.04    -0.06   0.15  -0.06     0.02  -0.03   0.01
    11   6     0.04   0.04  -0.01    -0.11  -0.10   0.04     0.02   0.01  -0.00
    12   6    -0.00   0.03   0.05    -0.03   0.02   0.04    -0.12   0.03  -0.10
[...]
 000128,-0.00014141,-0.00006371,-0.00000333,0.00038748,0.00035518,-0.00
 026614,-0.00022127,-0.00718519,0.00005657,-0.03637636,0.00864709,0.019
 24675,-0.14201669,-0.03486599,0.10979200,-0.00003927,-0.00001930,0.000
 08117,-0.00021347,0.00001912,0.00004508,0.00002656,0.00000199,0.000001
 29,-0.00001108,0.00002560,-0.00006162,-0.00001643,0.00005085,0.0000026
 6,-0.00002003,-0.00000807,-0.00003347,-0.00000568,0.00000277,0.0000072
 7,0.00002017,-0.00000065,0.00001020,0.00001202,0.00002130,0.00000041,0
 .00002683,-0.00000124,-0.00001201,0.00034769,-0.00019649,-0.00013771,0
 .00102542,0.00189395,-0.00080461,0.00020079,0.00086778,0.00016526,0.01
 093298,0.00187835,-0.00883166,-0.00394865,-0.00307969,0.00694729,0.169
 79972,0.00001492,-0.00000350,0.00000051,-0.00003770,0.00000806,-0.0000
 1220,0.00000537,-0.00004507,0.00000296,-0.00001544,-0.00000570,0.00010
 453,0.00007866,-0.00003154,-0.00004003,-0.00002942,0.00002693,0.000010
 26,-0.00000588,-0.00000917,-0.00000251,0.00015291,-0.00010907,0.000018
 68,0.00304609,0.00514446,-0.00326873,0.01972411,0.00014322,-0.01392992
 ,-0.03727896,-0.06838978,0.04241863,-0.00001067,0.00002706,-0.00001562
 ,0.00002726,0.00000228,-0.00001041,0.00000975,-0.00000300,-0.00000646,
 0.00000306,-0.00000472,0.00000502,-0.00000714,0.00000654,-0.00000565,-
 0.00000210,-0.00000291,-0.00000501,-0.00002429,-0.00000122,0.00003277,
 0.00000025,-0.00000066,-0.00000201,-0.00000153,0.00000196,0.00000048,0
 .00000124,-0.00000244,0.00000128,-0.00015201,-0.00012703,0.00010774,-0
 .00141950,0.00073679,0.00110976,-0.00013455,-0.00042870,0.00011474,0.0
 0363060,0.00279762,-0.00665541,-0.01906969,-0.00434166,0.02426297,0.03
 155200,0.06462011,0.00001219,-0.00002521,-0.00000125,-0.00003375,0.000
 05220,0.00002541,-0.00000851,-0.00004508,-0.00001740,0.00008698,0.0000
 1797,-0.00002411,0.00006585,0.00001161,-0.00007515,-0.00006433,-0.0000
 3971,0.00002281,0.00005569,0.00001540,-0.00001862,-0.00032680,-0.00029
 253,0.00032118,-0.00076994,0.00064129,0.00087061,-0.00054229,-0.004490
 67,0.01125495,0.11171674,0.04191807,-0.18997316,-0.00000920,0.00004002
 ,-0.00001431,0.00004135,-0.00005754,-0.00003766,0.00002556,0.00000429,
 0.00000826,0.00000053,-0.00000646,0.00001501,-0.00000876,-0.00002318,0
 .00000455,0.00001670,0.00000282,0.00000896,-0.00000718,-0.00000529,0.0
 0003816,-0.00000246,-0.00000171,-0.00000351,-0.00000694,-0.00000159,0.
 00000110,-0.00001201,-0.00000128,0.00001668,-0.00019332,0.00015894,-0.
 00003162,0.00049623,-0.00136130,-0.00017242,-0.00001042,0.00015098,-0.
 00055945,0.01820887,0.00794071,-0.02198785,-0.00251306,-0.00039774,0.0
 0240951,-0.12615791,-0.04423833,0.19793384,0.00114008,-0.00400756,-0.0
 0003311,0.01354059,0.02067692,0.00019790,-0.00221489,0.00505547,0.0000
 2637,-0.00128587,0.00075990,-0.00278035,0.00047316,-0.00024317,0.00002
 296,-0.00022101,-0.00024461,0.00002553,0.00009728,-0.00003193,0.000072
 66,-0.00565677,-0.01436983,0.00134908,0.00011864,-0.00192033,-0.000076
 61,0.00030640,0.00082287,0.00023510,-0.00021260,0.00053895,0.00007141,
 -0.09258825,-0.10429937,0.00066915,-0.00509910,-0.01522660,-0.00153879
 ,-0.00127157,0.00079040,0.00293488,0.00106574,0.00078586,-0.00003398,-
 0.00004753,-0.00039880,0.00000697,0.00006613,0.00002925,-0.00002647,0.
 00000301,-0.00001754,0.00003596,0.00000349,0.00000904,-0.00001157,-0.0
 0002957,-0.00002819,-0.00000469,-0.00001108,-0.00000306,0.00000053,0.0
 0081454,0.00063464,0.00021433,0.00005617,0.00010499,-0.00004318,-0.000
 06670,0.00037189,-0.00006816,0.00020110,-0.00009706,0.00009206,-0.0000
 4784,0.00002131,-0.00002883,0.00010809,-0.00004486,-0.00003247,0.09028
 687,0.00121290,0.00357790,0.00003734,-0.01381755,-0.01592216,-0.000142
 26,0.00163200,-0.00404719,0.00005890,0.00052158,-0.00007644,0.00047940
 ,0.00022050,0.00012302,0.00000567,-0.00020792,-0.00011781,-0.00008802,
 0.00012576,0.00010136,0.00000146,0.00025598,-0.00166065,0.00049782,-0.
 00007064,-0.00044870,-0.00035483,0.00095067,-0.00021269,0.00054293,-0.
 00006781,0.00023423,0.00011773,-0.10150492,-0.28752245,-0.00022331,0.0
 0063434,-0.00072105,-0.00054580,0.00041419,-0.00011403,-0.00057078,-0.
 00078586,-0.00058925,0.00002932,-0.00007625,-0.00019246,-0.00009728,-0
 .00007499,-0.00003888,-0.00004692,-0.00002531,-0.00001826,0.00001754,-
 0.00003741,-0.00000856,-0.00001983,-0.00000222,-0.00001390,0.00000145,
 -0.00002560,-0.00000472,0.00000646,-0.00000870,0.00034945,-0.00045543,
 0.00005172,-0.00000487,-0.00001319,-0.00002682,0.00004861,0.00004982,0
 .00007505,-0.00002784,0.00003698,-0.00001465,0.00000696,0.00000072,0.0
 0002038,-0.00000723,-0.00001478,0.11075729,0.30696978,0.00003580,-0.00
 000353,-0.00069425,-0.00010496,-0.00001517,-0.00179585,0.00011999,-0.0
 0010708,-0.00079990,-0.00315701,-0.00151768,-0.00330468,0.00126244,-0.
 00055552,-0.00016015,-0.00064255,-0.00060313,0.00003419,0.00019661,-0.
 00005894,0.00001637,-0.00782563,-0.02336323,0.00129919,0.00052446,-0.0
 0105485,0.00001447,-0.00008718,0.00063740,-0.00008954,0.00006918,0.000
 26654,0.00001936,0.00098716,0.00055139,-0.04834391,0.00685210,0.023414
 52,0.00155021,0.00289358,0.00155309,-0.00326224,-0.00003398,-0.0000293
 2,0.00041300,-0.00001408,-0.00069821,-0.00012915,-0.00000200,0.0000553
 8,0.00001992,-0.00015672,-0.00001025,0.00007553,-0.00002733,0.00000072
 ,-0.00000658,-0.00005714,-0.00005728,-0.00000728,-0.00006162,-0.000005
 02,0.00001501,0.00072029,0.00006525,0.00103584,-0.00006806,0.00007368,
 -0.00000088,-0.00013595,0.00018613,-0.00006257,0.00006337,-0.00007267,
 0.00001243,-0.00004333,0.00002377,0.00000731,0.00008622,-0.00002425,-0
 .00001066,-0.00087986,-0.00019901,0.05322379,-0.00075029,0.00136325,-0
 .00039997,-0.00117156,-0.00408705,0.00273064,0.00051031,-0.00036126,-0
 .00101768,-0.00010786,0.00001356,-0.00014294,-0.00014762,0.00004207,0.
 00006027,0.00013976,0.00000831,0.00002734,-0.00006738,-0.00003445,-0.0
 0001075,0.00002152,-0.00034825,-0.00197977,-0.00052925,0.00056292,-0.0
 0045269,0.00012914,-0.00029907,-0.00046112,0.00013081,-0.00023958,0.00
 015447,-0.01387605,0.00670822,0.00248307,-0.27675293,0.09480008,-0.007
 24393,0.00425905,-0.00222943,-0.00012390,0.00006597,-0.00003448,-0.000
 08930,0.00001509,-0.00003401,0.00001444,0.00003868,0.00002170,0.000040
 64,0.00003504,0.00003984,-0.00001851,0.00001399,0.00000353,0.00001481,
 0.00000360,0.00000511,-0.00000079,0.00001093,0.00000368,-0.00000804,0.
 00005529,0.00000350,0.00004849,0.00047702,0.00026507,-0.00144180,0.000
 51250,-0.00016943,-0.00028696,-0.00003563,0.00000936,-0.00007545,0.000
 00269,0.00000087,0.00001047,0.00006520,0.00001696,0.00000336,-0.000437
 30,-0.00006646,0.00034472,0.29968193,-0.00085763,0.00099104,-0.0003217
 5,0.00016687,-0.00301457,0.00168365,0.00022995,-0.00341736,0.00086195,
 0.00030862,-0.00025095,0.00001779,0.00030560,-0.00019481,-0.00024380,-
 0.00014160,0.00022397,0.00001390,0.00001378,0.00000785,-0.00002870,0.0
 0105744,0.00003113,-0.00060640,0.00118010,0.00130722,0.00032191,-0.000
 29452,-0.00043032,-0.00038442,0.00009355,-0.00004536,0.00002269,-0.010
 41047,0.00537355,-0.00032513,0.09354300,-0.08511906,0.00101606,0.02748
 525,-0.01120308,0.00163837,0.00061709,0.00013362,-0.00111440,-0.000123
 33,0.00007506,-0.00012708,-0.00009498,-0.00001422,0.00001088,-0.000148
 34,-0.00004693,0.00007764,-0.00001000,-0.00000350,-0.00000620,0.000003
 23,0.00001294,0.00000872,-0.00000447,-0.00001028,0.00001376,-0.0002232
 8,-0.00008961,-0.00022700,-0.00050750,0.00005969,0.00038383,-0.0001481
 1,-0.00013557,0.00017121,-0.00003545,0.00001013,-0.00003215,0.00001005
 ,-0.00002600,0.00000873,0.00003965,0.00000613,0.00006136,0.00003344,-0
 .00002513,-0.00023972,-0.10131322,0.09234948,0.00190639,-0.00201127,0.
 00128985,0.00182587,0.00494586,-0.00514010,-0.00057806,-0.00087591,0.0
 0056264,0.00023286,-0.00030375,0.00006095,0.00022457,-0.00021527,-0.00
 018153,-0.00006393,0.00019998,0.00001745,-0.00007004,-0.00004138,-0.00
 000741,-0.00045275,-0.00018410,0.00216984,0.00007404,0.00031355,-0.002
 32722,0.00011523,-0.00056305,0.00062381,-0.00046701,0.00031753,-0.0001
 3813,0.02613938,-0.01241231,-0.00109651,-0.00836159,0.00161561,-0.0483
 2730,-0.00064672,-0.00027020,-0.00173935,-0.00004774,-0.00008684,-0.00
 012603,-0.00001747,0.00007692,-0.00001506,-0.00007392,-0.00001595,-0.0
 0001224,-0.00013672,-0.00005863,0.00008393,0.00000650,-0.00000316,-0.0
 0000214,0.00000440,0.00001440,0.00000143,0.00001173,-0.00000717,0.0000
 0099,-0.00005046,0.00026113,0.00056462,-0.00160926,0.00003893,-0.00165
 387,-0.00019500,-0.00018989,0.00046176,0.00008168,-0.00001327,0.000057
 88,0.00001408,-0.00006016,0.00002326,0.00004075,0.00002436,-0.00001926
 ,-0.00001827,0.00020786,0.00004767,0.00817662,-0.00219335,0.05324182,-
 0.00011698,-0.00032114,-0.00024315,0.00138449,-0.00012194,0.00048994,-
 0.00015108,0.00073503,0.00007861,-0.00007670,-0.00020360,-0.00014847,-
 0.00021470,0.00017328,0.00014791,0.00004947,-0.00011973,-0.00006496,0.
 00005689,0.00005348,0.00002178,-0.00281475,-0.00055022,0.00264469,-0.0
 0096969,-0.00050361,0.00016325,0.00016442,0.00034428,-0.00015326,0.000
 13003,-0.00015217,0.00009257,0.00894536,0.00697841,0.01610146,-0.10884
 698,-0.04206838,-0.10104258,-0.00069426,0.00132420,0.00081201,-0.00006
 510,0.00007111,0.00009338,-0.00001222,-0.00002648,-0.00007048,0.000006
 66,-0.00001554,-0.00003386,0.00012473,0.00003252,-0.00002812,-0.000009
 28,0.00000052,-0.00000661,0.00000159,-0.00000987,-0.00000165,-0.000004
 71,0.00000562,-0.00000218,0.00065336,0.00021951,0.00105021,0.00069131,
 0.00011964,-0.00030362,0.00025433,0.00004568,-0.00025718,-0.00001865,0
 .00000779,-0.00002073,0.00000250,0.00003415,-0.00001933,-0.00000467,-0
 .00002015,-0.00002051,0.00090791,-0.00002261,-0.00086257,-0.01432173,-
 0.01115257,-0.02624996,0.11290746,0.00077018,0.00027001,0.00027846,-0.
 00104565,-0.00089221,-0.00070092,-0.00008199,-0.00341411,0.00082142,0.
 00014249,-0.00010907,0.00048141,-0.00007186,0.00000548,0.00015790,-0.0
 0005475,0.00005512,-0.00014228,0.00008259,0.00010243,0.00004340,-0.001
 50557,0.00015762,0.00215946,-0.00005439,0.00020694,-0.00006739,-0.0000
 2685,-0.00007147,-0.00001588,-0.00006490,0.00006748,-0.00003384,0.0053
 6741,0.00354237,0.00845620,-0.04181815,-0.07872974,-0.07713493,-0.0141
 5619,-0.01271332,-0.02386188,0.00052894,-0.00012422,-0.00088786,-0.000
 00628,0.00008722,-0.00006190,-0.00001892,-0.00003939,-0.00010154,0.000
 10710,-0.00003713,0.00005295,-0.00002349,-0.00000594,-0.00002911,0.000
 00576,-0.00000487,0.00000055,0.00000514,-0.00000168,0.00000553,0.00020
 611,0.00023242,0.00066727,-0.00019213,-0.00007722,-0.00005302,-0.00007
 171,-0.00003602,0.00009728,0.00000937,-0.00000521,0.00000873,0.0000045
 8,-0.00002404,0.00001237,0.00000648,0.00000419,0.00000604,0.00068675,0
 .00035358,-0.00021525,0.00553837,0.00505838,0.01057650,0.04553126,0.08
 827383,0.00117523,0.00000919,0.00039152,-0.00239869,0.00074639,-0.0003
 9827,-0.00004981,-0.00030044,0.00012832,-0.00015429,0.00051033,0.00047
 825,0.00018042,0.00007694,-0.00001172,-0.00013823,-0.00021548,0.000011
 68,0.00011152,0.00003939,0.00000261,0.00464472,0.00185529,-0.00346599,
 0.00086778,-0.00037853,0.00038738,-0.00022215,0.00032483,0.00008280,0.
 00020997,-0.00010975,-0.00001212,-0.01194610,-0.00932023,-0.02171178,-
 0.10013876,-0.07667160,-0.22339667,0.00212615,0.00201486,0.00317557,-0
 .00006497,-0.00005931,-0.00009916,0.00005305,-0.00002066,0.00006991,0.
 00000239,0.00000261,0.00001322,-0.00003341,-0.00001046,-0.00001161,-0.
 00001661,0.00000092,-0.00000425,-0.00001225,-0.00002387,-0.00000123,-0
 .00002607,0.00000037,0.00000471,-0.00095847,-0.00056980,-0.00156330,-0
 .00005404,0.00000802,0.00020599,-0.00007009,0.00004809,-0.00000978,-0.
 00003254,0.00001246,0.00000016,-0.00002511,0.00005966,-0.00001808,-0.0
 0005672,-0.00000493,0.00000970,-0.00026584,0.00053390,0.00110852,-0.00
 093302,0.00027836,0.00032048,0.10732037,0.08040807,0.24245379,-0.00011
 698,0.00032114,-0.00024315,0.00138449,0.00012195,0.00048994,0.00894533
 ,-0.00697843,0.01610145,-0.00281475,0.00055022,0.00264468,-0.00096969,
 0.00050361,0.00016325,0.00016442,-0.00034427,-0.00015326,0.00013003,0.
 00015217,0.00009257,-0.00007670,0.00020360,-0.00014847,-0.00021470,-0.
 00017328,0.00014792,0.00004947,0.00011973,-0.00006496,0.00005689,-0.00
 005348,0.00002178,-0.00015108,-0.00073503,0.00007861,-0.00069425,-0.00
 132422,0.00081205,-0.10884664,0.04206839,-0.10104217,0.00090791,0.0000
 2262,-0.00086258,0.00065336,-0.00021951,0.00105021,0.00025433,-0.00004
 567,-0.00025717,0.00069131,-0.00011964,-0.00030362,-0.00001865,-0.0000
 0779,-0.00002073,0.00000250,-0.00003415,-0.00001933,-0.00000467,0.0000
 2015,-0.00002051,-0.00001222,0.00002648,-0.00007048,0.00012474,-0.0000
 3252,-0.00002812,0.00000666,0.00001554,-0.00003386,-0.00000928,-0.0000
 0052,-0.00000661,0.00000159,0.00000987,-0.00000165,-0.00000471,-0.0000
 0562,-0.00000218,-0.00006511,-0.00007111,0.00009338,0.00040644,0.00059
 200,0.00021114,0.00163455,-0.00020354,0.00030192,0.11290710,-0.0007701
 8,0.00027001,-0.00027847,0.00104565,-0.00089221,0.00070092,-0.00536739
 ,0.00354238,-0.00845621,0.00150558,0.00015762,-0.00215946,0.00005439,0
 .00020694,0.00006740,0.00002685,-0.00007147,0.00001588,0.00006490,0.00
 006748,0.00003384,-0.00014249,-0.00010907,-0.00048141,0.00007186,0.000
 00548,-0.00015789,0.00005476,0.00005512,0.00014228,-0.00008259,0.00010
 243,-0.00004340,0.00008199,-0.00341413,-0.00082142,0.01415611,-0.01271
 329,0.02386186,0.04181817,-0.07873006,0.07713512,-0.00068675,0.0003535
 8,0.00021525,-0.00020611,0.00023242,-0.00066727,0.00007171,-0.00003602
 ,-0.00009728,0.00019213,-0.00007721,0.00005302,-0.00000937,-0.00000521
 ,-0.00000873,-0.00000457,-0.00002404,-0.00001237,-0.00000648,0.0000041
 9,-0.00000604,0.00000628,0.00008722,0.00006190,-0.00010710,-0.00003713
 ,-0.00005295,0.00001893,-0.00003939,0.00010154,0.00002349,-0.00000594,
 0.00002911,-0.00000576,-0.00000487,-0.00000055,-0.00000514,-0.00000168
 ,-0.00000553,-0.00052894,-0.00012422,0.00088786,-0.00040386,-0.0039345
 9,0.00088244,0.00020354,0.00180317,0.00004531,-0.04553125,0.08827410,0
 .00117523,-0.00000919,0.00039152,-0.00239869,-0.00074639,-0.00039827,-
 0.01194606,0.00932025,-0.02171178,0.00464472,-0.00185529,-0.00346599,0
 .00086778,0.00037853,0.00038738,-0.00022215,-0.00032483,0.00008280,0.0
 0020997,0.00010975,-0.00001212,-0.00015429,-0.00051033,0.00047826,0.00
 018042,-0.00007694,-0.00001173,-0.00013823,0.00021548,0.00001168,0.000
 11152,-0.00003939,0.00000260,-0.00004981,0.00030043,0.00012832,0.00212
 616,-0.00201487,0.00317559,-0.10013835,0.07667178,-0.22339627,-0.00026
 584,-0.00053390,0.00110852,-0.00095847,0.00056980,-0.00156331,-0.00007
 009,-0.00004809,-0.00000978,-0.00005404,-0.00000802,0.00020599,-0.0000
 3254,-0.00001246,0.00000016,-0.00002511,-0.00005966,-0.00001808,-0.000
 05672,0.00000493,0.00000970,0.00005305,0.00002066,0.00006991,-0.000033
 41,0.00001046,-0.00001161,0.00000239,-0.00000261,0.00001322,-0.0000166
 1,-0.00000092,-0.00000425,-0.00001225,0.00002387,-0.00000123,-0.000026
 07,-0.00000037,0.00000471,-0.00006497,0.00005931,-0.00009916,0.0006036
 2,-0.00071007,0.00004808,0.00030192,-0.00004530,0.00181128,0.10731993,
 -0.08040826,0.24245342,-0.00075029,-0.00136325,-0.00039997,-0.00117156
 ,0.00408705,0.00273064,-0.01387610,-0.00670821,0.00248307,0.00002154,0
 .00034825,-0.00197978,-0.00052924,-0.00056293,-0.00045266,0.00012914,0
 .00029907,-0.00046113,0.00013081,0.00023958,0.00015447,-0.00010786,-0.
 00001356,-0.00014294,-0.00014762,-0.00004207,0.00006027,0.00013976,-0.
 00000831,0.00002734,-0.00006738,0.00003445,-0.00001075,0.00051031,0.00
 036125,-0.00101768,0.00425905,0.00222942,-0.00012388,-0.27675291,-0.09
 480002,-0.00724440,-0.00043730,0.00006645,0.00034472,0.00005529,-0.000
 00350,0.00004849,0.00051250,0.00016943,-0.00028696,0.00047703,-0.00026
 507,-0.00144178,-0.00003563,-0.00000936,-0.00007545,0.00000269,-0.0000
 0087,0.00001047,0.00006520,-0.00001696,0.00000336,0.00001509,0.0000340
 1,0.00001444,0.00003504,-0.00003984,-0.00001851,0.00003868,-0.00002170
 ,0.00004064,0.00001399,-0.00000353,0.00001481,0.00000360,-0.00000511,-
 0.00000079,0.00001093,-0.00000368,-0.00000804,0.00006597,0.00003448,-0
 .00008929,0.00162262,-0.00021415,-0.00002633,0.00040644,0.00040386,0.0
 0060362,-0.01432170,-0.00553834,-0.00093304,0.29968191,0.00085763,0.00
 099104,0.00032175,-0.00016687,-0.00301457,-0.00168365,0.01041047,0.005
 37355,0.00032514,-0.00105744,0.00003113,0.00060640,-0.00118010,0.00130
 721,-0.00032192,0.00029452,-0.00043031,0.00038442,-0.00009355,-0.00004
 536,-0.00002269,-0.00030862,-0.00025095,-0.00001780,-0.00030561,-0.000
 19482,0.00024380,0.00014160,0.00022398,-0.00001390,-0.00001377,0.00000
 785,0.00002870,-0.00022996,-0.00341735,-0.00086194,-0.02748523,-0.0112
 0300,-0.00163842,-0.09354297,-0.08511907,-0.00101621,-0.00003344,-0.00
 002513,0.00023972,0.00022327,-0.00008961,0.00022700,0.00014811,-0.0001
 3557,-0.00017121,0.00050749,0.00005969,-0.00038382,0.00003545,0.000010
 13,0.00003215,-0.00001005,-0.00002600,-0.00000873,-0.00003965,0.000006
 13,-0.00006136,0.00012333,0.00007506,0.00012708,0.00014834,-0.00004694
 ,-0.00007764,0.00009498,-0.00001422,-0.00001088,0.00001000,-0.00000350
 ,0.00000620,-0.00000323,0.00001294,-0.00000872,0.00000447,-0.00001028,
 -0.00001376,-0.00061709,0.00013361,0.00111440,0.00021415,0.00232117,0.
 00003061,-0.00059200,-0.00393460,0.00071007,0.01115260,0.00505838,-0.0
 0027834,0.10131314,0.09234942,0.00190639,0.00201127,0.00128985,0.00182
 588,-0.00494585,-0.00514009,0.02613941,0.01241227,-0.00109651,-0.00045
 275,0.00018409,0.00216983,0.00007404,-0.00031355,-0.00232720,0.0001152
 2,0.00056305,0.00062380,-0.00046701,-0.00031753,-0.00013813,0.00023286
 ,0.00030375,0.00006094,0.00022457,0.00021527,-0.00018153,-0.00006393,-
 0.00019998,0.00001745,-0.00007004,0.00004138,-0.00000740,-0.00057806,0
 .00087591,0.00056264,-0.00064673,0.00027019,-0.00173937,-0.00836205,-0
 .00161575,-0.04832728,-0.00001827,-0.00020785,0.00004767,-0.00005046,-
 0.00026112,0.00056463,-0.00019500,0.00018989,0.00046175,-0.00160925,-0
 .00003894,-0.00165385,0.00008168,0.00001327,0.00005788,0.00001408,0.00
 006016,0.00002325,0.00004076,-0.00002436,-0.00001926,-0.00001747,-0.00
 007692,-0.00001506,-0.00013672,0.00005863,0.00008393,-0.00007392,0.000
 01595,-0.00001224,0.00000650,0.00000316,-0.00000214,0.00000440,-0.0000
 1440,0.00000143,0.00001173,0.00000717,0.00000099,-0.00004774,0.0000868
 4,-0.00012603,-0.00002633,-0.00003061,0.00120968,0.00021114,-0.0008824
 5,0.00004809,-0.02624998,-0.01057647,0.00032043,0.00817705,0.00219353,
 0.05324182\\0.00020605,-0.00000002,0.00010494,-0.00018749,0.00000006,-
 0.00044515,0.00004105,0.00004428,0.00006946,0.00004793,0.00007661,0.00
 001967,-0.00009750,0.00002213,0.00002812,0.00006116,-0.00004315,-0.000
 00143,-0.00008440,0.00000822,0.00001258,0.00004814,-0.00007642,0.00002
 016,-0.00009733,-0.00002174,0.00002767,0.00006160,0.00004247,-0.000001
 43,-0.00008488,-0.00000789,0.00001283,0.00004087,-0.00004468,0.0000694
 6,-0.00008324,-0.00002165,0.00000541,-0.00008356,0.00002216,0.00000572
 ,0.00001637,0.00004599,0.00001480,0.00005471,0.00000996,0.00000040,0.0
 0005538,-0.00000764,0.00002677,0.00000799,-0.00003127,-0.00001865,-0.0
 0000143,0.00000403,-0.00000947,0.00002544,0.00002137,-0.00000190,-0.00
 000930,-0.00001521,0.00003068,0.00005470,-0.00001003,0.00000017,0.0000
 0779,0.00003114,-0.00001850,0.00005544,0.00000780,0.00002713,-0.000001
 61,-0.00000411,-0.00000972,0.00002550,-0.00002132,-0.00000190,-0.00000
 924,0.00001518,0.00003057,0.00001632,-0.00004601,0.00001491,-0.0000540
 2,-0.00000182,0.00000549,0.00001071,0.00001090,-0.00001215,0.00001082,
 -0.00001106,-0.00001207,-0.00005397,0.00000170,0.00000543\\\@


 DO YOU KNOW THAT THE LETTERS IN "EPISCOPAL", WHEN
 REARRANGED, SPELL "PEPSI COLA"?
 Job cpu time:       0 days  0 hours  3 minutes 39.0 seconds.
 Elapsed time:       0 days  0 hours  3 minutes 56.4 seconds.
 File lengths (MBytes):  RWF=    237 Int=      0 D2E=      0 Chk=     16 Scr=      1
 Normal termination of Gaussian 16 at Sat Feb 24 01:36:58 2024.
