 Entering Gaussian System, Link 0=g16
 Input=/Volumes/SSD-PMU3/b3lyp_6-31gd_freq/QAFCUHJMKAQBFU-MWLCHTKSSA-N_calculating/gaussianinput0.gjf
 Output=/Volumes/SSD-PMU3/b3lyp_6-31gd_freq/QAFCUHJMKAQBFU-MWLCHTKSSA-N_calculating/gaussianinput0.log
 Initial command:
 /Applications/g16/l1.exe "/Users/macmini_m1_2022/PycharmProjects/sphere_model/sphere_model_lib/Gau-63141.inp" -scrdir="/Users/macmini_m1_2022/PycharmProjects/sphere_model/sphere_model_lib/"
 Entering Link 1 = /Applications/g16/l1.exe PID=     63142.
  
 Copyright (c) 1988,1990,1992,1993,1995,1998,2003,2009,2016,
            Gaussian, Inc.  All Rights Reserved.
  
 This is part of the Gaussian(R) 16 program.  It is based on
 the Gaussian(R) 09 system (copyright 2009, Gaussian, Inc.),
 the Gaussian(R) 03 system (copyright 2003, Gaussian, Inc.),
 the Gaussian(R) 98 system (copyright 1998, Gaussian, Inc.),
 the Gaussian(R) 94 system (copyright 1995, Gaussian, Inc.),
 the Gaussian 92(TM) system (copyright 1992, Gaussian, Inc.),
 the Gaussian 90(TM) system (copyright 1990, Gaussian, Inc.),
 the Gaussian 88(TM) system (copyright 1988, Gaussian, Inc.),
 the Gaussian 86(TM) system (copyright 1986, Carnegie Mellon
 University), and the Gaussian 82(TM) system (copyright 1983,
 Carnegie Mellon University). Gaussian is a federally registered
 trademark of Gaussian, Inc.
  
 This software contains proprietary and confidential information,
 including trade secrets, belonging to Gaussian, Inc.
  
 This software is provided under written license and may be
 used, copied, transmitted, or stored only in accord with that
 written license.
  
 The following legend is applicable only to US Government
 contracts under FAR:
  
                    RESTRICTED RIGHTS LEGEND
  
 Use, reproduction and disclosure by the US Government is
 subject to restrictions as set forth in subparagraphs (a)
 and (c) of the Commercial Computer Software - Restricted
 Rights clause in FAR 52.227-19.
  
 Gaussian, Inc.
 340 Quinnipiac St., Bldg. 40, Wallingford CT 06492
  
  
 ---------------------------------------------------------------
 Warning -- This program may not be used in any manner that
 competes with the business of Gaussian, Inc. or will provide
 assistance to any competitor of Gaussian, Inc.  The licensee
 of this program is prohibited from giving any competitor of
 Gaussian, Inc. access to this program.  By using this program,
 the user acknowledges that Gaussian, Inc. is engaged in the
 business of creating and licensing software in the field of
 computational chemistry and represents and warrants to the
 licensee that it is not a competitor of Gaussian, Inc. and that
 it will not use this program in any manner prohibited above.
 ---------------------------------------------------------------
  

 Cite this work as:
 Gaussian 16, Revision A.03,
 M. J. Frisch, G. W. Trucks, H. B. Schlegel, G. E. Scuseria, 
 M. A. Robb, J. R. Cheeseman, G. Scalmani, V. Barone, 
 G. A. Petersson, H. Nakatsuji, X. Li, M. Caricato, A. V. Marenich, 
 J. Bloino, B. G. Janesko, R. Gomperts, B. Mennucci, H. P. Hratchian, 
 J. V. Ortiz, A. F. Izmaylov, J. L. Sonnenberg, D. Williams-Young, 
 F. Ding, F. Lipparini, F. Egidi, J. Goings, B. Peng, A. Petrone, 
 T. Henderson, D. Ranasinghe, V. G. Zakrzewski, J. Gao, N. Rega, 
 G. Zheng, W. Liang, M. Hada, M. Ehara, K. Toyota, R. Fukuda, 
 J. Hasegawa, M. Ishida, T. Nakajima, Y. Honda, O. Kitao, H. Nakai, 
 T. Vreven, K. Throssell, J. A. Montgomery, Jr., J. E. Peralta, 
 F. Ogliaro, M. J. Bearpark, J. J. Heyd, E. N. Brothers, K. N. Kudin, 
 V. N. Staroverov, T. A. Keith, R. Kobayashi, J. Normand, 
 K. Raghavachari, A. P. Rendell, J. C. Burant, S. S. Iyengar, 
 J. Tomasi, M. Cossi, J. M. Millam, M. Klene, C. Adamo, R. Cammi, 
 J. W. Ochterski, R. L. Martin, K. Morokuma, O. Farkas, 
 J. B. Foresman, and D. J. Fox, Gaussian, Inc., Wallingford CT, 2016.
 
 ******************************************
 Gaussian 16:  EM64M-G16RevA.03 25-Dec-2016
                22-Feb-2024 
 ******************************************
 %nprocshared=8
 Will use up to    8 processors via shared memory.
 %mem=8GB
 %chk= 0.chk
 ---------------------
 # freq b3lyp/6-31g(d)
 ---------------------
 1/10=4,30=1,38=1/1,3;
 2/12=2,17=6,18=5,40=1/2;
 3/5=1,6=6,7=1,11=2,25=1,30=1,71=2,74=-5,140=1/1,2,3;
 4//1;
 5/5=2,38=5,98=1/2;
 8/6=4,10=90,11=11/1;
 11/6=1,8=1,9=11,15=111,16=1/1,2,10;
 10/6=1/2;
 6/7=2,8=2,9=2,10=2,28=1/1;
 7/8=1,10=1,25=1/1,2,3,16;
 1/10=4,30=1/3;
 99//99;
 ---------
 good luck
 ---------
 Symbolic Z-matrix:
 Charge =  0 Multiplicity = 1
 O                     1.21681   0.        0. 
 C                     0.        0.        0. 
 C                    -0.81281  -1.28947   0.00059 
 C                    -1.98375  -1.25332   1.0052 
 C                    -2.86981   0.00999   0.88591 
 C                    -3.62056  -0.01075  -0.46435 
 C                    -3.89708   0.02164   2.04683 
 C                    -4.69613   1.33168   2.14974 
 C                    -3.76968   2.55393   2.24405 
 C                    -2.73321   2.57551   1.10917 
 C                    -1.94585   1.25585   1.0486 
 C                    -0.81338   1.28866   0.00059 
 H                    -1.20103  -1.43329  -1.0184 
 H                    -0.13369  -2.12299   0.20375 
 H                    -2.59854  -2.15488   0.88194 
 H                    -1.57239  -1.29705   2.0233 
 H                    -4.25369  -0.9046   -0.52381 
 H                    -2.94407  -0.03505  -1.32453 
 H                    -4.27156   0.8584   -0.59393 
 H                    -3.35522  -0.13392   2.99161 
 H                    -4.58142  -0.83131   1.93984 
 H                    -5.35421   1.29058   3.02702 
 H                    -5.35747   1.43884   1.2796 
 H                    -3.23926   2.52873   3.2074 
 H                    -4.35884   3.47964   2.2383 
 H                    -3.23203   2.76075   0.14739 
 H                    -2.03406   3.40939   1.25585 
 H                    -1.45928   1.13905   2.03156 
 H                    -0.12871   2.12382   0.18113 
 H                    -1.23804   1.42979  -1.0047 
 

 GradGradGradGradGradGradGradGradGradGradGradGradGradGradGradGradGradGrad
 Berny optimization.
 Initialization pass.
 Trust Radius=3.00D-01 FncErr=1.00D-07 GrdErr=1.00D-07 EigMax=2.50D+02 EigMin=1.00D-04
 Number of steps in this run=      2 maximum allowed number of steps=      2.
 GradGradGradGradGradGradGradGradGradGradGradGradGradGradGradGradGradGrad

                          Input orientation:                          
 ---------------------------------------------------------------------
 Center     Atomic      Atomic             Coordinates (Angstroms)
 Number     Number       Type             X           Y           Z
 ---------------------------------------------------------------------
      1          8           0        1.216807    0.000000    0.000000
      2          6           0        0.000000    0.000000    0.000000
      3          6           0       -0.812806   -1.289467    0.000590
      4          6           0       -1.983746   -1.253323    1.005203
      5          6           0       -2.869812    0.009990    0.885909
      6          6           0       -3.620561   -0.010749   -0.464353
      7          6           0       -3.897075    0.021638    2.046827
      8          6           0       -4.696132    1.331683    2.149737
      9          6           0       -3.769682    2.553930    2.244053
     10          6           0       -2.733214    2.575509    1.109172
     11          6           0       -1.945851    1.255848    1.048604
     12          6           0       -0.813379    1.288656    0.000590
     13          1           0       -1.201025   -1.433294   -1.018403
     14          1           0       -0.133691   -2.122990    0.203748
     15          1           0       -2.598539   -2.154884    0.881936
     16          1           0       -1.572388   -1.297050    2.023295
     17          1           0       -4.253692   -0.904602   -0.523810
     18          1           0       -2.944069   -0.035050   -1.324534
     19          1           0       -4.271556    0.858395   -0.593930
     20          1           0       -3.355224   -0.133923    2.991607
     21          1           0       -4.581418   -0.831310    1.939844
     22          1           0       -5.354208    1.290584    3.027019
     23          1           0       -5.357470    1.438844    1.279602
     24          1           0       -3.239261    2.528729    3.207401
     25          1           0       -4.358841    3.479644    2.238301
     26          1           0       -3.232032    2.760749    0.147387
     27          1           0       -2.034056    3.409390    1.255847
     28          1           0       -1.459283    1.139053    2.031562
     29          1           0       -0.128714    2.123823    0.181127
     30          1           0       -1.238039    1.429792   -1.004698
 ---------------------------------------------------------------------
                    Distance matrix (angstroms):
                    1          2          3          4          5
     1  O    0.000000
     2  C    1.216807   0.000000
     3  C    2.404590   1.524263   0.000000
     4  C    3.581172   2.552744   1.543261   0.000000
     5  C    4.181553   3.003457   2.589141   1.547677   0.000000
     6  C    4.859616   3.650233   3.120061   2.526410   1.545077
     7  C    5.508335   4.401950   3.926678   2.524150   1.550205
     8  C    6.430987   5.333705   5.154559   3.917812   2.584488
     9  C    6.035181   5.076301   5.343027   4.384004   3.020919
    10  C    4.844190   3.915861   4.455891   3.902879   2.578836
    11  C    3.560777   2.542255   2.976702   2.509832   1.559595
    12  C    2.404639   1.523883   2.578123   2.973325   2.578312
    13  H    2.989546   2.129304   1.099885   2.177159   2.914502
    14  H    2.524370   2.136931   1.094180   2.195758   3.535719
    15  H    4.469698   3.489089   2.171304   1.098170   2.181808
    16  H    3.681803   2.872014   2.160638   1.098926   2.164558
    17  H    5.569474   4.380249   3.501830   2.759011   2.176904
    18  H    4.366750   3.228492   2.805672   2.798943   2.212148
    19  H    5.586745   4.397247   4.114574   3.500093   2.207850
    20  H    5.465447   4.497241   4.092109   2.660791   2.165710
    21  H    6.170371   5.044151   4.262986   2.792767   2.179027
    22  H    7.348924   6.284584   6.036577   4.681796   3.520866
    23  H    6.850458   5.692990   5.452845   4.324936   2.895697
    24  H    6.044703   5.212936   5.545263   4.553011   3.445267
    25  H    6.943037   6.009776   6.350286   5.437148   4.010570
    26  H    5.237903   4.253174   4.720006   4.290319   2.871114
    27  H    4.875367   4.163950   5.014617   4.669716   3.520123
    28  H    3.547696   2.748489   3.231175   2.655548   2.139368
    29  H    2.520686   2.135415   3.485846   3.940223   3.532510
    30  H    3.013303   2.141603   2.930153   3.434369   2.872789
                    6          7          8          9         10
     6  C    0.000000
     7  C    2.526566   0.000000
     8  C    3.129288   1.537953   0.000000
     9  C    3.732999   2.543154   1.536585   0.000000
    10  C    3.154694   2.959058   2.546159   1.537103   0.000000
    11  C    2.588042   2.515353   2.963493   2.537809   1.537893
    12  C    3.128082   3.911726   4.438069   3.920940   2.563340
    13  H    2.860902   4.333722   5.467905   5.756698   4.790061
    14  H    4.131124   4.707380   6.044626   6.265529   5.445476
    15  H    2.730263   2.789339   4.261850   5.039828   4.737762
    16  H    3.469579   2.672763   4.084605   4.439243   4.144858
    17  H    1.096979   2.755589   3.513485   4.456094   4.133964
    18  H    1.094597   3.503928   4.124105   4.485451   3.575249
    19  H    1.093616   2.795353   2.816376   3.343780   2.866275
    20  H    3.468319   1.100187   2.157494   2.820490   3.357302
    21  H    2.716014   1.098768   2.176179   3.494468   3.963873
    22  H    4.109584   2.166619   1.097441   2.172510   3.492675
    23  H    2.856493   2.174824   1.098174   2.166715   2.864921
    24  H    4.480638   2.839922   2.161954   1.100009   2.158897
    25  H    4.475739   3.493951   2.176085   1.097309   2.176018
    26  H    2.864678   3.398953   2.862730   2.174362   1.099165
    27  H    4.144085   3.946309   3.493215   2.172731   1.098041
    28  H    3.496106   2.681731   3.244729   2.717531   2.130049
    29  H    4.143192   4.701124   5.036290   4.206816   2.801555
    30  H    2.836114   4.285461   4.681719   4.269343   2.831371
                   11         12         13         14         15
    11  C    0.000000
    12  C    1.543341   0.000000
    13  H    3.472574   2.932171   0.000000
    14  H    3.926099   3.484620   1.763104   0.000000
    15  H    3.476618   3.977629   2.466785   2.556645   0.000000
    16  H    2.758040   3.369467   3.067311   2.462271   1.758285
    17  H    3.530745   4.113530   3.137342   4.357547   2.505765
    18  H    2.880042   2.836898   2.255439   3.820126   3.079220
    19  H    2.874855   3.535190   3.854890   5.162061   3.749269
    20  H    2.773636   4.175032   4.733827   4.701789   3.017875
    21  H    3.478038   4.738468   4.532181   4.946185   2.608223
    22  H    3.941095   5.456959   6.405769   6.846689   4.905746
    23  H    3.424324   4.723049   5.550319   6.413423   4.548046
    24  H    2.820202   4.207888   6.140802   6.348621   5.268258
    25  H    3.490440   4.730548   6.686919   7.306217   6.056921
    26  H    2.175128   2.835223   4.803546   5.783926   5.010421
    27  H    2.165288   2.750134   5.414586   5.943528   5.605319
    28  H    1.102994   2.136450   3.998244   3.967244   3.670091
    29  H    2.192689   1.094926   3.904075   4.246876   4.989840
    30  H    2.178831   1.100391   2.863358   3.911801   4.273201
                   16         17         18         19         20
    16  H    0.000000
    17  H    3.719025   0.000000
    18  H    3.831724   1.764197   0.000000
    19  H    4.333742   1.764481   1.759047   0.000000
    20  H    2.338589   3.709359   4.336807   3.831506   0.000000
    21  H    3.046004   2.486437   3.737794   3.061230   1.759575
    22  H    4.690999   4.317217   5.148018   3.803971   2.454875
    23  H    4.729169   3.156321   3.844267   2.241931   3.068150
    24  H    4.337875   5.170954   5.215222   4.278524   2.673898
    25  H    5.534199   5.182849   5.200812   3.860064   3.825256
    26  H    4.768562   3.863818   3.172691   2.291094   4.060036
    27  H    4.790897   5.167639   4.398938   3.864668   4.160939
    28  H    2.438741   4.302926   3.853114   3.857571   2.477246
    29  H    4.144894   5.165630   3.854085   4.400586   4.838035
    30  H    4.088545   3.843802   2.271254   3.114073   4.785199
                   21         22         23         24         25
    21  H    0.000000
    22  H    2.506310   0.000000
    23  H    2.488328   1.753698   0.000000
    24  H    3.833790   2.457344   3.064485   0.000000
    25  H    4.327001   2.530774   2.466015   1.759788   0.000000
    26  H    4.235166   3.867466   2.747149   3.068806   2.481618
    27  H    4.994041   4.318541   3.863767   2.456959   2.524832
    28  H    3.693030   4.022976   3.981354   2.546000   3.732096
    29  H    5.626053   6.008259   5.386625   4.358645   4.895323
    30  H    4.996108   5.763416   4.710395   4.791068   4.945537
                   26         27         28         29         30
    26  H    0.000000
    27  H    1.756293   0.000000
    28  H    3.053302   2.467089   0.000000
    29  H    3.168185   2.537328   2.482800   0.000000
    30  H    2.659841   3.108459   3.058162   1.765917   0.000000
 Stoichiometry    C11H18O
 Framework group  C1[X(C11H18O)]
 Deg. of freedom    84
 Full point group                 C1      NOp   1
 Largest Abelian subgroup         C1      NOp   1
 Largest concise Abelian subgroup C1      NOp   1
                         Standard orientation:                         
 ---------------------------------------------------------------------
 Center     Atomic      Atomic             Coordinates (Angstroms)
 Number     Number       Type             X           Y           Z
 ---------------------------------------------------------------------
      1          8           0       -3.417382    0.967975   -0.462160
      2          6           0       -2.396825    0.437951   -0.064468
      3          6           0       -2.214662   -1.075386   -0.061913
      4          6           0       -0.834267   -1.508633   -0.598998
      5          6           0        0.352898   -0.764048    0.057917
      6          6           0        0.458004   -1.169253    1.545204
      7          6           0        1.663086   -1.149842   -0.675367
      8          6           0        2.880388   -0.315544   -0.242443
      9          6           0        2.613161    1.191045   -0.383415
     10          6           0        1.318090    1.611870    0.329596
     11          6           0        0.123067    0.765700   -0.140541
     12          6           0       -1.214942    1.242269    0.463211
     13          1           0       -2.334600   -1.418734    0.976102
     14          1           0       -3.029592   -1.520007   -0.641077
     15          1           0       -0.715214   -2.592427   -0.467871
     16          1           0       -0.806773   -1.323869   -1.681932
     17          1           0        0.619835   -2.251291    1.625005
     18          1           0       -0.447848   -0.934363    2.113008
     19          1           0        1.291304   -0.677112    2.054524
     20          1           0        1.509744   -1.012017   -1.756061
     21          1           0        1.865543   -2.219507   -0.526638
     22          1           0        3.751988   -0.600456   -0.845364
     23          1           0        3.143741   -0.545639    0.798560
     24          1           0        2.527034    1.441913   -1.450968
     25          1           0        3.463890    1.766441    0.002936
     26          1           0        1.440338    1.518723    1.417963
     27          1           0        1.111002    2.672596    0.135512
     28          1           0        0.045721    0.915982   -1.230508
     29          1           0       -1.396423    2.299331    0.242875
     30          1           0       -1.188627    1.139853    1.558509
 ---------------------------------------------------------------------
 Rotational constants (GHZ):           1.6958521           0.6916948           0.5782337
 Standard basis: 6-31G(d) (6D, 7F)
 There are   216 symmetry adapted cartesian basis functions of A   symmetry.
 There are   216 symmetry adapted basis functions of A   symmetry.
   216 basis functions,   408 primitive gaussians,   216 cartesian basis functions
    46 alpha electrons       46 beta electrons
       nuclear repulsion energy       765.0547246129 Hartrees.
 NAtoms=   30 NActive=   30 NUniq=   30 SFac= 1.00D+00 NAtFMM=   60 NAOKFM=F Big=F
 Integral buffers will be    131072 words long.
 Raffenetti 2 integral format.
 Two-electron integral symmetry is turned on.
 One-electron integrals computed using PRISM.
 NBasis=   216 RedAO= T EigKep=  2.70D-03  NBF=   216
 NBsUse=   216 1.00D-06 EigRej= -1.00D+00 NBFU=   216
 ExpMin= 1.61D-01 ExpMax= 5.48D+03 ExpMxC= 8.25D+02 IAcc=3 IRadAn=         5 AccDes= 0.00D+00
 Harris functional with IExCor=  402 and IRadAn=       5 diagonalized for initial guess.
 HarFok:  IExCor=  402 AccDes= 0.00D+00 IRadAn=         5 IDoV= 1 UseB2=F ITyADJ=14
 ICtDFT=  3500011 ScaDFX=  1.000000  1.000000  1.000000  1.000000
 FoFCou: FMM=F IPFlag=           0 FMFlag=      100000 FMFlg1=           0
         NFxFlg=           0 DoJE=T BraDBF=F KetDBF=T FulRan=T
         wScrn=  0.000000 ICntrl=       500 IOpCl=  0 I1Cent=   200000004 NGrid=           0
         NMat0=    1 NMatS0=      1 NMatT0=    0 NMatD0=    1 NMtDS0=    0 NMtDT0=    0
 Petite list used in FoFCou.
 Requested convergence on RMS density matrix=1.00D-08 within 128 cycles.
 Requested convergence on MAX density matrix=1.00D-06.
 Requested convergence on             energy=1.00D-06.
 No special actions if energy rises.
 Integral accuracy reduced to 1.0D-05 until final iterations.
 Initial convergence to 1.0D-05 achieved.  Increase integral accuracy.
 SCF Done:  E(RB3LYP) =  -505.251986238     A.U. after   13 cycles
            NFock= 13  Conv=0.80D-08     -V/T= 2.0098
 DoSCS=F DFT=T ScalE2(SS,OS)=  1.000000  1.000000
 Range of M.O.s used for correlation:     1   216
 NBasis=   216 NAE=    46 NBE=    46 NFC=     0 NFV=     0
 NROrb=    216 NOA=    46 NOB=    46 NVA=   170 NVB=   170
 Symmetrizing basis deriv contribution to polar:
 IMax=3 JMax=2 DiffMx= 0.00D+00
 G2DrvN: will do    31 centers at a time, making    1 passes.
 Calling FoFCou, ICntrl=  3107 FMM=F I1Cent=   0 AccDes= 0.00D+00.
 End of G2Drv F.D. properties file   721 does not exist.
 End of G2Drv F.D. properties file   722 does not exist.
 End of G2Drv F.D. properties file   788 does not exist.
          IDoAtm=111111111111111111111111111111
          Differentiating once with respect to electric field.
                with respect to dipole field.
          Differentiating once with respect to nuclear coordinates.
 Keep R1 ints in memory in canonical form, NReq=283015014.
          There are    93 degrees of freedom in the 1st order CPHF.  IDoFFX=6 NUNeed=     3.
     90 vectors produced by pass  0 Test12= 8.41D-15 1.08D-09 XBig12= 8.04D+01 2.50D+00.
 AX will form    90 AO Fock derivatives at one time.
     90 vectors produced by pass  1 Test12= 8.41D-15 1.08D-09 XBig12= 9.12D+00 7.74D-01.
     90 vectors produced by pass  2 Test12= 8.41D-15 1.08D-09 XBig12= 8.61D-02 2.74D-02.
     90 vectors produced by pass  3 Test12= 8.41D-15 1.08D-09 XBig12= 2.42D-04 1.43D-03.
     90 vectors produced by pass  4 Test12= 8.41D-15 1.08D-09 XBig12= 2.50D-07 5.57D-05.
     42 vectors produced by pass  5 Test12= 8.41D-15 1.08D-09 XBig12= 1.40D-10 9.56D-07.
      4 vectors produced by pass  6 Test12= 8.41D-15 1.08D-09 XBig12= 7.50D-14 1.96D-08.
 InvSVY:  IOpt=1 It=  1 EMax= 2.31D-14
 Solved reduced A of dimension   496 with    93 vectors.
 Isotropic polarizability for W=    0.000000      110.55 Bohr**3.
 End of Minotr F.D. properties file   721 does not exist.
 End of Minotr F.D. properties file   722 does not exist.
 End of Minotr F.D. properties file   788 does not exist.

 **********************************************************************

            Population analysis using the SCF density.

 **********************************************************************

 Orbital symmetries:
       Occupied  (A) (A) (A) (A) (A) (A) (A) (A) (A) (A) (A) (A)
                 (A) (A) (A) (A) (A) (A) (A) (A) (A) (A) (A) (A)
                 (A) (A) (A) (A) (A) (A) (A) (A) (A) (A) (A) (A)
                 (A) (A) (A) (A) (A) (A) (A) (A) (A) (A)
       Virtual   (A) (A) (A) (A) (A) (A) (A) (A) (A) (A) (A) (A)
                 (A) (A) (A) (A) (A) (A) (A) (A) (A) (A) (A) (A)
                 (A) (A) (A) (A) (A) (A) (A) (A) (A) (A) (A) (A)
                 (A) (A) (A) (A) (A) (A) (A) (A) (A) (A) (A) (A)
                 (A) (A) (A) (A) (A) (A) (A) (A) (A) (A) (A) (A)
                 (A) (A) (A) (A) (A) (A) (A) (A) (A) (A) (A) (A)
                 (A) (A) (A) (A) (A) (A) (A) (A) (A) (A) (A) (A)
                 (A) (A) (A) (A) (A) (A) (A) (A) (A) (A) (A) (A)
                 (A) (A) (A) (A) (A) (A) (A) (A) (A) (A) (A) (A)
                 (A) (A) (A) (A) (A) (A) (A) (A) (A) (A) (A) (A)
                 (A) (A) (A) (A) (A) (A) (A) (A) (A) (A) (A) (A)
                 (A) (A) (A) (A) (A) (A) (A) (A) (A) (A) (A) (A)
                 (A) (A) (A) (A) (A) (A) (A) (A) (A) (A) (A) (A)
                 (A) (A) (A) (A) (A) (A) (A) (A) (A) (A) (A) (A)
                 (A) (A)
 The electronic state is 1-A.
 Alpha  occ. eigenvalues --  -19.12985 -10.26657 -10.20056 -10.19448 -10.18941
 Alpha  occ. eigenvalues --  -10.18853 -10.18639 -10.18337 -10.18289 -10.18262
 Alpha  occ. eigenvalues --  -10.18237 -10.17946  -1.02878  -0.85646  -0.79520
 Alpha  occ. eigenvalues --   -0.77189  -0.74182  -0.71043  -0.68458  -0.63462
 Alpha  occ. eigenvalues --   -0.60183  -0.58604  -0.53677  -0.51716  -0.47809
 Alpha  occ. eigenvalues --   -0.47192  -0.46372  -0.44551  -0.43168  -0.42974
 Alpha  occ. eigenvalues --   -0.42519  -0.41176  -0.40172  -0.38608  -0.37677
 Alpha  occ. eigenvalues --   -0.37141  -0.35802  -0.35539  -0.35185  -0.34213
 Alpha  occ. eigenvalues --   -0.33537  -0.32773  -0.31254  -0.29486  -0.29214
 Alpha  occ. eigenvalues --   -0.23222
 Alpha virt. eigenvalues --   -0.00951   0.07244   0.09022   0.10333   0.11266
 Alpha virt. eigenvalues --    0.12071   0.12693   0.14278   0.14750   0.15674
 Alpha virt. eigenvalues --    0.15980   0.16777   0.17003   0.17221   0.18080
 Alpha virt. eigenvalues --    0.19084   0.19913   0.20493   0.20922   0.22667
 Alpha virt. eigenvalues --    0.22849   0.23797   0.24506   0.25341   0.25831
 Alpha virt. eigenvalues --    0.26983   0.27318   0.28526   0.29570   0.30919
 Alpha virt. eigenvalues --    0.33971   0.37062   0.48755   0.50335   0.50884
 Alpha virt. eigenvalues --    0.52300   0.52924   0.54486   0.55099   0.58176
 Alpha virt. eigenvalues --    0.59720   0.60564   0.61221   0.63528   0.64269
 Alpha virt. eigenvalues --    0.65393   0.67243   0.68917   0.69649   0.70742
 Alpha virt. eigenvalues --    0.71272   0.72459   0.74235   0.75443   0.76411
 Alpha virt. eigenvalues --    0.78713   0.80208   0.82769   0.83464   0.84426
 Alpha virt. eigenvalues --    0.84876   0.85112   0.87265   0.88349   0.88556
 Alpha virt. eigenvalues --    0.89892   0.90332   0.90751   0.92273   0.93311
 Alpha virt. eigenvalues --    0.94253   0.94953   0.96013   0.96345   0.97540
 Alpha virt. eigenvalues --    0.97715   0.97831   0.99140   0.99988   1.02268
 Alpha virt. eigenvalues --    1.03375   1.04500   1.11242   1.13771   1.17253
 Alpha virt. eigenvalues --    1.18780   1.21484   1.25708   1.30742   1.35103
 Alpha virt. eigenvalues --    1.37695   1.40843   1.43793   1.46242   1.47680
 Alpha virt. eigenvalues --    1.49650   1.59042   1.61932   1.64342   1.66054
 Alpha virt. eigenvalues --    1.66827   1.70131   1.73314   1.73558   1.75759
 Alpha virt. eigenvalues --    1.78009   1.79480   1.80817   1.83127   1.85545
 Alpha virt. eigenvalues --    1.86056   1.89624   1.91316   1.92381   1.93085
 Alpha virt. eigenvalues --    1.95821   1.97306   1.97502   1.98712   1.99328
 Alpha virt. eigenvalues --    2.01107   2.01396   2.03212   2.04224   2.06879
 Alpha virt. eigenvalues --    2.08674   2.12177   2.15090   2.17690   2.20758
 Alpha virt. eigenvalues --    2.24494   2.26396   2.29233   2.29351   2.30918
 Alpha virt. eigenvalues --    2.34685   2.37888   2.38096   2.40058   2.43353
 Alpha virt. eigenvalues --    2.44336   2.46553   2.48526   2.51962   2.53963
 Alpha virt. eigenvalues --    2.57930   2.59496   2.61299   2.63643   2.72146
 Alpha virt. eigenvalues --    2.73908   2.75760   2.76497   2.81336   2.85534
 Alpha virt. eigenvalues --    2.86281   2.99113   3.03034   4.00267   4.11000
 Alpha virt. eigenvalues --    4.19812   4.23940   4.26337   4.32331   4.41922
 Alpha virt. eigenvalues --    4.50966   4.55697   4.60775   4.65655   4.75368
          Condensed to atoms (all electrons):
               1          2          3          4          5          6
     1  O    8.003781   0.588719  -0.080002   0.001845   0.000059  -0.000003
     2  C    0.588719   4.468114   0.327656  -0.023747  -0.012129  -0.002471
     3  C   -0.080002   0.327656   5.334737   0.315130  -0.033765  -0.003064
     4  C    0.001845  -0.023747   0.315130   5.118928   0.379871  -0.063198
     5  C    0.000059  -0.012129  -0.033765   0.379871   4.821997   0.371775
     6  C   -0.000003  -0.002471  -0.003064  -0.063198   0.371775   5.189774
     7  C   -0.000000   0.000312   0.004139  -0.045639   0.382072  -0.060401
     8  C    0.000000   0.000001  -0.000142   0.004045  -0.030072  -0.004802
     9  C    0.000000  -0.000086   0.000009   0.000203  -0.013213  -0.001227
    10  C   -0.000052   0.002365   0.000025   0.004906  -0.029496  -0.006550
    11  C    0.000996  -0.018066  -0.004535  -0.048658   0.378714  -0.060305
    12  C   -0.077822   0.320277  -0.139240  -0.003192  -0.033858  -0.005073
    13  H    0.001050  -0.027474   0.348041  -0.033891  -0.004682   0.002814
    14  H    0.004763  -0.024738   0.343832  -0.024493   0.003442   0.000108
    15  H   -0.000068   0.003070  -0.028392   0.356048  -0.029654  -0.007135
    16  H    0.000323  -0.002683  -0.041670   0.366821  -0.033142   0.006483
    17  H    0.000000   0.000091  -0.000335  -0.004886  -0.029853   0.366723
    18  H   -0.000004  -0.000950   0.002651  -0.006161  -0.028956   0.365874
    19  H    0.000000   0.000063  -0.000016   0.005393  -0.028819   0.369087
    20  H    0.000000  -0.000028   0.000116  -0.007530  -0.035653   0.006517
    21  H   -0.000000  -0.000009  -0.000018  -0.004217  -0.032610  -0.007584
    22  H    0.000000   0.000000   0.000002  -0.000114   0.004211   0.000086
    23  H   -0.000000  -0.000000   0.000002   0.000015  -0.006671   0.002261
    24  H   -0.000000   0.000000   0.000001  -0.000071  -0.001218   0.000082
    25  H   -0.000000   0.000001  -0.000000   0.000006   0.000251  -0.000013
    26  H    0.000000   0.000017  -0.000005   0.000038  -0.009446   0.002834
    27  H   -0.000002   0.000011  -0.000009  -0.000143   0.004854   0.000049
    28  H    0.000480  -0.001335   0.000330  -0.007367  -0.048088   0.006764
    29  H    0.004622  -0.023505   0.006761  -0.000258   0.004079   0.000092
    30  H    0.001256  -0.025800   0.003146  -0.000922  -0.008152   0.003292
               7          8          9         10         11         12
     1  O   -0.000000   0.000000   0.000000  -0.000052   0.000996  -0.077822
     2  C    0.000312   0.000001  -0.000086   0.002365  -0.018066   0.320277
     3  C    0.004139  -0.000142   0.000009   0.000025  -0.004535  -0.139240
     4  C   -0.045639   0.004045   0.000203   0.004906  -0.048658  -0.003192
     5  C    0.382072  -0.030072  -0.013213  -0.029496   0.378714  -0.033858
     6  C   -0.060401  -0.004802  -0.001227  -0.006550  -0.060305  -0.005073
     7  C    5.082442   0.370181  -0.044304  -0.014586  -0.042994   0.004559
     8  C    0.370181   5.007355   0.383099  -0.043644  -0.015392   0.000229
     9  C   -0.044304   0.383099   4.997832   0.374397  -0.033907   0.003562
    10  C   -0.014586  -0.043644   0.374397   5.041415   0.370150  -0.035503
    11  C   -0.042994  -0.015392  -0.033907   0.370150   5.017791   0.324240
    12  C    0.004559   0.000229   0.003562  -0.035503   0.324240   5.363335
    13  H    0.000019   0.000001  -0.000000  -0.000009  -0.001383   0.003674
    14  H   -0.000104   0.000001  -0.000000   0.000010  -0.000079   0.006655
    15  H   -0.003966  -0.000025   0.000003  -0.000176   0.005938  -0.000315
    16  H   -0.007454   0.000090  -0.000030   0.000009  -0.007830   0.000366
    17  H   -0.004980  -0.000186   0.000043   0.000007   0.005317  -0.000027
    18  H    0.005273   0.000057   0.000007   0.000001  -0.005469   0.002517
    19  H   -0.005435   0.001812  -0.000116   0.001660  -0.004712  -0.000228
    20  H    0.362854  -0.039912  -0.004177  -0.000713  -0.006964  -0.000011
    21  H    0.359635  -0.032742   0.004814   0.000044   0.005553  -0.000150
    22  H   -0.030958   0.368600  -0.033176   0.004787   0.000209   0.000006
    23  H   -0.038644   0.372869  -0.039896  -0.003860  -0.000708  -0.000019
    24  H   -0.003521  -0.041188   0.373000  -0.040551  -0.005549   0.000013
    25  H    0.004680  -0.033003   0.368026  -0.031752   0.004355  -0.000127
    26  H   -0.000172  -0.004244  -0.037642   0.368014  -0.037960  -0.004265
    27  H    0.000031   0.004759  -0.032053   0.365689  -0.032869  -0.003876
    28  H   -0.006327  -0.001080  -0.003230  -0.051058   0.371025  -0.053182
    29  H   -0.000125   0.000001   0.000045  -0.003799  -0.026551   0.340022
    30  H    0.000055  -0.000018   0.000067  -0.006379  -0.032581   0.343060
              13         14         15         16         17         18
     1  O    0.001050   0.004763  -0.000068   0.000323   0.000000  -0.000004
     2  C   -0.027474  -0.024738   0.003070  -0.002683   0.000091  -0.000950
     3  C    0.348041   0.343832  -0.028392  -0.041670  -0.000335   0.002651
     4  C   -0.033891  -0.024493   0.356048   0.366821  -0.004886  -0.006161
     5  C   -0.004682   0.003442  -0.029654  -0.033142  -0.029853  -0.028956
     6  C    0.002814   0.000108  -0.007135   0.006483   0.366723   0.365874
     7  C    0.000019  -0.000104  -0.003966  -0.007454  -0.004980   0.005273
     8  C    0.000001   0.000001  -0.000025   0.000090  -0.000186   0.000057
     9  C   -0.000000  -0.000000   0.000003  -0.000030   0.000043   0.000007
    10  C   -0.000009   0.000010  -0.000176   0.000009   0.000007   0.000001
    11  C   -0.001383  -0.000079   0.005938  -0.007830   0.005317  -0.005469
    12  C    0.003674   0.006655  -0.000315   0.000366  -0.000027   0.002517
    13  H    0.576600  -0.026499  -0.006318   0.005479   0.000210   0.003653
    14  H   -0.026499   0.560243  -0.002050  -0.003916  -0.000033  -0.000053
    15  H   -0.006318  -0.002050   0.605162  -0.036395   0.004996  -0.000136
    16  H    0.005479  -0.003916  -0.036395   0.602755  -0.000013  -0.000025
    17  H    0.000210  -0.000033   0.004996  -0.000013   0.575314  -0.030823
    18  H    0.003653  -0.000053  -0.000136  -0.000025  -0.030823   0.577228
    19  H   -0.000111   0.000001  -0.000060  -0.000172  -0.030199  -0.030852
    20  H    0.000002  -0.000006  -0.000256   0.007115   0.000006  -0.000180
    21  H   -0.000005  -0.000000   0.004434  -0.000325   0.005129  -0.000032
    22  H    0.000000  -0.000000  -0.000000  -0.000007  -0.000031   0.000001
    23  H   -0.000000   0.000000  -0.000002   0.000003   0.000330  -0.000106
    24  H   -0.000000  -0.000000   0.000001  -0.000001   0.000001   0.000001
    25  H   -0.000000   0.000000  -0.000000   0.000000  -0.000001  -0.000001
    26  H   -0.000004  -0.000000   0.000003  -0.000001  -0.000077   0.000167
    27  H    0.000000  -0.000000   0.000003  -0.000001   0.000002  -0.000020
    28  H    0.000071  -0.000095   0.000013   0.005701  -0.000149  -0.000021
    29  H   -0.000116  -0.000175   0.000019  -0.000039   0.000002  -0.000054
    30  H   -0.000065  -0.000115  -0.000001   0.000041  -0.000093   0.003682
              19         20         21         22         23         24
     1  O    0.000000   0.000000  -0.000000   0.000000  -0.000000  -0.000000
     2  C    0.000063  -0.000028  -0.000009   0.000000  -0.000000   0.000000
     3  C   -0.000016   0.000116  -0.000018   0.000002   0.000002   0.000001
     4  C    0.005393  -0.007530  -0.004217  -0.000114   0.000015  -0.000071
     5  C   -0.028819  -0.035653  -0.032610   0.004211  -0.006671  -0.001218
     6  C    0.369087   0.006517  -0.007584   0.000086   0.002261   0.000082
     7  C   -0.005435   0.362854   0.359635  -0.030958  -0.038644  -0.003521
     8  C    0.001812  -0.039912  -0.032742   0.368600   0.372869  -0.041188
     9  C   -0.000116  -0.004177   0.004814  -0.033176  -0.039896   0.373000
    10  C    0.001660  -0.000713   0.000044   0.004787  -0.003860  -0.040551
    11  C   -0.004712  -0.006964   0.005553   0.000209  -0.000708  -0.005549
    12  C   -0.000228  -0.000011  -0.000150   0.000006  -0.000019   0.000013
    13  H   -0.000111   0.000002  -0.000005   0.000000  -0.000000  -0.000000
    14  H    0.000001  -0.000006  -0.000000  -0.000000   0.000000  -0.000000
    15  H   -0.000060  -0.000256   0.004434  -0.000000  -0.000002   0.000001
    16  H   -0.000172   0.007115  -0.000325  -0.000007   0.000003  -0.000001
    17  H   -0.030199   0.000006   0.005129  -0.000031   0.000330   0.000001
    18  H   -0.030852  -0.000180  -0.000032   0.000001  -0.000106   0.000001
    19  H    0.564450  -0.000010  -0.000169  -0.000091   0.003707   0.000001
    20  H   -0.000010   0.617299  -0.036225  -0.004848   0.005797   0.004598
    21  H   -0.000169  -0.036225   0.613519  -0.002268  -0.004033  -0.000060
    22  H   -0.000091  -0.004848  -0.002268   0.604388  -0.037341  -0.005162
    23  H    0.003707   0.005797  -0.004033  -0.037341   0.608210   0.005859
    24  H    0.000001   0.004598  -0.000060  -0.005162   0.005859   0.613156
    25  H   -0.000005  -0.000041  -0.000160  -0.001896  -0.004502  -0.036757
    26  H    0.003502   0.000103  -0.000021  -0.000049   0.002968   0.005781
    27  H   -0.000082  -0.000034   0.000015  -0.000152  -0.000050  -0.004914
    28  H   -0.000021   0.005651  -0.000070  -0.000065   0.000136   0.005851
    29  H   -0.000026   0.000000   0.000003  -0.000000   0.000000  -0.000003
    30  H    0.000133  -0.000001   0.000001   0.000000  -0.000007   0.000005
              25         26         27         28         29         30
     1  O   -0.000000   0.000000  -0.000002   0.000480   0.004622   0.001256
     2  C    0.000001   0.000017   0.000011  -0.001335  -0.023505  -0.025800
     3  C   -0.000000  -0.000005  -0.000009   0.000330   0.006761   0.003146
     4  C    0.000006   0.000038  -0.000143  -0.007367  -0.000258  -0.000922
     5  C    0.000251  -0.009446   0.004854  -0.048088   0.004079  -0.008152
     6  C   -0.000013   0.002834   0.000049   0.006764   0.000092   0.003292
     7  C    0.004680  -0.000172   0.000031  -0.006327  -0.000125   0.000055
     8  C   -0.033003  -0.004244   0.004759  -0.001080   0.000001  -0.000018
     9  C    0.368026  -0.037642  -0.032053  -0.003230   0.000045   0.000067
    10  C   -0.031752   0.368014   0.365689  -0.051058  -0.003799  -0.006379
    11  C    0.004355  -0.037960  -0.032869   0.371025  -0.026551  -0.032581
    12  C   -0.000127  -0.004265  -0.003876  -0.053182   0.340022   0.343060
    13  H   -0.000000  -0.000004   0.000000   0.000071  -0.000116  -0.000065
    14  H    0.000000  -0.000000  -0.000000  -0.000095  -0.000175  -0.000115
    15  H   -0.000000   0.000003   0.000003   0.000013   0.000019  -0.000001
    16  H    0.000000  -0.000001  -0.000001   0.005701  -0.000039   0.000041
    17  H   -0.000001  -0.000077   0.000002  -0.000149   0.000002  -0.000093
    18  H   -0.000001   0.000167  -0.000020  -0.000021  -0.000054   0.003682
    19  H   -0.000005   0.003502  -0.000082  -0.000021  -0.000026   0.000133
    20  H   -0.000041   0.000103  -0.000034   0.005651   0.000000  -0.000001
    21  H   -0.000160  -0.000021   0.000015  -0.000070   0.000003   0.000001
    22  H   -0.001896  -0.000049  -0.000152  -0.000065  -0.000000   0.000000
    23  H   -0.004502   0.002968  -0.000050   0.000136   0.000000  -0.000007
    24  H   -0.036757   0.005781  -0.004914   0.005851  -0.000003   0.000005
    25  H    0.604294  -0.004229  -0.002055  -0.000008  -0.000004   0.000001
    26  H   -0.004229   0.611151  -0.037723   0.006423  -0.000263   0.004264
    27  H   -0.002055  -0.037723   0.604783  -0.004744   0.004794  -0.000384
    28  H   -0.000008   0.006423  -0.004744   0.648667  -0.003691   0.006305
    29  H   -0.000004  -0.000263   0.004794  -0.003691   0.566085  -0.027350
    30  H    0.000001   0.004264  -0.000384   0.006305  -0.027350   0.582352
 Mulliken charges:
               1
     1  O   -0.449942
     2  C    0.452326
     3  C   -0.355384
     4  C   -0.278764
     5  C    0.098150
     6  C   -0.472789
     7  C   -0.266642
     8  C   -0.266650
     9  C   -0.262051
    10  C   -0.265350
    11  C   -0.097776
    12  C   -0.355628
    13  H    0.158942
    14  H    0.163300
    15  H    0.135259
    16  H    0.138516
    17  H    0.143513
    18  H    0.142729
    19  H    0.151315
    20  H    0.126531
    21  H    0.127553
    22  H    0.133869
    23  H    0.133680
    24  H    0.130646
    25  H    0.132940
    26  H    0.130837
    27  H    0.134118
    28  H    0.123112
    29  H    0.159434
    30  H    0.154207
 Sum of Mulliken charges =  -0.00000
 Mulliken charges with hydrogens summed into heavy atoms:
               1
     1  O   -0.449942
     2  C    0.452326
     3  C   -0.033142
     4  C   -0.004989
     5  C    0.098150
     6  C   -0.035232
     7  C   -0.012558
     8  C    0.000899
     9  C    0.001535
    10  C   -0.000396
    11  C    0.025336
    12  C   -0.041987
 APT charges:
               1
     1  O   -0.663421
     2  C    0.741188
     3  C   -0.056068
     4  C    0.125269
     5  C    0.054958
     6  C    0.026970
     7  C    0.100826
     8  C    0.106828
     9  C    0.119288
    10  C    0.095758
    11  C    0.110015
    12  C   -0.077797
    13  H   -0.002944
    14  H   -0.027421
    15  H   -0.052804
    16  H   -0.042095
    17  H   -0.020042
    18  H   -0.019533
    19  H   -0.009853
    20  H   -0.047604
    21  H   -0.057703
    22  H   -0.061396
    23  H   -0.043361
    24  H   -0.048349
    25  H   -0.063000
    26  H   -0.043831
    27  H   -0.053378
    28  H   -0.062338
    29  H   -0.026646
    30  H   -0.001513
 Sum of APT charges =   0.00000
 APT charges with hydrogens summed into heavy atoms:
               1
     1  O   -0.663421
     2  C    0.741188
     3  C   -0.086433
     4  C    0.030369
     5  C    0.054958
     6  C   -0.022459
     7  C   -0.004481
     8  C    0.002071
     9  C    0.007939
    10  C   -0.001451
    11  C    0.047676
    12  C   -0.105956
 Electronic spatial extent (au):  <R**2>=           2139.8076
 Charge=              0.0000 electrons
 Dipole moment (field-independent basis, Debye):
    X=              2.8770    Y=             -1.2808    Z=              0.8726  Tot=              3.2679
 Quadrupole moment (field-independent basis, Debye-Ang):
   XX=            -87.3997   YY=            -74.5507   ZZ=            -73.6686
   XY=              5.6296   XZ=             -3.1438   YZ=              0.8095
 Traceless Quadrupole moment (field-independent basis, Debye-Ang):
   XX=             -8.8600   YY=              3.9889   ZZ=              4.8711
   XY=              5.6296   XZ=             -3.1438   YZ=              0.8095
 Octapole moment (field-independent basis, Debye-Ang**2):
  XXX=             43.2019  YYY=              1.9807  ZZZ=             -2.1917  XYY=             -0.5684
  XXY=            -19.4483  XXZ=             10.9206  XZZ=             -4.7803  YZZ=              1.6226
  YYZ=              0.3794  XYZ=             -3.1445
 Hexadecapole moment (field-independent basis, Debye-Ang**3):
 XXXX=          -1989.0400 YYYY=           -713.3729 ZZZZ=           -327.6909 XXXY=             65.9834
 XXXZ=            -32.6614 YYYX=             -7.4172 YYYZ=             -3.9624 ZZZX=              3.8402
 ZZZY=              0.0949 XXYY=           -434.5752 XXZZ=           -348.4043 YYZZ=           -179.0990
 XXYZ=             13.3223 YYXZ=              0.1230 ZZXY=             -1.4795
 N-N= 7.650547246129D+02 E-N=-2.701252666631D+03  KE= 5.003576292007D+02
  Exact polarizability: 127.096  -0.540 109.972   1.859  -0.281  94.573
 Approx polarizability: 166.073  -6.624 156.231   7.167  -3.636 151.575
 Calling FoFJK, ICntrl=    100127 FMM=F ISym2X=0 I1Cent= 0 IOpClX= 0 NMat=1 NMatS=1 NMatT=0.
 Full mass-weighted force constant matrix:
 Low frequencies ---   -8.9687   -0.0007   -0.0006    0.0001    1.9978    8.1706
 Low frequencies ---   66.1520  130.5090  174.3938
 Diagonal vibrational polarizability:
        5.6930307       5.2320877      19.9577562
 Harmonic frequencies (cm**-1), IR intensities (KM/Mole), Raman scattering
 activities (A**4/AMU), depolarization ratios for plane and unpolarized
 incident light, reduced masses (AMU), force constants (mDyne/A),
 and normal coordinates:
                      1                      2                      3
                      A                      A                      A
 Frequencies --     66.1515               130.5076               174.3927
 Red. masses --      5.4191                 2.5050                 1.4711
 Frc consts  --      0.0140                 0.0251                 0.0264
 IR Inten    --      3.2670                 0.7703                 0.0777
  Atom  AN      X      Y      Z        X      Y      Z        X      Y      Z
     1   8    -0.18  -0.04   0.38    -0.06  -0.09  -0.01     0.01   0.02   0.00
     2   6    -0.02  -0.01   0.02    -0.02  -0.02  -0.01    -0.00   0.00   0.01
     3   6     0.03  -0.01  -0.16     0.01  -0.01   0.15    -0.02  -0.00   0.00
     4   6     0.05   0.02  -0.12    -0.03   0.02   0.02    -0.01  -0.03   0.03
     5   6     0.01   0.01  -0.04    -0.00   0.03  -0.05    -0.00   0.01  -0.03
     6   6    -0.12   0.07  -0.02     0.05   0.04  -0.05     0.07   0.04  -0.03
     7   6     0.07  -0.04   0.08    -0.03   0.03  -0.09    -0.02   0.03  -0.07
     8   6     0.04  -0.03   0.14     0.00  -0.06  -0.03    -0.02  -0.04   0.07
     9   6     0.07  -0.04   0.03     0.06  -0.02   0.16     0.04  -0.03   0.08
    10   6     0.02   0.02  -0.09     0.01  -0.03   0.09    -0.03   0.03  -0.07
    11   6     0.04   0.01  -0.11     0.02   0.03  -0.05    -0.02   0.00  -0.04
    12   6     0.03   0.04  -0.16    -0.01   0.07  -0.15     0.00  -0.02   0.03
    13   1    -0.04  -0.11  -0.20     0.16   0.09   0.20    -0.06  -0.00  -0.00
    14   1     0.05   0.05  -0.23    -0.04  -0.10   0.29    -0.01   0.01  -0.02
    15   1     0.05   0.02  -0.14     0.00   0.02  -0.00    -0.01  -0.03   0.11
    16   1     0.11   0.05  -0.11    -0.12   0.04   0.02    -0.02  -0.11   0.02
    17   1    -0.15   0.06   0.04    -0.14   0.02  -0.03     0.53   0.11  -0.03
    18   1    -0.15   0.11  -0.10     0.14   0.23   0.03    -0.08  -0.37  -0.10
    19   1    -0.14   0.06   0.03     0.18  -0.10  -0.12    -0.19   0.39   0.05
    20   1     0.16  -0.09   0.06    -0.04   0.12  -0.08     0.00   0.16  -0.05
    21   1     0.04  -0.03   0.15    -0.07   0.01  -0.18    -0.06   0.01  -0.18
    22   1     0.09  -0.08   0.24    -0.02  -0.01  -0.08     0.02  -0.05   0.13
    23   1    -0.06   0.03   0.18     0.02  -0.20  -0.07    -0.12  -0.09   0.08
    24   1     0.15  -0.11   0.00     0.17   0.12   0.19     0.18  -0.02   0.07
    25   1     0.04  -0.02   0.05     0.05  -0.11   0.31     0.01  -0.06   0.18
    26   1    -0.05   0.08  -0.08    -0.08  -0.10   0.09    -0.10   0.14  -0.05
    27   1     0.05   0.01  -0.17     0.07  -0.01   0.13    -0.01   0.01  -0.19
    28   1     0.08  -0.04  -0.12     0.12   0.05  -0.05    -0.07  -0.00  -0.04
    29   1     0.00   0.01  -0.26    -0.03   0.04  -0.30    -0.01  -0.01   0.10
    30   1     0.05   0.17  -0.15    -0.03   0.23  -0.13     0.04  -0.10   0.02
                      4                      5                      6
                      A                      A                      A
 Frequencies --    199.6195               244.7042               259.4456
 Red. masses --      2.6277                 2.9179                 1.4891
 Frc consts  --      0.0617                 0.1029                 0.0591
 IR Inten    --      0.5757                 0.2481                 0.3220
  Atom  AN      X      Y      Z        X      Y      Z        X      Y      Z
     1   8     0.08  -0.06  -0.05     0.01  -0.11  -0.03     0.03   0.04   0.01
     2   6     0.03  -0.04   0.10     0.01  -0.07   0.02     0.00  -0.01   0.01
     3   6     0.04  -0.04   0.15     0.03  -0.06  -0.07    -0.02  -0.02  -0.07
     4   6    -0.03   0.09  -0.11     0.05   0.06  -0.05     0.01  -0.04   0.02
     5   6    -0.02   0.03  -0.07    -0.02   0.10   0.01    -0.00   0.01  -0.01
     6   6    -0.11  -0.02  -0.08    -0.08   0.21   0.04     0.04   0.09   0.00
     7   6     0.01   0.01   0.02    -0.07  -0.01  -0.00    -0.01   0.00  -0.03
     8   6    -0.02  -0.02   0.13    -0.00  -0.10  -0.10    -0.00  -0.02   0.00
     9   6     0.02  -0.03  -0.03     0.03  -0.09  -0.03     0.02  -0.01   0.06
    10   6     0.00   0.06  -0.10     0.09  -0.02   0.08    -0.04   0.02  -0.06
    11   6    -0.02   0.04  -0.03     0.00   0.10   0.05    -0.03  -0.01  -0.03
    12   6     0.01  -0.01   0.09    -0.03  -0.01   0.09    -0.00  -0.06   0.08
    13   1     0.26  -0.06   0.16    -0.01  -0.16  -0.11    -0.10  -0.06  -0.09
    14   1    -0.04  -0.07   0.28     0.06  -0.02  -0.15     0.01   0.03  -0.15
    15   1     0.03   0.07  -0.32     0.13   0.06  -0.12     0.01  -0.03   0.11
    16   1    -0.15   0.29  -0.08     0.07   0.14  -0.04     0.04  -0.13   0.01
    17   1    -0.27  -0.05  -0.11     0.10   0.25   0.16    -0.40   0.03   0.09
    18   1    -0.07   0.09  -0.07    -0.17   0.11  -0.06     0.23   0.53   0.12
    19   1    -0.04  -0.16  -0.06    -0.21   0.40   0.07     0.32  -0.21  -0.17
    20   1     0.10   0.02   0.00    -0.11  -0.03  -0.00    -0.01   0.04  -0.02
    21   1    -0.03   0.00   0.03    -0.16  -0.02   0.02    -0.02  -0.00  -0.06
    22   1     0.06  -0.08   0.28    -0.07  -0.11  -0.20    -0.01  -0.00  -0.01
    23   1    -0.17   0.06   0.19     0.09  -0.15  -0.13     0.01  -0.08  -0.01
    24   1     0.07  -0.14  -0.06    -0.04  -0.06  -0.01     0.14   0.04   0.06
    25   1     0.01   0.00  -0.05     0.08  -0.13  -0.08    -0.01  -0.04   0.17
    26   1    -0.01   0.15  -0.09     0.14  -0.09   0.06    -0.11   0.10  -0.04
    27   1     0.02   0.04  -0.21     0.19   0.01   0.15    -0.03   0.00  -0.15
    28   1    -0.10   0.06  -0.02    -0.01   0.17   0.07    -0.10  -0.00  -0.02
    29   1    -0.04  -0.01   0.12    -0.12  -0.01   0.15    -0.02  -0.04   0.19
    30   1     0.11  -0.04   0.08    -0.04  -0.06   0.09     0.04  -0.17   0.06
                      7                      8                      9
                      A                      A                      A
 Frequencies --    293.4907               326.7246               341.9745
 Red. masses --      2.9350                 2.4297                 1.7933
 Frc consts  --      0.1490                 0.1528                 0.1236
 IR Inten    --      0.5290                 0.3255                 0.3293
  Atom  AN      X      Y      Z        X      Y      Z        X      Y      Z
     1   8    -0.14  -0.06  -0.04    -0.02   0.06  -0.00     0.04  -0.01   0.02
     2   6    -0.08   0.02  -0.06    -0.04   0.02  -0.00     0.05  -0.01  -0.00
     3   6     0.01   0.04  -0.06    -0.01   0.03   0.03     0.02  -0.01  -0.02
     4   6     0.04   0.10   0.01    -0.02   0.03  -0.07     0.01  -0.10   0.06
     5   6     0.03   0.05   0.06     0.02  -0.01  -0.09    -0.01   0.02  -0.04
     6   6     0.19  -0.10   0.02     0.14   0.14  -0.07    -0.03   0.03  -0.04
     7   6    -0.02   0.03  -0.00     0.09  -0.10   0.04    -0.02   0.08  -0.08
     8   6     0.00  -0.09   0.09     0.02  -0.00   0.07    -0.05   0.01   0.10
     9   6     0.01  -0.10  -0.07    -0.11  -0.03  -0.01    -0.04  -0.02  -0.08
    10   6     0.05   0.05  -0.03    -0.06  -0.08   0.09     0.04  -0.05   0.07
    11   6    -0.02   0.05   0.10    -0.02  -0.02  -0.05     0.01   0.03   0.00
    12   6    -0.09   0.04   0.03    -0.02  -0.05   0.01     0.02   0.04  -0.01
    13   1    -0.00   0.05  -0.06     0.12   0.07   0.06    -0.06  -0.01  -0.02
    14   1     0.06  -0.01  -0.08    -0.04  -0.04   0.14     0.02   0.03  -0.05
    15   1     0.04   0.09  -0.06    -0.05   0.02  -0.13     0.03  -0.07   0.27
    16   1     0.10   0.16   0.02    -0.07   0.09  -0.06     0.01  -0.31   0.02
    17   1     0.08  -0.12  -0.12     0.24   0.16   0.04    -0.14   0.02  -0.03
    18   1     0.31  -0.04   0.19     0.18   0.13  -0.01    -0.02   0.12  -0.06
    19   1     0.34  -0.24  -0.07     0.14   0.25  -0.20    -0.00  -0.05  -0.02
    20   1    -0.00   0.17   0.01     0.21  -0.27   0.00     0.01   0.29  -0.06
    21   1    -0.12  -0.01  -0.12     0.08  -0.07   0.24    -0.06   0.05  -0.27
    22   1     0.05  -0.15   0.18     0.07   0.04   0.13     0.06  -0.07   0.31
    23   1    -0.10  -0.03   0.13    -0.01   0.07   0.09    -0.28   0.10   0.18
    24   1    -0.06  -0.27  -0.10    -0.26  -0.13  -0.02    -0.21  -0.17  -0.10
    25   1     0.04  -0.05  -0.22    -0.10   0.06  -0.16    -0.01   0.06  -0.27
    26   1     0.12   0.16  -0.03    -0.04  -0.25   0.07     0.12  -0.23   0.04
    27   1     0.12   0.04  -0.15    -0.04  -0.05   0.25     0.05  -0.01   0.25
    28   1    -0.04   0.02   0.09     0.00   0.08  -0.03     0.03   0.08   0.01
    29   1    -0.07   0.05   0.04     0.02  -0.02   0.10    -0.00   0.02  -0.07
    30   1    -0.20   0.01   0.03     0.01  -0.14  -0.00     0.01   0.09  -0.01
                     10                     11                     12
                      A                      A                      A
 Frequencies --    380.4974               408.8532               424.7900
 Red. masses --      3.2178                 3.2164                 2.1938
 Frc consts  --      0.2745                 0.3168                 0.2332
 IR Inten    --      0.1495                 2.9749                 0.2116
  Atom  AN      X      Y      Z        X      Y      Z        X      Y      Z
     1   8    -0.14   0.00  -0.04    -0.04  -0.07  -0.01     0.03  -0.04   0.01
     2   6    -0.13   0.01  -0.04     0.05   0.11   0.00     0.03  -0.04   0.01
     3   6    -0.10   0.02   0.05     0.20   0.13  -0.01    -0.06  -0.04  -0.02
     4   6    -0.06  -0.04   0.08     0.12  -0.08   0.02    -0.04  -0.04   0.06
     5   6     0.02   0.03  -0.06     0.03   0.02  -0.05    -0.04   0.08  -0.06
     6   6    -0.09   0.00  -0.06    -0.07  -0.04  -0.07     0.05  -0.06  -0.12
     7   6     0.12   0.05   0.02     0.04  -0.05   0.01    -0.04  -0.09   0.08
     8   6     0.18   0.04   0.00     0.04  -0.06  -0.04    -0.08   0.00  -0.01
     9   6     0.17   0.02  -0.04    -0.08  -0.07   0.05     0.01   0.03   0.02
    10   6     0.12  -0.05  -0.02    -0.11  -0.03  -0.03     0.05   0.11   0.04
    11   6     0.00   0.03  -0.02    -0.11   0.04  -0.01     0.04   0.13  -0.03
    12   6    -0.06  -0.08   0.08    -0.05   0.14   0.11     0.01   0.02  -0.01
    13   1    -0.10   0.12   0.09     0.25   0.23   0.03    -0.19  -0.09  -0.06
    14   1    -0.07  -0.07   0.09     0.14   0.09   0.11    -0.03   0.06  -0.14
    15   1    -0.08  -0.01   0.27     0.06  -0.05   0.32     0.04  -0.01   0.26
    16   1    -0.12  -0.24   0.04     0.15  -0.36  -0.03    -0.06  -0.24   0.02
    17   1    -0.15  -0.01  -0.10    -0.09  -0.05  -0.13     0.07  -0.07  -0.31
    18   1    -0.13   0.01  -0.13    -0.12  -0.08  -0.13     0.10  -0.16   0.00
    19   1    -0.11  -0.06   0.03    -0.11  -0.08   0.04     0.09  -0.13  -0.11
    20   1     0.17   0.03   0.00     0.07  -0.15  -0.01     0.05  -0.44   0.02
    21   1     0.12   0.06   0.04    -0.02  -0.05   0.12    -0.04  -0.04   0.44
    22   1     0.15  -0.02  -0.01    -0.00   0.06  -0.16    -0.09  -0.02  -0.01
    23   1     0.18   0.07   0.01     0.16  -0.12  -0.09    -0.04   0.03  -0.01
    24   1     0.19   0.02  -0.04    -0.05  -0.05   0.05     0.02   0.08   0.03
    25   1     0.12   0.07  -0.00    -0.12  -0.04   0.08     0.08  -0.07   0.02
    26   1     0.17  -0.18  -0.03    -0.18   0.00  -0.01     0.04   0.08   0.04
    27   1     0.15  -0.02   0.12    -0.02  -0.02  -0.07     0.09   0.12   0.05
    28   1    -0.05   0.09  -0.01    -0.20   0.06  -0.00     0.07   0.18  -0.02
    29   1    -0.04  -0.02   0.34     0.02   0.16   0.16    -0.09   0.01   0.03
    30   1    -0.06  -0.34   0.05    -0.03   0.06   0.10     0.06  -0.01  -0.01
                     13                     14                     15
                      A                      A                      A
 Frequencies --    456.1303               493.0472               499.6904
 Red. masses --      2.2427                 2.7475                 2.4514
 Frc consts  --      0.2749                 0.3935                 0.3606
 IR Inten    --      1.6938                 4.5826                 1.6672
  Atom  AN      X      Y      Z        X      Y      Z        X      Y      Z
     1   8     0.05  -0.04  -0.05     0.06   0.14   0.02    -0.04  -0.06  -0.03
     2   6    -0.02  -0.00   0.17    -0.05  -0.07   0.02    -0.02   0.03   0.04
     3   6    -0.07  -0.02  -0.03    -0.05  -0.11   0.04    -0.05   0.04  -0.01
     4   6    -0.04  -0.01  -0.02     0.06   0.04   0.07    -0.06  -0.05  -0.02
     5   6    -0.04  -0.00  -0.00     0.08   0.08  -0.01     0.05  -0.12  -0.06
     6   6     0.05  -0.01  -0.02    -0.05  -0.02  -0.04    -0.02   0.04  -0.03
     7   6     0.04   0.05   0.05     0.08   0.00  -0.03     0.09  -0.10  -0.11
     8   6     0.11   0.01   0.01     0.11  -0.07  -0.01    -0.00   0.00  -0.01
     9   6     0.04  -0.01  -0.00    -0.10  -0.10   0.03    -0.01   0.02   0.02
    10   6    -0.02  -0.10  -0.04    -0.06   0.08   0.04     0.04   0.12   0.05
    11   6    -0.08  -0.01  -0.01    -0.01   0.06   0.01     0.06  -0.05   0.16
    12   6    -0.04   0.14   0.03    -0.06  -0.05  -0.07    -0.00   0.05   0.05
    13   1    -0.27  -0.32  -0.15    -0.11  -0.14   0.02    -0.11  -0.03  -0.04
    14   1    -0.02   0.22  -0.30     0.06  -0.18  -0.05    -0.06   0.13  -0.07
    15   1    -0.05  -0.02  -0.06     0.15   0.05   0.09    -0.15  -0.06   0.01
    16   1    -0.03   0.03  -0.01     0.00   0.00   0.07    -0.09  -0.09  -0.03
    17   1     0.10  -0.00  -0.04    -0.11  -0.04  -0.14    -0.06   0.06   0.24
    18   1     0.08  -0.04   0.05    -0.12  -0.06  -0.14    -0.07   0.21  -0.18
    19   1     0.08   0.01  -0.08    -0.10  -0.11   0.13    -0.07   0.16  -0.07
    20   1     0.08   0.05   0.04     0.09   0.11  -0.02     0.10  -0.12  -0.11
    21   1     0.02   0.04   0.04    -0.03  -0.03  -0.12     0.16  -0.09  -0.08
    22   1     0.05   0.00  -0.07     0.06   0.10  -0.18     0.09   0.09   0.08
    23   1     0.19   0.02  -0.01     0.26  -0.18  -0.07    -0.09  -0.01   0.01
    24   1     0.07  -0.02  -0.01    -0.30  -0.26   0.01    -0.08  -0.01   0.01
    25   1    -0.04   0.07   0.05    -0.07   0.03  -0.22     0.05  -0.01  -0.08
    26   1    -0.03  -0.19  -0.05    -0.13   0.25   0.06     0.09   0.46   0.07
    27   1     0.01  -0.08   0.06     0.04   0.06  -0.17    -0.06   0.05  -0.27
    28   1    -0.14  -0.04  -0.01     0.04   0.07   0.01     0.07   0.03   0.17
    29   1    -0.08   0.06  -0.32    -0.16  -0.10  -0.23     0.09   0.02  -0.18
    30   1     0.06   0.49   0.06    -0.07   0.12  -0.06    -0.13   0.29   0.07
                     16                     17                     18
                      A                      A                      A
 Frequencies --    528.1888               564.9624               677.6395
 Red. masses --      2.4916                 2.0119                 3.2019
 Frc consts  --      0.4096                 0.3783                 0.8663
 IR Inten    --      1.5042                 2.9153                 1.4432
  Atom  AN      X      Y      Z        X      Y      Z        X      Y      Z
     1   8    -0.04  -0.11  -0.05    -0.01   0.11  -0.02    -0.06   0.05  -0.06
     2   6    -0.01   0.03   0.08    -0.09  -0.02   0.05    -0.11   0.05   0.13
     3   6    -0.04   0.08   0.01     0.05  -0.06   0.01     0.01  -0.06  -0.01
     4   6     0.02   0.15   0.13     0.11   0.02   0.03     0.01  -0.14  -0.12
     5   6     0.10   0.03   0.02     0.07   0.00  -0.00     0.01  -0.07   0.01
     6   6    -0.02  -0.01   0.03     0.00  -0.00   0.01     0.01  -0.06   0.18
     7   6     0.04  -0.06  -0.09     0.01  -0.08  -0.07     0.02  -0.05  -0.03
     8   6    -0.04  -0.01  -0.00    -0.09   0.01  -0.03    -0.01  -0.02   0.00
     9   6    -0.07  -0.00   0.01     0.05   0.04  -0.04    -0.01   0.01   0.02
    10   6    -0.05  -0.02   0.00     0.02  -0.03  -0.03     0.04   0.12   0.04
    11   6     0.05  -0.01  -0.11    -0.04  -0.00   0.02     0.03   0.12  -0.17
    12   6     0.08  -0.03  -0.01    -0.09   0.02   0.02     0.02   0.08   0.00
    13   1    -0.38  -0.15  -0.11     0.07  -0.10   0.00     0.20  -0.20  -0.03
    14   1     0.12   0.24  -0.35     0.12  -0.17  -0.01    -0.08  -0.04   0.09
    15   1    -0.01   0.14   0.03     0.14   0.02   0.01    -0.03  -0.14  -0.08
    16   1     0.00   0.22   0.14     0.11   0.02   0.03     0.07  -0.16  -0.12
    17   1    -0.12  -0.03  -0.04    -0.04  -0.01   0.03     0.03  -0.05   0.22
    18   1    -0.10  -0.01  -0.11    -0.06   0.02  -0.10     0.03  -0.05   0.21
    19   1    -0.07  -0.12   0.21    -0.05  -0.02   0.11     0.03  -0.04   0.14
    20   1     0.00  -0.04  -0.08    -0.01  -0.26  -0.09    -0.02   0.11  -0.01
    21   1     0.05  -0.06  -0.09     0.06  -0.04   0.12     0.07  -0.06  -0.20
    22   1     0.07   0.06   0.12     0.09  -0.08   0.28    -0.01   0.06  -0.04
    23   1    -0.17  -0.00   0.03    -0.40   0.11   0.07     0.04  -0.07  -0.02
    24   1    -0.06   0.02   0.02     0.28   0.24  -0.01    -0.14  -0.08   0.01
    25   1    -0.06  -0.02   0.02     0.03  -0.12   0.25     0.09  -0.01  -0.17
    26   1    -0.11  -0.16  -0.01     0.10  -0.20  -0.05    -0.07  -0.08   0.04
    27   1    -0.03   0.01   0.12     0.01  -0.00   0.16     0.16   0.18   0.19
    28   1     0.07  -0.05  -0.12    -0.10  -0.01   0.03     0.10   0.09  -0.18
    29   1     0.14   0.01   0.16    -0.12  -0.03  -0.18    -0.06   0.12   0.25
    30   1     0.25  -0.18  -0.03    -0.11   0.23   0.04     0.35  -0.12  -0.03
                     19                     20                     21
                      A                      A                      A
 Frequencies --    689.5239               766.7278               804.1588
 Red. masses --      3.2331                 1.9547                 2.2247
 Frc consts  --      0.9057                 0.6770                 0.8476
 IR Inten    --      0.7450                 4.9711                 0.6402
  Atom  AN      X      Y      Z        X      Y      Z        X      Y      Z
     1   8     0.10  -0.04   0.09     0.05  -0.03  -0.00    -0.04  -0.00  -0.01
     2   6     0.16  -0.04  -0.16    -0.02  -0.09   0.09    -0.02   0.01  -0.04
     3   6    -0.06   0.01  -0.01    -0.02   0.14  -0.09    -0.09  -0.09  -0.03
     4   6    -0.11  -0.01   0.01    -0.05   0.09  -0.05    -0.02  -0.01  -0.05
     5   6     0.01  -0.01   0.01     0.01   0.05  -0.00    -0.01   0.13   0.00
     6   6     0.01  -0.04   0.14     0.00  -0.01   0.07     0.01   0.01   0.08
     7   6     0.11  -0.08  -0.11     0.01  -0.01  -0.02     0.03   0.07  -0.07
     8   6     0.08  -0.01  -0.02     0.02  -0.02  -0.00     0.02   0.04  -0.06
     9   6    -0.01  -0.01  -0.01     0.01   0.01  -0.01    -0.05  -0.07   0.03
    10   6    -0.04   0.02  -0.03    -0.01   0.02   0.01    -0.01  -0.11  -0.01
    11   6    -0.10   0.14  -0.01     0.01  -0.01  -0.01     0.04  -0.01   0.04
    12   6    -0.10   0.06  -0.00    -0.02  -0.12  -0.00     0.14   0.06   0.05
    13   1    -0.13   0.20   0.05     0.38   0.21  -0.02     0.14   0.03   0.03
    14   1    -0.14   0.07   0.04    -0.16   0.00   0.22    -0.18  -0.19   0.17
    15   1    -0.11  -0.03  -0.20    -0.21   0.13   0.43     0.15   0.02   0.08
    16   1    -0.17   0.18   0.04     0.12  -0.37  -0.12     0.01  -0.12  -0.06
    17   1    -0.01  -0.04   0.15     0.02  -0.01  -0.00    -0.02  -0.01  -0.12
    18   1    -0.01  -0.03   0.11     0.02  -0.05   0.11     0.00  -0.09   0.12
    19   1    -0.01  -0.05   0.19     0.01  -0.03   0.08     0.02  -0.11   0.18
    20   1     0.10  -0.13  -0.12     0.01  -0.00  -0.01     0.03  -0.28  -0.11
    21   1     0.11  -0.07  -0.05    -0.03  -0.02  -0.02     0.03   0.12   0.30
    22   1     0.24   0.05   0.19     0.05  -0.01   0.03     0.19   0.04   0.19
    23   1    -0.15   0.03   0.05    -0.02  -0.00   0.01    -0.27   0.04   0.02
    24   1     0.11   0.07  -0.01     0.02   0.01  -0.01    -0.10   0.01   0.05
    25   1    -0.07  -0.01   0.13     0.01   0.00   0.00    -0.11  -0.00   0.06
    26   1    -0.03  -0.18  -0.04    -0.00  -0.05  -0.00    -0.09   0.17   0.02
    27   1     0.10   0.08   0.17    -0.01   0.03   0.07     0.02  -0.15  -0.30
    28   1    -0.16   0.13  -0.01    -0.01  -0.00  -0.01     0.03   0.04   0.04
    29   1    -0.29   0.06   0.12    -0.14  -0.21  -0.30     0.25   0.07   0.00
    30   1    -0.24  -0.12  -0.01     0.06   0.21   0.02     0.16   0.11   0.05
                     22                     23                     24
                      A                      A                      A
 Frequencies --    827.9327               856.2398               872.4964
 Red. masses --      1.7947                 2.5873                 1.5756
 Frc consts  --      0.7248                 1.1176                 0.7067
 IR Inten    --      0.6536                 0.6840                 3.4466
  Atom  AN      X      Y      Z        X      Y      Z        X      Y      Z
     1   8    -0.03  -0.01  -0.00    -0.02   0.01  -0.00     0.00  -0.00  -0.01
     2   6    -0.01  -0.01  -0.07    -0.00   0.02  -0.02     0.00   0.03   0.05
     3   6    -0.08  -0.06  -0.04     0.02  -0.05  -0.01    -0.00   0.00   0.04
     4   6    -0.01   0.01   0.01     0.01   0.02   0.02     0.00  -0.02  -0.06
     5   6     0.05   0.00   0.02    -0.09   0.04   0.03    -0.01   0.03   0.02
     6   6     0.01   0.01  -0.04    -0.03   0.02  -0.01    -0.02   0.01  -0.01
     7   6     0.02  -0.07   0.05    -0.07  -0.13  -0.05     0.05  -0.01   0.06
     8   6    -0.03  -0.03   0.05     0.18  -0.11   0.00     0.03  -0.03  -0.04
     9   6    -0.08   0.02  -0.02     0.09   0.17  -0.04    -0.09  -0.04  -0.08
    10   6    -0.02   0.04  -0.07    -0.10   0.04   0.06    -0.04  -0.00   0.02
    11   6     0.04   0.03   0.02    -0.01  -0.04   0.01     0.02   0.02   0.07
    12   6     0.11   0.03   0.09     0.05   0.03   0.01    -0.01  -0.01  -0.09
    13   1     0.07   0.16   0.05     0.06  -0.04  -0.01    -0.01  -0.21  -0.03
    14   1    -0.11  -0.23   0.14     0.04  -0.11   0.00    -0.04   0.17  -0.04
    15   1     0.05   0.01   0.00     0.11   0.04   0.04     0.03   0.01   0.11
    16   1     0.02   0.01   0.01     0.03   0.01   0.02     0.00  -0.16  -0.08
    17   1    -0.02   0.01  -0.05     0.06   0.02  -0.14     0.04   0.02  -0.06
    18   1    -0.03   0.02  -0.11     0.06  -0.08   0.18     0.04  -0.03   0.10
    19   1    -0.02  -0.01   0.04     0.05   0.00  -0.14     0.03   0.01  -0.09
    20   1     0.04   0.28   0.09    -0.14  -0.02  -0.03     0.02   0.23   0.09
    21   1    -0.06  -0.13  -0.28    -0.32  -0.19  -0.14    -0.08  -0.07  -0.18
    22   1    -0.13   0.11  -0.16     0.29  -0.26   0.23     0.13  -0.08   0.12
    23   1     0.25  -0.00  -0.01    -0.07  -0.02   0.09    -0.05   0.26   0.05
    24   1     0.21   0.07  -0.03    -0.08   0.11  -0.04     0.26   0.33  -0.02
    25   1    -0.11  -0.08   0.21     0.03   0.33  -0.16    -0.17  -0.23   0.39
    26   1     0.11  -0.30  -0.11    -0.14   0.04   0.06     0.16   0.09   0.01
    27   1    -0.02   0.11   0.30    -0.33   0.01   0.09    -0.03  -0.01  -0.05
    28   1    -0.12   0.01   0.03     0.00  -0.04   0.01     0.19   0.05   0.06
    29   1     0.16  -0.00  -0.14     0.15   0.05   0.02     0.03   0.05   0.15
    30   1     0.06   0.28   0.11     0.08   0.02   0.01    -0.03  -0.25  -0.11
                     25                     26                     27
                      A                      A                      A
 Frequencies --    902.4935               929.5235               955.6451
 Red. masses --      2.1515                 1.6477                 1.8808
 Frc consts  --      1.0325                 0.8388                 1.0120
 IR Inten    --      0.4598                 0.1117                 0.2652
  Atom  AN      X      Y      Z        X      Y      Z        X      Y      Z
     1   8    -0.01  -0.01  -0.00    -0.01   0.01  -0.00     0.04  -0.01   0.01
     2   6     0.02   0.04   0.01     0.01   0.04  -0.01     0.02  -0.01   0.03
     3   6    -0.06   0.04   0.03     0.03  -0.03   0.07    -0.08  -0.03  -0.02
     4   6     0.01  -0.13  -0.07    -0.01   0.04  -0.06    -0.00   0.03  -0.04
     5   6     0.13   0.05   0.00    -0.02   0.05  -0.08     0.09   0.01   0.04
     6   6     0.07   0.03   0.00     0.00  -0.03   0.09     0.07   0.01  -0.04
     7   6    -0.03   0.10   0.04    -0.02   0.01  -0.07    -0.06  -0.06   0.00
     8   6     0.01  -0.09  -0.03    -0.01  -0.02   0.08    -0.01   0.01   0.04
     9   6     0.05   0.01  -0.04    -0.01   0.04   0.01     0.01   0.07   0.02
    10   6    -0.08   0.08   0.04    -0.01   0.01  -0.07     0.01  -0.10  -0.03
    11   6    -0.03  -0.03   0.02     0.01  -0.02   0.08     0.06  -0.01   0.01
    12   6     0.01  -0.06  -0.01     0.01  -0.02  -0.04    -0.09   0.11  -0.03
    13   1    -0.11   0.06   0.03    -0.08  -0.29  -0.04     0.20  -0.09  -0.01
    14   1    -0.19   0.24   0.06     0.09   0.12  -0.13    -0.23   0.01   0.16
    15   1     0.01  -0.15  -0.25     0.11   0.08   0.21    -0.01   0.05   0.14
    16   1    -0.02   0.07  -0.04    -0.13  -0.23  -0.11     0.18  -0.13  -0.05
    17   1    -0.15  -0.01  -0.08     0.02  -0.02   0.15    -0.13  -0.01   0.01
    18   1    -0.13   0.03  -0.33     0.01   0.01   0.09    -0.12   0.08  -0.36
    19   1    -0.07  -0.14   0.40    -0.00   0.02   0.05    -0.08  -0.05   0.27
    20   1    -0.01  -0.09   0.02     0.16  -0.18  -0.12    -0.09   0.03   0.02
    21   1    -0.13   0.11   0.24    -0.10   0.03   0.16    -0.11  -0.08  -0.08
    22   1    -0.02  -0.29   0.03    -0.13   0.15  -0.18    -0.08   0.02  -0.07
    23   1    -0.11  -0.10   0.00     0.20  -0.27  -0.03     0.09  -0.04   0.00
    24   1     0.06   0.01  -0.04     0.15  -0.21  -0.06    -0.09  -0.02   0.01
    25   1     0.08  -0.04  -0.05    -0.08   0.14   0.01    -0.05   0.22  -0.06
    26   1    -0.08  -0.09   0.02     0.20  -0.19  -0.11    -0.00   0.06  -0.02
    27   1    -0.14   0.10   0.21    -0.13   0.04   0.19    -0.09  -0.14  -0.16
    28   1    -0.08  -0.03   0.02    -0.05   0.02   0.08     0.18  -0.11  -0.01
    29   1     0.13  -0.06  -0.11     0.17   0.02   0.02    -0.21   0.16   0.32
    30   1    -0.06   0.04  -0.00    -0.21  -0.12  -0.04    -0.08  -0.26  -0.06
                     28                     29                     30
                      A                      A                      A
 Frequencies --    971.2941               983.1955               992.4689
 Red. masses --      1.7501                 1.7579                 1.8843
 Frc consts  --      0.9728                 1.0012                 1.0935
 IR Inten    --      1.5485                 4.3303                 0.7750
  Atom  AN      X      Y      Z        X      Y      Z        X      Y      Z
     1   8     0.01  -0.00   0.01     0.01  -0.01  -0.00    -0.01   0.01  -0.01
     2   6    -0.00  -0.02  -0.02     0.00   0.02   0.05    -0.04  -0.03   0.03
     3   6    -0.02  -0.05  -0.02    -0.06   0.01  -0.02     0.07   0.03  -0.03
     4   6    -0.02   0.11   0.02     0.04  -0.03   0.01    -0.04  -0.05   0.03
     5   6     0.01  -0.07  -0.00    -0.05  -0.00   0.14     0.00  -0.03   0.01
     6   6     0.01  -0.09  -0.04    -0.05   0.04  -0.09     0.04  -0.04  -0.03
     7   6     0.02   0.10   0.03     0.04   0.01  -0.06    -0.12   0.03  -0.02
     8   6     0.00  -0.04  -0.04     0.02   0.02  -0.01     0.13   0.01   0.02
     9   6     0.03  -0.04  -0.04    -0.02  -0.04   0.04    -0.10   0.00   0.02
    10   6    -0.09   0.05   0.03     0.01   0.08  -0.05     0.04  -0.01  -0.05
    11   6    -0.02   0.02   0.01    -0.03  -0.04   0.05     0.03   0.08   0.02
    12   6     0.04   0.07  -0.01    -0.00   0.00  -0.06     0.03  -0.04  -0.02
    13   1     0.12  -0.06  -0.01     0.14   0.01   0.00     0.01   0.08  -0.02
    14   1     0.04  -0.22   0.02    -0.22   0.08   0.15     0.12  -0.05  -0.03
    15   1    -0.07   0.13   0.25     0.08  -0.03  -0.05    -0.19  -0.09  -0.15
    16   1     0.02  -0.14  -0.02     0.28   0.08   0.03    -0.05   0.12   0.06
    17   1     0.03  -0.04   0.51     0.05   0.04  -0.17    -0.05  -0.03   0.26
    18   1     0.00   0.24  -0.19     0.05  -0.03   0.10    -0.05   0.15  -0.26
    19   1    -0.07   0.24  -0.22     0.04   0.04  -0.23    -0.07   0.09   0.03
    20   1     0.06  -0.07   0.00    -0.15  -0.17  -0.05    -0.18  -0.20  -0.04
    21   1     0.12   0.14   0.18     0.15   0.06   0.10    -0.28   0.03   0.20
    22   1    -0.02  -0.26   0.03     0.13   0.24   0.05     0.21   0.07   0.11
    23   1    -0.10  -0.02  -0.01    -0.11  -0.22  -0.03    -0.03  -0.02   0.05
    24   1     0.05  -0.00  -0.03     0.08  -0.25  -0.02     0.05   0.03   0.02
    25   1     0.06  -0.09  -0.01    -0.00  -0.01  -0.03    -0.35   0.24   0.21
    26   1    -0.13  -0.06   0.03     0.14  -0.23  -0.08     0.20  -0.04  -0.07
    27   1    -0.07   0.07   0.14     0.07   0.15   0.28     0.22   0.04  -0.00
    28   1     0.03  -0.11  -0.01    -0.01  -0.31   0.01     0.10   0.06   0.02
    29   1     0.02   0.10   0.16     0.03   0.04   0.11    -0.09  -0.06  -0.03
    30   1     0.14  -0.08  -0.03     0.02  -0.16  -0.07     0.15   0.03  -0.01
                     31                     32                     33
                      A                      A                      A
 Frequencies --   1018.2585              1031.2359              1062.5168
 Red. masses --      1.9307                 1.5079                 1.9546
 Frc consts  --      1.1795                 0.9448                 1.3001
 IR Inten    --      3.0458                 3.2294                 1.9914
  Atom  AN      X      Y      Z        X      Y      Z        X      Y      Z
     1   8    -0.00  -0.02   0.00    -0.01   0.00   0.01    -0.01   0.01   0.00
     2   6     0.02   0.01  -0.02     0.02   0.03  -0.04    -0.01  -0.03  -0.03
     3   6    -0.14   0.05   0.07     0.03  -0.04   0.06     0.03   0.01   0.03
     4   6     0.18  -0.00  -0.05    -0.05   0.04  -0.07    -0.03  -0.02  -0.04
     5   6     0.00  -0.01  -0.04     0.05  -0.00   0.04     0.05  -0.01   0.03
     6   6    -0.03  -0.08   0.01     0.02   0.00  -0.03    -0.05   0.02  -0.01
     7   6    -0.04  -0.02   0.01    -0.04  -0.04   0.05     0.05   0.06   0.05
     8   6     0.01   0.00  -0.01     0.03   0.05  -0.06    -0.02  -0.09  -0.05
     9   6    -0.01   0.03   0.02    -0.00  -0.03   0.07    -0.04   0.05   0.04
    10   6     0.02  -0.04  -0.02     0.04   0.03  -0.03    -0.03  -0.02  -0.07
    11   6     0.00   0.04  -0.02    -0.03  -0.01  -0.01     0.18   0.03  -0.01
    12   6     0.00  -0.04   0.02     0.01  -0.02   0.02    -0.05   0.02   0.07
    13   1    -0.25   0.18   0.10     0.01  -0.31  -0.04    -0.13  -0.01   0.01
    14   1    -0.25   0.24   0.07     0.07   0.07  -0.09     0.10   0.04  -0.09
    15   1     0.47   0.04   0.02    -0.11   0.06   0.19    -0.10  -0.02   0.02
    16   1     0.13  -0.05  -0.06    -0.07  -0.21  -0.11    -0.17  -0.09  -0.05
    17   1     0.11  -0.03   0.36    -0.01   0.00  -0.00     0.10   0.03  -0.14
    18   1     0.07   0.12   0.08    -0.02   0.03  -0.10     0.08  -0.07   0.23
    19   1    -0.00   0.19  -0.31    -0.01   0.00   0.03     0.07  -0.00  -0.19
    20   1    -0.06   0.02   0.02    -0.27   0.09   0.10    -0.19   0.00   0.08
    21   1    -0.10  -0.04  -0.03    -0.05  -0.06  -0.11     0.27   0.10   0.03
    22   1     0.03  -0.05   0.04     0.19   0.08   0.16    -0.00  -0.25   0.06
    23   1    -0.03   0.06   0.02    -0.16   0.17   0.02    -0.27  -0.33  -0.04
    24   1    -0.12   0.07   0.04    -0.22   0.01   0.09    -0.10  -0.05   0.02
    25   1    -0.06   0.12  -0.01     0.07  -0.02  -0.11    -0.17   0.26  -0.01
    26   1    -0.07   0.02  -0.00    -0.22  -0.14  -0.02    -0.05  -0.15  -0.08
    27   1     0.13  -0.03  -0.08     0.31   0.10   0.06    -0.14  -0.02   0.06
    28   1    -0.08   0.08  -0.01    -0.29  -0.15  -0.02     0.21  -0.02  -0.02
    29   1    -0.05  -0.08  -0.11     0.19  -0.01  -0.08    -0.28  -0.03  -0.01
    30   1    -0.07   0.08   0.03    -0.28   0.03   0.03    -0.12   0.10   0.07
                     34                     35                     36
                      A                      A                      A
 Frequencies --   1087.1105              1097.2706              1144.9342
 Red. masses --      1.8947                 2.2454                 1.5666
 Frc consts  --      1.3193                 1.5928                 1.2100
 IR Inten    --      1.2859                 0.6488                15.7107
  Atom  AN      X      Y      Z        X      Y      Z        X      Y      Z
     1   8    -0.01  -0.00  -0.01     0.02  -0.01   0.01     0.01   0.01   0.01
     2   6    -0.02  -0.01   0.02     0.02   0.02   0.00    -0.04  -0.09  -0.03
     3   6    -0.01   0.01   0.00    -0.01  -0.02  -0.02     0.01   0.03   0.04
     4   6     0.01  -0.00   0.02    -0.01   0.02   0.02     0.02   0.01  -0.08
     5   6     0.00  -0.05   0.03    -0.03   0.02  -0.02     0.04   0.03   0.02
     6   6     0.00   0.02  -0.02     0.00  -0.00   0.01     0.01   0.01  -0.00
     7   6     0.04  -0.03   0.01     0.07   0.06   0.01     0.03  -0.03   0.03
     8   6    -0.05  -0.03  -0.01    -0.02  -0.14  -0.01    -0.03   0.00  -0.01
     9   6     0.04   0.06   0.01    -0.12   0.11   0.03     0.01   0.03   0.02
    10   6    -0.01  -0.07  -0.02     0.16   0.04  -0.00     0.02  -0.01   0.01
    11   6    -0.11   0.14   0.07    -0.08  -0.12  -0.05    -0.12  -0.01   0.05
    12   6     0.10  -0.05  -0.08    -0.03   0.02  -0.00     0.03   0.04  -0.03
    13   1     0.14  -0.18  -0.04     0.05   0.03  -0.00    -0.35   0.28   0.08
    14   1    -0.03   0.02   0.02    -0.02  -0.07   0.03     0.17  -0.06  -0.12
    15   1    -0.22  -0.03  -0.01     0.04   0.03   0.01    -0.02   0.02   0.07
    16   1     0.22   0.04   0.03     0.01   0.03   0.03    -0.30  -0.17  -0.12
    17   1    -0.01   0.01  -0.09    -0.02  -0.00   0.00    -0.01   0.01  -0.02
    18   1    -0.01  -0.03  -0.01    -0.00  -0.01   0.01    -0.00   0.00  -0.02
    19   1     0.01  -0.03   0.02    -0.01  -0.01   0.03     0.01  -0.01   0.02
    20   1    -0.02   0.04   0.03     0.33   0.03  -0.04    -0.17   0.05   0.07
    21   1     0.35   0.01  -0.10    -0.09   0.04   0.08    -0.03  -0.05  -0.07
    22   1    -0.17  -0.28  -0.05    -0.08  -0.31  -0.01     0.05   0.14   0.03
    23   1    -0.07  -0.19  -0.03    -0.04  -0.09   0.01    -0.09  -0.14  -0.03
    24   1    -0.08  -0.01   0.00    -0.27   0.40   0.11     0.02  -0.10  -0.01
    25   1    -0.14   0.35  -0.02    -0.16   0.13   0.09     0.04   0.04  -0.05
    26   1     0.00   0.07  -0.01     0.23   0.07  -0.01     0.22   0.07  -0.01
    27   1     0.16  -0.05  -0.12     0.36   0.08  -0.04    -0.01  -0.02  -0.01
    28   1    -0.22   0.36   0.11    -0.16  -0.30  -0.07     0.03  -0.18   0.02
    29   1     0.24  -0.02  -0.04     0.10   0.05   0.03    -0.07   0.05   0.10
    30   1    -0.04  -0.08  -0.07     0.00  -0.04  -0.01     0.58  -0.02  -0.05
                     37                     38                     39
                      A                      A                      A
 Frequencies --   1156.9354              1177.9751              1187.0747
 Red. masses --      1.9821                 1.8441                 1.7242
 Frc consts  --      1.5631                 1.5077                 1.4315
 IR Inten    --      0.3514                 5.1104                16.4810
  Atom  AN      X      Y      Z        X      Y      Z        X      Y      Z
     1   8    -0.01   0.01  -0.02    -0.04   0.02   0.00    -0.02   0.00  -0.01
     2   6    -0.04  -0.01   0.06     0.01  -0.04  -0.11     0.04   0.09  -0.01
     3   6     0.07   0.01  -0.05     0.01   0.03   0.11     0.05  -0.05  -0.01
     4   6    -0.06  -0.07   0.02     0.02  -0.00  -0.06    -0.07   0.00   0.01
     5   6    -0.02   0.14   0.05    -0.09  -0.01   0.12    -0.08   0.08   0.05
     6   6    -0.00  -0.05  -0.03     0.03   0.02  -0.03     0.06  -0.06  -0.03
     7   6     0.07  -0.03  -0.01     0.01   0.01  -0.08     0.06  -0.02   0.05
     8   6    -0.06  -0.02  -0.02    -0.00  -0.02   0.05    -0.02  -0.02  -0.03
     9   6     0.04   0.03   0.04    -0.00   0.01  -0.04    -0.00   0.02  -0.00
    10   6    -0.01  -0.04  -0.08     0.00  -0.01   0.02     0.02  -0.02   0.03
[...]
 0006863,-0.00003610,-0.00000418,0.00000149,0.00001149,0.00000171,0.000
 00632,-0.00000111,0.00001074,0.00002280,0.00001066,0.00003069,-0.00002
 774,0.00002581,-0.00001316,0.00004955,0.00001885,0.00007861,-0.0000598
 6,0.00001371,-0.00000263,-0.00010378,0.00013188,0.00043353,-0.00034279
 ,0.00055039,0.00007982,0.00025699,0.00043550,0.00075567,0.00117380,0.0
 0034232,-0.00353902,-0.00418726,-0.00062777,-0.00166185,0.05329055,0.0
 0016492,-0.00005807,0.00001872,-0.00009342,0.00009555,0.00001897,0.000
 01936,-0.00002910,0.00001046,-0.00007153,-0.00003768,-0.00010717,0.000
 23725,-0.00014774,0.00008517,-0.00022468,0.00022042,0.00002325,0.00002
 205,0.00031681,-0.00012975,-0.00126843,0.00009146,-0.00153889,-0.10584
 588,0.00588386,-0.23885567,-0.01132678,0.00168464,-0.02469123,-0.00164
 099,0.00106073,0.00006693,0.00033780,-0.00011397,0.00040215,-0.0000103
 1,0.00000633,0.00001866,0.00001161,-0.00001245,-0.00000476,0.00001480,
 -0.00002852,0.00001228,0.00003798,-0.00003566,0.00004606,0.00004813,-0
 .00008787,0.00004103,0.00000944,0.00001520,0.00004127,0.00017651,-0.00
 004406,0.00006334,0.00031606,-0.00062836,0.00013634,0.00016857,-0.0001
 3905,0.00021252,-0.00016807,-0.00036308,0.00097572,-0.00002843,-0.0001
 5990,0.00148047,0.11438350,-0.00775924,0.26261735,-0.00042318,0.000370
 77,-0.00012773,0.00008315,-0.00088383,0.00047035,0.00006863,0.00002095
 ,-0.00007079,0.00017969,0.00010899,-0.00008489,-0.00046723,-0.00035535
 ,0.00017481,0.00008740,0.00010656,-0.00005101,-0.00300795,-0.00291743,
 -0.00033139,0.01261175,-0.01951457,0.00009860,-0.12462501,0.11778423,-
 0.00316935,-0.01233298,0.01909387,-0.00149672,-0.00230690,-0.00188830,
 0.00403122,-0.00035841,0.00190303,0.00014346,-0.00000097,-0.00000101,-
 0.00000302,0.00002015,0.00004069,-0.00002294,0.00000396,0.00013765,0.0
 0001059,-0.00002083,-0.00001727,0.00000256,0.00005524,0.00005486,0.000
 07724,-0.00001281,-0.00001853,-0.00007347,-0.00002636,-0.00001152,0.00
 001116,0.00002480,-0.00005065,0.00018010,0.00062921,-0.00124712,-0.000
 12426,0.00071785,0.00086315,0.00015766,0.00103742,0.00077283,0.0000535
 9,-0.00907125,0.01334733,-0.00037229,0.13543664,0.00012802,0.00001982,
 -0.00000163,-0.00012833,-0.00004690,-0.00001936,0.00004955,-0.00001717
 ,0.00002752,0.00005544,0.00015789,-0.00009160,-0.00044345,0.00033865,0
 .00048343,0.00015741,-0.00006841,-0.00000212,-0.00562047,-0.00266794,-
 0.00044542,0.01492568,-0.02231836,0.00066196,0.11740151,-0.23063714,0.
 00358527,-0.00119576,0.00196802,-0.00018461,-0.00036505,0.00105605,0.0
 0000623,-0.00015400,0.00004436,0.00020388,-0.00000719,0.00001283,-0.00
 001417,0.00004355,-0.00000928,-0.00002637,-0.00002567,0.00006227,0.000
 01977,-0.00001927,0.00000609,0.00000118,-0.00000301,0.00002609,0.00004
 603,0.00000455,0.00000889,-0.00010283,-0.00002136,-0.00000245,0.000011
 87,-0.00009101,0.00034751,0.00011804,0.00099871,-0.00159719,-0.0003200
 3,-0.00000252,0.00063751,0.00057916,0.00009286,0.00116939,-0.00058289,
 0.00040527,-0.00034066,0.00086600,-0.12655619,0.25114349,0.00036978,-0
 .00029925,0.00015140,0.00002164,0.00067649,-0.00049080,-0.00002380,-0.
 00000311,0.00008440,-0.00012574,-0.00002723,-0.00003111,0.00011923,0.0
 0044589,0.00006496,-0.00001107,-0.00008561,0.00006965,-0.00025080,-0.0
 0012664,0.00048197,0.00078745,-0.00291866,-0.00081943,-0.00364689,0.00
 430036,-0.05019112,0.01472936,-0.02306401,-0.00029428,0.00276847,0.001
 91380,-0.00389664,0.00076551,-0.00170510,0.00019107,-0.00000166,0.0000
 0007,0.00000332,-0.00000723,-0.00003239,0.00000762,-0.00002259,-0.0000
 7557,0.00002953,0.00001017,0.00000037,0.00001285,-0.00003197,-0.000012
 09,-0.00004128,-0.00000708,0.00001703,0.00004112,-0.00000552,0.0000195
 0,-0.00003272,0.00027951,-0.00042839,0.00017157,0.00007560,-0.00000480
 ,0.00035938,-0.00024015,0.00024409,-0.00002833,0.00048499,-0.00013624,
 0.00024135,-0.01576566,0.02513630,-0.00008488,0.00113821,-0.00393332,0
 .05189348,0.00012008,-0.00008334,-0.00005821,0.00009070,0.00011956,0.0
 0026939,0.00004278,-0.00009437,-0.00016759,0.00007239,0.00001762,-0.00
 006271,-0.00015689,-0.00082360,0.00015085,-0.00006701,-0.00038727,-0.0
 0026524,-0.00012072,-0.00001070,0.00010571,0.00142296,0.00044128,-0.00
 005361,0.01096918,-0.00359700,0.02167629,-0.10337717,0.01715446,-0.100
 99575,-0.00938210,0.00321124,-0.01555126,0.00074719,-0.00063304,-0.000
 97789,-0.00000348,-0.00000233,0.00003894,-0.00001335,-0.00000268,0.000
 01360,0.00002586,0.00010151,0.00008446,0.00004504,-0.00005915,0.000133
 11,0.00012489,-0.00015329,0.00019259,-0.00002361,0.00011083,0.00007017
 ,0.00035043,-0.00099480,-0.00019604,-0.00011306,0.00002405,0.00001781,
 0.00008171,-0.00002574,-0.00005162,0.00007705,0.00028260,-0.00022339,-
 0.00019499,0.00004931,-0.00034238,-0.00259897,-0.00052286,0.00434175,0
 .00113575,-0.00000733,-0.00088507,0.11220222,-0.00016542,0.00004979,0.
 00004888,-0.00018064,0.00001453,-0.00002442,-0.00004258,0.00006542,0.0
 0010025,0.00008182,-0.00001409,-0.00010918,0.00022355,0.00142222,0.000
 94804,0.00017463,-0.00085795,-0.00025726,-0.00004173,-0.00029798,0.000
 01263,0.00052721,0.00001044,0.00056868,0.00001098,-0.00045424,-0.00070
 169,0.01682439,-0.05665888,0.03466128,0.01494475,-0.00535099,0.0265414
 4,-0.00115220,0.00093507,0.00064920,0.00002444,-0.00003034,-0.00005511
 ,-0.00001933,-0.00000569,-0.00000823,-0.00010374,-0.00008327,-0.000145
 02,-0.00015742,0.00016473,-0.00019453,-0.00018565,0.00029841,-0.000048
 00,-0.00003145,-0.00001251,-0.00006379,-0.00111169,-0.00105474,-0.0007
 6589,-0.00000397,0.00008029,-0.00020205,-0.00008873,-0.00002828,0.0000
 4649,-0.00005880,-0.00001163,-0.00014794,-0.00019118,0.00005708,0.0000
 4767,0.00044660,0.00095843,-0.00013111,-0.00037502,0.00024556,-0.00027
 525,-0.02148207,0.06070248,-0.00003842,0.00005221,-0.00010021,-0.00001
 334,-0.00008975,0.00037707,-0.00000983,0.00001992,-0.00008718,0.000156
 69,0.00018150,0.00004373,-0.00077888,-0.00015780,-0.00038655,-0.001042
 44,-0.00025374,-0.00018950,0.00025234,0.00002527,0.00001939,-0.0011602
 9,-0.00047511,0.00064740,-0.01139354,0.00306844,-0.02306573,-0.1005611
 8,0.03517816,-0.23942676,0.00080368,0.00079433,0.00069542,0.00010912,0
 .00008352,0.00098358,-0.00003488,0.00000787,0.00003501,0.00000422,0.00
 001437,0.00001241,-0.00002569,0.00009616,-0.00000911,0.00006998,-0.000
 02249,0.00006973,0.00028974,-0.00033595,0.00014285,0.00004627,-0.00001
 832,-0.00002374,0.00049750,-0.00107245,0.00010513,0.00002081,-0.000179
 76,0.00010586,0.00000991,0.00013745,0.00001155,0.00019434,-0.00014721,
 0.00033590,0.00076987,0.00059347,0.00043395,0.00416867,0.00025490,-0.0
 0286272,-0.00003232,-0.00050340,0.00091817,0.11025553,-0.03718466,0.26
 406434,0.00013014,-0.00010947,0.00004377,0.00013246,0.00012866,-0.0001
 8247,0.00013690,0.00000778,-0.00004915,0.00063591,0.00073887,0.0001285
 3,-0.00217053,0.00260822,0.00027748,-0.00026678,0.00018593,-0.00019095
 ,-0.00024060,0.00037963,0.00003519,-0.00188276,0.00178517,0.00478847,-
 0.01471082,-0.01727810,-0.00399223,-0.15346835,-0.12390406,-0.02535793
 ,0.01111086,0.01440429,0.00334243,0.00119760,0.00060338,-0.00018988,-0
 .00000113,0.00001965,0.00001551,0.00000259,-0.00001635,0.00000748,-0.0
 0016241,0.00035573,-0.00001104,-0.00000422,-0.00002781,-0.00002073,0.0
 0013132,-0.00006845,0.00007628,0.00006076,-0.00003695,-0.00003875,0.00
 022975,-0.00013123,0.00017851,0.00007484,-0.00006635,0.00000727,0.0001
 0206,-0.00009241,-0.00005665,-0.00082122,-0.00149003,0.00007745,0.0003
 0804,0.00036619,-0.00006822,0.00126913,0.00024564,0.00004912,0.0001625
 8,0.00039502,-0.00062647,-0.01014668,-0.01139404,-0.00253209,0.1675308
 9,0.00007745,0.00022891,0.00005305,0.00024417,-0.00038153,0.00026629,-
 0.00022242,0.00031397,0.00003694,-0.00171697,-0.00104704,-0.00018796,0
 .00550380,-0.00263325,0.00034122,0.00040232,0.00010231,0.00051388,0.00
 048219,0.00037112,-0.00043807,0.00027892,0.00098601,0.00023663,0.00054
 638,0.00078752,0.00049620,-0.12306413,-0.19344315,-0.02777268,-0.01871
 443,-0.02416314,-0.00539299,-0.00172324,0.00094229,0.00044255,-0.00000
 506,0.00000946,-0.00002691,0.00011283,0.00007690,-0.00006328,0.0003996
 8,-0.00068257,0.00005097,0.00003899,0.00000870,0.00005236,-0.00012600,
 -0.00000379,-0.00009220,-0.00000551,-0.00002401,-0.00011112,-0.0000965
 1,0.00014202,-0.00003643,-0.00002666,-0.00002754,0.00007981,-0.0001431
 7,-0.00000574,0.00004416,-0.00001843,0.00004641,-0.00016988,-0.0000464
 2,-0.00003651,-0.00006414,0.00001808,0.00012385,0.00037152,-0.00022754
 ,0.00047036,0.00041340,0.00360787,0.00456798,0.00004548,0.13337159,0.2
 1189678,-0.00002944,0.00004735,-0.00002391,0.00015990,0.00001421,-0.00
 002848,-0.00010325,0.00008729,0.00003138,-0.00016630,-0.00017144,0.000
 17127,0.00009901,-0.00020537,0.00014690,-0.00036015,0.00007791,0.00009
 240,0.00007357,-0.00045285,-0.00004824,0.00287755,-0.00120772,-0.00402
 898,0.01745623,0.02089864,0.00301639,-0.02553054,-0.02833453,-0.055179
 33,-0.00070482,0.00031812,-0.00090439,-0.00060301,-0.00055965,-0.00000
 094,-0.00001084,0.00001708,0.00001377,0.00001993,0.00003590,0.00000957
 ,0.00008105,-0.00003164,-0.00000132,0.00005676,-0.00002511,0.00000773,
 0.00016618,-0.00017291,0.00003886,0.00004431,-0.00001926,-0.00000471,0
 .00045689,-0.00007531,0.00015146,-0.00005608,0.00004478,0.00000142,-0.
 00007851,0.00007291,0.00006009,0.00105324,0.00120861,0.00012308,0.0003
 0082,0.00002592,0.00013493,-0.00073917,0.00032965,0.00108326,-0.000696
 45,-0.00037590,0.00079862,-0.01885334,-0.02243405,-0.00427432,0.024265
 61,0.03088959,0.05826645,-0.00009317,-0.00033432,-0.00025591,0.0016267
 6,-0.00039017,0.00051293,0.00000717,-0.00006099,0.00008872,0.00042054,
 0.00142107,-0.00006530,-0.01143014,-0.00017702,-0.01934790,-0.00169826
 ,-0.00380080,0.00121062,-0.00004164,0.00056251,-0.00170379,-0.00021086
 ,-0.00000868,0.00031408,0.00027248,-0.00050283,-0.00151509,-0.00950170
 ,0.00411687,-0.01609019,-0.09557305,0.01097050,-0.09413006,0.00836851,
 -0.00221501,0.02438260,-0.00009145,-0.00002196,0.00003486,0.00007048,0
 .00003743,-0.00003781,-0.00002070,0.00015313,0.00036671,0.00062915,-0.
 00032844,0.00046458,-0.00062943,-0.00014177,-0.00131088,0.00011988,-0.
 00004667,-0.00010278,0.00013645,0.00020803,0.00018082,-0.00017659,-0.0
 0043195,0.00090320,0.00037388,0.00001638,0.00026186,-0.00008362,0.0000
 0003,0.00005298,0.00027821,-0.00003550,0.00006342,-0.00015645,0.000188
 47,0.00090000,0.00036669,-0.00006872,0.00024558,-0.00116824,0.00334960
 ,0.00037959,0.00073124,-0.00012274,0.00055157,0.10975200,-0.00024374,0
 .00005888,0.00001878,-0.00002231,-0.00001060,-0.00063654,0.00022355,-0
 .00008109,0.00024929,-0.00096895,0.00067553,-0.00161181,-0.01350795,-0
 .00068167,-0.02367132,-0.00272022,-0.00448568,0.00079477,0.00044379,0.
 00081935,-0.00081387,-0.00001265,-0.00012165,-0.00007119,-0.00075524,0
 .00112886,0.00116565,0.01621951,-0.00667116,0.02668345,0.01163179,-0.0
 5118611,0.02250562,0.00001540,0.00037316,0.00047098,-0.00007933,0.0001
 0442,0.00014152,0.00005361,-0.00000549,-0.00001411,0.00005162,0.000387
 65,0.00020698,0.00008835,-0.00056252,0.00046092,-0.00092006,0.00005692
 ,-0.00155525,0.00027133,0.00004112,0.00003690,-0.00012528,0.00012214,0
 .00009619,0.00000123,0.00001262,0.00051955,0.00039383,0.00002320,-0.00
 002412,0.00003166,0.00011443,0.00000855,-0.00004221,-0.00015806,-0.000
 00408,0.00002528,0.00011248,-0.00092588,-0.00053019,-0.00000409,-0.000
 07369,0.00356559,-0.00494373,-0.00027896,-0.00075574,0.00103124,0.0001
 6976,-0.01252859,0.06309312,0.00135868,-0.00043289,0.00041608,-0.00210
 514,0.00162453,-0.00082699,0.00024549,-0.00047579,-0.00034637,0.000019
 90,0.00094617,-0.00032094,-0.00363735,-0.00036660,-0.00622812,-0.00015
 442,-0.00106779,0.00141371,0.00095626,0.00075723,0.00013976,-0.0002224
 9,0.00002011,0.00017672,0.00072392,-0.00057680,0.00055244,-0.00078039,
 0.00065880,-0.00102078,-0.09459299,0.02199291,-0.23765422,-0.00660992,
 0.00109232,-0.02288394,-0.00004546,0.00008049,0.00015988,-0.00000180,-
 0.00013719,-0.00002982,0.00020432,-0.00006554,0.00047603,0.00036040,-0
 .00059873,0.00067566,-0.00031751,-0.00010231,-0.00027016,0.00011088,0.
 00014083,0.00011096,0.00002671,0.00003108,-0.00005322,-0.00006592,0.00
 010060,0.00086512,0.00015550,-0.00014766,0.00032464,-0.00004757,0.0000
 0728,-0.00000406,0.00011187,-0.00001296,-0.00006659,-0.00035236,-0.000
 08124,0.00068383,0.00008443,0.00004702,0.00033583,0.00060592,0.0000487
 6,0.00110617,0.00011270,0.00049988,0.00028594,0.10001631,-0.02428539,0
 .26349898,0.00171072,-0.00105660,-0.00018572,0.01121762,0.01528826,0.0
 0383511,-0.00203967,0.00264901,-0.00056674,-0.00031121,0.00023145,0.00
 007434,-0.00199213,0.00203782,0.00384668,0.00034516,-0.00002678,0.0003
 2173,-0.00052392,-0.00143144,-0.00056460,0.00020387,-0.00024536,-0.000
 20721,0.00019662,0.00029153,0.00024332,0.00039180,-0.00141027,-0.00088
 957,-0.01461158,-0.01729733,-0.00508201,-0.15276313,-0.12860176,-0.029
 78550,-0.00009202,-0.00010531,0.00001767,0.00056469,0.00086554,-0.0000
 9777,0.00007065,-0.00012691,-0.00003300,0.00005581,-0.00004338,-0.0000
 0639,-0.00008528,-0.00002781,0.00000738,0.00002598,0.00013368,0.000096
 10,-0.00006015,0.00003032,-0.00003583,0.00001283,0.00001204,0.00008069
 ,-0.00041096,-0.00000651,0.00044960,0.00003385,0.00013631,0.00002175,0
 .00000077,0.00002931,-0.00000220,-0.00000527,-0.00001750,-0.00001223,0
 .00002082,0.00003891,-0.00000266,-0.00004028,0.00003185,0.00002600,0.0
 0003530,0.00108828,0.00035622,0.00115219,0.00030906,-0.00000800,0.1644
 7996,-0.00004223,0.00598365,0.00111116,-0.02200513,-0.02696007,-0.0059
 8125,0.00498467,-0.00304289,0.00087622,0.00034619,0.00029979,-0.000398
 05,0.00087722,0.00089066,0.00020668,0.00010862,0.00022087,0.00006481,0
 .00011364,0.00000111,-0.00021455,0.00004641,0.00003839,0.00001097,-0.0
 0006956,0.00012762,0.00009658,0.00073170,0.00079357,-0.00006388,0.0003
 2833,0.00014651,0.00105518,-0.12457153,-0.20097800,-0.03667769,0.00009
 059,0.00034251,-0.00019211,-0.00087346,-0.00149897,0.00003109,-0.00009
 779,-0.00000374,0.00008576,-0.00004197,-0.00001072,0.00011118,0.000033
 23,-0.00001141,-0.00004699,0.00003873,-0.00008800,-0.00002900,-0.00007
 386,0.00002067,-0.00001322,-0.00000071,-0.00001487,0.00000533,0.000012
 07,-0.00001667,0.00001318,-0.00001378,0.00003351,0.00000968,0.00000615
 ,0.00002344,0.00000031,-0.00000090,-0.00001001,0.00002785,-0.00000820,
 0.00001802,0.00001706,0.00004737,-0.00002590,0.00002276,-0.00016152,0.
 00037338,-0.00007877,-0.00004380,0.00004106,0.00037679,0.13673881,0.21
 889939,0.00094327,-0.00011538,-0.00106641,-0.00109560,0.00265338,-0.00
 057138,0.00016349,-0.00007777,0.00124368,0.00011274,-0.00052804,-0.000
 07147,0.00263900,-0.00156184,-0.00357613,-0.00001715,-0.00028297,-0.00
 061973,0.00066604,0.00115003,0.00054774,-0.00012729,0.00017321,0.00003
 817,-0.00017604,0.00014023,-0.00004648,-0.00046266,0.00086902,0.000620
 52,0.01516072,0.01856477,0.00436664,-0.02921357,-0.03689823,-0.0582652
 3,0.00020991,0.00041114,0.00015807,-0.00011927,-0.00007448,0.00030230,
 -0.00007161,0.00007832,0.00006228,-0.00001839,0.00002850,-0.00000200,-
 0.00007535,0.00006813,0.00029430,-0.00011528,0.00014779,0.00053218,-0.
 00001068,0.00002509,0.00006218,-0.00004719,0.00000365,-0.00000512,0.00
 041481,0.00007974,-0.00038397,0.00000891,-0.00005762,0.00000204,0.0000
 2906,-0.00003027,0.00001523,0.00001109,0.00001320,-0.00004799,-0.00006
 575,-0.00002533,0.00002400,-0.00006541,-0.00015614,-0.00000225,-0.0001
 6003,-0.00045203,0.00010657,-0.00083888,0.00033147,0.00083778,0.030227
 40,0.03913522,0.06036006,-0.00101061,0.00339548,0.00341255,-0.01036165
 ,0.00038396,-0.01757484,0.00034936,0.00013306,0.00134128,-0.00021715,-
 0.00033531,0.00014717,0.00136865,-0.00012007,-0.00061150,-0.00075785,-
 0.00062582,-0.00010078,0.00001056,0.00029568,0.00012604,0.00003839,-0.
 00000413,-0.00004198,0.00005713,-0.00027739,0.00021790,0.00182193,-0.0
 0055910,-0.00012276,0.00990351,-0.00334842,0.02469603,-0.08304631,0.01
 181433,-0.09650716,0.00034420,0.00042292,0.00010008,-0.00010190,-0.000
 09038,0.00022341,-0.00001086,-0.00001383,0.00002401,-0.00007221,0.0000
 5955,-0.00003850,0.00007470,0.00008903,0.00000420,-0.00115028,-0.00106
 313,-0.00020503,-0.00016150,0.00001126,-0.00003763,0.00003137,0.000023
 53,-0.00019029,-0.00001941,-0.00000838,-0.00014059,0.00001297,0.000001
 09,-0.00001473,-0.00003319,0.00000720,0.00000374,-0.00007339,0.0000420
 3,-0.00017582,0.00001215,0.00001288,-0.00014115,-0.00010171,0.00014585
 ,-0.00043135,-0.00010686,0.00008666,-0.00008693,-0.00343035,-0.0001131
 4,0.00384804,-0.00758301,0.00350071,-0.01790630,0.09421330,0.00235475,
 -0.00248739,-0.00352025,0.01107683,0.00070079,0.02912197,-0.00132022,-
 0.00045462,-0.00360281,0.00038556,0.00017295,-0.00005253,0.00039724,-0
 .00007751,0.00071871,-0.00075846,0.00014327,0.00063127,-0.00015444,0.0
 0005697,-0.00007530,-0.00000612,0.00005583,0.00004646,0.00003141,-0.00
 002881,-0.00005962,-0.00073389,0.00032323,-0.00080337,-0.00074836,0.00
 028231,0.00029220,0.01318867,-0.05500546,0.03356570,-0.00035423,-0.001
 49886,0.00003357,0.00012119,0.00036732,-0.00038606,0.00003361,-0.00002
 207,-0.00000383,-0.00002370,0.00007514,-0.00006365,0.00024871,-0.00002
 617,-0.00015789,-0.00084458,-0.00067178,-0.00053651,0.00012847,-0.0000
 1688,-0.00007059,0.00003401,-0.00001724,-0.00008889,0.00000378,-0.0000
 1953,0.00000349,-0.00000668,-0.00003586,-0.00001705,-0.00001947,0.0000
 1342,0.00000420,0.00003055,-0.00005423,0.00006136,-0.00000221,-0.00002
 316,0.00001696,0.00014626,0.00025777,0.00014381,-0.00006324,-0.0000309
 5,-0.00009324,0.00023592,0.00071568,-0.00007392,-0.00951523,0.00440712
 ,-0.02361279,-0.01386613,0.05289872,0.00077551,0.00055744,-0.00080965,
 -0.00061726,0.00017183,0.00138505,-0.00056772,0.00007808,-0.00063814,0
 .00028429,0.00001744,-0.00009690,-0.00121096,-0.00078047,-0.00006160,-
 0.00012489,-0.00055736,-0.00032518,0.00001766,0.00005009,-0.00007663,-
 0.00012673,0.00001464,0.00000532,0.00025661,0.00007357,0.00017205,-0.0
 0150727,0.00071538,0.00102666,-0.00796666,0.00326192,-0.02443780,-0.09
 219090,0.02798628,-0.25139623,0.00005826,-0.00003182,0.00037426,0.0000
 2217,0.00019448,0.00014998,0.00000307,0.00008804,0.00003484,0.00001902
 ,-0.00014032,0.00014855,-0.00020195,-0.00004065,0.00050056,-0.00063446
 ,-0.00001827,0.00088410,0.00009150,0.00002875,0.00000753,0.00002843,-0
 .00003046,0.00024312,0.00014201,0.00005267,0.00005137,0.00001683,-0.00
 000106,0.00001005,0.00007969,-0.00002154,0.00002770,-0.00012537,0.0000
 3284,0.00028528,0.00008840,-0.00002839,0.00003028,0.00079337,-0.000769
 00,0.00032040,0.00007081,-0.00002624,-0.00004547,0.00446819,0.00010583
 ,-0.00235433,-0.00212456,0.00043769,-0.00491558,0.10018289,-0.03142141
 ,0.27950044\\0.00004451,-0.00001584,-0.00000655,0.00002714,-0.00001209
 ,-0.00000947,-0.00003008,-0.00000653,0.00003415,0.00003877,0.00001848,
 -0.00001542,-0.00004590,-0.00002362,-0.00004457,-0.00001428,-0.0000098
 1,-0.00003035,-0.00000190,0.00002693,0.00001551,-0.00000773,-0.0000082
 4,-0.00000301,-0.00000853,0.00002008,0.00002621,-0.00001991,-0.0000109
 2,-0.00002386,0.00006340,-0.00000696,-0.00002159,-0.00011449,-0.000000
 85,0.00005272,0.00001379,-0.00000041,0.00000680,0.00000796,-0.00000871
 ,-0.00000622,-0.00000778,0.00000564,0.00000925,0.,-0.00000077,0.000000
 14,0.00000562,0.00000567,-0.00000245,0.00001751,0.00002232,0.00001367,
 0.00000877,-0.00001831,0.00000240,-0.00001128,0.00000087,-0.00000729,0
 .00000203,0.00000754,-0.00000356,0.00000025,-0.00000101,0.00000473,0.0
 0001218,0.00000048,0.00000247,-0.00000188,-0.00000386,-0.00000094,0.00
 000245,-0.00000636,-0.00000358,0.00001520,0.00001555,0.00001740,0.0000
 0199,-0.00000027,0.00000749,-0.00000153,-0.00000491,0.00000996,0.00000
 237,0.00002215,-0.00001058,0.00000137,-0.00000621,-0.00001345\\\@


 THE ATTENTION SPAN OF A COMPUTER IS AS LONG
 AS ITS EXTENSION CORD.
 Job cpu time:       0 days  0 hours  3 minutes 33.2 seconds.
 Elapsed time:       0 days  0 hours  3 minutes 38.3 seconds.
 File lengths (MBytes):  RWF=    166 Int=      0 D2E=      0 Chk=      6 Scr=      1
 Normal termination of Gaussian 16 at Thu Feb 22 11:27:11 2024.
