 Entering Gaussian System, Link 0=g16
 Input=/Volumes/SSD-PMU3/b3lyp_6-31gd_freq/BSZOUFIZRWXHEQ-SECBINFHSA-N_calculating/gaussianinput1.gjf
 Output=/Volumes/SSD-PMU3/b3lyp_6-31gd_freq/BSZOUFIZRWXHEQ-SECBINFHSA-N_calculating/gaussianinput1.log
 Initial command:
 /Applications/g16/l1.exe "/Users/macmini_m1_2022/PycharmProjects/sphere_model/sphere_model_lib/Gau-92255.inp" -scrdir="/Users/macmini_m1_2022/PycharmProjects/sphere_model/sphere_model_lib/"
 Entering Link 1 = /Applications/g16/l1.exe PID=     92256.
  
 Copyright (c) 1988,1990,1992,1993,1995,1998,2003,2009,2016,
            Gaussian, Inc.  All Rights Reserved.
  
 This is part of the Gaussian(R) 16 program.  It is based on
 the Gaussian(R) 09 system (copyright 2009, Gaussian, Inc.),
 the Gaussian(R) 03 system (copyright 2003, Gaussian, Inc.),
 the Gaussian(R) 98 system (copyright 1998, Gaussian, Inc.),
 the Gaussian(R) 94 system (copyright 1995, Gaussian, Inc.),
 the Gaussian 92(TM) system (copyright 1992, Gaussian, Inc.),
 the Gaussian 90(TM) system (copyright 1990, Gaussian, Inc.),
 the Gaussian 88(TM) system (copyright 1988, Gaussian, Inc.),
 the Gaussian 86(TM) system (copyright 1986, Carnegie Mellon
 University), and the Gaussian 82(TM) system (copyright 1983,
 Carnegie Mellon University). Gaussian is a federally registered
 trademark of Gaussian, Inc.
  
 This software contains proprietary and confidential information,
 including trade secrets, belonging to Gaussian, Inc.
  
 This software is provided under written license and may be
 used, copied, transmitted, or stored only in accord with that
 written license.
  
 The following legend is applicable only to US Government
 contracts under FAR:
  
                    RESTRICTED RIGHTS LEGEND
  
 Use, reproduction and disclosure by the US Government is
 subject to restrictions as set forth in subparagraphs (a)
 and (c) of the Commercial Computer Software - Restricted
 Rights clause in FAR 52.227-19.
  
 Gaussian, Inc.
 340 Quinnipiac St., Bldg. 40, Wallingford CT 06492
  
  
 ---------------------------------------------------------------
 Warning -- This program may not be used in any manner that
 competes with the business of Gaussian, Inc. or will provide
 assistance to any competitor of Gaussian, Inc.  The licensee
 of this program is prohibited from giving any competitor of
 Gaussian, Inc. access to this program.  By using this program,
 the user acknowledges that Gaussian, Inc. is engaged in the
 business of creating and licensing software in the field of
 computational chemistry and represents and warrants to the
 licensee that it is not a competitor of Gaussian, Inc. and that
 it will not use this program in any manner prohibited above.
 ---------------------------------------------------------------
  

 Cite this work as:
 Gaussian 16, Revision A.03,
 M. J. Frisch, G. W. Trucks, H. B. Schlegel, G. E. Scuseria, 
 M. A. Robb, J. R. Cheeseman, G. Scalmani, V. Barone, 
 G. A. Petersson, H. Nakatsuji, X. Li, M. Caricato, A. V. Marenich, 
 J. Bloino, B. G. Janesko, R. Gomperts, B. Mennucci, H. P. Hratchian, 
 J. V. Ortiz, A. F. Izmaylov, J. L. Sonnenberg, D. Williams-Young, 
 F. Ding, F. Lipparini, F. Egidi, J. Goings, B. Peng, A. Petrone, 
 T. Henderson, D. Ranasinghe, V. G. Zakrzewski, J. Gao, N. Rega, 
 G. Zheng, W. Liang, M. Hada, M. Ehara, K. Toyota, R. Fukuda, 
 J. Hasegawa, M. Ishida, T. Nakajima, Y. Honda, O. Kitao, H. Nakai, 
 T. Vreven, K. Throssell, J. A. Montgomery, Jr., J. E. Peralta, 
 F. Ogliaro, M. J. Bearpark, J. J. Heyd, E. N. Brothers, K. N. Kudin, 
 V. N. Staroverov, T. A. Keith, R. Kobayashi, J. Normand, 
 K. Raghavachari, A. P. Rendell, J. C. Burant, S. S. Iyengar, 
 J. Tomasi, M. Cossi, J. M. Millam, M. Klene, C. Adamo, R. Cammi, 
 J. W. Ochterski, R. L. Martin, K. Morokuma, O. Farkas, 
 J. B. Foresman, and D. J. Fox, Gaussian, Inc., Wallingford CT, 2016.
 
 ******************************************
 Gaussian 16:  EM64M-G16RevA.03 25-Dec-2016
                24-Feb-2024 
 ******************************************
 %nprocshared=10
 Will use up to   10 processors via shared memory.
 %mem=12GB
 %chk= 1.chk
 ---------------------
 # freq b3lyp/6-31g(d)
 ---------------------
 1/10=4,30=1,38=1/1,3;
 2/12=2,17=6,18=5,40=1/2;
 3/5=1,6=6,7=1,11=2,25=1,30=1,71=2,74=-5,140=1/1,2,3;
 4//1;
 5/5=2,38=5,98=1/2;
 8/6=4,10=90,11=11/1;
 11/6=1,8=1,9=11,15=111,16=1/1,2,10;
 10/6=1/2;
 6/7=2,8=2,9=2,10=2,28=1/1;
 7/8=1,10=1,25=1/1,2,3,16;
 1/10=4,30=1/3;
 99//99;
 ---------
 good luck
 ---------
 Symbolic Z-matrix:
 Charge =  0 Multiplicity = 1
 O                     1.217     0.        0. 
 C                     0.        0.        0. 
 C                    -0.81683  -1.28707   0.00775 
 C                    -1.88203  -1.2915    1.13897 
 Si                   -2.9044   -2.91271   1.18088 
 C                    -3.89008  -3.11167  -0.42743 
 C                    -1.73216  -4.38679   1.39259 
 C                    -4.09994  -2.85733   2.65174 
 C                    -2.7454   -0.01267   1.05916 
 C                    -1.89077   1.26336   1.11689 
 C                    -0.81865   1.28402   0.00775 
 H                    -0.12038  -2.12685   0.09001 
 H                    -1.32262  -1.36726  -0.96747 
 H                    -1.33724  -1.25955   2.09795 
 H                    -4.4778   -4.03767  -0.40798 
 H                    -4.59157  -2.28305  -0.58182 
 H                    -3.23504  -3.16086  -1.30555 
 H                    -2.29625  -5.32401   1.47418 
 H                    -1.04507  -4.4914    0.54485 
 H                    -1.12459  -4.28932   2.30059 
 H                    -3.56578  -2.70763   3.59805 
 H                    -4.83551  -2.05025   2.55466 
 H                    -4.65681  -3.79869   2.73556 
 H                    -3.47707   0.00467   1.87652 
 H                    -3.32521  -0.0155    0.12356 
 H                    -2.52399   2.15576   1.03433 
 H                    -1.39493   1.32052   2.09581 
 H                    -0.13722   2.13396   0.1084 
 H                    -1.31845   1.36845  -0.96978 
 

 GradGradGradGradGradGradGradGradGradGradGradGradGradGradGradGradGradGrad
 Berny optimization.
 Initialization pass.
 Trust Radius=3.00D-01 FncErr=1.00D-07 GrdErr=1.00D-07 EigMax=2.50D+02 EigMin=1.00D-04
 Number of steps in this run=      2 maximum allowed number of steps=      2.
 GradGradGradGradGradGradGradGradGradGradGradGradGradGradGradGradGradGrad

                          Input orientation:                          
 ---------------------------------------------------------------------
 Center     Atomic      Atomic             Coordinates (Angstroms)
 Number     Number       Type             X           Y           Z
 ---------------------------------------------------------------------
      1          8           0        1.217000    0.000000    0.000000
      2          6           0        0.000000    0.000000    0.000000
      3          6           0       -0.816833   -1.287068    0.007749
      4          6           0       -1.882034   -1.291500    1.138971
      5         14           0       -2.904404   -2.912711    1.180884
      6          6           0       -3.890081   -3.111674   -0.427433
      7          6           0       -1.732156   -4.386790    1.392591
      8          6           0       -4.099945   -2.857332    2.651737
      9          6           0       -2.745399   -0.012667    1.059161
     10          6           0       -1.890765    1.263362    1.116887
     11          6           0       -0.818654    1.284020    0.007749
     12          1           0       -0.120379   -2.126847    0.090009
     13          1           0       -1.322615   -1.367258   -0.967473
     14          1           0       -1.337238   -1.259547    2.097948
     15          1           0       -4.477797   -4.037667   -0.407977
     16          1           0       -4.591569   -2.283052   -0.581816
     17          1           0       -3.235042   -3.160861   -1.305550
     18          1           0       -2.296249   -5.324010    1.474175
     19          1           0       -1.045071   -4.491398    0.544851
     20          1           0       -1.124591   -4.289324    2.300591
     21          1           0       -3.565785   -2.707625    3.598049
     22          1           0       -4.835510   -2.050251    2.554665
     23          1           0       -4.656810   -3.798693    2.735555
     24          1           0       -3.477066    0.004674    1.876523
     25          1           0       -3.325207   -0.015502    0.123555
     26          1           0       -2.523989    2.155757    1.034331
     27          1           0       -1.394927    1.320523    2.095808
     28          1           0       -0.137219    2.133957    0.108398
     29          1           0       -1.318450    1.368445   -0.969779
 ---------------------------------------------------------------------
                    Distance matrix (angstroms):
                    1          2          3          4          5
     1  O    0.000000
     2  C    1.217000   0.000000
     3  C    2.406882   1.524408   0.000000
     4  C    3.545312   2.550937   1.553813   0.000000
     5  Si   5.183082   4.279478   2.894290   1.917113   0.000000
     6  C    5.995623   4.999794   3.600475   3.130321   1.896794
     7  C    5.466329   4.917682   3.516231   3.109278   1.895229
     8  C    6.592872   5.657350   4.498358   3.107961   1.896258
     9  C    4.101535   2.942652   2.539475   1.545051   2.906949
    10  C    3.535778   2.533478   2.981310   2.554972   4.297807
    11  C    2.406793   1.522814   2.571089   3.007282   4.831061
    12  H    2.513993   2.132152   1.094095   2.213945   3.091664
    13  H    3.042210   2.134176   1.101501   2.180779   3.083167
    14  H    3.537227   2.788557   2.154184   1.103386   2.455599
    15  H    6.992847   6.043167   4.597965   4.083193   2.503112
    16  H    6.268198   5.160750   3.948190   3.359444   2.519942
    17  H    5.613927   4.707547   3.329202   3.361670   2.520566
    18  H    6.546846   5.982561   4.542684   4.067563   2.504044
    19  H    5.058308   4.643457   3.257039   3.360481   2.520696
    20  H    5.401302   4.995570   3.790169   3.303033   2.513273
    21  H    6.569035   5.743867   4.739723   3.299620   2.514393
    22  H    6.882058   5.840548   4.818609   3.361981   2.521960
    23  H    7.510990   6.602970   5.338034   4.066261   2.504574
    24  H    5.055256   3.951120   3.498250   2.183616   3.053357
    25  H    4.543914   3.327538   2.814646   2.177611   3.112690
    26  H    4.439834   3.476730   3.977599   3.508082   5.084836
    27  H    3.599771   2.842888   3.390238   2.824088   4.586489
    28  H    2.529710   2.141110   3.489329   3.979977   5.854605
    29  H    3.040003   2.133407   2.873835   3.440895   5.046672
                    6          7          8          9         10
     6  C    0.000000
     7  C    3.097588   0.000000
     8  C    3.096776   3.087250   0.000000
     9  C    3.622720   4.502309   3.530327   0.000000
    10  C    5.052042   5.659098   4.921012   1.536874   0.000000
    11  C    5.380072   5.908499   5.908328   2.549355   1.542736
    12  H    3.930430   3.066250   4.788842   3.507099   3.960084
    13  H    3.150637   3.854244   4.799225   2.822495   3.404044
    14  H    4.040412   3.230037   3.239159   2.148652   2.762959
    15  H    1.096928   3.301890   3.301184   4.621074   6.092524
    16  H    1.096601   4.062049   3.320746   3.354966   4.770428
    17  H    1.096624   3.322880   4.062057   3.967711   5.220060
    18  H    3.324281   1.096922   3.274824   5.346432   6.609504
    19  H    3.308029   1.096217   4.054799   4.818160   5.844629
    20  H    4.059176   1.096859   3.320638   4.738983   5.728918
    21  H    4.058686   3.323528   1.096925   3.792332   4.972986
    22  H    3.303538   4.054705   1.096293   3.279763   4.660339
    23  H    3.326314   3.271546   1.096943   4.560458   5.991285
    24  H    3.897489   4.750143   3.029854   1.097141   2.162798
    25  H    3.195145   4.822491   3.881742   1.100702   2.163290
    26  H    5.634607   6.600021   5.498245   2.179840   1.097341
    27  H    5.677756   5.760352   5.008059   2.162361   1.098822
    28  H    6.472073   6.834699   6.861832   3.509209   2.202251
    29  H    5.194121   6.234956   6.221679   2.839058   2.166278
                   11         12         13         14         15
    11  C    0.000000
    12  H    3.482581   0.000000
    13  H    2.869549   1.772178   0.000000
    14  H    3.332806   2.502953   3.067348   0.000000
    15  H    6.471670   4.783964   4.171246   4.884744   0.000000
    16  H    5.225560   4.524079   3.416646   4.338130   1.766872
    17  H    5.226916   3.566216   2.643612   4.335949   1.766031
    18  H    6.928185   4.107576   4.750315   4.222399   3.155365
    19  H    5.804756   2.579348   3.482012   3.597545   3.591290
    20  H    6.034309   3.251372   4.388385   3.043983   4.317831
    21  H    6.030772   4.951209   5.260455   3.051828   4.318451
    22  H    5.808552   5.320983   5.021192   3.615482   3.585391
    23  H    6.928661   5.511188   5.544470   4.227690   3.157681
    24  H    3.492305   4.359170   3.822587   2.495225   4.749834
    25  H    2.825770   3.837945   2.651030   3.065599   4.217677
    26  H    2.173008   5.000978   4.226364   3.768814   6.652527
    27  H    2.166429   4.187131   4.075915   2.580716   6.669575
    28  H    1.094019   4.260877   3.849827   4.112691   7.562817
    29  H    1.101129   3.843903   2.735707   4.039510   6.286743
                   16         17         18         19         20
    16  H    0.000000
    17  H    1.770453   0.000000
    18  H    4.329321   3.645191   0.000000
    19  H    4.327103   3.160741   1.767012   0.000000
    20  H    4.934910   4.328012   1.768141   1.769119   0.000000
    21  H    4.324785   4.935595   3.601116   4.342564   3.185058
    22  H    3.154555   4.323912   4.281682   4.936191   4.341534
    23  H    3.647790   4.331141   3.080571   4.280617   3.592559
    24  H    3.538253   4.494972   5.472759   5.282292   4.914508
    25  H    2.691283   3.455974   5.573436   5.040849   5.277097
    26  H    5.156534   5.852099   7.496149   6.827259   6.715713
    27  H    5.511256   5.919296   6.734139   6.025470   5.620089
    28  H    6.310911   6.295304   7.883402   6.701494   6.858509
    29  H    4.919070   4.929572   7.191520   6.058597   6.537832
                   21         22         23         24         25
    21  H    0.000000
    22  H    1.770026   0.000000
    23  H    1.767671   1.766835   0.000000
    24  H    3.213734   2.554988   4.073737   0.000000
    25  H    4.401990   3.511626   4.786256   1.759649   0.000000
    26  H    5.595576   5.034387   6.549699   2.498960   2.487133
    27  H    4.816153   4.838417   6.103731   2.472822   3.066060
    28  H    6.882852   6.750241   7.907275   4.337590   3.844954
    29  H    6.521496   6.039776   7.181467   3.823732   2.671659
                   26         27         28         29
    26  H    0.000000
    27  H    1.760435   0.000000
    28  H    2.560175   2.488635   0.000000
    29  H    2.467720   3.066915   1.773071   0.000000
 Stoichiometry    C9H18OSi
 Framework group  C1[X(C9H18OSi)]
 Deg. of freedom    81
 Full point group                 C1      NOp   1
 Largest Abelian subgroup         C1      NOp   1
 Largest concise Abelian subgroup C1      NOp   1
                         Standard orientation:                         
 ---------------------------------------------------------------------
 Center     Atomic      Atomic             Coordinates (Angstroms)
 Number     Number       Type             X           Y           Z
 ---------------------------------------------------------------------
      1          8           0        3.097093    1.703233   -0.386841
      2          6           0        2.403492    0.802968    0.048508
      3          6           0        0.915974    0.981056    0.330278
      4          6           0        0.060785   -0.126609   -0.345048
      5         14           0       -1.816149    0.093377   -0.022486
      6          6           0       -2.187894   -0.056126    1.831505
      7          6           0       -2.362387    1.798737   -0.643184
      8          6           0       -2.771642   -1.243958   -0.968194
      9          6           0        0.599766   -1.522052    0.041501
     10          6           0        2.085921   -1.684109   -0.314960
     11          6           0        2.953136   -0.587516    0.337312
     12          1           0        0.629391    1.984702    0.002238
     13          1           0        0.775005    0.933723    1.421695
     14          1           0        0.189262   -0.016383   -1.435371
     15          1           0       -3.261125    0.068018    2.021278
     16          1           0       -1.897430   -1.036139    2.228667
     17          1           0       -1.663698    0.708676    2.417067
     18          1           0       -3.444489    1.929492   -0.519906
     19          1           0       -1.870430    2.612370   -0.097590
     20          1           0       -2.135179    1.929991   -1.708195
     21          1           0       -2.553140   -1.209768   -2.042593
     22          1           0       -2.530068   -2.252383   -0.612413
     23          1           0       -3.853390   -1.105968   -0.849598
     24          1           0        0.019789   -2.306812   -0.459994
     25          1           0        0.469364   -1.682588    1.122597
     26          1           0        2.450315   -2.672968   -0.009133
     27          1           0        2.202167   -1.631148   -1.406331
     28          1           0        3.993519   -0.630200    0.001668
     29          1           0        2.946573   -0.730106    1.429149
 ---------------------------------------------------------------------
 Rotational constants (GHZ):           1.5129516           0.5600372           0.4851464
 Standard basis: 6-31G(d) (6D, 7F)
 There are   205 symmetry adapted cartesian basis functions of A   symmetry.
 There are   205 symmetry adapted basis functions of A   symmetry.
   205 basis functions,   404 primitive gaussians,   205 cartesian basis functions
    47 alpha electrons       47 beta electrons
       nuclear repulsion energy       739.2623742269 Hartrees.
 NAtoms=   29 NActive=   29 NUniq=   29 SFac= 1.00D+00 NAtFMM=   60 NAOKFM=F Big=F
 Integral buffers will be    131072 words long.
 Raffenetti 2 integral format.
 Two-electron integral symmetry is turned on.
 One-electron integrals computed using PRISM.
 NBasis=   205 RedAO= T EigKep=  3.09D-03  NBF=   205
 NBsUse=   205 1.00D-06 EigRej= -1.00D+00 NBFU=   205
 ExpMin= 7.78D-02 ExpMax= 1.61D+04 ExpMxC= 2.43D+03 IAcc=3 IRadAn=         5 AccDes= 0.00D+00
 Harris functional with IExCor=  402 and IRadAn=       5 diagonalized for initial guess.
 HarFok:  IExCor=  402 AccDes= 0.00D+00 IRadAn=         5 IDoV= 1 UseB2=F ITyADJ=14
 ICtDFT=  3500011 ScaDFX=  1.000000  1.000000  1.000000  1.000000
 FoFCou: FMM=F IPFlag=           0 FMFlag=      100000 FMFlg1=           0
         NFxFlg=           0 DoJE=T BraDBF=F KetDBF=T FulRan=T
         wScrn=  0.000000 ICntrl=       500 IOpCl=  0 I1Cent=   200000004 NGrid=           0
         NMat0=    1 NMatS0=      1 NMatT0=    0 NMatD0=    1 NMtDS0=    0 NMtDT0=    0
 Petite list used in FoFCou.
 Requested convergence on RMS density matrix=1.00D-08 within 128 cycles.
 Requested convergence on MAX density matrix=1.00D-06.
 Requested convergence on             energy=1.00D-06.
 No special actions if energy rises.
 Integral accuracy reduced to 1.0D-05 until final iterations.
 Initial convergence to 1.0D-05 achieved.  Increase integral accuracy.
 SCF Done:  E(RB3LYP) =  -718.560058381     A.U. after   13 cycles
            NFock= 13  Conv=0.99D-08     -V/T= 2.0075
 DoSCS=F DFT=T ScalE2(SS,OS)=  1.000000  1.000000
 Range of M.O.s used for correlation:     1   205
 NBasis=   205 NAE=    47 NBE=    47 NFC=     0 NFV=     0
 NROrb=    205 NOA=    47 NOB=    47 NVA=   158 NVB=   158
 Symmetrizing basis deriv contribution to polar:
 IMax=3 JMax=2 DiffMx= 0.00D+00
 G2DrvN: will do    30 centers at a time, making    1 passes.
 Calling FoFCou, ICntrl=  3107 FMM=F I1Cent=   0 AccDes= 0.00D+00.
 End of G2Drv F.D. properties file   721 does not exist.
 End of G2Drv F.D. properties file   722 does not exist.
 End of G2Drv F.D. properties file   788 does not exist.
          IDoAtm=11111111111111111111111111111
          Differentiating once with respect to electric field.
                with respect to dipole field.
          Differentiating once with respect to nuclear coordinates.
 Keep R1 ints in memory in canonical form, NReq=233271173.
          There are    90 degrees of freedom in the 1st order CPHF.  IDoFFX=6 NUNeed=     3.
     87 vectors produced by pass  0 Test12= 8.25D-15 1.11D-09 XBig12= 8.32D+01 2.46D+00.
 AX will form    87 AO Fock derivatives at one time.
     87 vectors produced by pass  1 Test12= 8.25D-15 1.11D-09 XBig12= 5.46D+00 6.10D-01.
     87 vectors produced by pass  2 Test12= 8.25D-15 1.11D-09 XBig12= 4.88D-02 2.57D-02.
     87 vectors produced by pass  3 Test12= 8.25D-15 1.11D-09 XBig12= 1.44D-04 1.77D-03.
     87 vectors produced by pass  4 Test12= 8.25D-15 1.11D-09 XBig12= 1.30D-07 4.98D-05.
     39 vectors produced by pass  5 Test12= 8.25D-15 1.11D-09 XBig12= 7.31D-11 1.01D-06.
      3 vectors produced by pass  6 Test12= 8.25D-15 1.11D-09 XBig12= 4.31D-14 2.42D-08.
 InvSVY:  IOpt=1 It=  1 EMax= 1.07D-14
 Solved reduced A of dimension   477 with    90 vectors.
 Isotropic polarizability for W=    0.000000      114.63 Bohr**3.
 End of Minotr F.D. properties file   721 does not exist.
 End of Minotr F.D. properties file   722 does not exist.
 End of Minotr F.D. properties file   788 does not exist.

 **********************************************************************

            Population analysis using the SCF density.

 **********************************************************************

 Orbital symmetries:
       Occupied  (A) (A) (A) (A) (A) (A) (A) (A) (A) (A) (A) (A)
                 (A) (A) (A) (A) (A) (A) (A) (A) (A) (A) (A) (A)
                 (A) (A) (A) (A) (A) (A) (A) (A) (A) (A) (A) (A)
                 (A) (A) (A) (A) (A) (A) (A) (A) (A) (A) (A)
       Virtual   (A) (A) (A) (A) (A) (A) (A) (A) (A) (A) (A) (A)
                 (A) (A) (A) (A) (A) (A) (A) (A) (A) (A) (A) (A)
                 (A) (A) (A) (A) (A) (A) (A) (A) (A) (A) (A) (A)
                 (A) (A) (A) (A) (A) (A) (A) (A) (A) (A) (A) (A)
                 (A) (A) (A) (A) (A) (A) (A) (A) (A) (A) (A) (A)
                 (A) (A) (A) (A) (A) (A) (A) (A) (A) (A) (A) (A)
                 (A) (A) (A) (A) (A) (A) (A) (A) (A) (A) (A) (A)
                 (A) (A) (A) (A) (A) (A) (A) (A) (A) (A) (A) (A)
                 (A) (A) (A) (A) (A) (A) (A) (A) (A) (A) (A) (A)
                 (A) (A) (A) (A) (A) (A) (A) (A) (A) (A) (A) (A)
                 (A) (A) (A) (A) (A) (A) (A) (A) (A) (A) (A) (A)
                 (A) (A) (A) (A) (A) (A) (A) (A) (A) (A) (A) (A)
                 (A) (A) (A) (A) (A) (A) (A) (A) (A) (A) (A) (A)
                 (A) (A)
 The electronic state is 1-A.
 Alpha  occ. eigenvalues --  -66.11946 -19.12924 -10.26492 -10.19193 -10.19043
 Alpha  occ. eigenvalues --  -10.18917 -10.18796 -10.18153 -10.16428 -10.16364
 Alpha  occ. eigenvalues --  -10.16238  -5.26404  -3.62280  -3.62275  -3.62269
 Alpha  occ. eigenvalues --   -1.02778  -0.82588  -0.75107  -0.72330  -0.70778
 Alpha  occ. eigenvalues --   -0.67877  -0.67734  -0.61983  -0.58621  -0.52798
 Alpha  occ. eigenvalues --   -0.47530  -0.46149  -0.45682  -0.43412  -0.42612
 Alpha  occ. eigenvalues --   -0.41686  -0.41219  -0.40691  -0.40534  -0.39472
 Alpha  occ. eigenvalues --   -0.38957  -0.38614  -0.38241  -0.36036  -0.35492
 Alpha  occ. eigenvalues --   -0.34908  -0.32974  -0.32283  -0.29813  -0.29648
 Alpha  occ. eigenvalues --   -0.28374  -0.22711
 Alpha virt. eigenvalues --   -0.00907   0.06586   0.08135   0.08724   0.09561
 Alpha virt. eigenvalues --    0.10967   0.11421   0.12066   0.13252   0.13752
 Alpha virt. eigenvalues --    0.14610   0.14977   0.15384   0.16603   0.16877
 Alpha virt. eigenvalues --    0.17044   0.17850   0.18651   0.19481   0.19779
 Alpha virt. eigenvalues --    0.20261   0.21387   0.21843   0.23489   0.25051
 Alpha virt. eigenvalues --    0.25390   0.26308   0.28522   0.34170   0.35673
 Alpha virt. eigenvalues --    0.38202   0.38802   0.39346   0.44765   0.46318
 Alpha virt. eigenvalues --    0.46636   0.52345   0.54778   0.57248   0.58877
 Alpha virt. eigenvalues --    0.59662   0.60266   0.61333   0.62299   0.64059
 Alpha virt. eigenvalues --    0.65855   0.68191   0.69493   0.69986   0.72898
 Alpha virt. eigenvalues --    0.73651   0.74034   0.75084   0.75587   0.76556
 Alpha virt. eigenvalues --    0.77185   0.78092   0.81142   0.81304   0.84480
 Alpha virt. eigenvalues --    0.85255   0.85860   0.86664   0.87230   0.87750
 Alpha virt. eigenvalues --    0.89199   0.89709   0.90042   0.90374   0.91755
 Alpha virt. eigenvalues --    0.92833   0.93253   0.94016   0.94814   0.94998
 Alpha virt. eigenvalues --    0.95492   0.96052   0.96646   0.96956   1.01439
 Alpha virt. eigenvalues --    1.01827   1.02660   1.03049   1.07639   1.10868
 Alpha virt. eigenvalues --    1.11293   1.13738   1.19641   1.23550   1.28908
 Alpha virt. eigenvalues --    1.30785   1.38038   1.41072   1.43568   1.50125
 Alpha virt. eigenvalues --    1.51919   1.52466   1.58739   1.66162   1.68329
 Alpha virt. eigenvalues --    1.71202   1.71993   1.72546   1.72979   1.76184
 Alpha virt. eigenvalues --    1.78015   1.81420   1.82055   1.82553   1.83563
 Alpha virt. eigenvalues --    1.84229   1.86186   1.88795   1.93764   1.95970
 Alpha virt. eigenvalues --    1.98519   2.00269   2.03325   2.04875   2.06037
 Alpha virt. eigenvalues --    2.08264   2.14674   2.15997   2.23010   2.23434
 Alpha virt. eigenvalues --    2.25928   2.27605   2.28165   2.28413   2.28879
 Alpha virt. eigenvalues --    2.29398   2.29615   2.32411   2.36464   2.36612
 Alpha virt. eigenvalues --    2.39469   2.40740   2.46786   2.52500   2.59251
 Alpha virt. eigenvalues --    2.61997   2.64246   2.71698   2.75552   2.76371
 Alpha virt. eigenvalues --    2.98280   3.01614   3.11591   3.99942   4.12891
 Alpha virt. eigenvalues --    4.17388   4.22830   4.23185   4.25928   4.27476
 Alpha virt. eigenvalues --    4.52862   4.56323   4.59217
          Condensed to atoms (all electrons):
               1          2          3          4          5          6
     1  O    7.996628   0.593859  -0.080388   0.000817  -0.000321  -0.000000
     2  C    0.593859   4.480816   0.315317  -0.020107   0.001693  -0.000008
     3  C   -0.080388   0.315317   5.348533   0.333506  -0.009801  -0.002561
     4  C    0.000817  -0.020107   0.333506   5.161377   0.349819  -0.020955
     5  Si  -0.000321   0.001693  -0.009801   0.349819  11.924688   0.404121
     6  C   -0.000000  -0.000008  -0.002561  -0.020955   0.404121   5.256952
     7  C    0.000001  -0.000020  -0.002186  -0.023277   0.402755  -0.027937
     8  C    0.000000  -0.000005   0.000731  -0.023432   0.401052  -0.027731
     9  C    0.000104  -0.014611  -0.044529   0.375546  -0.009996  -0.002669
    10  C    0.001250  -0.023844  -0.003270  -0.042602   0.002956   0.000028
    11  C   -0.080049   0.330170  -0.140604  -0.005534  -0.000367  -0.000001
    12  H    0.006280  -0.025503   0.340836  -0.028087  -0.003372  -0.000116
    13  H    0.001652  -0.029831   0.343211  -0.040071  -0.007081   0.001571
    14  H    0.000640  -0.003201  -0.047589   0.356996  -0.025503   0.001143
    15  H    0.000000   0.000000   0.000041   0.001172  -0.019228   0.362041
    16  H    0.000000   0.000000  -0.000030  -0.001207  -0.019944   0.361308
    17  H    0.000000  -0.000009   0.000151  -0.001195  -0.019922   0.361281
    18  H   -0.000000   0.000000   0.000067   0.001081  -0.017287  -0.000903
    19  H    0.000000  -0.000008   0.000182  -0.001451  -0.020058  -0.001012
    20  H    0.000000  -0.000003  -0.000142  -0.001213  -0.019442   0.001217
    21  H    0.000000  -0.000001   0.000007  -0.001200  -0.019284   0.001223
    22  H    0.000000  -0.000000   0.000005  -0.001365  -0.020304  -0.001001
    23  H   -0.000000   0.000000  -0.000008   0.001086  -0.017167  -0.000897
    24  H    0.000002   0.000313   0.004695  -0.034583  -0.002958  -0.000150
    25  H   -0.000005  -0.001659  -0.004361  -0.045642  -0.003282   0.001142
    26  H   -0.000070   0.003154  -0.000258   0.005089  -0.000248   0.000001
    27  H    0.000459  -0.002590   0.000265  -0.006170  -0.000075  -0.000000
    28  H    0.005027  -0.023988   0.006806  -0.000176   0.000053  -0.000000
    29  H    0.001458  -0.028020   0.003207  -0.001623  -0.000165  -0.000000
               7          8          9         10         11         12
     1  O    0.000001   0.000000   0.000104   0.001250  -0.080049   0.006280
     2  C   -0.000020  -0.000005  -0.014611  -0.023844   0.330170  -0.025503
     3  C   -0.002186   0.000731  -0.044529  -0.003270  -0.140604   0.340836
     4  C   -0.023277  -0.023432   0.375546  -0.042602  -0.005534  -0.028087
     5  Si   0.402755   0.401052  -0.009996   0.002956  -0.000367  -0.003372
     6  C   -0.027937  -0.027731  -0.002669   0.000028  -0.000001  -0.000116
     7  C    5.256099  -0.027281   0.000714  -0.000018  -0.000003   0.000964
     8  C   -0.027281   5.257941  -0.002649   0.000001  -0.000001   0.000023
     9  C    0.000714  -0.002649   5.018586   0.371701  -0.043576   0.004242
    10  C   -0.000018   0.000001   0.371701   5.039653   0.336694  -0.000209
    11  C   -0.000003  -0.000001  -0.043576   0.336694   5.312971   0.006718
    12  H    0.000964   0.000023   0.004242  -0.000209   0.006718   0.560873
    13  H   -0.000079   0.000017  -0.003976  -0.001768   0.003421  -0.026836
    14  H   -0.001314  -0.001258  -0.043693  -0.007034   0.000176  -0.002344
    15  H   -0.001122  -0.001070   0.000035   0.000000   0.000000  -0.000004
    16  H    0.001210  -0.001057   0.000183  -0.000018   0.000001   0.000009
    17  H   -0.001053   0.001221  -0.000056  -0.000002   0.000004  -0.000020
    18  H    0.360743  -0.001207  -0.000007   0.000000   0.000000  -0.000022
    19  H    0.362044   0.001223   0.000010  -0.000001   0.000000   0.002020
    20  H    0.361563  -0.000990   0.000008  -0.000001   0.000000   0.000192
    21  H   -0.000997   0.361379  -0.000129  -0.000007   0.000000  -0.000002
    22  H    0.001229   0.361389   0.000019  -0.000018   0.000000   0.000000
    23  H   -0.001219   0.360878   0.000076   0.000000   0.000000  -0.000000
    24  H    0.000021   0.001364   0.367494  -0.033541   0.004423  -0.000135
    25  H    0.000002  -0.000116   0.372327  -0.045120  -0.003285   0.000003
    26  H    0.000000   0.000001  -0.030157   0.363181  -0.029300   0.000018
    27  H    0.000000   0.000000  -0.038093   0.375280  -0.042863  -0.000032
    28  H   -0.000000  -0.000000   0.004050  -0.025539   0.344255  -0.000190
    29  H    0.000000   0.000000  -0.003036  -0.035935   0.346356  -0.000134
              13         14         15         16         17         18
     1  O    0.001652   0.000640   0.000000   0.000000   0.000000  -0.000000
     2  C   -0.029831  -0.003201   0.000000   0.000000  -0.000009   0.000000
     3  C    0.343211  -0.047589   0.000041  -0.000030   0.000151   0.000067
     4  C   -0.040071   0.356996   0.001172  -0.001207  -0.001195   0.001081
     5  Si  -0.007081  -0.025503  -0.019228  -0.019944  -0.019922  -0.017287
     6  C    0.001571   0.001143   0.362041   0.361308   0.361281  -0.000903
     7  C   -0.000079  -0.001314  -0.001122   0.001210  -0.001053   0.360743
     8  C    0.000017  -0.001258  -0.001070  -0.001057   0.001221  -0.001207
     9  C   -0.003976  -0.043693   0.000035   0.000183  -0.000056  -0.000007
    10  C   -0.001768  -0.007034   0.000000  -0.000018  -0.000002   0.000000
    11  C    0.003421   0.000176   0.000000   0.000001   0.000004   0.000000
    12  H   -0.026836  -0.002344  -0.000004   0.000009  -0.000020  -0.000022
    13  H    0.593760   0.006480  -0.000034   0.000094   0.002108  -0.000008
    14  H    0.006480   0.613223  -0.000014   0.000010   0.000008  -0.000012
    15  H   -0.000034  -0.000014   0.544894  -0.025040  -0.025006   0.000425
    16  H    0.000094   0.000010  -0.025040   0.549400  -0.025132  -0.000005
    17  H    0.002108   0.000008  -0.025006  -0.025132   0.548727  -0.000079
    18  H   -0.000008  -0.000012   0.000425  -0.000005  -0.000079   0.545576
    19  H   -0.000018  -0.000003  -0.000095  -0.000003   0.000450  -0.025135
    20  H    0.000023   0.000727  -0.000003  -0.000019  -0.000007  -0.025219
    21  H    0.000001   0.000709  -0.000003  -0.000007  -0.000019  -0.000075
    22  H   -0.000001   0.000005  -0.000098   0.000466  -0.000003  -0.000004
    23  H   -0.000000  -0.000016   0.000406  -0.000077  -0.000007   0.000560
    24  H    0.000009  -0.003145  -0.000006  -0.000054   0.000010  -0.000000
    25  H    0.005289   0.006387  -0.000019   0.001836   0.000052   0.000000
    26  H    0.000013   0.000106  -0.000000   0.000000   0.000000  -0.000000
    27  H    0.000104   0.005516   0.000000   0.000000  -0.000000   0.000000
    28  H   -0.000163  -0.000078   0.000000  -0.000000  -0.000000  -0.000000
    29  H    0.001416   0.000137   0.000000   0.000000  -0.000001  -0.000000
              19         20         21         22         23         24
     1  O    0.000000   0.000000   0.000000   0.000000  -0.000000   0.000002
     2  C   -0.000008  -0.000003  -0.000001  -0.000000   0.000000   0.000313
     3  C    0.000182  -0.000142   0.000007   0.000005  -0.000008   0.004695
     4  C   -0.001451  -0.001213  -0.001200  -0.001365   0.001086  -0.034583
     5  Si  -0.020058  -0.019442  -0.019284  -0.020304  -0.017167  -0.002958
     6  C   -0.001012   0.001217   0.001223  -0.001001  -0.000897  -0.000150
     7  C    0.362044   0.361563  -0.000997   0.001229  -0.001219   0.000021
     8  C    0.001223  -0.000990   0.361379   0.361389   0.360878   0.001364
     9  C    0.000010   0.000008  -0.000129   0.000019   0.000076   0.367494
    10  C   -0.000001  -0.000001  -0.000007  -0.000018   0.000000  -0.033541
    11  C    0.000000   0.000000   0.000000   0.000000   0.000000   0.004423
    12  H    0.002020   0.000192  -0.000002   0.000000  -0.000000  -0.000135
    13  H   -0.000018   0.000023   0.000001  -0.000001  -0.000000   0.000009
    14  H   -0.000003   0.000727   0.000709   0.000005  -0.000016  -0.003145
    15  H   -0.000095  -0.000003  -0.000003  -0.000098   0.000406  -0.000006
    16  H   -0.000003  -0.000019  -0.000007   0.000466  -0.000077  -0.000054
    17  H    0.000450  -0.000007  -0.000019  -0.000003  -0.000007   0.000010
    18  H   -0.025135  -0.025219  -0.000075  -0.000004   0.000560  -0.000000
    19  H    0.544126  -0.024817  -0.000004  -0.000020  -0.000003   0.000000
    20  H   -0.024817   0.546369   0.000331  -0.000004  -0.000077  -0.000003
    21  H   -0.000004   0.000331   0.548724  -0.025203  -0.025324   0.000162
    22  H   -0.000020  -0.000004  -0.025203   0.548817  -0.025271   0.002166
    23  H   -0.000003  -0.000077  -0.025324  -0.025271   0.544887  -0.000025
    24  H    0.000000  -0.000003   0.000162   0.002166  -0.000025   0.593723
    25  H   -0.000001   0.000001   0.000017  -0.000018  -0.000008  -0.036493
    26  H    0.000000   0.000000   0.000000   0.000001  -0.000000  -0.001770
    27  H    0.000000   0.000000   0.000001   0.000001  -0.000000  -0.004079
    28  H   -0.000000  -0.000000  -0.000000  -0.000000   0.000000  -0.000148
    29  H    0.000000   0.000000   0.000000   0.000000  -0.000000  -0.000027
              25         26         27         28         29
     1  O   -0.000005  -0.000070   0.000459   0.005027   0.001458
     2  C   -0.001659   0.003154  -0.002590  -0.023988  -0.028020
     3  C   -0.004361  -0.000258   0.000265   0.006806   0.003207
     4  C   -0.045642   0.005089  -0.006170  -0.000176  -0.001623
     5  Si  -0.003282  -0.000248  -0.000075   0.000053  -0.000165
     6  C    0.001142   0.000001  -0.000000  -0.000000  -0.000000
     7  C    0.000002   0.000000   0.000000  -0.000000   0.000000
     8  C   -0.000116   0.000001   0.000000  -0.000000   0.000000
     9  C    0.372327  -0.030157  -0.038093   0.004050  -0.003036
    10  C   -0.045120   0.363181   0.375280  -0.025539  -0.035935
    11  C   -0.003285  -0.029300  -0.042863   0.344255   0.346356
    12  H    0.000003   0.000018  -0.000032  -0.000190  -0.000134
    13  H    0.005289   0.000013   0.000104  -0.000163   0.001416
    14  H    0.006387   0.000106   0.005516  -0.000078   0.000137
    15  H   -0.000019  -0.000000   0.000000   0.000000   0.000000
    16  H    0.001836   0.000000   0.000000  -0.000000   0.000000
    17  H    0.000052   0.000000  -0.000000  -0.000000  -0.000001
    18  H    0.000000  -0.000000   0.000000  -0.000000  -0.000000
    19  H   -0.000001   0.000000   0.000000  -0.000000   0.000000
    20  H    0.000001   0.000000   0.000000  -0.000000   0.000000
    21  H    0.000017   0.000000   0.000001  -0.000000   0.000000
    22  H   -0.000018   0.000001   0.000001  -0.000000   0.000000
    23  H   -0.000008  -0.000000  -0.000000   0.000000  -0.000000
    24  H   -0.036493  -0.001770  -0.004079  -0.000148  -0.000027
    25  H    0.612460  -0.003516   0.005774  -0.000049   0.004726
    26  H   -0.003516   0.599975  -0.036805  -0.002558  -0.006506
    27  H    0.005774  -0.036805   0.597293  -0.003489   0.005809
    28  H   -0.000049  -0.002558  -0.003489   0.562172  -0.027287
    29  H    0.004726  -0.006506   0.005809  -0.027287   0.589322
 Mulliken charges:
               1
     1  O   -0.447345
     2  C    0.448087
     3  C   -0.361834
     4  C   -0.286600
     5  Si   0.748669
     6  C   -0.666086
     7  C   -0.660837
     8  C   -0.660424
     9  C   -0.277917
    10  C   -0.271817
    11  C   -0.339606
    12  H    0.164827
    13  H    0.150695
    14  H    0.142944
    15  H    0.162726
    16  H    0.158074
    17  H    0.158499
    18  H    0.161510
    19  H    0.162572
    20  H    0.161507
    21  H    0.159701
    22  H    0.159212
    23  H    0.162207
    24  H    0.142734
    25  H    0.133556
    26  H    0.139647
    27  H    0.143694
    28  H    0.161301
    29  H    0.150302
 Sum of Mulliken charges =  -0.00000
 Mulliken charges with hydrogens summed into heavy atoms:
               1
     1  O   -0.447345
     2  C    0.448087
     3  C   -0.046312
     4  C   -0.143656
     5  Si   0.748669
     6  C   -0.186786
     7  C   -0.175248
     8  C   -0.179304
     9  C   -0.001627
    10  C    0.011525
    11  C   -0.028002
 APT charges:
               1
     1  O   -0.667933
     2  C    0.761376
     3  C   -0.083580
     4  C   -0.246224
     5  Si   1.377577
     6  C   -0.358156
     7  C   -0.355939
     8  C   -0.358245
     9  C    0.098680
    10  C    0.146654
    11  C   -0.054603
    12  H   -0.017700
    13  H   -0.004633
    14  H   -0.045533
    15  H    0.002978
    16  H    0.007306
    17  H    0.007882
    18  H   -0.003628
    19  H    0.011676
    20  H    0.006757
    21  H    0.005745
    22  H    0.008966
    23  H   -0.004890
    24  H   -0.039978
    25  H   -0.043295
    26  H   -0.067667
    27  H   -0.043618
    28  H   -0.027420
    29  H   -0.012555
 Sum of APT charges =  -0.00000
 APT charges with hydrogens summed into heavy atoms:
               1
     1  O   -0.667933
     2  C    0.761376
     3  C   -0.105913
     4  C   -0.291757
     5  Si   1.377577
     6  C   -0.339990
     7  C   -0.341135
     8  C   -0.348424
     9  C    0.015407
    10  C    0.035369
    11  C   -0.094578
 Electronic spatial extent (au):  <R**2>=           2534.7917
 Charge=             -0.0000 electrons
 Dipole moment (field-independent basis, Debye):
    X=             -2.1711    Y=             -2.2472    Z=              0.8436  Tot=              3.2365
 Quadrupole moment (field-independent basis, Debye-Ang):
   XX=            -83.5681   YY=            -80.1109   ZZ=            -75.2034
   XY=             -8.5278   XZ=              2.8481   YZ=              1.5114
 Traceless Quadrupole moment (field-independent basis, Debye-Ang):
   XX=             -3.9406   YY=             -0.4834   ZZ=              4.4241
   XY=             -8.5278   XZ=              2.8481   YZ=              1.5114
 Octapole moment (field-independent basis, Debye-Ang**2):
  XXX=            -23.5722  YYY=             -4.4021  ZZZ=             -4.1327  XYY=             -8.7522
  XXY=            -24.9306  XXZ=              9.2742  XZZ=              6.9598  YZZ=              2.3506
  YYZ=              4.0929  XYZ=              4.7053
 Hexadecapole moment (field-independent basis, Debye-Ang**3):
 XXXX=          -2308.4752 YYYY=           -770.6952 ZZZZ=           -394.5345 XXXY=            -82.0327
 XXXZ=             14.1153 YYYX=             -8.2895 YYYZ=              2.5484 ZZZX=              4.2041
 ZZZY=             -2.4644 XXYY=           -557.3495 XXZZ=           -444.4759 YYZZ=           -193.0532
 XXYZ=             12.3813 YYXZ=              3.3107 ZZXY=              3.6719
 N-N= 7.392623742269D+02 E-N=-3.162538105124D+03  KE= 7.132018930191D+02
  Exact polarizability: 131.290   0.487 113.292  -0.628  -1.709  99.304
 Approx polarizability: 163.874   7.828 163.016  -4.124  -6.163 151.031
 Calling FoFJK, ICntrl=    100127 FMM=F ISym2X=0 I1Cent= 0 IOpClX= 0 NMat=1 NMatS=1 NMatT=0.
 Full mass-weighted force constant matrix:
 Low frequencies ---   -1.4008   -0.0026   -0.0015    0.0003    4.8984    8.1612
 Low frequencies ---   30.3909   75.7988   95.5339
 Diagonal vibrational polarizability:
       17.6836456      12.7719300      36.5637858
 Harmonic frequencies (cm**-1), IR intensities (KM/Mole), Raman scattering
 activities (A**4/AMU), depolarization ratios for plane and unpolarized
 incident light, reduced masses (AMU), force constants (mDyne/A),
 and normal coordinates:
                      1                      2                      3
                      A                      A                      A
 Frequencies --     30.3593                75.7979                95.5323
 Red. masses --      3.2777                 3.1464                 3.3724
 Frc consts  --      0.0018                 0.0107                 0.0181
 IR Inten    --      0.8659                 1.1736                 1.9505
  Atom  AN      X      Y      Z        X      Y      Z        X      Y      Z
     1   8     0.01   0.03   0.18    -0.12   0.02  -0.12     0.05   0.13   0.22
     2   6     0.00  -0.01   0.07    -0.02  -0.00  -0.01     0.01   0.03  -0.06
     3   6    -0.00  -0.04   0.07     0.02  -0.06   0.21    -0.01  -0.01  -0.14
     4   6    -0.00   0.02  -0.02     0.02  -0.01   0.14    -0.02  -0.08   0.01
     5  14     0.00   0.01   0.00     0.00   0.01   0.03    -0.01  -0.02   0.01
     6   6     0.04   0.18   0.02    -0.18   0.05  -0.01    -0.06   0.00  -0.00
     7   6    -0.04  -0.06  -0.16     0.10   0.01  -0.06     0.08   0.00  -0.02
     8   6    -0.00  -0.10   0.16     0.08   0.01  -0.05    -0.07   0.02   0.00
     9   6    -0.00  -0.01  -0.14     0.03  -0.02   0.06     0.01  -0.03   0.16
    10   6    -0.00   0.02  -0.15     0.01  -0.00  -0.06    -0.03  -0.05  -0.00
    11   6    -0.00  -0.04  -0.06     0.06   0.00  -0.13     0.05   0.01  -0.21
    12   1     0.00  -0.01   0.16    -0.04  -0.03   0.37    -0.01  -0.04  -0.24
    13   1    -0.01  -0.13   0.07     0.12  -0.22   0.22    -0.00   0.13  -0.13
    14   1    -0.00   0.11  -0.01     0.04   0.06   0.15    -0.05  -0.22  -0.01
    15   1     0.04   0.12   0.03    -0.20   0.06  -0.12    -0.04   0.14  -0.01
    16   1     0.12   0.25   0.12    -0.22   0.05   0.04    -0.19  -0.04  -0.01
    17   1    -0.00   0.28  -0.07    -0.23   0.05   0.03     0.04  -0.08   0.02
    18   1    -0.03  -0.05  -0.11     0.09   0.03  -0.20     0.08   0.03  -0.12
    19   1    -0.00  -0.00  -0.28     0.05   0.01  -0.01     0.06  -0.02   0.04
    20   1    -0.10  -0.18  -0.18     0.24  -0.01  -0.04     0.19   0.01   0.01
    21   1     0.00  -0.23   0.15     0.21  -0.03  -0.02    -0.11   0.05  -0.01
    22   1    -0.01  -0.06   0.28     0.00   0.01   0.01    -0.08   0.00  -0.04
    23   1    -0.00  -0.07   0.13     0.06   0.04  -0.19    -0.07   0.04   0.05
    24   1    -0.00   0.03  -0.21     0.00  -0.01   0.07    -0.04  -0.11   0.34
    25   1    -0.00  -0.11  -0.15     0.10  -0.06   0.06     0.14   0.13   0.20
    26   1    -0.00  -0.01  -0.24     0.05  -0.00  -0.09     0.02  -0.02   0.04
    27   1    -0.00   0.11  -0.15    -0.08   0.01  -0.06    -0.17  -0.15  -0.02
    28   1    -0.00  -0.01  -0.06     0.02   0.04  -0.26    -0.01   0.03  -0.37
    29   1    -0.00  -0.14  -0.07     0.21  -0.04  -0.13     0.25   0.04  -0.20
                      4                      5                      6
                      A                      A                      A
 Frequencies --    105.3898               139.9274               148.2826
 Red. masses --      3.1153                 1.0703                 1.2421
 Frc consts  --      0.0204                 0.0123                 0.0161
 IR Inten    --      0.4626                 0.1123                 0.1980
  Atom  AN      X      Y      Z        X      Y      Z        X      Y      Z
     1   8    -0.14   0.05  -0.02    -0.02   0.02   0.01     0.03  -0.01  -0.00
     2   6    -0.07   0.02   0.03    -0.01   0.00  -0.00     0.00   0.01  -0.01
     3   6    -0.08  -0.07   0.01    -0.01  -0.01  -0.00    -0.01   0.02  -0.06
     4   6     0.00  -0.10  -0.04     0.00  -0.02  -0.00    -0.01  -0.00  -0.01
     5  14     0.02  -0.03  -0.02     0.00  -0.00  -0.01    -0.01  -0.01   0.02
     6   6     0.08   0.02  -0.00     0.02  -0.02  -0.00    -0.06  -0.01   0.01
     7   6     0.20   0.03  -0.02     0.02   0.01   0.01     0.05   0.01   0.03
     8   6    -0.19   0.08   0.05    -0.02   0.02  -0.02     0.01  -0.03   0.03
     9   6     0.06  -0.08  -0.07     0.00  -0.01   0.02     0.01  -0.00  -0.04
    10   6     0.10   0.02   0.02     0.00  -0.01   0.02     0.01   0.02  -0.03
    11   6    -0.00   0.06   0.08     0.01   0.01  -0.01    -0.02   0.01   0.04
    12   1    -0.13  -0.08   0.04    -0.02  -0.01   0.00     0.00   0.00  -0.12
    13   1    -0.10  -0.12   0.01    -0.01  -0.01  -0.00    -0.02   0.09  -0.06
    14   1     0.02  -0.06  -0.04     0.01  -0.03  -0.00    -0.06  -0.01  -0.02
    15   1     0.11   0.18   0.06    -0.02  -0.31  -0.02    -0.06   0.03  -0.03
    16   1    -0.04  -0.02  -0.02     0.29   0.09   0.05    -0.10  -0.02   0.01
    17   1     0.22  -0.06  -0.02    -0.20   0.16  -0.04    -0.05  -0.03   0.04
    18   1     0.21   0.14  -0.10     0.08   0.16   0.36     0.01  -0.05  -0.24
    19   1     0.24  -0.02   0.02     0.30  -0.00  -0.23    -0.13  -0.02   0.24
    20   1     0.29   0.03  -0.00    -0.32  -0.12  -0.08     0.32   0.13   0.10
    21   1    -0.35   0.12   0.02     0.21  -0.16   0.02     0.34  -0.34   0.09
    22   1    -0.20   0.04  -0.04    -0.27   0.03   0.17    -0.31   0.01   0.36
    23   1    -0.16   0.14   0.22    -0.02   0.22  -0.27    -0.00   0.22  -0.33
    24   1     0.14  -0.10  -0.14     0.00  -0.02   0.03     0.01   0.01  -0.07
    25   1     0.00  -0.14  -0.08     0.00   0.01   0.02     0.00  -0.03  -0.05
    26   1     0.14   0.04   0.02     0.01  -0.00   0.04     0.02   0.01  -0.06
    27   1     0.16   0.04   0.03    -0.00  -0.04   0.02     0.03   0.07  -0.03
    28   1     0.02   0.12   0.15    -0.00   0.01  -0.03     0.00   0.00   0.11
    29   1    -0.07   0.06   0.08     0.03   0.02  -0.01    -0.10   0.00   0.03
                      7                      8                      9
                      A                      A                      A
 Frequencies --    152.9142               163.3414               187.8276
 Red. masses --      1.0224                 1.9281                 2.4254
 Frc consts  --      0.0141                 0.0303                 0.0504
 IR Inten    --      0.0069                 0.0855                 0.2753
  Atom  AN      X      Y      Z        X      Y      Z        X      Y      Z
     1   8     0.00  -0.00  -0.00    -0.07   0.02   0.01    -0.05   0.02   0.02
     2   6     0.01   0.00   0.00    -0.04  -0.00   0.01    -0.04  -0.01  -0.02
     3   6     0.01   0.00   0.01    -0.02  -0.03   0.07    -0.05  -0.04  -0.06
     4   6     0.00   0.01   0.00     0.00   0.01  -0.01    -0.02  -0.07  -0.04
     5  14    -0.00   0.00   0.00     0.01   0.02  -0.04     0.00  -0.02  -0.00
     6   6    -0.01  -0.01  -0.00     0.21   0.01  -0.00    -0.01   0.20   0.01
     7   6    -0.02  -0.01  -0.01    -0.06   0.00  -0.01     0.01   0.04   0.17
     8   6     0.01  -0.01   0.00     0.03   0.01  -0.05     0.14  -0.06  -0.09
     9   6     0.00   0.01  -0.00    -0.04   0.00   0.05     0.00  -0.06  -0.03
    10   6     0.00   0.01  -0.00    -0.05  -0.05   0.06     0.02  -0.03   0.00
    11   6     0.00   0.00   0.00    -0.01  -0.01  -0.05    -0.02   0.01   0.01
    12   1     0.01   0.01   0.02    -0.04  -0.00   0.15    -0.06  -0.06  -0.09
    13   1     0.01  -0.00   0.01    -0.01  -0.12   0.07    -0.07  -0.01  -0.06
    14   1     0.00   0.02   0.00     0.07   0.01   0.00    -0.04  -0.08  -0.04
    15   1     0.05   0.46   0.04     0.25   0.11   0.18     0.00   0.34  -0.02
    16   1    -0.45  -0.19  -0.12     0.18  -0.03  -0.07    -0.10   0.26   0.21
    17   1     0.35  -0.32   0.07     0.38  -0.06  -0.07     0.05   0.28  -0.14
    18   1     0.03   0.08   0.25    -0.10  -0.16  -0.24     0.03   0.06   0.32
    19   1     0.18   0.00  -0.21    -0.29   0.02   0.17     0.10  -0.06   0.23
    20   1    -0.27  -0.12  -0.08     0.16   0.13   0.05    -0.12   0.19   0.16
    21   1     0.11  -0.10   0.02     0.25  -0.14  -0.01     0.21   0.05  -0.07
    22   1    -0.09   0.00   0.10    -0.15   0.03   0.12     0.26  -0.05  -0.15
    23   1     0.00   0.07  -0.11     0.02   0.15  -0.28     0.11  -0.22  -0.15
    24   1     0.00   0.01  -0.01    -0.06  -0.00   0.07     0.04  -0.07  -0.05
    25   1    -0.00   0.00  -0.01    -0.06   0.05   0.05    -0.02  -0.07  -0.03
    26   1    -0.00   0.00  -0.01    -0.06  -0.03   0.13     0.04  -0.01   0.03
    27   1     0.00   0.01  -0.00    -0.06  -0.14   0.05     0.04  -0.04   0.01
    28   1     0.00   0.00   0.01    -0.04  -0.00  -0.15    -0.01   0.02   0.03
    29   1    -0.00  -0.00   0.00     0.10   0.01  -0.05    -0.04   0.02   0.01
                     10                     11                     12
                      A                      A                      A
 Frequencies --    194.5739               209.4081               258.2658
 Red. masses --      2.4830                 2.3360                 2.4081
 Frc consts  --      0.0554                 0.0604                 0.0946
 IR Inten    --      1.2137                 1.1677                 0.6760
  Atom  AN      X      Y      Z        X      Y      Z        X      Y      Z
     1   8    -0.04   0.00   0.01     0.01  -0.02  -0.00     0.03  -0.07  -0.03
     2   6    -0.06   0.01  -0.00    -0.02   0.00   0.00     0.01  -0.01   0.06
     3   6    -0.05   0.04  -0.02    -0.02   0.03  -0.05     0.00   0.05   0.05
     4   6    -0.04   0.04  -0.01    -0.04  -0.02   0.05     0.00   0.02   0.07
     5  14    -0.00   0.02   0.01    -0.02  -0.03   0.10    -0.03  -0.06  -0.08
     6   6     0.06  -0.10   0.01     0.06   0.02   0.13     0.06   0.05  -0.06
     7   6     0.20   0.07  -0.04     0.02  -0.10  -0.10     0.04   0.00   0.06
     8   6     0.14  -0.11   0.05     0.04   0.10  -0.14    -0.08  -0.08  -0.03
     9   6    -0.09   0.03   0.00     0.00  -0.01   0.01     0.04   0.06   0.14
    10   6    -0.10   0.00  -0.01    -0.01   0.04  -0.07    -0.03   0.10  -0.12
    11   6    -0.09  -0.01  -0.01    -0.05  -0.00   0.04    -0.01  -0.02   0.03
    12   1    -0.03   0.04  -0.04    -0.02  -0.00  -0.15     0.04   0.04  -0.01
    13   1    -0.06   0.07  -0.02    -0.03   0.15  -0.04    -0.03   0.10   0.05
    14   1    -0.04   0.03  -0.01    -0.11  -0.04   0.04     0.07  -0.03   0.07
    15   1     0.06  -0.16   0.08     0.08   0.03   0.22     0.08   0.09   0.04
    16   1     0.12  -0.13  -0.11     0.11   0.04   0.14     0.09   0.09   0.02
    17   1     0.06  -0.14   0.06     0.13   0.05   0.04     0.14   0.10  -0.20
    18   1     0.23   0.32  -0.02     0.02  -0.06  -0.19     0.05   0.08   0.12
    19   1     0.40  -0.01  -0.10     0.01   0.01  -0.25     0.12  -0.12   0.17
    20   1     0.21  -0.05  -0.05     0.08  -0.31  -0.12     0.02   0.14   0.07
    21   1     0.09  -0.10   0.04     0.20   0.34  -0.11    -0.14  -0.13  -0.05
    22   1     0.37  -0.05   0.07    -0.03   0.01  -0.34    -0.11  -0.07   0.00
    23   1     0.12  -0.34   0.10     0.03   0.11  -0.28    -0.07  -0.03   0.02
    24   1    -0.11   0.05   0.01    -0.01  -0.01   0.03    -0.05  -0.00   0.33
    25   1    -0.08   0.05   0.00     0.08  -0.04   0.02     0.24   0.18   0.18
    26   1    -0.11  -0.00  -0.01     0.03   0.02  -0.20     0.03   0.04  -0.39
    27   1    -0.11  -0.00  -0.01    -0.05   0.17  -0.07    -0.19   0.35  -0.13
    28   1    -0.09  -0.02  -0.00    -0.02  -0.00   0.13     0.00  -0.00   0.07
    29   1    -0.10  -0.01  -0.01    -0.15  -0.04   0.03    -0.08  -0.14   0.01
                     13                     14                     15
                      A                      A                      A
 Frequencies --    283.2392               319.8915               387.3969
 Red. masses --      2.7365                 3.7538                 3.1577
 Frc consts  --      0.1293                 0.2263                 0.2792
 IR Inten    --      2.0096                 4.0246                 1.2229
  Atom  AN      X      Y      Z        X      Y      Z        X      Y      Z
     1   8    -0.08  -0.02   0.01    -0.06   0.00   0.00    -0.14  -0.11   0.02
     2   6    -0.04  -0.04   0.03    -0.09   0.03   0.02    -0.06  -0.11   0.12
     3   6    -0.05  -0.07  -0.07    -0.05   0.08   0.01    -0.07   0.02  -0.05
     4   6    -0.01  -0.13   0.02     0.09   0.02  -0.03    -0.01   0.10  -0.17
     5  14     0.03   0.12  -0.01     0.23  -0.04  -0.00    -0.00  -0.01   0.03
     6   6     0.00  -0.05  -0.03    -0.03   0.01  -0.06    -0.02   0.00   0.05
     7   6    -0.09   0.10  -0.04     0.02  -0.13   0.04     0.02  -0.02   0.00
     8   6     0.09   0.05   0.07     0.03   0.09   0.06     0.01   0.01   0.00
     9   6     0.08  -0.09   0.09    -0.05   0.01   0.03     0.08   0.19  -0.01
    10   6     0.05   0.03  -0.10    -0.10  -0.04  -0.05     0.07  -0.00   0.01
    11   6     0.00  -0.02   0.05    -0.16  -0.02  -0.02     0.14  -0.07  -0.01
    12   1    -0.05  -0.11  -0.18    -0.06   0.05  -0.08     0.14   0.05  -0.13
    13   1    -0.11   0.05  -0.07    -0.12   0.13  -0.00    -0.29   0.04  -0.08
    14   1     0.00  -0.22   0.01     0.14   0.00  -0.02    -0.03   0.11  -0.17
    15   1    -0.01  -0.14  -0.03    -0.08   0.07  -0.39    -0.04   0.02  -0.05
    16   1     0.04  -0.11  -0.21    -0.20   0.03   0.08    -0.08   0.00   0.09
    17   1    -0.04  -0.14   0.13    -0.19   0.04   0.05    -0.07   0.01   0.08
    18   1    -0.11  -0.07  -0.00     0.00  -0.35   0.12     0.02   0.03  -0.06
    19   1    -0.20   0.19  -0.09    -0.11  -0.03   0.01     0.03  -0.01  -0.03
    20   1    -0.16   0.09  -0.06    -0.09  -0.08   0.03     0.07  -0.09   0.00
    21   1     0.10  -0.04   0.07    -0.10   0.09   0.03     0.07   0.06   0.02
    22   1     0.20   0.11   0.17    -0.15   0.03  -0.01    -0.00  -0.00  -0.03
    23   1     0.07  -0.06   0.05     0.08   0.33   0.20     0.00   0.01  -0.05
    24   1     0.06  -0.17   0.24    -0.15   0.05   0.10     0.04   0.06   0.23
    25   1     0.24  -0.00   0.13    -0.00   0.08   0.05     0.14   0.45   0.03
    26   1     0.15  -0.00  -0.31    -0.06  -0.03  -0.07    -0.09  -0.04   0.07
    27   1    -0.06   0.24  -0.10    -0.15  -0.02  -0.05     0.11  -0.07   0.01
    28   1     0.03   0.04   0.12    -0.13  -0.01   0.05     0.06   0.10  -0.25
    29   1    -0.09  -0.09   0.03    -0.23  -0.05  -0.02     0.39  -0.19  -0.03
                     16                     17                     18
                      A                      A                      A
 Frequencies --    424.1974               465.9827               505.9377
 Red. masses --      2.3459                 1.8107                 3.3913
 Frc consts  --      0.2487                 0.2317                 0.5115
 IR Inten    --      2.1512                 3.9459                11.4931
  Atom  AN      X      Y      Z        X      Y      Z        X      Y      Z
     1   8    -0.01  -0.07   0.01    -0.04  -0.00  -0.02     0.21  -0.19   0.00
     2   6    -0.08   0.01   0.05     0.05  -0.01   0.09    -0.10   0.07   0.03
     3   6    -0.06   0.18   0.03     0.02  -0.01  -0.04    -0.16  -0.01   0.05
     4   6     0.04   0.02   0.16    -0.03  -0.03   0.05    -0.04  -0.07  -0.08
     5  14    -0.02   0.01  -0.02     0.03  -0.00  -0.01     0.01   0.00   0.00
     6   6     0.01   0.00  -0.02     0.01   0.00  -0.03     0.01   0.00   0.00
     7   6    -0.01   0.03  -0.01     0.01  -0.02   0.01     0.01  -0.00   0.00
     8   6    -0.01  -0.01  -0.01     0.01   0.01   0.01     0.02   0.03   0.02
     9   6     0.08  -0.06  -0.04    -0.11  -0.05  -0.01     0.01  -0.04   0.00
    10   6     0.09  -0.11  -0.01    -0.08   0.11   0.06     0.02   0.10   0.04
    11   6    -0.03  -0.01  -0.07     0.11   0.01   0.02    -0.05   0.16  -0.07
    12   1     0.01   0.08  -0.35     0.10  -0.06  -0.29    -0.34   0.01   0.28
    13   1    -0.14   0.58   0.03    -0.10   0.24  -0.05    -0.13  -0.29   0.04
    14   1     0.04   0.07   0.16    -0.03  -0.07   0.04    -0.00  -0.07  -0.07
    15   1     0.03  -0.01   0.09     0.01   0.00  -0.04    -0.01  -0.00  -0.07
    16   1     0.06  -0.00  -0.06     0.01   0.00  -0.02    -0.03  -0.01   0.00
    17   1     0.06  -0.01  -0.05     0.01   0.00  -0.03    -0.04  -0.01   0.05
    18   1    -0.01   0.02   0.02     0.01  -0.05   0.02     0.00  -0.05   0.01
    19   1    -0.01   0.02   0.01    -0.00  -0.02   0.01    -0.03   0.03  -0.02
    20   1    -0.04   0.07  -0.01    -0.01  -0.00   0.01    -0.01  -0.02  -0.00
    21   1    -0.04  -0.05  -0.01    -0.02  -0.00  -0.00     0.06   0.04   0.03
    22   1     0.00   0.00   0.02    -0.01   0.00   0.01     0.05   0.04   0.02
    23   1    -0.01  -0.02   0.02     0.02   0.04   0.04     0.01  -0.02  -0.02
    24   1     0.05   0.07  -0.21     0.02   0.03  -0.30     0.09  -0.10   0.00
    25   1     0.05  -0.28  -0.08    -0.30  -0.29  -0.07    -0.04   0.01   0.01
    26   1     0.08  -0.07   0.15    -0.04   0.06  -0.17     0.12   0.14   0.04
    27   1     0.15  -0.26  -0.01    -0.16   0.30   0.05    -0.02   0.09   0.04
    28   1    -0.04   0.15  -0.15     0.00  -0.01  -0.33    -0.15   0.35  -0.39
    29   1     0.09  -0.06  -0.08     0.46  -0.06   0.01     0.31   0.11  -0.08
                     19                     20                     21
                      A                      A                      A
 Frequencies --    587.7247               631.3580               688.6070
 Red. masses --      3.7683                 3.9078                 2.5213
 Frc consts  --      0.7669                 0.9178                 0.7044
 IR Inten    --      0.9096                 8.7595                 9.7680
  Atom  AN      X      Y      Z        X      Y      Z        X      Y      Z
     1   8     0.02   0.05  -0.07     0.05   0.09  -0.10    -0.00  -0.00   0.00
     2   6     0.06   0.11   0.16     0.11   0.16   0.21     0.00  -0.00  -0.00
     3   6     0.02   0.04   0.03    -0.01   0.04   0.04     0.00   0.00   0.00
     4   6     0.15  -0.05  -0.14     0.03  -0.05  -0.12    -0.01  -0.00   0.01
     5  14     0.05  -0.00  -0.01    -0.12   0.01   0.02     0.03   0.08   0.11
     6   6    -0.03  -0.02   0.24     0.01   0.02  -0.14     0.08   0.05  -0.15
     7   6    -0.05   0.17  -0.06     0.02  -0.15   0.06     0.03  -0.01   0.06
     8   6    -0.09  -0.14  -0.09     0.05   0.13   0.10    -0.15  -0.15  -0.07
     9   6    -0.02  -0.09   0.01    -0.02  -0.08  -0.01    -0.00   0.00  -0.00
    10   6    -0.06  -0.06  -0.02    -0.03  -0.11  -0.05     0.00   0.00  -0.00
    11   6    -0.03  -0.01   0.00    -0.00  -0.04   0.02     0.00   0.00  -0.00
    12   1    -0.02   0.00  -0.06    -0.04   0.00  -0.05     0.00   0.00  -0.00
    13   1    -0.22   0.04  -0.01    -0.28   0.06   0.00     0.01   0.01   0.00
    14   1     0.29  -0.09  -0.12     0.11  -0.06  -0.11    -0.03   0.01   0.01
    15   1    -0.06   0.00   0.06     0.02   0.00  -0.08     0.02  -0.03  -0.46
    16   1    -0.13  -0.02   0.31     0.05   0.01  -0.19    -0.04  -0.04  -0.29
    17   1    -0.13  -0.02   0.33     0.04   0.01  -0.16    -0.10  -0.04   0.11
    18   1    -0.05   0.17  -0.08     0.03   0.02  -0.03     0.00  -0.16  -0.04
    19   1    -0.06   0.20  -0.09     0.12  -0.20   0.05    -0.11   0.21  -0.15
    20   1    -0.04   0.15  -0.06     0.14  -0.25   0.08     0.03  -0.28   0.03
    21   1    -0.07  -0.12  -0.09     0.24   0.20   0.14     0.08  -0.03  -0.03
    22   1    -0.10  -0.15  -0.13     0.20   0.16   0.09    -0.02  -0.16  -0.18
    23   1    -0.10  -0.15  -0.13     0.01  -0.07  -0.07    -0.21  -0.40  -0.33
    24   1    -0.08  -0.09   0.08    -0.10  -0.16   0.20    -0.00   0.00   0.00
    25   1    -0.04   0.04   0.03     0.10   0.12   0.03     0.01  -0.00   0.00
    26   1     0.06  -0.03  -0.07     0.02  -0.06   0.05    -0.00   0.00   0.01
    27   1    -0.12  -0.01  -0.02    -0.01  -0.20  -0.05     0.01  -0.01  -0.00
    28   1    -0.07  -0.04  -0.11    -0.02  -0.09  -0.03     0.00   0.00   0.00
    29   1     0.08  -0.16  -0.02     0.04  -0.26  -0.01    -0.00   0.00  -0.00
                     22                     23                     24
                      A                      A                      A
 Frequencies --    689.4445               700.0445               723.0718
 Red. masses --      2.4774                 1.1679                 2.0245
 Frc consts  --      0.6938                 0.3372                 0.6236
 IR Inten    --      9.1069                 0.0143                 5.0908
  Atom  AN      X      Y      Z        X      Y      Z        X      Y      Z
     1   8     0.00   0.00  -0.00     0.00  -0.00   0.00    -0.05  -0.03   0.04
     2   6     0.00   0.00  -0.00     0.00  -0.00  -0.00    -0.07  -0.06  -0.08
     3   6    -0.00   0.00  -0.00     0.00  -0.00   0.00     0.08   0.06  -0.00
     4   6    -0.00   0.00   0.00    -0.00  -0.00   0.00     0.15   0.04  -0.07
     5  14     0.00  -0.12   0.08    -0.00   0.00  -0.00    -0.06   0.02  -0.02
     6   6     0.06  -0.04  -0.14     0.01   0.07   0.01     0.02  -0.00   0.02
     7   6    -0.11   0.19  -0.05    -0.01  -0.03  -0.06    -0.04  -0.06   0.04
     8   6     0.05   0.00   0.08     0.00  -0.04   0.05    -0.02   0.03   0.03
     9   6    -0.00  -0.01   0.00    -0.00   0.00  -0.00     0.03  -0.06   0.06
    10   6     0.00  -0.00   0.00    -0.00   0.00   0.00     0.02   0.00   0.05
    11   6     0.00  -0.00   0.00    -0.00   0.00  -0.00    -0.05   0.01  -0.01
    12   1    -0.01   0.00   0.01     0.00   0.00   0.00     0.13   0.09   0.07
    13   1     0.01  -0.00   0.00    -0.00  -0.00   0.00     0.13  -0.03  -0.00
    14   1    -0.01   0.00   0.00    -0.00  -0.00   0.00     0.38  -0.05  -0.05
    15   1     0.03   0.12  -0.38    -0.02  -0.15  -0.00    -0.01   0.02  -0.18
    16   1    -0.09   0.04   0.13     0.04  -0.09  -0.38    -0.09  -0.01   0.09
    17   1    -0.02   0.10  -0.26    -0.07  -0.15   0.36    -0.09   0.01   0.09
    18   1    -0.09   0.54  -0.22     0.03   0.06   0.14    -0.01   0.25  -0.13
    19   1     0.06   0.13  -0.11     0.11  -0.30   0.24     0.16  -0.17   0.02
    20   1     0.08   0.07  -0.03    -0.07   0.38  -0.02     0.18  -0.21   0.07
    21   1     0.11   0.28   0.10     0.16   0.33   0.09     0.14   0.10   0.06
    22   1    -0.16  -0.13  -0.18    -0.18  -0.20  -0.29     0.10   0.06   0.01
    23   1     0.08   0.22   0.02     0.00   0.11  -0.11    -0.05  -0.12  -0.12
    24   1     0.00  -0.01  -0.00    -0.00   0.00  -0.00     0.07   0.05  -0.16
    25   1    -0.00  -0.01   0.00     0.00  -0.00  -0.00    -0.18  -0.17   0.01
    26   1     0.01  -0.01  -0.01    -0.00   0.00   0.00     0.18  -0.04  -0.28
    27   1    -0.01   0.01   0.00     0.00  -0.00   0.00    -0.16   0.30   0.04
    28   1    -0.00  -0.00  -0.00     0.00   0.00   0.00    -0.07   0.07  -0.07
    29   1     0.01  -0.00   0.00    -0.00   0.00  -0.00     0.03   0.15   0.01
                     25                     26                     27
                      A                      A                      A
 Frequencies --    765.1217               772.0575               782.4046
 Red. masses --      2.1684                 1.4905                 1.7462
 Frc consts  --      0.7479                 0.5234                 0.6298
 IR Inten    --      0.8091                15.7376                15.3220
  Atom  AN      X      Y      Z        X      Y      Z        X      Y      Z
     1   8    -0.04  -0.06   0.01    -0.00   0.00  -0.00    -0.03  -0.02   0.01
     2   6     0.03  -0.06   0.09    -0.03   0.03   0.01    -0.02  -0.02   0.02
     3   6     0.12  -0.11   0.01     0.01   0.02  -0.04     0.09  -0.00  -0.02
     4   6     0.04  -0.03   0.01     0.03   0.02  -0.03     0.10  -0.01  -0.04
     5  14    -0.01   0.03   0.00     0.01   0.04   0.05    -0.02  -0.05   0.04
     6   6    -0.00   0.00  -0.00    -0.06   0.02  -0.05    -0.08   0.00  -0.06
     7   6    -0.04  -0.03   0.02    -0.03  -0.02   0.03     0.07   0.06  -0.04
     8   6     0.02  -0.03  -0.02     0.06  -0.07  -0.06    -0.03   0.02   0.04
     9   6    -0.01   0.00  -0.02     0.01  -0.04   0.01     0.03   0.01  -0.01
    10   6    -0.03   0.11  -0.03     0.01  -0.05   0.01    -0.03   0.03   0.02
    11   6    -0.08   0.14  -0.09    -0.02  -0.01   0.04    -0.07   0.03  -0.01
    12   1     0.27  -0.17  -0.29    -0.04   0.07   0.14     0.10   0.00  -0.01
    13   1    -0.05   0.19  -0.00     0.06  -0.17  -0.04     0.08  -0.03  -0.02
    14   1     0.08  -0.01   0.01    -0.07  -0.03  -0.05     0.07   0.00  -0.04
    15   1     0.00   0.01   0.01     0.01  -0.04   0.34     0.01  -0.04   0.41
    16   1     0.00   0.00  -0.00     0.17   0.02  -0.23     0.20   0.03  -0.20
    17   1     0.00   0.00  -0.01     0.16  -0.03  -0.18     0.20  -0.01  -0.29
    18   1    -0.02   0.22  -0.10    -0.01   0.16  -0.06     0.03  -0.39   0.16
    19   1     0.12  -0.13   0.02     0.08  -0.07  -0.00    -0.23   0.24  -0.04
    20   1     0.13  -0.13   0.05     0.10  -0.12   0.04    -0.23   0.22  -0.08
    21   1    -0.12  -0.06  -0.05    -0.31  -0.15  -0.13     0.17   0.12   0.08
    22   1    -0.11  -0.06  -0.03    -0.30  -0.17  -0.08     0.11   0.04  -0.01
    23   1     0.05   0.14   0.09     0.14   0.35   0.26    -0.07  -0.16  -0.13
    24   1    -0.00  -0.07   0.08    -0.05  -0.01   0.02     0.02   0.02  -0.01
    25   1     0.10   0.08   0.00     0.00  -0.01   0.01    -0.01   0.04  -0.01
    26   1     0.03   0.27   0.41     0.07  -0.07  -0.14     0.03   0.05   0.01
    27   1     0.08  -0.30  -0.03    -0.01   0.11   0.01    -0.05   0.05   0.02
    28   1    -0.03   0.10   0.07    -0.07   0.07  -0.12    -0.10   0.04  -0.11
    29   1    -0.28   0.05  -0.10     0.17  -0.03   0.03     0.03   0.02  -0.01
                     28                     29                     30
                      A                      A                      A
 Frequencies --    848.9009               868.4573               879.0961
 Red. masses --      1.6563                 2.0219                 1.4953
 Frc consts  --      0.7032                 0.8985                 0.6808
 IR Inten    --      2.1179                 9.2109                30.1598
  Atom  AN      X      Y      Z        X      Y      Z        X      Y      Z
     1   8    -0.02  -0.01   0.00     0.00   0.02  -0.02    -0.01  -0.01  -0.01
     2   6    -0.03   0.01   0.03    -0.01   0.04   0.03     0.00   0.02   0.06
     3   6     0.13   0.03  -0.06    -0.01  -0.05  -0.08    -0.01   0.00  -0.06
     4   6    -0.06   0.02   0.04     0.08  -0.05   0.07     0.00   0.02   0.00
     5  14     0.00   0.00   0.00     0.00  -0.03   0.02     0.00   0.06   0.02
     6   6     0.05  -0.03   0.01     0.02   0.05  -0.00     0.00  -0.09  -0.01
     7   6     0.00  -0.02  -0.05    -0.05  -0.00  -0.01     0.01  -0.04  -0.06
     8   6    -0.02   0.02  -0.02    -0.01   0.05  -0.05    -0.02  -0.03   0.01
     9   6    -0.02  -0.06  -0.05     0.13   0.11  -0.01     0.01   0.03   0.07
    10   6     0.01  -0.04  -0.03    -0.06   0.05   0.02     0.02  -0.00  -0.02
    11   6    -0.07   0.04   0.08    -0.08  -0.08   0.01     0.01   0.00  -0.04
    12   1     0.13   0.10   0.14    -0.19  -0.05   0.07    -0.01   0.08   0.16
    13   1     0.31  -0.12  -0.04     0.05  -0.21  -0.07    -0.04  -0.24  -0.08
    14   1    -0.25   0.05   0.02    -0.00  -0.18   0.05    -0.05  -0.20  -0.02
    15   1     0.01   0.05  -0.25    -0.01  -0.07  -0.08     0.02   0.15  -0.06
    16   1    -0.11   0.00   0.18     0.01  -0.04  -0.20    -0.05   0.06   0.38
    17   1    -0.08   0.04   0.03    -0.05  -0.07   0.20     0.04   0.14  -0.33
    18   1     0.02  -0.01   0.08    -0.02   0.22  -0.05     0.03  -0.07   0.15
    19   1     0.03  -0.14   0.11     0.10  -0.12   0.05     0.05  -0.21   0.17
    20   1    -0.06   0.21  -0.03     0.06   0.03   0.01    -0.07   0.27  -0.03
    21   1    -0.01  -0.08  -0.02    -0.08  -0.23  -0.07     0.03   0.07   0.02
    22   1     0.10   0.09   0.09     0.17   0.19   0.22    -0.06  -0.07  -0.09
    23   1    -0.03  -0.10  -0.02    -0.02  -0.11   0.06    -0.03  -0.02  -0.07
    24   1    -0.16  -0.14   0.24     0.18   0.22  -0.24     0.07   0.18  -0.24
    25   1     0.22   0.13   0.01     0.08  -0.16  -0.05    -0.16  -0.25   0.01
    26   1     0.05  -0.00   0.02    -0.24   0.03   0.14     0.03   0.02   0.06
    27   1     0.19   0.01  -0.00     0.01  -0.06   0.02    -0.12  -0.14  -0.04
    28   1    -0.18   0.19  -0.28    -0.15  -0.14  -0.19     0.07   0.07   0.13
    29   1     0.33  -0.04   0.06     0.12  -0.23  -0.01    -0.17  -0.16  -0.06
                     31                     32                     33
                      A                      A                      A
 Frequencies --    885.0280               886.6544               902.3108
 Red. masses --      1.7075                 1.6558                 1.7795
 Frc consts  --      0.7880                 0.7669                 0.8536
 IR Inten    --     74.9930                79.7259               129.1480
  Atom  AN      X      Y      Z        X      Y      Z        X      Y      Z
     1   8    -0.00  -0.01   0.01    -0.02  -0.02  -0.00    -0.01  -0.02   0.00
     2   6     0.01  -0.02  -0.01     0.01  -0.00   0.07    -0.01   0.00   0.03
     3   6    -0.02   0.02   0.05     0.06   0.05  -0.05     0.01   0.02  -0.06
     4   6    -0.01   0.02  -0.07    -0.05   0.04  -0.02    -0.03   0.03   0.03
     5  14     0.02  -0.03   0.08    -0.05  -0.05  -0.01     0.09  -0.03  -0.04
     6   6    -0.00   0.03  -0.03     0.05   0.07   0.02    -0.07   0.03   0.00
     7   6    -0.04  -0.02  -0.08     0.05   0.04   0.03    -0.07   0.01   0.04
     8   6    -0.02   0.06  -0.09     0.05   0.01  -0.02    -0.07   0.03   0.04
     9   6    -0.05  -0.04   0.02    -0.02  -0.02   0.07    -0.07  -0.01   0.03
    10   6     0.02  -0.02   0.01     0.03  -0.01  -0.02     0.02  -0.03  -0.06
    11   6     0.05   0.03  -0.04     0.01   0.03  -0.04     0.06   0.05   0.02
    12   1     0.08   0.02  -0.05     0.15   0.16   0.21     0.00   0.08   0.15
    13   1    -0.13   0.10   0.04     0.02  -0.22  -0.06     0.08  -0.18  -0.05
    14   1    -0.04   0.08  -0.06    -0.10  -0.16  -0.05    -0.12  -0.10   0.01
    15   1     0.00  -0.04  -0.00    -0.01  -0.10  -0.19    -0.02  -0.07   0.36
    16   1     0.05  -0.01  -0.17    -0.06  -0.06  -0.22     0.14   0.01  -0.18
    17   1     0.03  -0.03   0.01    -0.12  -0.09   0.35     0.12  -0.07  -0.03
    18   1     0.00   0.17   0.09     0.01  -0.22  -0.00    -0.05   0.32  -0.18
    19   1     0.10  -0.27   0.19    -0.16   0.27  -0.13     0.12  -0.02  -0.08
    20   1    -0.04   0.35  -0.03    -0.08  -0.11  -0.02     0.18  -0.21   0.06
    21   1    -0.16  -0.38  -0.12    -0.12  -0.08  -0.05     0.22   0.10   0.09
    22   1     0.22   0.25   0.31    -0.04   0.03   0.07     0.19   0.07  -0.00
    23   1    -0.03  -0.18   0.09     0.09   0.17   0.17    -0.13  -0.28  -0.22
    24   1    -0.01  -0.07   0.03     0.05   0.07  -0.15    -0.13   0.07  -0.02
    25   1    -0.13   0.05   0.02    -0.15  -0.21   0.03    -0.04  -0.09   0.02
    26   1     0.13  -0.01  -0.10     0.13   0.04   0.04     0.00   0.01   0.08
    27   1    -0.11   0.05   0.00    -0.12  -0.12  -0.04     0.01  -0.17  -0.07
    28   1     0.11   0.00   0.17     0.07   0.11   0.14     0.09   0.20   0.10
    29   1    -0.17   0.13  -0.03    -0.17  -0.12  -0.06    -0.03  -0.09  -0.00
                     34                     35                     36
                      A                      A                      A
 Frequencies --    919.4179               992.2214              1039.8241
 Red. masses --      2.4912                 2.2118                 2.0059
 Frc consts  --      1.2408                 1.2830                 1.2778
 IR Inten    --     52.1092                 8.0925                 3.6453
  Atom  AN      X      Y      Z        X      Y      Z        X      Y      Z
     1   8     0.02  -0.02  -0.00    -0.02  -0.02   0.03     0.00   0.01  -0.00
     2   6    -0.05   0.04   0.00    -0.05  -0.03  -0.08     0.02  -0.01  -0.02
     3   6    -0.02  -0.15  -0.05    -0.01   0.14   0.01    -0.09  -0.05  -0.06
     4   6     0.15   0.02   0.08     0.08  -0.09  -0.03     0.07   0.15   0.03
     5  14    -0.05  -0.01   0.02    -0.03   0.00   0.03    -0.01  -0.01   0.01
     6   6     0.03   0.01  -0.00     0.00  -0.00  -0.01     0.00   0.00  -0.00
     7   6     0.02   0.00  -0.01     0.01  -0.00  -0.01     0.01   0.00  -0.00
     8   6     0.02   0.01  -0.01     0.02  -0.00  -0.01    -0.00   0.01  -0.00
     9   6    -0.11   0.10  -0.00    -0.06  -0.05  -0.02    -0.10  -0.08   0.04
    10   6     0.01  -0.13  -0.08    -0.09   0.11  -0.08     0.11   0.10  -0.01
    11   6     0.07   0.11   0.07     0.14  -0.01   0.07    -0.04  -0.08  -0.00
    12   1    -0.22  -0.25  -0.20    -0.12   0.17   0.18    -0.22  -0.07  -0.01
    13   1     0.03   0.01  -0.03     0.19  -0.03   0.03    -0.02  -0.08  -0.05
    14   1     0.26   0.03   0.09     0.38  -0.26  -0.01     0.21   0.19   0.05
    15   1     0.00  -0.01  -0.14    -0.00   0.01  -0.03    -0.00  -0.01  -0.01
    16   1    -0.04  -0.02  -0.02    -0.00  -0.00  -0.01     0.00  -0.00  -0.02
    17   1    -0.05  -0.00   0.08    -0.00   0.01  -0.02     0.00  -0.00   0.01
    18   1     0.01  -0.10   0.05     0.01  -0.04   0.04     0.01  -0.03   0.02
    19   1    -0.05   0.03   0.01    -0.02  -0.01   0.03    -0.02   0.02   0.00
    20   1    -0.06   0.06  -0.02    -0.03   0.06  -0.01    -0.02   0.03  -0.01
    21   1    -0.06  -0.06  -0.03    -0.06  -0.05  -0.03     0.01  -0.01  -0.00
    22   1    -0.00   0.03   0.05    -0.04  -0.00   0.02     0.02   0.02   0.02
    23   1     0.03   0.04   0.07     0.03   0.05   0.06    -0.01  -0.02   0.00
    24   1    -0.39   0.31  -0.01    -0.09  -0.11   0.09    -0.24  -0.01   0.10
    25   1    -0.10   0.08  -0.00     0.23  -0.09   0.01     0.01  -0.02   0.06
    26   1    -0.05  -0.18  -0.17    -0.37   0.13   0.35     0.47   0.31   0.23
    27   1    -0.01  -0.02  -0.08     0.17  -0.31  -0.07     0.28  -0.07   0.00
    28   1     0.09   0.43   0.07     0.15   0.01   0.09    -0.09  -0.32  -0.12
    29   1     0.11   0.11   0.06     0.05  -0.12   0.05     0.04  -0.33  -0.04
                     37                     38                     39
                      A                      A                      A
 Frequencies --   1078.1015              1082.3695              1109.5072
 Red. masses --      1.4732                 1.9028                 2.1520
 Frc consts  --      1.0089                 1.3134                 1.5608
 IR Inten    --     11.4624                 0.8460                13.8575
  Atom  AN      X      Y      Z        X      Y      Z        X      Y      Z
     1   8    -0.01  -0.00   0.00    -0.00  -0.02   0.00    -0.04  -0.05   0.01
     2   6     0.08  -0.06   0.01    -0.03   0.02   0.02    -0.00   0.01   0.08
     3   6    -0.06  -0.01  -0.03    -0.03  -0.05  -0.07     0.00   0.09  -0.08
     4   6     0.03   0.10   0.03     0.03   0.14   0.02     0.12  -0.09   0.11
     5  14    -0.00  -0.00  -0.00    -0.00  -0.00  -0.01    -0.02   0.01  -0.01
     6   6     0.00  -0.00  -0.00     0.00   0.00   0.00     0.01  -0.00   0.00
     7   6     0.01   0.00  -0.00     0.01  -0.00   0.00    -0.01  -0.00   0.01
     8   6    -0.00   0.00   0.00    -0.01  -0.00   0.00     0.00  -0.00   0.01
     9   6     0.05  -0.06  -0.01     0.11  -0.12  -0.02    -0.04   0.00  -0.12
    10   6    -0.08  -0.03  -0.01    -0.13  -0.00   0.02     0.01   0.02   0.10
    11   6     0.01   0.07   0.00     0.07   0.04   0.02     0.06  -0.02  -0.11
    12   1     0.15   0.10   0.09    -0.17  -0.07  -0.02    -0.28   0.08   0.18
    13   1    -0.44  -0.22  -0.09     0.19  -0.01  -0.03     0.03  -0.24  -0.08
    14   1    -0.05  -0.17  -0.01    -0.05   0.55   0.05    -0.36   0.03   0.06
    15   1     0.00   0.01  -0.01    -0.00  -0.00  -0.02     0.01   0.00  -0.04
    16   1    -0.00  -0.00   0.00    -0.01  -0.00   0.01    -0.03  -0.00   0.03
    17   1    -0.01   0.00   0.00    -0.01  -0.00   0.01    -0.03   0.00   0.03
    18   1     0.00  -0.02   0.01     0.00  -0.01  -0.00    -0.00   0.02  -0.01
    19   1    -0.01   0.01  -0.00    -0.01   0.01  -0.00     0.01  -0.00  -0.00
    20   1    -0.01   0.00  -0.00    -0.01  -0.00  -0.00     0.01  -0.03   0.01
    21   1     0.01   0.00   0.00     0.01   0.01   0.01     0.01   0.02   0.01
    22   1     0.01   0.01   0.00     0.01   0.00  -0.00    -0.00  -0.01  -0.01
    23   1    -0.00  -0.01  -0.00    -0.01   0.00  -0.01    -0.00   0.00  -0.01
    24   1    -0.18   0.10   0.02     0.30  -0.31   0.05    -0.21  -0.06   0.19
    25   1     0.38  -0.25   0.01     0.05   0.03  -0.00    -0.03   0.40  -0.05
    26   1    -0.10  -0.03  -0.00    -0.14  -0.01   0.02     0.13  -0.00  -0.12
    27   1     0.18   0.07   0.02    -0.46  -0.17  -0.02    -0.05   0.23   0.10
    28   1    -0.02  -0.20  -0.05     0.11   0.11   0.13     0.15  -0.25   0.20
    29   1     0.06   0.53   0.07    -0.08  -0.19  -0.02    -0.26   0.16  -0.08
                     40                     41                     42
                      A                      A                      A
 Frequencies --   1193.4390              1224.4482              1254.5439
 Red. masses --      1.5255                 1.5575                 1.7481
 Frc consts  --      1.2802                 1.3758                 1.6211
 IR Inten    --      3.3132                30.7750                33.2136
  Atom  AN      X      Y      Z        X      Y      Z        X      Y      Z
     1   8     0.00  -0.02  -0.01    -0.03  -0.01   0.00    -0.03   0.03  -0.00
     2   6    -0.05   0.08   0.08     0.09  -0.05   0.05     0.17  -0.13   0.01
     3   6     0.03  -0.04  -0.05    -0.07   0.03  -0.05    -0.02   0.06  -0.03
     4   6    -0.07   0.06  -0.00    -0.10  -0.05  -0.00     0.02  -0.01   0.04
     5  14     0.01  -0.01   0.01     0.01   0.00   0.01    -0.00   0.00   0.00
     6   6    -0.01   0.00   0.00    -0.01   0.00   0.01     0.00   0.00  -0.00
[...]
 6,-0.00041042,0.00082852,0.00016082,0.00041416,0.00001766,0.00003239,0
 .00005748,-0.00012168,0.00007320,-0.00900883,-0.01325284,0.00257508,0.
 01268300,0.02041748,-0.00171735,0.11828980,-0.00003127,0.00003919,0.00
 002045,0.00009413,-0.00007566,-0.00005798,0.00013380,0.00025283,-0.000
 11642,0.00050766,0.00020273,-0.00047801,0.00158748,0.00023119,-0.00083
 236,-0.00012266,0.00000441,0.00034723,-0.00025163,0.00015418,0.0003683
 1,-0.11453337,-0.23903097,0.01685433,0.00026818,-0.00006474,-0.0003504
 6,-0.00009092,0.00013460,0.00012147,-0.00003762,-0.00005979,-0.0000265
 9,-0.00003051,0.00000962,0.00003030,-0.00001177,-0.00001077,0.00002015
 ,-0.00000533,-0.00004796,-0.00003318,0.00003996,0.00017033,0.00015658,
 -0.00004886,-0.00002289,-0.00003188,0.00011088,0.00008719,0.00011855,0
 .00002130,0.00008004,-0.00003146,-0.00011414,0.00014100,0.00001870,0.0
 0004895,-0.00001123,-0.00001148,-0.00145355,-0.00354386,0.00037094,-0.
 01334370,-0.02066858,0.00201026,0.12749726,0.26184493,0.00045844,0.000
 25676,0.00014119,-0.00012700,-0.00064137,-0.00049818,0.00062545,0.0016
 0352,0.00028344,0.00201750,-0.00103631,-0.00328921,0.00757289,0.016793
 29,-0.00002091,-0.00097623,-0.00066766,0.00084540,-0.00115958,-0.00048
 467,0.00065674,0.01295306,0.02881413,-0.04257609,0.00021226,-0.0004753
 1,0.00009845,-0.00004523,0.00000649,-0.00009358,-0.00001407,0.00004323
 ,0.00013378,0.00005589,-0.00002871,-0.00000456,-0.00009445,0.00000910,
 -0.00001172,0.00006713,-0.00010547,0.00016978,-0.00034100,-0.00030871,
 -0.00082221,0.00014564,-0.00000053,0.00013932,0.00007895,-0.00028516,0
 .00038697,0.00037656,-0.00060743,0.00006974,-0.00038312,0.00014950,-0.
 00010965,-0.00015810,0.00005706,-0.00002156,-0.01477173,-0.02636897,0.
 00290557,0.00175428,0.00202913,-0.00172075,-0.00815494,-0.01878270,0.0
 4344540,-0.00045222,0.00001144,-0.00001583,0.00115442,-0.00003177,-0.0
 0038788,-0.00152018,0.00342276,-0.00139546,-0.01111536,0.00129644,0.01
 308843,-0.00077404,-0.00018523,0.00090818,0.00014885,0.00011690,-0.000
 07096,0.00012871,0.00007891,-0.00011881,-0.00017903,-0.00046789,-0.000
 03711,-0.16034529,0.00220278,0.12637456,-0.01301923,-0.00032950,0.0146
 8237,-0.00124749,-0.00356937,-0.00148504,-0.00065735,-0.00014726,0.000
 97099,0.00019501,0.00000947,0.00015751,0.00013391,-0.00065212,-0.00025
 114,0.00003197,-0.00000002,0.00005594,0.00003212,0.00001624,0.00000796
 ,-0.00004884,-0.00000180,-0.00006601,0.00000329,0.00004500,-0.00002672
 ,0.00004997,-0.00010649,-0.00002501,-0.00002586,0.00000379,0.00000941,
 -0.00001158,0.00017047,-0.00015413,0.00028897,-0.00038645,0.00010899,0
 .00006634,-0.00018543,-0.00005758,0.17391668,-0.00001523,0.00097591,-0
 .00000854,0.00001863,-0.00230313,0.00001930,0.00346501,-0.00480082,0.0
 0163450,0.01669406,-0.00073236,-0.02191743,0.00167369,-0.00070386,-0.0
 0194978,-0.00028726,-0.00021185,0.00018136,-0.00014142,0.00002511,0.00
 019900,0.00010382,0.00010534,0.00023797,0.00256554,-0.04705123,-0.0025
 0030,-0.01907536,-0.00017623,0.02246366,-0.00319088,-0.00460449,-0.001
 59778,0.00148320,0.00023586,-0.00132608,-0.00041132,0.00001234,0.00023
 784,-0.00054656,0.00099669,0.00047073,-0.00007582,-0.00000948,-0.00005
 019,-0.00002125,0.00000765,-0.00007736,0.00006880,0.00009483,0.0001499
 6,-0.00001576,-0.00001594,0.00002147,-0.00007470,0.00014158,0.00002393
 ,0.00002505,-0.00000043,-0.00001735,-0.00005730,-0.00003980,0.00009052
 ,-0.00073856,-0.00025442,0.00039232,-0.00006610,0.00017901,-0.00009634
 ,-0.00179146,0.05653692,0.00004202,-0.00000213,-0.00009038,-0.00029096
 ,0.00002986,0.00007165,-0.00041601,-0.00018865,0.00099829,-0.00297424,
 -0.00067368,0.00226040,0.00155794,-0.00005832,-0.00059973,-0.00028043,
 -0.00021707,0.00019854,-0.00025116,-0.00017191,0.00013494,0.00041538,0
 .00021575,0.00007153,0.12677339,-0.00259874,-0.19672330,-0.00241231,-0
 .00029227,0.00137678,-0.00040766,0.00030319,0.00112253,0.00011574,0.00
 017391,0.00018209,-0.00013918,0.00012976,0.00041874,0.00022721,-0.0003
 9417,0.00062016,-0.00004310,-0.00004301,-0.00002917,0.00004958,0.00001
 518,-0.00015747,0.00000318,0.00013811,0.00012359,0.00004535,-0.0000831
 7,-0.00000163,-0.00004953,0.00007586,0.00000161,-0.00000429,0.00002756
 ,-0.00001622,-0.00003835,0.00004915,-0.00011624,-0.00049066,0.00037883
 ,0.00021638,-0.00020619,0.00023046,-0.00007903,-0.13997310,0.00269365,
 0.21003266,0.00016891,0.00000366,-0.00007384,-0.00041542,0.00000930,0.
 00005011,0.00052514,-0.00079382,-0.00123711,-0.00946498,0.00188030,-0.
 01526131,-0.00063398,-0.00064034,-0.00049131,0.00001491,-0.00004166,0.
 00007489,0.00010459,0.00014379,0.00005812,0.00008202,0.00005321,0.0000
 0995,-0.11722575,-0.00114861,-0.10751720,-0.01069054,-0.00110837,-0.01
 717374,0.00059482,0.00080274,-0.00110569,0.00031980,0.00002187,0.00026
 480,-0.00010578,0.00021203,0.00075159,-0.00176985,0.00335883,-0.000328
 99,0.00005092,-0.00008084,0.00011413,0.00018245,-0.00021391,-0.0000712
 0,-0.00002078,0.00012121,0.00007324,-0.00002095,0.00005870,0.00002516,
 -0.00001355,0.00001437,0.00000796,0.00005019,-0.00008240,0.00004154,-0
 .00004926,0.00003949,0.00000164,0.00004782,0.00002975,0.00002879,0.000
 02087,-0.00002525,-0.00004970,0.01272982,-0.00000841,0.01858182,0.1260
 1519,0.00000750,0.00020240,0.00001299,0.00001692,-0.00053577,-0.000018
 39,-0.00103071,0.00108242,0.00062578,0.01430692,-0.00161073,0.02456679
 ,0.00172603,0.00034096,0.00203563,0.00014102,0.00014082,-0.00020420,-0
 .00013299,-0.00013541,-0.00017487,-0.00025710,-0.00024288,-0.00013705,
 -0.00042820,-0.04772716,-0.00088276,-0.01603746,-0.00185757,-0.0258245
 0,0.00098591,0.00108240,-0.00057936,-0.00038035,-0.00004916,-0.0000704
 8,-0.00000904,0.00009389,-0.00070686,0.00404326,-0.00471564,0.00024472
 ,-0.00008801,0.00017188,0.00005573,-0.00053596,-0.00033587,-0.00037035
 ,-0.00003413,-0.00001464,-0.00003959,-0.00000387,-0.00005841,-0.000032
 89,0.00001228,-0.00000365,0.00000043,-0.00010319,0.00013463,-0.0000779
 6,0.00009985,0.00006550,-0.00015384,-0.00004231,0.00002694,0.00005643,
 -0.00009257,-0.00000295,0.00004308,-0.00028672,-0.00050464,-0.00032975
 ,0.00087529,0.05792690,-0.00012498,0.00000577,-0.00010582,0.00016468,-
 0.00002367,0.00013281,0.00040912,-0.00024624,0.00089670,-0.00035582,0.
 00169178,-0.00174103,-0.00159875,-0.00045277,-0.00114048,-0.00024270,0
 .00004894,0.00004701,0.00026230,0.00026298,0.00018657,0.00031535,0.000
 37606,0.00021568,-0.10740885,-0.00115504,-0.23122679,-0.00054086,-0.00
 054033,-0.00214305,0.00035209,0.00025170,0.00086090,-0.00002929,0.0000
 5926,0.00025455,-0.00050167,0.00007184,0.00047654,0.00013992,0.0005614
 6,0.00140798,0.00019127,-0.00021172,0.00006659,0.00048137,-0.00021125,
 0.00027994,0.00002015,-0.00005455,-0.00003499,-0.00006466,0.00009708,-
 0.00001548,-0.00001504,-0.00000692,-0.00000104,0.00007003,-0.00009651,
 0.00002568,-0.00003372,-0.00014216,0.00019155,-0.00005618,-0.00003984,
 -0.00015944,0.00006956,0.00005923,-0.00004621,-0.01297191,-0.00015089,
 -0.02135522,0.12168963,0.00105420,0.25047741,-0.00181483,0.00177743,-0
 .00075011,-0.00062186,-0.00479924,0.00392376,-0.00009995,0.00005675,-0
 .00062812,-0.00164507,-0.00308029,-0.00025361,0.00077767,-0.00030428,0
 .00008036,-0.00001791,0.00004274,-0.00000217,-0.00023849,-0.00029734,0
 .00001382,0.00001121,0.00006907,-0.00001108,0.01250371,-0.01693814,0.0
 0181385,-0.13610618,0.12179301,-0.01511622,-0.01428991,0.01970252,0.00
 068713,0.00007598,0.00010510,-0.00013596,-0.00002038,-0.00004686,-0.00
 000261,-0.00006927,-0.00000057,0.00020139,-0.00000446,0.00000865,-0.00
 000247,-0.00002126,-0.00000039,-0.00002071,-0.00000073,-0.00000952,-0.
 00001358,0.00009691,-0.00010668,0.00000426,0.00000539,-0.00000459,-0.0
 0002644,-0.00001515,0.00002345,0.00001019,-0.00000013,0.00000017,-0.00
 000443,-0.00002318,0.00000181,0.00001840,0.00000302,0.00000624,-0.0000
 1572,0.00078762,0.00083683,0.00006570,0.00082749,0.00080361,0.00007580
 ,0.14723649,0.00004967,0.00012027,-0.00018145,-0.00070276,0.00056082,0
 .00035167,-0.00035614,0.00085008,0.00029685,-0.00491914,-0.00516915,-0
 .00035334,0.00186125,0.00051728,-0.00001857,-0.00022961,-0.00023702,0.
 00000006,-0.00050257,-0.00061785,0.00002901,-0.00019798,-0.00018311,0.
 00003244,0.01652253,-0.02151096,0.00273262,0.12104383,-0.21758479,0.01
 769138,-0.00085949,0.00217704,0.00000223,0.00009761,0.00005158,-0.0000
 4133,0.00001323,-0.00002459,-0.00006256,-0.00016536,0.00046617,-0.0000
 0574,-0.00007228,-0.00000117,-0.00009640,-0.00003001,0.00002385,-0.000
 01893,0.00003628,0.00001303,0.00002066,0.00017945,-0.00021741,0.000021
 58,0.00000094,0.00004063,-0.00002790,-0.00001451,0.00006155,0.00000913
 ,0.00003506,0.00000789,-0.00002217,-0.00003211,0.00002332,0.00000779,-
 0.00007110,0.00000768,0.00006583,-0.00004191,0.00080754,0.00050529,0.0
 0015976,0.00105032,-0.00057028,-0.13099947,0.23636562,0.00237013,-0.00
 194847,0.00095052,0.00166477,0.00397100,-0.00406290,-0.00023095,0.0001
 1476,0.00037653,-0.00012669,-0.00003098,0.00066798,0.00002036,-0.00013
 251,0.00036264,0.00006704,0.00009494,-0.00003455,-0.00000677,-0.000001
 37,-0.00003870,-0.00003289,-0.00002689,-0.00003256,0.00060991,-0.00223
 211,-0.00076488,-0.01526719,0.01855856,-0.05198949,0.01647750,-0.02271
 178,-0.00080054,-0.00004140,-0.00009490,0.00007850,0.00002213,0.000015
 82,0.00001618,0.00029794,-0.00035052,0.00036157,0.00001238,0.00001399,
 0.00003504,-0.00002687,-0.00000585,-0.00000944,-0.00000248,-0.00000032
 ,0.00000720,-0.00000356,0.,0.00000013,-0.00000063,0.00000549,0.0000103
 1,-0.00000567,0.00000563,-0.00000096,-0.00000145,-0.00000372,0.0000012
 8,-0.00000482,0.00000342,0.00001253,-0.00000914,0.00000278,0.00001537,
 -0.00017622,0.00027647,-0.00003673,0.00048855,-0.00006108,0.00023151,0
 .01257675,-0.02012801,0.05462858,-0.00019287,-0.00026522,-0.00036752,0
 .00177210,-0.00077228,0.00055231,-0.00000808,0.00001354,0.00024450,0.0
 0048972,0.00129409,0.00061159,-0.00011531,0.00033831,-0.00010772,-0.00
 006738,-0.00000637,0.00001547,-0.00001017,-0.00005477,0.00004252,-0.00
 003177,-0.00000969,0.00004442,-0.01086000,-0.00198396,-0.01801137,-0.1
 0205623,-0.00277539,-0.10346192,0.00989891,0.00125786,0.02302872,0.000
 06355,0.00004326,-0.00003803,-0.00012240,0.00001962,-0.00000312,0.0007
 1495,-0.00036905,0.00032586,0.00003179,-0.00005234,0.00000564,0.000125
 61,0.00000538,0.00006393,0.00000597,-0.00000344,-0.00000077,0.00000639
 ,-0.00001844,-0.00000380,-0.00000132,0.00000540,-0.00000269,0.00001202
 ,-0.00000482,0.00000232,0.00000798,-0.00003517,0.00004204,0.00002660,-
 0.00000529,-0.00005524,0.00000613,-0.00000515,0.00002670,0.00024181,0.
 00059097,0.00013029,-0.00147874,-0.00397180,0.00022749,-0.00900225,-0.
 00108591,-0.01717864,0.11239504,-0.00013465,0.00014704,0.00015743,-0.0
 0032352,-0.00033620,-0.00073063,0.00022890,-0.00012300,0.00010573,-0.0
 0056534,0.00213016,-0.00093055,-0.00049316,0.00016407,-0.00011194,-0.0
 0001026,-0.00000777,0.00001646,0.00007197,0.00006612,0.00002672,0.0000
 4077,0.00004307,0.00002783,-0.01417440,-0.00325597,-0.02559610,-0.0020
 8433,-0.05220015,-0.00993733,-0.00000762,-0.00008864,0.00046675,0.0000
 5087,-0.00000578,-0.00003252,-0.00005885,0.00008298,0.00016330,0.00052
 731,-0.00034508,0.00067306,0.00005940,-0.00006222,0.00001488,0.0001521
 7,0.00000471,0.00009094,-0.00000100,-0.00000567,-0.00001510,-0.0000148
 6,0.00002577,-0.00000361,0.00000237,-0.00001118,-0.00000019,0.00001850
 ,-0.00002879,0.00001165,-0.00001564,-0.00002391,0.00004337,0.00003898,
 -0.00000590,-0.00003855,0.00002443,-0.00000889,-0.00000012,0.00072461,
 0.00113504,0.00039231,-0.00341151,-0.00453386,-0.00051866,0.01213907,0
 .00184714,0.02459367,0.00741539,0.05419870,0.00130162,-0.00042011,0.00
 040168,-0.00220329,0.00172789,-0.00053702,0.00006911,-0.00040097,-0.00
 029283,0.00052911,0.00032657,0.00028213,0.00008408,-0.00004971,0.00008
 867,0.00004595,0.00011637,-0.00001180,-0.00002685,-0.00005122,0.000002
 35,-0.00003591,-0.00001519,0.00000468,-0.00096623,0.00003740,-0.000787
 04,-0.10310149,-0.00994359,-0.24879651,-0.00843045,-0.00157880,-0.0219
 7864,-0.00001683,-0.00011854,-0.00001446,-0.00000760,0.00006224,0.0001
 2469,0.00035380,-0.00061565,0.00027370,0.00001369,0.00000136,0.0000438
 1,0.00001447,-0.00000508,-0.00000389,-0.00000542,0.00000724,0.00001594
 ,0.00000897,-0.00001431,0.00000844,-0.00000899,0.00001723,0.00000370,0
 .00000674,-0.00000766,0.00000892,-0.00000003,-0.00001138,0.00002215,0.
 00002508,-0.00000053,-0.00001734,0.00000563,-0.00000641,0.00001345,-0.
 00028476,-0.00039704,0.00081770,-0.00003060,0.00011954,0.00150418,-0.0
 0154728,0.00059121,-0.00211296,0.11023668,0.01061368,0.27264801,0.0019
 2843,-0.00135876,-0.00007051,0.01168231,0.01585042,0.00228902,-0.00206
 934,0.00285191,-0.00029993,-0.00009900,-0.00000490,-0.00000010,-0.0000
 2783,0.00032866,0.00005273,-0.00003302,-0.00005800,-0.00000896,-0.0000
 1599,-0.00006926,0.00000525,-0.00004875,-0.00005863,0.00000070,-0.0022
 4630,0.00185117,0.00425714,-0.01246516,-0.01685396,-0.00370155,-0.1537
 4227,-0.13203584,-0.01787795,0.00055993,0.00092627,-0.00005967,-0.0000
 8174,-0.00006512,0.00003092,0.00007300,-0.00006262,-0.00001109,-0.0000
 0341,-0.00001914,-0.00001642,0.00004448,0.00000736,0.00002945,-0.00000
 117,-0.00000057,-0.00001849,0.00002738,-0.00002523,-0.00000940,0.00001
 869,-0.00003286,-0.00002238,-0.00000246,0.00000540,0.00000449,0.000005
 46,0.00001044,-0.00000635,0.00007924,0.00000014,-0.00002594,0.00000418
 ,-0.00003258,0.00001029,-0.00068598,-0.00141557,0.00015176,0.00032388,
 0.00040769,-0.00003629,0.00011143,0.00031574,-0.00058084,0.00117654,0.
 00025352,-0.00004167,0.16423791,0.00010134,0.00602022,0.00067409,-0.02
 245217,-0.02656470,-0.00371758,0.00511039,-0.00321978,0.00040761,0.000
 19008,0.00026090,-0.00027079,0.00032044,0.00022944,-0.00007273,-0.0000
 5223,-0.00006217,-0.00001224,-0.00003959,-0.00009574,-0.00001754,-0.00
 007612,-0.00006628,0.00001531,0.00062445,0.00105201,-0.00021813,0.0015
 6396,0.00230657,0.00107640,-0.12749403,-0.20976901,-0.02197489,-0.0008
 6726,-0.00153352,0.00009115,0.00007755,0.00041981,-0.00016286,-0.00002
 287,0.00000467,0.00013514,-0.00002473,-0.00000596,-0.00001136,-0.00001
 127,0.00000910,-0.00000101,0.00002127,0.00001908,0.00004018,-0.0000153
 9,-0.00002209,0.00002561,-0.00003041,0.00007302,0.00003203,0.00000114,
 0.00001392,-0.00000042,0.00001058,0.00000171,-0.00000239,-0.00001461,0
 .00000794,0.00000684,-0.00002679,0.00000440,0.00002358,0.00010859,0.00
 015459,-0.00017125,-0.00002450,-0.00005837,-0.00006166,-0.00023690,0.0
 0037161,0.00043115,-0.00005136,0.00016656,0.00039643,0.14041581,0.2268
 4439,0.00057288,-0.00026183,-0.00121971,-0.00067963,0.00215281,-0.0006
 7005,0.00000242,-0.00044674,0.00130386,-0.00002658,-0.00043017,0.00000
 533,-0.00001152,-0.00020655,-0.00006647,0.00000917,0.00000547,0.000018
 72,0.00001726,0.00005320,0.00001329,0.00003780,0.00003048,0.00001175,0
 .00303918,-0.00142422,-0.00382666,0.01484762,0.02080116,0.00301778,-0.
 01759799,-0.02223888,-0.05350294,-0.00006521,-0.00011368,0.00038630,0.
 00036115,0.00043629,0.00023062,-0.00006424,0.00001468,-0.00003101,-0.0
 0000515,0.00000347,0.00001224,-0.00001038,-0.00000246,-0.00002885,-0.0
 0000475,0.00002251,0.00002255,-0.00001725,0.00001490,0.00000122,-0.000
 01069,0.00001649,0.00000883,0.00000389,-0.00000380,-0.00000459,-0.0000
 0415,-0.00000521,0.00000378,-0.00006702,0.00000154,0.00002064,-0.00001
 299,0.00002699,-0.00000578,0.00097666,0.00123425,0.00014033,0.00029080
 ,0.00009291,0.00021678,-0.00056036,-0.00039606,0.00070366,-0.00090007,
 0.00035015,0.00089567,0.01709504,0.02359646,0.05462434,-0.00118753,0.0
 0401820,0.00319970,-0.01198995,-0.00058592,-0.01754342,0.00037577,-0.0
 0018084,0.00102270,-0.00017228,-0.00021959,0.00008585,-0.00005689,-0.0
 0012489,0.00002178,0.00002872,0.00001917,0.00000578,0.00001630,0.00003
 217,-0.00000302,0.00002292,0.00001366,-0.00000175,0.00158548,0.0004176
 5,0.00009886,0.00999002,-0.00250048,0.02409493,-0.09830214,0.00691424,
 -0.10886971,-0.00007233,-0.00009488,0.00035411,0.00061389,0.00037298,0
 .00030672,-0.00013592,0.00005765,0.00000676,0.00000224,0.00000697,0.00
 000686,-0.00001281,-0.00000365,-0.00001099,-0.00000572,0.00000359,-0.0
 0000205,-0.00000347,0.00001066,-0.00000258,-0.00000180,-0.00000496,-0.
 00000094,-0.00000031,-0.00000418,0.00000258,-0.00000368,0.00000147,-0.
 00000019,-0.00001756,-0.00000052,0.00000856,-0.00000005,0.00000789,-0.
 00000658,0.00017297,0.00040740,-0.00018219,-0.00016922,0.00000815,-0.0
 0048804,0.00155407,-0.00003497,-0.00091129,-0.00302859,-0.00045311,0.0
 0401246,-0.00875044,0.00289463,-0.01721590,0.10954830,0.00270938,-0.00
 288875,-0.00359338,0.01310115,0.00203008,0.02845189,-0.00154080,-0.000
 46313,-0.00306686,0.00043353,0.00024869,-0.00027460,0.00005088,-0.0001
 3079,0.00000743,0.00001302,0.00003361,-0.00000641,-0.00000228,0.000024
 07,-0.00000504,0.00001153,0.00002555,-0.00001202,0.00059521,0.00006051
 ,0.00100914,-0.00089558,0.00039079,-0.00142110,0.00828519,-0.05370926,
 0.02237310,0.00005100,0.00042690,-0.00040657,-0.00036563,-0.00158236,-
 0.00000932,-0.00000023,0.00008313,-0.00007052,-0.00000115,0.00001905,0
 .00000056,-0.00004092,-0.00000675,-0.00000655,0.00000776,-0.00001734,0
 .00000621,-0.00000310,0.00000548,0.00000165,-0.00000237,0.00000087,0.0
 0000211,-0.00000211,-0.00000090,-0.00000176,-0.00000008,-0.00000331,-0
 .00000131,-0.00001465,-0.00000270,0.00000867,0.00000444,0.00000496,-0.
 00000523,-0.00002398,0.00000028,-0.00013478,-0.00020469,0.00006765,-0.
 00005784,-0.00054218,0.00018262,-0.00035915,0.00048662,0.00103166,-0.0
 0038097,-0.01113150,0.00343767,-0.02332416,-0.01097848,0.05073173,0.00
 065040,0.00058626,-0.00085312,-0.00060511,-0.00022295,0.00094732,-0.00
 061693,-0.00017526,-0.00061903,0.00044925,0.00016516,-0.00008835,-0.00
 007979,-0.00004509,-0.00011615,0.00000770,-0.00000022,0.00002395,0.000
 02666,0.00002527,0.00001565,0.00001082,0.00002754,0.00001852,-0.001438
 18,-0.00049694,0.00084325,-0.01005535,0.00176855,-0.02546434,-0.104680
 91,0.01711753,-0.23806579,0.00003177,0.00015970,0.00023185,0.00029578,
 -0.00001311,0.00051068,0.00002150,-0.00017560,0.00014085,-0.00000013,-
 0.00000979,0.00001391,0.00002474,0.00000143,-0.00000603,-0.00000420,0.
 00002398,0.00001802,-0.00000692,0.00000894,-0.00000145,-0.00000597,0.0
 0000525,-0.00000049,0.00000729,-0.00001097,0.00000425,-0.00000422,-0.0
 0000751,0.00001615,-0.00000113,-0.00000418,-0.00000586,0.00000667,0.00
 000218,-0.00000518,0.00015668,-0.00023786,0.00041720,0.00078794,0.0007
 5566,0.00049716,-0.00038054,-0.00043502,0.00142419,0.00453042,0.000167
 35,-0.00260736,-0.00113924,-0.00025712,-0.00228163,0.11201101,-0.01872
 317,0.26499181\\0.00004589,0.00001596,-0.00000690,-0.00000728,0.000039
 30,-0.00001095,-0.00000503,-0.00000365,-0.00000963,0.00002376,0.000025
 29,-0.00001374,0.00001979,0.00004344,0.00001300,-0.00001422,-0.0000166
 8,-0.00002362,-0.00000365,-0.00003076,0.00001148,-0.00000745,0.0000217
 7,-0.00000446,-0.00003773,-0.00000819,-0.00000863,0.00001505,-0.000018
 40,0.00000386,-0.00001964,0.00000147,0.00002138,-0.00000254,0.00000205
 ,0.00000072,-0.00001192,-0.00000372,0.00000016,-0.00000274,-0.00002503
 ,-0.00000039,0.00000264,-0.00001241,0.00000966,-0.00000184,0.00000335,
 0.00000089,0.00000515,0.00000369,0.00000109,-0.00000134,0.00000774,0.0
 0000676,-0.00001750,-0.00001728,0.00001773,-0.00000135,-0.00000288,-0.
 00000152,0.00000312,0.00000194,-0.00000327,0.00000671,-0.00002034,0.00
 000091,0.00000655,-0.00000470,-0.00000428,0.00000222,-0.00000059,0.000
 01077,0.00000735,-0.00000644,0.00000440,-0.00000263,-0.00000423,-0.000
 00782,-0.00000099,-0.00000062,-0.00000176,-0.00000825,0.00000384,-0.00
 000108,0.00000789,0.00000608,-0.00000479\\\@


 THAT'S WHAT MAKES US A GREAT COUNTRY.
 THE LITTLE THINGS ARE SERIOUS AND THE BIG ONES ARE NOT.
           WILL ROGERS
 Job cpu time:       0 days  0 hours  2 minutes 25.8 seconds.
 Elapsed time:       0 days  0 hours  2 minutes 30.0 seconds.
 File lengths (MBytes):  RWF=    151 Int=      0 D2E=      0 Chk=     16 Scr=      1
 Normal termination of Gaussian 16 at Sat Feb 24 04:25:54 2024.
