 Entering Gaussian System, Link 0=g16
 Input=/Volumes/SSD-PMU3/b3lyp_6-31gd_freq/SQXDWOUWZMEMDI-ZWBYMXEOSA-N_calculating/gaussianinput0.gjf
 Output=/Volumes/SSD-PMU3/b3lyp_6-31gd_freq/SQXDWOUWZMEMDI-ZWBYMXEOSA-N_calculating/gaussianinput0.log
 Initial command:
 /Applications/g16/l1.exe "/Users/macmini_m1_2022/PycharmProjects/sphere_model/sphere_model_lib/Gau-61773.inp" -scrdir="/Users/macmini_m1_2022/PycharmProjects/sphere_model/sphere_model_lib/"
 Entering Link 1 = /Applications/g16/l1.exe PID=     61774.
  
 Copyright (c) 1988,1990,1992,1993,1995,1998,2003,2009,2016,
            Gaussian, Inc.  All Rights Reserved.
  
 This is part of the Gaussian(R) 16 program.  It is based on
 the Gaussian(R) 09 system (copyright 2009, Gaussian, Inc.),
 the Gaussian(R) 03 system (copyright 2003, Gaussian, Inc.),
 the Gaussian(R) 98 system (copyright 1998, Gaussian, Inc.),
 the Gaussian(R) 94 system (copyright 1995, Gaussian, Inc.),
 the Gaussian 92(TM) system (copyright 1992, Gaussian, Inc.),
 the Gaussian 90(TM) system (copyright 1990, Gaussian, Inc.),
 the Gaussian 88(TM) system (copyright 1988, Gaussian, Inc.),
 the Gaussian 86(TM) system (copyright 1986, Carnegie Mellon
 University), and the Gaussian 82(TM) system (copyright 1983,
 Carnegie Mellon University). Gaussian is a federally registered
 trademark of Gaussian, Inc.
  
 This software contains proprietary and confidential information,
 including trade secrets, belonging to Gaussian, Inc.
  
 This software is provided under written license and may be
 used, copied, transmitted, or stored only in accord with that
 written license.
  
 The following legend is applicable only to US Government
 contracts under FAR:
  
                    RESTRICTED RIGHTS LEGEND
  
 Use, reproduction and disclosure by the US Government is
 subject to restrictions as set forth in subparagraphs (a)
 and (c) of the Commercial Computer Software - Restricted
 Rights clause in FAR 52.227-19.
  
 Gaussian, Inc.
 340 Quinnipiac St., Bldg. 40, Wallingford CT 06492
  
  
 ---------------------------------------------------------------
 Warning -- This program may not be used in any manner that
 competes with the business of Gaussian, Inc. or will provide
 assistance to any competitor of Gaussian, Inc.  The licensee
 of this program is prohibited from giving any competitor of
 Gaussian, Inc. access to this program.  By using this program,
 the user acknowledges that Gaussian, Inc. is engaged in the
 business of creating and licensing software in the field of
 computational chemistry and represents and warrants to the
 licensee that it is not a competitor of Gaussian, Inc. and that
 it will not use this program in any manner prohibited above.
 ---------------------------------------------------------------
  

 Cite this work as:
 Gaussian 16, Revision A.03,
 M. J. Frisch, G. W. Trucks, H. B. Schlegel, G. E. Scuseria, 
 M. A. Robb, J. R. Cheeseman, G. Scalmani, V. Barone, 
 G. A. Petersson, H. Nakatsuji, X. Li, M. Caricato, A. V. Marenich, 
 J. Bloino, B. G. Janesko, R. Gomperts, B. Mennucci, H. P. Hratchian, 
 J. V. Ortiz, A. F. Izmaylov, J. L. Sonnenberg, D. Williams-Young, 
 F. Ding, F. Lipparini, F. Egidi, J. Goings, B. Peng, A. Petrone, 
 T. Henderson, D. Ranasinghe, V. G. Zakrzewski, J. Gao, N. Rega, 
 G. Zheng, W. Liang, M. Hada, M. Ehara, K. Toyota, R. Fukuda, 
 J. Hasegawa, M. Ishida, T. Nakajima, Y. Honda, O. Kitao, H. Nakai, 
 T. Vreven, K. Throssell, J. A. Montgomery, Jr., J. E. Peralta, 
 F. Ogliaro, M. J. Bearpark, J. J. Heyd, E. N. Brothers, K. N. Kudin, 
 V. N. Staroverov, T. A. Keith, R. Kobayashi, J. Normand, 
 K. Raghavachari, A. P. Rendell, J. C. Burant, S. S. Iyengar, 
 J. Tomasi, M. Cossi, J. M. Millam, M. Klene, C. Adamo, R. Cammi, 
 J. W. Ochterski, R. L. Martin, K. Morokuma, O. Farkas, 
 J. B. Foresman, and D. J. Fox, Gaussian, Inc., Wallingford CT, 2016.
 
 ******************************************
 Gaussian 16:  EM64M-G16RevA.03 25-Dec-2016
                22-Feb-2024 
 ******************************************
 %nprocshared=8
 Will use up to    8 processors via shared memory.
 %mem=8GB
 %chk= 0.chk
 ---------------------
 # freq b3lyp/6-31g(d)
 ---------------------
 1/10=4,30=1,38=1/1,3;
 2/12=2,17=6,18=5,40=1/2;
 3/5=1,6=6,7=1,11=2,25=1,30=1,71=2,74=-5,140=1/1,2,3;
 4//1;
 5/5=2,38=5,98=1/2;
 8/6=4,10=90,11=11/1;
 11/6=1,8=1,9=11,15=111,16=1/1,2,10;
 10/6=1/2;
 6/7=2,8=2,9=2,10=2,28=1/1;
 7/8=1,10=1,25=1/1,2,3,16;
 1/10=4,30=1/3;
 99//99;
 ---------
 good luck
 ---------
 Symbolic Z-matrix:
 Charge =  0 Multiplicity = 1
 O                     1.21835   0.        0. 
 C                     0.        0.        0. 
 C                    -0.78373  -1.30742   0.02013 
 C                    -1.27646  -1.61858   1.47138 
 C                    -2.78587  -1.30271   1.49324 
 C                    -3.21693  -1.77223   0.09094 
 C                    -2.08275  -1.3107   -0.86392 
 C                    -2.34625   0.0679   -1.49317 
 C                    -2.23275   1.22874  -0.48851 
 C                    -3.29738   1.16934   0.63165 
 C                    -3.10765   0.1841    1.80562 
 C                    -0.77313   1.32006   0.02013 
 H                    -0.07619  -2.0759   -0.30167 
 H                    -0.71157  -1.0792    2.24059 
 H                    -1.1257   -2.68732   1.66373 
 H                    -3.26847  -1.91053   2.26848 
 H                    -4.20161  -1.40151  -0.21589 
 H                    -3.2752   -2.86814   0.08579 
 H                    -1.96836  -2.0345   -1.67878 
 H                    -3.339     0.07349  -1.96211 
 H                    -1.62117   0.2375   -2.30288 
 H                    -2.44274   2.15262  -1.04359 
 H                    -3.38044   2.17154   1.07462 
 H                    -4.26907   0.9785    0.15595 
 H                    -4.03763   0.2221    2.38766 
 H                    -2.33153   0.56955   2.48092 
 H                    -0.72933   1.71598   1.04453 
 H                    -0.18713   2.01756  -0.58833 
 

 GradGradGradGradGradGradGradGradGradGradGradGradGradGradGradGradGradGrad
 Berny optimization.
 Initialization pass.
 Trust Radius=3.00D-01 FncErr=1.00D-07 GrdErr=1.00D-07 EigMax=2.50D+02 EigMin=1.00D-04
 Number of steps in this run=      2 maximum allowed number of steps=      2.
 GradGradGradGradGradGradGradGradGradGradGradGradGradGradGradGradGradGrad

                          Input orientation:                          
 ---------------------------------------------------------------------
 Center     Atomic      Atomic             Coordinates (Angstroms)
 Number     Number       Type             X           Y           Z
 ---------------------------------------------------------------------
      1          8           0        1.218352    0.000000    0.000000
      2          6           0        0.000000    0.000000    0.000000
      3          6           0       -0.783732   -1.307416    0.020127
      4          6           0       -1.276464   -1.618581    1.471378
      5          6           0       -2.785874   -1.302708    1.493244
      6          6           0       -3.216931   -1.772230    0.090942
      7          6           0       -2.082746   -1.310703   -0.863924
      8          6           0       -2.346251    0.067895   -1.493170
      9          6           0       -2.232752    1.228743   -0.488513
     10          6           0       -3.297375    1.169344    0.631654
     11          6           0       -3.107645    0.184096    1.805618
     12          6           0       -0.773132    1.320062    0.020127
     13          1           0       -0.076193   -2.075901   -0.301674
     14          1           0       -0.711569   -1.079204    2.240589
     15          1           0       -1.125701   -2.687317    1.663731
     16          1           0       -3.268468   -1.910531    2.268478
     17          1           0       -4.201606   -1.401508   -0.215888
     18          1           0       -3.275199   -2.868144    0.085793
     19          1           0       -1.968363   -2.034500   -1.678784
     20          1           0       -3.339001    0.073489   -1.962109
     21          1           0       -1.621167    0.237504   -2.302875
     22          1           0       -2.442739    2.152616   -1.043594
     23          1           0       -3.380438    2.171539    1.074620
     24          1           0       -4.269073    0.978503    0.155951
     25          1           0       -4.037632    0.222098    2.387661
     26          1           0       -2.331527    0.569546    2.480917
     27          1           0       -0.729329    1.715975    1.044529
     28          1           0       -0.187134    2.017557   -0.588332
 ---------------------------------------------------------------------
                    Distance matrix (angstroms):
                    1          2          3          4          5
     1  O    0.000000
     2  C    1.218352   0.000000
     3  C    2.391251   1.524460   0.000000
     4  C    3.317961   2.532611   1.563886   0.000000
     5  C    4.467735   3.418760   2.485693   1.542262   0.000000
     6  C    4.777113   3.673924   2.478210   2.386341   1.540361
     7  C    3.655346   2.608091   1.571303   2.489682   2.459816
     8  C    3.865302   2.781917   2.573522   3.574520   3.315191
     9  C    3.695751   2.594925   2.964874   3.586490   3.262139
    10  C    4.707244   3.555142   3.581439   3.544255   2.667398
    11  C    4.691311   3.598834   3.288337   2.591252   1.552965
    12  C    2.389347   1.529935   2.627499   3.315885   3.619410
    13  H    2.464999   2.099090   1.093040   2.189408   3.340947
    14  H    3.147938   2.586745   2.233325   1.096230   2.216127
    15  H    3.935004   3.355127   2.173132   1.096324   2.168498
    16  H    5.378445   4.413502   3.404812   2.165337   1.096966
    17  H    5.602390   4.434448   3.427305   3.383850   2.221529
    18  H    5.331567   4.354370   2.940679   2.734263   2.161237
    19  H    4.136745   3.291194   2.195063   3.251958   3.356427
    20  H    4.962332   3.873526   3.516470   4.348102   3.760230
    21  H    3.663674   2.826274   2.912802   4.220054   4.259027
    22  H    4.373378   3.419038   3.981913   4.680514   4.300297
    23  H    5.198005   4.159056   4.467434   4.353060   3.549527
    24  H    5.576166   4.382553   4.170309   4.175033   3.031857
    25  H    5.777164   4.696033   4.304939   3.442633   2.166082
    26  H    4.368177   3.451862   3.460367   2.630632   2.165009
    27  H    2.798048   2.137178   3.192687   3.405998   3.680105
    28  H    2.528253   2.109903   3.432433   4.318628   4.702188
                    6          7          8          9         10
     6  C    0.000000
     7  C    1.552788   0.000000
     8  C    2.579448   1.538154   0.000000
     9  C    3.210952   2.571424   1.539411   0.000000
    10  C    2.991939   3.140495   2.575404   1.546520   0.000000
    11  C    2.603703   3.226654   3.387510   2.668288   1.544313
    12  C    3.942009   3.068804   2.516484   1.548401   2.601631
    13  H    3.179717   2.219889   3.341959   3.950484   4.666769
    14  H    3.373145   3.401723   4.234262   3.884407   3.785635
    15  H    2.772056   3.033157   4.364282   4.603612   4.544798
    16  H    2.182532   3.402598   4.349098   4.304503   3.487930
    17  H    1.095976   2.217603   2.689412   3.296806   2.853987
    18  H    1.097474   2.179341   3.460693   4.266264   4.074281
    19  H    2.181659   1.095884   2.144135   3.483590   4.167615
    20  H    2.763440   2.167989   1.097947   2.174830   2.816068
    21  H    3.509395   2.163465   1.100062   2.156038   3.505633
    22  H    4.158240   3.486611   2.134828   1.098067   2.122188
    23  H    4.067883   4.191416   3.476839   2.156254   1.098869
    24  H    2.945804   3.325753   2.691849   2.150478   1.098595
    25  H    3.150526   4.091927   4.236201   3.541653   2.128102
    26  H    3.461190   3.845151   4.005651   3.043322   2.170805
    27  H    4.389199   3.825534   3.430819   2.201793   2.657843
    28  H    4.899344   3.840132   3.046588   2.194708   3.446945
                   11         12         13         14         15
    11  C    0.000000
    12  C    3.150928   0.000000
    13  H    4.328737   3.481644   0.000000
    14  H    2.743412   3.269666   2.803606   0.000000
    15  H    3.491883   4.345667   2.310436   1.757924   0.000000
    16  H    2.151178   4.660313   4.101664   2.688794   2.358085
    17  H    2.792378   4.383729   4.181052   4.280014   3.827201
    18  H    3.507427   4.879111   3.318346   3.796795   2.672626
    19  H    4.284996   3.945626   2.340610   4.225353   3.508369
    20  H    3.776444   3.473743   4.245331   5.088690   5.066307
    21  H    4.369460   2.699525   3.426893   4.817069   4.953184
    22  H    3.526355   2.147612   4.902177   4.922141   5.699925
    23  H    2.135112   2.938539   5.554545   4.364593   5.388819
    24  H    2.168271   3.515212   5.207595   4.608222   5.058896
    25  H    1.097768   4.179438   5.310962   3.574593   4.179487
    26  H    1.098617   3.007882   4.452834   2.323876   3.567768
    27  H    2.929556   1.099120   4.076417   3.040378   4.464247
    28  H    4.197852   1.095498   4.104982   4.227027   5.299862
                   16         17         18         19         20
    16  H    0.000000
    17  H    2.702207   0.000000
    18  H    2.383523   1.760756   0.000000
    19  H    4.157706   2.743742   2.348726   0.000000
    20  H    4.673240   2.443152   3.584854   2.530324   0.000000
    21  H    5.312713   3.701424   4.252835   2.381604   1.758970
    22  H    5.306676   4.050988   5.213112   4.261507   2.443302
    23  H    4.254542   3.886694   5.136853   5.221681   3.691240
    24  H    3.716248   2.409827   3.973588   4.211616   2.484001
    25  H    2.270226   3.072694   3.928040   5.090195   4.408023
    26  H    2.659656   3.828186   4.294747   4.920981   4.582746
    27  H    4.593128   4.833638   5.330551   4.797677   4.306741
    28  H    5.752031   5.286275   5.818992   4.558621   3.949801
                   21         22         23         24         25
    21  H    0.000000
    22  H    2.434835   0.000000
    23  H    4.271182   2.316564   0.000000
    24  H    3.688673   2.480513   1.748416   0.000000
    25  H    5.276426   4.247834   2.440553   2.367751   0.000000
    26  H    4.847631   3.865315   2.375767   3.053981   1.743620
    27  H    3.766479   2.736181   2.690134   3.723335   3.870470
    28  H    2.857393   2.305051   3.603652   4.277361   5.187152
                   26         27         28
    26  H    0.000000
    27  H    2.438144   0.000000
    28  H    4.014405   1.746758   0.000000
 Stoichiometry    C11H16O
 Framework group  C1[X(C11H16O)]
 Deg. of freedom    78
 Full point group                 C1      NOp   1
 Largest Abelian subgroup         C1      NOp   1
 Largest concise Abelian subgroup C1      NOp   1
                         Standard orientation:                         
 ---------------------------------------------------------------------
 Center     Atomic      Atomic             Coordinates (Angstroms)
 Number     Number       Type             X           Y           Z
 ---------------------------------------------------------------------
      1          8           0       -2.929559   -0.471989   -0.456873
      2          6           0       -1.778889   -0.151310   -0.217071
      3          6           0       -0.788502   -1.157478    0.358026
      4          6           0        0.127140   -1.722155   -0.777084
      5          6           0        1.499473   -1.039437   -0.606289
      6          6           0        1.615673   -0.965954    0.927924
      7          6           0        0.200153   -0.570581    1.429058
      8          6           0        0.020958    0.947819    1.597184
      9          6           0       -0.032163    1.707605    0.259392
     10          6           0        1.287032    1.618730   -0.542824
     11          6           0        1.609413    0.330007   -1.330331
     12          6           0       -1.290393    1.265015   -0.527066
     13          1           0       -1.399800   -1.962773    0.773420
     14          1           0       -0.299559   -1.588772   -1.778012
     15          1           0        0.236787   -2.802294   -0.624758
     16          1           0        2.278462   -1.690955   -1.021058
     17          1           0        2.393362   -0.278506    1.279749
     18          1           0        1.874475   -1.960752    1.312434
     19          1           0        0.007503   -1.040176    2.400309
     20          1           0        0.830836    1.345843    2.222615
     21          1           0       -0.914326    1.140692    2.143243
     22          1           0       -0.156741    2.771380    0.501493
     23          1           0        1.297524    2.441391   -1.271270
     24          1           0        2.111974    1.831792    0.150707
     25          1           0        2.637852    0.446572   -1.696144
     26          1           0        0.986672    0.292060   -2.234606
     27          1           0       -1.129155    1.331536   -1.612258
     28          1           0       -2.138778    1.925299   -0.316392
 ---------------------------------------------------------------------
 Rotational constants (GHZ):           1.3385934           1.0135176           0.8710697
 Standard basis: 6-31G(d) (6D, 7F)
 There are   212 symmetry adapted cartesian basis functions of A   symmetry.
 There are   212 symmetry adapted basis functions of A   symmetry.
   212 basis functions,   400 primitive gaussians,   212 cartesian basis functions
    45 alpha electrons       45 beta electrons
       nuclear repulsion energy       769.4244361646 Hartrees.
 NAtoms=   28 NActive=   28 NUniq=   28 SFac= 1.00D+00 NAtFMM=   60 NAOKFM=F Big=F
 Integral buffers will be    131072 words long.
 Raffenetti 2 integral format.
 Two-electron integral symmetry is turned on.
 One-electron integrals computed using PRISM.
 NBasis=   212 RedAO= T EigKep=  1.69D-03  NBF=   212
 NBsUse=   212 1.00D-06 EigRej= -1.00D+00 NBFU=   212
 ExpMin= 1.61D-01 ExpMax= 5.48D+03 ExpMxC= 8.25D+02 IAcc=3 IRadAn=         5 AccDes= 0.00D+00
 Harris functional with IExCor=  402 and IRadAn=       5 diagonalized for initial guess.
 HarFok:  IExCor=  402 AccDes= 0.00D+00 IRadAn=         5 IDoV= 1 UseB2=F ITyADJ=14
 ICtDFT=  3500011 ScaDFX=  1.000000  1.000000  1.000000  1.000000
 FoFCou: FMM=F IPFlag=           0 FMFlag=      100000 FMFlg1=           0
         NFxFlg=           0 DoJE=T BraDBF=F KetDBF=T FulRan=T
         wScrn=  0.000000 ICntrl=       500 IOpCl=  0 I1Cent=   200000004 NGrid=           0
         NMat0=    1 NMatS0=      1 NMatT0=    0 NMatD0=    1 NMtDS0=    0 NMtDT0=    0
 Petite list used in FoFCou.
 Requested convergence on RMS density matrix=1.00D-08 within 128 cycles.
 Requested convergence on MAX density matrix=1.00D-06.
 Requested convergence on             energy=1.00D-06.
 No special actions if energy rises.
 Integral accuracy reduced to 1.0D-05 until final iterations.
 Initial convergence to 1.0D-05 achieved.  Increase integral accuracy.
 SCF Done:  E(RB3LYP) =  -504.029477734     A.U. after   13 cycles
            NFock= 13  Conv=0.84D-08     -V/T= 2.0097
 DoSCS=F DFT=T ScalE2(SS,OS)=  1.000000  1.000000
 Range of M.O.s used for correlation:     1   212
 NBasis=   212 NAE=    45 NBE=    45 NFC=     0 NFV=     0
 NROrb=    212 NOA=    45 NOB=    45 NVA=   167 NVB=   167
 Symmetrizing basis deriv contribution to polar:
 IMax=3 JMax=2 DiffMx= 0.00D+00
 G2DrvN: will do    29 centers at a time, making    1 passes.
 Calling FoFCou, ICntrl=  3107 FMM=F I1Cent=   0 AccDes= 0.00D+00.
 End of G2Drv F.D. properties file   721 does not exist.
 End of G2Drv F.D. properties file   722 does not exist.
 End of G2Drv F.D. properties file   788 does not exist.
          IDoAtm=1111111111111111111111111111
          Differentiating once with respect to electric field.
                with respect to dipole field.
          Differentiating once with respect to nuclear coordinates.
 Keep R1 ints in memory in canonical form, NReq=263237184.
          There are    87 degrees of freedom in the 1st order CPHF.  IDoFFX=6 NUNeed=     3.
     84 vectors produced by pass  0 Test12= 8.64D-15 1.15D-09 XBig12= 8.04D+01 2.40D+00.
 AX will form    84 AO Fock derivatives at one time.
     84 vectors produced by pass  1 Test12= 8.64D-15 1.15D-09 XBig12= 1.09D+01 7.19D-01.
     84 vectors produced by pass  2 Test12= 8.64D-15 1.15D-09 XBig12= 1.10D-01 4.58D-02.
     84 vectors produced by pass  3 Test12= 8.64D-15 1.15D-09 XBig12= 3.67D-04 1.99D-03.
     84 vectors produced by pass  4 Test12= 8.64D-15 1.15D-09 XBig12= 4.44D-07 5.93D-05.
     42 vectors produced by pass  5 Test12= 8.64D-15 1.15D-09 XBig12= 2.96D-10 1.54D-06.
      5 vectors produced by pass  6 Test12= 8.64D-15 1.15D-09 XBig12= 1.72D-13 4.37D-08.
      1 vectors produced by pass  7 Test12= 8.64D-15 1.15D-09 XBig12= 1.20D-16 1.61D-09.
 InvSVY:  IOpt=1 It=  1 EMax= 1.07D-14
 Solved reduced A of dimension   468 with    87 vectors.
 Isotropic polarizability for W=    0.000000      104.98 Bohr**3.
 End of Minotr F.D. properties file   721 does not exist.
 End of Minotr F.D. properties file   722 does not exist.
 End of Minotr F.D. properties file   788 does not exist.

 **********************************************************************

            Population analysis using the SCF density.

 **********************************************************************

 Orbital symmetries:
       Occupied  (A) (A) (A) (A) (A) (A) (A) (A) (A) (A) (A) (A)
                 (A) (A) (A) (A) (A) (A) (A) (A) (A) (A) (A) (A)
                 (A) (A) (A) (A) (A) (A) (A) (A) (A) (A) (A) (A)
                 (A) (A) (A) (A) (A) (A) (A) (A) (A)
       Virtual   (A) (A) (A) (A) (A) (A) (A) (A) (A) (A) (A) (A)
                 (A) (A) (A) (A) (A) (A) (A) (A) (A) (A) (A) (A)
                 (A) (A) (A) (A) (A) (A) (A) (A) (A) (A) (A) (A)
                 (A) (A) (A) (A) (A) (A) (A) (A) (A) (A) (A) (A)
                 (A) (A) (A) (A) (A) (A) (A) (A) (A) (A) (A) (A)
                 (A) (A) (A) (A) (A) (A) (A) (A) (A) (A) (A) (A)
                 (A) (A) (A) (A) (A) (A) (A) (A) (A) (A) (A) (A)
                 (A) (A) (A) (A) (A) (A) (A) (A) (A) (A) (A) (A)
                 (A) (A) (A) (A) (A) (A) (A) (A) (A) (A) (A) (A)
                 (A) (A) (A) (A) (A) (A) (A) (A) (A) (A) (A) (A)
                 (A) (A) (A) (A) (A) (A) (A) (A) (A) (A) (A) (A)
                 (A) (A) (A) (A) (A) (A) (A) (A) (A) (A) (A) (A)
                 (A) (A) (A) (A) (A) (A) (A) (A) (A) (A) (A) (A)
                 (A) (A) (A) (A) (A) (A) (A) (A) (A) (A) (A)
 The electronic state is 1-A.
 Alpha  occ. eigenvalues --  -19.12473 -10.26295 -10.19340 -10.19192 -10.18957
 Alpha  occ. eigenvalues --  -10.18796 -10.18686 -10.18582 -10.18503 -10.18441
 Alpha  occ. eigenvalues --  -10.18323 -10.18136  -1.02514  -0.85978  -0.80068
 Alpha  occ. eigenvalues --   -0.77345  -0.73902  -0.69995  -0.67155  -0.65195
 Alpha  occ. eigenvalues --   -0.58766  -0.56072  -0.53641  -0.51206  -0.48694
 Alpha  occ. eigenvalues --   -0.47161  -0.45937  -0.45289  -0.43569  -0.42327
 Alpha  occ. eigenvalues --   -0.41265  -0.40582  -0.39140  -0.37979  -0.36139
 Alpha  occ. eigenvalues --   -0.35062  -0.34867  -0.34546  -0.33173  -0.31975
 Alpha  occ. eigenvalues --   -0.31041  -0.30720  -0.30161  -0.29912  -0.22738
 Alpha virt. eigenvalues --   -0.00850   0.05717   0.08815   0.10142   0.11401
 Alpha virt. eigenvalues --    0.12209   0.13632   0.15084   0.15541   0.16220
 Alpha virt. eigenvalues --    0.16558   0.16956   0.17333   0.18489   0.19139
 Alpha virt. eigenvalues --    0.19632   0.20104   0.20973   0.21366   0.21747
 Alpha virt. eigenvalues --    0.22868   0.23510   0.24264   0.24911   0.28001
 Alpha virt. eigenvalues --    0.29061   0.32542   0.33741   0.34799   0.36991
 Alpha virt. eigenvalues --    0.39073   0.47538   0.50769   0.53377   0.54878
 Alpha virt. eigenvalues --    0.55368   0.57596   0.58688   0.60026   0.60833
 Alpha virt. eigenvalues --    0.61276   0.62224   0.64570   0.65651   0.66339
 Alpha virt. eigenvalues --    0.66809   0.68736   0.69120   0.71703   0.72709
 Alpha virt. eigenvalues --    0.73256   0.75247   0.76325   0.78627   0.79292
 Alpha virt. eigenvalues --    0.80153   0.80532   0.81260   0.83940   0.85277
 Alpha virt. eigenvalues --    0.86192   0.87338   0.87525   0.88335   0.89626
 Alpha virt. eigenvalues --    0.90617   0.90881   0.91734   0.92527   0.93787
 Alpha virt. eigenvalues --    0.94246   0.95353   0.97099   0.97472   0.97990
 Alpha virt. eigenvalues --    0.98627   1.00414   1.01938   1.05351   1.06727
 Alpha virt. eigenvalues --    1.11352   1.14119   1.17000   1.19986   1.26583
 Alpha virt. eigenvalues --    1.29056   1.34180   1.39618   1.41850   1.46669
 Alpha virt. eigenvalues --    1.48040   1.55155   1.56256   1.58029   1.60863
 Alpha virt. eigenvalues --    1.65744   1.67935   1.69643   1.71113   1.72881
 Alpha virt. eigenvalues --    1.75145   1.76825   1.78387   1.80013   1.81373
 Alpha virt. eigenvalues --    1.81911   1.84215   1.85653   1.86994   1.87814
 Alpha virt. eigenvalues --    1.91355   1.91781   1.94039   1.96437   1.98208
 Alpha virt. eigenvalues --    2.00585   2.02396   2.05237   2.05807   2.06976
 Alpha virt. eigenvalues --    2.10188   2.11201   2.13156   2.19789   2.20435
 Alpha virt. eigenvalues --    2.24539   2.25603   2.26071   2.29453   2.31886
 Alpha virt. eigenvalues --    2.34105   2.35285   2.38183   2.38838   2.41132
 Alpha virt. eigenvalues --    2.41867   2.44083   2.48629   2.50520   2.52446
 Alpha virt. eigenvalues --    2.54894   2.56373   2.58584   2.60464   2.65185
 Alpha virt. eigenvalues --    2.66352   2.69293   2.72349   2.74605   2.75285
 Alpha virt. eigenvalues --    2.77724   2.83212   2.87365   3.00018   3.04466
 Alpha virt. eigenvalues --    4.05745   4.06302   4.19175   4.25099   4.26161
 Alpha virt. eigenvalues --    4.46207   4.52112   4.55310   4.58447   4.69256
 Alpha virt. eigenvalues --    4.73877   4.85504
          Condensed to atoms (all electrons):
               1          2          3          4          5          6
     1  O    8.054784   0.548773  -0.071861  -0.001448   0.000070  -0.000097
     2  C    0.548773   4.478515   0.360296  -0.029324  -0.000534  -0.000549
     3  C   -0.071861   0.360296   5.250035   0.332894  -0.055676  -0.057549
     4  C   -0.001448  -0.029324   0.332894   5.132393   0.371499  -0.079553
     5  C    0.000070  -0.000534  -0.055676   0.371499   4.943522   0.376280
     6  C   -0.000097  -0.000549  -0.057549  -0.079553   0.376280   5.125690
     7  C    0.003167  -0.023644   0.328317  -0.060143  -0.052982   0.350253
     8  C   -0.000217  -0.007886  -0.049772   0.000263   0.001370  -0.039322
     9  C    0.003411  -0.020605  -0.000171   0.001315   0.001612  -0.008606
    10  C   -0.000030  -0.002942   0.001726  -0.000253  -0.042994  -0.000643
    11  C   -0.000007   0.002763  -0.002532  -0.042765   0.370208  -0.049331
    12  C   -0.080821   0.321960  -0.123533   0.003073  -0.001060   0.000543
    13  H    0.003681  -0.029394   0.343964  -0.028935   0.003895   0.004190
    14  H    0.001100  -0.002459  -0.041159   0.365121  -0.032986   0.005820
    15  H   -0.000051   0.003166  -0.027019   0.364529  -0.032447   0.000592
    16  H    0.000000  -0.000055   0.005566  -0.039358   0.367986  -0.037980
    17  H    0.000001  -0.000020   0.004562   0.006018  -0.030850   0.363433
    18  H    0.000001   0.000090  -0.001400  -0.000317  -0.033229   0.362298
    19  H   -0.000046   0.001902  -0.033892   0.005213   0.004703  -0.038977
    20  H    0.000001   0.000388   0.005095  -0.000177  -0.000021  -0.007779
    21  H   -0.000273   0.000667  -0.002415  -0.000069  -0.000246   0.005594
    22  H   -0.000084   0.002822  -0.000214  -0.000004  -0.000150  -0.000098
    23  H    0.000001   0.000090  -0.000061  -0.000100   0.005071   0.000016
    24  H    0.000001  -0.000015   0.000169  -0.000070  -0.004434   0.001819
    25  H   -0.000000  -0.000052  -0.000068   0.004629  -0.030105   0.000616
    26  H   -0.000012  -0.000356  -0.000207  -0.009059  -0.043058   0.004896
    27  H   -0.000149  -0.022167   0.001994   0.000591  -0.000141   0.000037
    28  H    0.001858  -0.023531   0.005603  -0.000025   0.000000   0.000015
               7          8          9         10         11         12
     1  O    0.003167  -0.000217   0.003411  -0.000030  -0.000007  -0.080821
     2  C   -0.023644  -0.007886  -0.020605  -0.002942   0.002763   0.321960
     3  C    0.328317  -0.049772  -0.000171   0.001726  -0.002532  -0.123533
     4  C   -0.060143   0.000263   0.001315  -0.000253  -0.042765   0.003073
     5  C   -0.052982   0.001370   0.001612  -0.042994   0.370208  -0.001060
     6  C    0.350253  -0.039322  -0.008606  -0.000643  -0.049331   0.000543
     7  C    5.006274   0.383198  -0.040419  -0.003898   0.000271  -0.008219
     8  C    0.383198   5.062168   0.387304  -0.048369  -0.002262  -0.055431
     9  C   -0.040419   0.387304   4.967473   0.369545  -0.040380   0.292417
    10  C   -0.003898  -0.048369   0.369545   5.056390   0.365448  -0.037415
    11  C    0.000271  -0.002262  -0.040380   0.365448   5.058249  -0.006009
    12  C   -0.008219  -0.055431   0.292417  -0.037415  -0.006009   5.385651
    13  H   -0.034281   0.004123  -0.000372  -0.000029  -0.000042   0.007783
    14  H    0.004977  -0.000089  -0.000219   0.000115  -0.007147   0.001960
    15  H   -0.000186  -0.000004  -0.000022  -0.000102   0.004877  -0.000294
    16  H    0.005817  -0.000116  -0.000188   0.004616  -0.039870   0.000008
    17  H   -0.033996  -0.006766  -0.000170   0.000358  -0.006725   0.000102
    18  H   -0.029254   0.004394   0.000067  -0.000090   0.005573  -0.000044
    19  H    0.366757  -0.039251   0.005270  -0.000123  -0.000084  -0.000159
    20  H   -0.036080   0.365997  -0.033578  -0.005968   0.000015   0.005578
    21  H   -0.035509   0.364831  -0.040020   0.005993  -0.000190  -0.003023
    22  H    0.005524  -0.040745   0.369442  -0.039792   0.005316  -0.037135
    23  H   -0.000006   0.005286  -0.031289   0.361714  -0.034229  -0.003809
    24  H   -0.001028  -0.006418  -0.039934   0.367503  -0.038198   0.005101
    25  H   -0.000298   0.000002   0.004785  -0.032304   0.364074   0.000072
    26  H   -0.000015  -0.000117  -0.005247  -0.037895   0.369259   0.003162
    27  H    0.000308   0.004085  -0.034046  -0.007282   0.000111   0.349954
    28  H   -0.000302   0.000576  -0.026889   0.004284   0.000041   0.348110
              13         14         15         16         17         18
     1  O    0.003681   0.001100  -0.000051   0.000000   0.000001   0.000001
     2  C   -0.029394  -0.002459   0.003166  -0.000055  -0.000020   0.000090
     3  C    0.343964  -0.041159  -0.027019   0.005566   0.004562  -0.001400
     4  C   -0.028935   0.365121   0.364529  -0.039358   0.006018  -0.000317
     5  C    0.003895  -0.032986  -0.032447   0.367986  -0.030850  -0.033229
     6  C    0.004190   0.005820   0.000592  -0.037980   0.363433   0.362298
     7  C   -0.034281   0.004977  -0.000186   0.005817  -0.033996  -0.029254
     8  C    0.004123  -0.000089  -0.000004  -0.000116  -0.006766   0.004394
     9  C   -0.000372  -0.000219  -0.000022  -0.000188  -0.000170   0.000067
    10  C   -0.000029   0.000115  -0.000102   0.004616   0.000358  -0.000090
    11  C   -0.000042  -0.007147   0.004877  -0.039870  -0.006725   0.005573
    12  C    0.007783   0.001960  -0.000294   0.000008   0.000102  -0.000044
    13  H    0.591666   0.003299  -0.010673  -0.000184  -0.000126   0.000023
    14  H    0.003299   0.580126  -0.033353   0.001580  -0.000174  -0.000075
    15  H   -0.010673  -0.033353   0.588970  -0.006983  -0.000140   0.002314
    16  H   -0.000184   0.001580  -0.006983   0.627125   0.001198  -0.006596
    17  H   -0.000126  -0.000174  -0.000140   0.001198   0.594496  -0.036033
    18  H    0.000023  -0.000075   0.002314  -0.006596  -0.036033   0.606115
    19  H   -0.008744  -0.000153  -0.000059  -0.000243   0.002297  -0.007809
    20  H   -0.000119   0.000006   0.000006  -0.000009   0.004485   0.000137
    21  H    0.000124   0.000006  -0.000005   0.000006   0.000137  -0.000211
    22  H    0.000012   0.000002   0.000000   0.000002  -0.000072   0.000006
    23  H   -0.000000  -0.000033   0.000003  -0.000176  -0.000047  -0.000002
    24  H   -0.000004   0.000005   0.000004   0.000020   0.002685  -0.000037
    25  H    0.000003   0.000180  -0.000244  -0.009535   0.000987  -0.000188
    26  H   -0.000021   0.006324   0.000197   0.002309   0.000050  -0.000161
    27  H   -0.000116  -0.000222   0.000030  -0.000001  -0.000005  -0.000000
    28  H   -0.000249  -0.000043   0.000001   0.000000  -0.000001  -0.000000
              19         20         21         22         23         24
     1  O   -0.000046   0.000001  -0.000273  -0.000084   0.000001   0.000001
     2  C    0.001902   0.000388   0.000667   0.002822   0.000090  -0.000015
     3  C   -0.033892   0.005095  -0.002415  -0.000214  -0.000061   0.000169
     4  C    0.005213  -0.000177  -0.000069  -0.000004  -0.000100  -0.000070
     5  C    0.004703  -0.000021  -0.000246  -0.000150   0.005071  -0.004434
     6  C   -0.038977  -0.007779   0.005594  -0.000098   0.000016   0.001819
     7  C    0.366757  -0.036080  -0.035509   0.005524  -0.000006  -0.001028
     8  C   -0.039251   0.365997   0.364831  -0.040745   0.005286  -0.006418
     9  C    0.005270  -0.033578  -0.040020   0.369442  -0.031289  -0.039934
    10  C   -0.000123  -0.005968   0.005993  -0.039792   0.361714   0.367503
    11  C   -0.000084   0.000015  -0.000190   0.005316  -0.034229  -0.038198
    12  C   -0.000159   0.005578  -0.003023  -0.037135  -0.003809   0.005101
    13  H   -0.008744  -0.000119   0.000124   0.000012  -0.000000  -0.000004
    14  H   -0.000153   0.000006   0.000006   0.000002  -0.000033   0.000005
    15  H   -0.000059   0.000006  -0.000005   0.000000   0.000003   0.000004
    16  H   -0.000243  -0.000009   0.000006   0.000002  -0.000176   0.000020
    17  H    0.002297   0.004485   0.000137  -0.000072  -0.000047   0.002685
    18  H   -0.007809   0.000137  -0.000211   0.000006  -0.000002  -0.000037
    19  H    0.620166  -0.001171  -0.005941  -0.000223   0.000006  -0.000020
    20  H   -0.001171   0.604518  -0.035068  -0.003349   0.000012   0.005228
    21  H   -0.005941  -0.035068   0.612000  -0.004219  -0.000211   0.000013
    22  H   -0.000223  -0.003349  -0.004219   0.631113  -0.007404  -0.001484
    23  H    0.000006   0.000012  -0.000211  -0.007404   0.613301  -0.036449
    24  H   -0.000020   0.005228   0.000013  -0.001484  -0.036449   0.614325
    25  H    0.000003  -0.000019   0.000003  -0.000178  -0.001401  -0.006847
    26  H    0.000004   0.000009   0.000005  -0.000063  -0.006441   0.005776
    27  H    0.000010  -0.000163   0.000017   0.001410   0.002649   0.000168
    28  H    0.000025  -0.000115   0.001864  -0.009315  -0.000058  -0.000144
              25         26         27         28
     1  O   -0.000000  -0.000012  -0.000149   0.001858
     2  C   -0.000052  -0.000356  -0.022167  -0.023531
     3  C   -0.000068  -0.000207   0.001994   0.005603
     4  C    0.004629  -0.009059   0.000591  -0.000025
     5  C   -0.030105  -0.043058  -0.000141   0.000000
     6  C    0.000616   0.004896   0.000037   0.000015
     7  C   -0.000298  -0.000015   0.000308  -0.000302
     8  C    0.000002  -0.000117   0.004085   0.000576
     9  C    0.004785  -0.005247  -0.034046  -0.026889
    10  C   -0.032304  -0.037895  -0.007282   0.004284
    11  C    0.364074   0.369259   0.000111   0.000041
    12  C    0.000072   0.003162   0.349954   0.348110
    13  H    0.000003  -0.000021  -0.000116  -0.000249
    14  H    0.000180   0.006324  -0.000222  -0.000043
    15  H   -0.000244   0.000197   0.000030   0.000001
    16  H   -0.009535   0.002309  -0.000001   0.000000
    17  H    0.000987   0.000050  -0.000005  -0.000001
    18  H   -0.000188  -0.000161  -0.000000  -0.000000
    19  H    0.000003   0.000004   0.000010   0.000025
    20  H   -0.000019   0.000009  -0.000163  -0.000115
    21  H    0.000003   0.000005   0.000017   0.001864
    22  H   -0.000178  -0.000063   0.001410  -0.009315
    23  H   -0.001401  -0.006441   0.002649  -0.000058
    24  H   -0.006847   0.005776   0.000168  -0.000144
    25  H    0.606046  -0.037068  -0.000097  -0.000002
    26  H   -0.037068   0.611951   0.003005  -0.000030
    27  H   -0.000097   0.003005   0.555514  -0.023319
    28  H   -0.000002  -0.000030  -0.023319   0.551895
 Mulliken charges:
               1
     1  O   -0.461752
     2  C    0.442103
     3  C   -0.172692
     4  C   -0.295940
     5  C   -0.085301
     6  C   -0.281610
     7  C   -0.094603
     8  C   -0.286832
     9  C   -0.080486
    10  C   -0.277561
    11  C   -0.276433
    12  C   -0.368522
    13  H    0.150525
    14  H    0.147492
    15  H    0.146892
    16  H    0.125058
    17  H    0.134315
    18  H    0.134429
    19  H    0.130539
    20  H    0.132141
    21  H    0.136140
    22  H    0.128881
    23  H    0.133570
    24  H    0.132265
    25  H    0.137003
    26  H    0.132803
    27  H    0.167826
    28  H    0.169751
 Sum of Mulliken charges =  -0.00000
 Mulliken charges with hydrogens summed into heavy atoms:
               1
     1  O   -0.461752
     2  C    0.442103
     3  C   -0.022167
     4  C   -0.001557
     5  C    0.039757
     6  C   -0.012866
     7  C    0.035936
     8  C   -0.018551
     9  C    0.048395
    10  C   -0.011726
    11  C   -0.006627
    12  C   -0.030945
 APT charges:
               1
     1  O   -0.669144
     2  C    0.736633
     3  C   -0.086367
     4  C    0.105157
     5  C    0.100531
     6  C    0.070077
     7  C    0.121419
     8  C    0.095299
     9  C    0.123337
    10  C    0.111326
    11  C    0.097364
    12  C   -0.055999
    13  H   -0.040346
    14  H   -0.024903
    15  H   -0.048536
    16  H   -0.071362
    17  H   -0.032155
    18  H   -0.052012
    19  H   -0.071106
    20  H   -0.048934
    21  H   -0.053857
    22  H   -0.077898
    23  H   -0.058220
    24  H   -0.047938
    25  H   -0.056784
    26  H   -0.046381
    27  H   -0.002944
    28  H   -0.016259
 Sum of APT charges =  -0.00000
 APT charges with hydrogens summed into heavy atoms:
               1
     1  O   -0.669144
     2  C    0.736633
     3  C   -0.126712
     4  C    0.031718
     5  C    0.029169
     6  C   -0.014090
     7  C    0.050313
     8  C   -0.007492
     9  C    0.045440
    10  C    0.005168
    11  C   -0.005800
    12  C   -0.075202
 Electronic spatial extent (au):  <R**2>=           1685.9967
 Charge=             -0.0000 electrons
 Dipole moment (field-independent basis, Debye):
    X=              3.0849    Y=              0.6919    Z=              0.4956  Tot=              3.2002
 Quadrupole moment (field-independent basis, Debye-Ang):
   XX=            -84.2117   YY=            -70.4781   ZZ=            -71.5912
   XY=             -3.0388   XZ=             -2.2304   YZ=             -0.7472
 Traceless Quadrupole moment (field-independent basis, Debye-Ang):
   XX=             -8.7847   YY=              4.9489   ZZ=              3.8358
   XY=             -3.0388   XZ=             -2.2304   YZ=             -0.7472
 Octapole moment (field-independent basis, Debye-Ang**2):
  XXX=             32.2289  YYY=             -3.5762  ZZZ=             -2.8398  XYY=             -3.9744
  XXY=              8.8513  XXZ=              7.1502  XZZ=             -4.1691  YZZ=             -0.4992
  YYZ=              0.2969  XYZ=              1.8983
 Hexadecapole moment (field-independent basis, Debye-Ang**3):
 XXXX=          -1095.5543 YYYY=           -729.9612 ZZZZ=           -516.1168 XXXY=            -22.3543
 XXXZ=            -22.7295 YYYX=             -2.1300 YYYZ=             -2.8586 ZZZX=              6.7596
 ZZZY=             -2.2703 XXYY=           -284.5565 XXZZ=           -247.8358 YYZZ=           -209.1718
 XXYZ=             -1.1484 YYXZ=              0.4637 ZZXY=              2.5804
 N-N= 7.694244361646D+02 E-N=-2.707873896700D+03  KE= 4.991960213675D+02
  Exact polarizability: 111.501  -0.164 106.330   0.190  -0.926  97.113
 Approx polarizability: 165.095   2.955 149.270   3.650  -0.735 144.154
 Calling FoFJK, ICntrl=    100127 FMM=F ISym2X=0 I1Cent= 0 IOpClX= 0 NMat=1 NMatS=1 NMatT=0.
 Full mass-weighted force constant matrix:
 Low frequencies ---  -15.9272   -6.2838   -3.3042    0.0006    0.0007    0.0009
 Low frequencies ---   30.6201  172.7721  210.3849
 Diagonal vibrational polarizability:
       20.8764978      12.9263813      76.4981290
 Harmonic frequencies (cm**-1), IR intensities (KM/Mole), Raman scattering
 activities (A**4/AMU), depolarization ratios for plane and unpolarized
 incident light, reduced masses (AMU), force constants (mDyne/A),
 and normal coordinates:
                      1                      2                      3
                      A                      A                      A
 Frequencies --     30.5768               172.7713               210.3847
 Red. masses --      3.9668                 2.3617                 2.8812
 Frc consts  --      0.0022                 0.0415                 0.0751
 IR Inten    --      3.5038                 0.8524                 0.2829
  Atom  AN      X      Y      Z        X      Y      Z        X      Y      Z
     1   8    -0.12   0.06   0.30    -0.01  -0.09  -0.07     0.04  -0.08  -0.10
     2   6    -0.05  -0.02   0.04    -0.05  -0.02   0.04     0.00  -0.04   0.05
     3   6    -0.00  -0.03  -0.06    -0.02   0.03   0.04    -0.03   0.00   0.16
     4   6     0.03   0.09  -0.10    -0.06   0.13  -0.05    -0.15   0.08   0.03
     5   6     0.05   0.03   0.01    -0.00  -0.01   0.02    -0.12   0.04  -0.06
     6   6    -0.03  -0.03   0.02    -0.02  -0.08   0.02     0.00  -0.01  -0.07
     7   6    -0.04  -0.02  -0.03     0.01   0.02   0.02     0.05   0.02   0.05
     8   6    -0.07  -0.02  -0.06     0.10   0.03  -0.02     0.02   0.02   0.02
     9   6    -0.02  -0.03  -0.07    -0.01  -0.00  -0.03     0.01  -0.01   0.00
    10   6     0.04   0.03   0.03    -0.03   0.02  -0.08     0.07   0.03   0.09
    11   6     0.16   0.04   0.06     0.16  -0.02   0.05    -0.03   0.07  -0.00
    12   6     0.04  -0.10  -0.16    -0.09   0.00   0.09     0.11  -0.12  -0.11
    13   1     0.04  -0.09  -0.10     0.04  -0.02   0.04    -0.00  -0.00   0.19
    14   1     0.07   0.21  -0.10    -0.06   0.32  -0.02    -0.26   0.16   0.08
    15   1    -0.01   0.07  -0.23    -0.16   0.09  -0.23    -0.14   0.06  -0.08
    16   1     0.04   0.01   0.03    -0.06  -0.08   0.01    -0.18   0.01  -0.14
    17   1    -0.03  -0.05   0.08     0.03  -0.16   0.06     0.06  -0.05  -0.11
    18   1    -0.06  -0.04  -0.00    -0.11  -0.12  -0.01    -0.01  -0.03  -0.12
    19   1    -0.07  -0.01  -0.03    -0.01   0.06   0.04     0.14   0.04   0.08
    20   1    -0.10   0.00  -0.03     0.18   0.02  -0.11     0.01   0.06   0.01
    21   1    -0.09  -0.03  -0.10     0.16   0.09   0.07     0.02  -0.00   0.02
    22   1    -0.09  -0.04  -0.08     0.01   0.00  -0.05    -0.08  -0.02  -0.02
    23   1     0.07   0.03   0.03    -0.13  -0.05  -0.17     0.17   0.10   0.17
    24   1    -0.03   0.06   0.10    -0.06   0.19  -0.10     0.04  -0.10   0.16
    25   1     0.22   0.05   0.22     0.26  -0.02   0.30    -0.02   0.01  -0.00
    26   1     0.31   0.05  -0.04     0.39  -0.06  -0.11    -0.04   0.17  -0.00
    27   1     0.21  -0.32  -0.15    -0.22   0.07   0.07     0.31  -0.35  -0.09
    28   1     0.05  -0.02  -0.41    -0.07  -0.01   0.22     0.10  -0.03  -0.41
                      4                      5                      6
                      A                      A                      A
 Frequencies --    286.9382               307.5671               329.7228
 Red. masses --      2.3333                 2.4974                 2.5987
 Frc consts  --      0.1132                 0.1392                 0.1665
 IR Inten    --      0.4159                 0.9287                 0.0920
  Atom  AN      X      Y      Z        X      Y      Z        X      Y      Z
     1   8     0.00   0.07  -0.02    -0.02   0.09  -0.06    -0.01  -0.05   0.01
     2   6     0.02   0.00  -0.02    -0.02   0.00   0.03    -0.01  -0.08   0.03
     3   6    -0.02  -0.03  -0.00    -0.05  -0.04   0.04    -0.02  -0.07  -0.01
     4   6     0.04  -0.04   0.05    -0.03   0.04   0.02     0.04   0.08  -0.05
     5   6    -0.01   0.05   0.05    -0.02   0.05   0.00     0.01   0.10   0.06
     6   6    -0.03  -0.12   0.06     0.02   0.17  -0.00    -0.12   0.02   0.09
     7   6    -0.02  -0.06   0.02    -0.03  -0.08   0.05    -0.12  -0.01   0.04
     8   6     0.13  -0.04  -0.01    -0.05  -0.10   0.07     0.04   0.02  -0.02
     9   6    -0.01   0.01   0.02     0.06  -0.10   0.05     0.12  -0.02  -0.05
    10   6    -0.10   0.15  -0.09    -0.03  -0.00  -0.12     0.14   0.01  -0.05
    11   6    -0.07   0.07   0.04     0.08  -0.02  -0.08    -0.07   0.04  -0.10
    12   6     0.06  -0.04  -0.06     0.07  -0.04   0.03     0.04  -0.05   0.07
    13   1    -0.05  -0.02  -0.02    -0.05  -0.06  -0.00     0.03  -0.14  -0.07
    14   1     0.04  -0.15   0.03    -0.04   0.05   0.03     0.06   0.22  -0.05
    15   1     0.11  -0.02   0.14     0.00   0.04  -0.02     0.03   0.06  -0.20
    16   1     0.02   0.11   0.00    -0.04  -0.01   0.06     0.06   0.11   0.15
    17   1     0.00  -0.22   0.17    -0.14   0.40  -0.11    -0.13  -0.03   0.22
    18   1    -0.12  -0.19  -0.06     0.31   0.28   0.08    -0.15  -0.02  -0.00
    19   1    -0.07  -0.03   0.03     0.03  -0.14   0.04    -0.18   0.03   0.05
    20   1     0.26  -0.10  -0.13    -0.11  -0.11   0.15     0.08  -0.08  -0.02
    21   1     0.23   0.05   0.13    -0.11  -0.07  -0.05     0.05   0.17  -0.05
    22   1    -0.09  -0.01   0.10     0.08  -0.10   0.08     0.10  -0.02  -0.07
    23   1    -0.32   0.04  -0.21    -0.30  -0.05  -0.18     0.19   0.08   0.03
    24   1    -0.03   0.35  -0.23     0.05   0.20  -0.28     0.16  -0.12  -0.03
    25   1    -0.09   0.07  -0.00     0.13  -0.03   0.06    -0.17  -0.03  -0.41
    26   1    -0.08  -0.02   0.05     0.20  -0.06  -0.15    -0.34   0.02   0.10
    27   1     0.22  -0.15  -0.04     0.12  -0.09   0.04    -0.13   0.02   0.05
    28   1     0.03  -0.01  -0.25     0.09   0.01  -0.03     0.08  -0.06   0.24
                      7                      8                      9
                      A                      A                      A
 Frequencies --    376.6610               397.0151               429.1918
 Red. masses --      2.2735                 2.6585                 3.2719
 Frc consts  --      0.1900                 0.2469                 0.3551
 IR Inten    --      0.3082                 0.5630                 0.3045
  Atom  AN      X      Y      Z        X      Y      Z        X      Y      Z
     1   8     0.09  -0.01   0.02     0.14  -0.03   0.07    -0.07   0.06  -0.06
     2   6     0.07   0.05   0.01     0.13   0.00   0.04    -0.09   0.07   0.03
     3   6     0.07   0.06   0.00     0.01  -0.06   0.05    -0.01   0.06   0.10
     4   6    -0.01   0.12  -0.09    -0.06  -0.06   0.03     0.05   0.10   0.13
     5   6     0.04  -0.05   0.05    -0.08   0.02  -0.03     0.08   0.10   0.02
     6   6     0.03  -0.04   0.06    -0.07  -0.07  -0.02     0.11  -0.11   0.04
     7   6     0.03  -0.00   0.04    -0.03  -0.03   0.00     0.10  -0.09   0.07
     8   6    -0.08  -0.01   0.04    -0.16  -0.02  -0.07    -0.06  -0.12  -0.08
     9   6    -0.03   0.00   0.03     0.05   0.06  -0.04    -0.02  -0.10  -0.10
    10   6    -0.09  -0.06  -0.05     0.03   0.10  -0.07     0.03  -0.03  -0.03
    11   6    -0.11  -0.08  -0.01     0.04   0.05   0.00     0.02   0.05  -0.08
    12   6     0.03   0.03  -0.05     0.04   0.06   0.03    -0.10   0.04  -0.05
    13   1     0.06   0.04  -0.05    -0.07  -0.00   0.04    -0.01   0.03   0.05
    14   1     0.04   0.48  -0.06    -0.14  -0.13   0.05     0.04  -0.02   0.12
    15   1    -0.23   0.06  -0.39     0.04  -0.04   0.07     0.11   0.12   0.22
    16   1     0.04  -0.05   0.05    -0.09   0.03  -0.05     0.02   0.06  -0.05
    17   1     0.06  -0.07   0.06     0.00  -0.18   0.03     0.17  -0.27   0.22
    18   1    -0.02  -0.05   0.07    -0.18  -0.14  -0.11    -0.01  -0.22  -0.16
    19   1    -0.00  -0.02   0.02    -0.02   0.03   0.04     0.12  -0.05   0.10
    20   1    -0.17   0.06   0.12    -0.39   0.02   0.19    -0.23   0.08   0.02
    21   1    -0.15  -0.11  -0.05    -0.34  -0.13  -0.34    -0.18  -0.25  -0.23
    22   1     0.01   0.01   0.04     0.05   0.05   0.02     0.02  -0.12  -0.01
    23   1    -0.21  -0.12  -0.12    -0.05   0.05  -0.12     0.14   0.08   0.10
    24   1    -0.02   0.03  -0.16     0.04   0.19  -0.11    -0.03  -0.17   0.09
    25   1    -0.18  -0.01  -0.17     0.09  -0.03   0.13    -0.04   0.07  -0.23
    26   1    -0.23  -0.18   0.09     0.15   0.07  -0.08    -0.12  -0.01   0.01
    27   1     0.16  -0.05  -0.04    -0.15   0.18   0.01    -0.23   0.06  -0.07
    28   1     0.00   0.04  -0.20     0.01  -0.04   0.25    -0.03   0.08   0.09
                     10                     11                     12
                      A                      A                      A
 Frequencies --    458.9013               483.2067               520.7868
 Red. masses --      3.9833                 2.5317                 2.7673
 Frc consts  --      0.4942                 0.3483                 0.4422
 IR Inten    --      8.9664                 2.1579                 1.1069
  Atom  AN      X      Y      Z        X      Y      Z        X      Y      Z
     1   8    -0.05   0.26  -0.11    -0.02   0.04  -0.03     0.12   0.12   0.04
     2   6     0.01  -0.12   0.09    -0.01  -0.03   0.04     0.17  -0.01  -0.06
     3   6     0.03  -0.18   0.06     0.03   0.02  -0.00     0.03  -0.05   0.05
     4   6     0.01  -0.04  -0.07     0.08  -0.01  -0.00    -0.01   0.03   0.01
     5   6     0.03  -0.07   0.02     0.06   0.04  -0.08    -0.04   0.07  -0.02
     6   6     0.08  -0.02  -0.00    -0.08  -0.06  -0.05    -0.06   0.04   0.01
     7   6     0.08   0.05  -0.03    -0.02   0.12   0.02    -0.04  -0.03   0.08
     8   6    -0.05   0.08  -0.09    -0.07   0.11   0.14     0.04  -0.01  -0.01
     9   6    -0.03   0.07  -0.06    -0.01  -0.01   0.08    -0.12  -0.08  -0.06
    10   6    -0.02   0.05   0.03    -0.05  -0.09  -0.03    -0.10  -0.11   0.03
    11   6    -0.05  -0.01   0.10     0.06  -0.01  -0.13     0.01   0.02  -0.07
    12   6     0.01  -0.14   0.10     0.04  -0.07   0.07    -0.04  -0.02  -0.06
    13   1     0.17  -0.25   0.15     0.11  -0.03   0.02    -0.06  -0.02  -0.01
    14   1     0.02   0.26  -0.03     0.03  -0.17   0.00    -0.07   0.08   0.04
    15   1    -0.06  -0.09  -0.37     0.16   0.02   0.14     0.05   0.02  -0.08
    16   1     0.05  -0.01  -0.03     0.08   0.01  -0.00    -0.03   0.05   0.04
    17   1     0.10  -0.00  -0.08     0.12  -0.38   0.15    -0.07   0.02   0.06
    18   1     0.06   0.01   0.08    -0.44  -0.21  -0.21    -0.03   0.02  -0.07
    19   1     0.13   0.17   0.03     0.01   0.05  -0.01    -0.02  -0.02   0.09
    20   1    -0.15   0.13   0.01    -0.11   0.12   0.19     0.26  -0.01  -0.30
    21   1    -0.12  -0.04  -0.17    -0.11   0.07   0.07     0.22   0.14   0.24
    22   1    -0.13   0.08  -0.12     0.02   0.03  -0.07    -0.08  -0.07  -0.07
    23   1     0.04  -0.02  -0.04    -0.13  -0.04   0.02     0.10   0.03   0.20
    24   1    -0.04   0.08   0.05    -0.00  -0.11  -0.09    -0.18  -0.32   0.19
    25   1    -0.08   0.00   0.02     0.09   0.08  -0.02     0.08   0.07   0.14
    26   1    -0.11  -0.00   0.14     0.15  -0.05  -0.19     0.17   0.01  -0.18
    27   1    -0.20  -0.12   0.08     0.19  -0.20   0.08    -0.18   0.22  -0.06
    28   1    -0.04  -0.25   0.23     0.02  -0.03  -0.13    -0.12  -0.21   0.20
                     13                     14                     15
                      A                      A                      A
 Frequencies --    579.4620               680.6776               710.2623
 Red. masses --      2.7329                 3.5120                 2.9646
 Frc consts  --      0.5407                 0.9587                 0.8812
 IR Inten    --      0.5254                 0.2293                 1.3886
  Atom  AN      X      Y      Z        X      Y      Z        X      Y      Z
     1   8     0.09  -0.01  -0.05    -0.08  -0.03   0.00     0.05   0.04  -0.02
     2   6    -0.02   0.10   0.26    -0.05  -0.03  -0.08     0.01   0.07   0.08
     3   6    -0.01  -0.04  -0.00    -0.00  -0.18   0.07     0.06   0.07   0.00
     4   6     0.04  -0.02  -0.02     0.00  -0.12  -0.04    -0.01  -0.11  -0.09
     5   6     0.03   0.00  -0.00     0.01  -0.03  -0.00     0.05  -0.12  -0.07
     6   6    -0.04   0.02   0.01     0.05  -0.03   0.06    -0.06  -0.01  -0.01
     7   6    -0.06  -0.07  -0.06     0.03  -0.07   0.15    -0.03  -0.02   0.14
     8   6     0.00  -0.04  -0.11    -0.01   0.04   0.10    -0.03   0.03   0.11
     9   6    -0.05   0.10  -0.03    -0.03   0.19   0.05    -0.06  -0.11  -0.06
    10   6    -0.03  -0.03  -0.00     0.04   0.06  -0.06     0.11   0.11   0.01
    11   6     0.01  -0.02  -0.04     0.04   0.01  -0.15     0.09   0.05  -0.02
    12   6    -0.05   0.06   0.07    -0.05   0.17  -0.09    -0.12  -0.04  -0.04
    13   1    -0.01  -0.08  -0.08    -0.05  -0.15   0.07    -0.00   0.09  -0.04
    14   1     0.05  -0.09  -0.03    -0.04   0.21   0.01    -0.07  -0.10  -0.07
    15   1     0.07  -0.01   0.05    -0.02  -0.17  -0.39    -0.11  -0.11  -0.03
    16   1     0.07   0.01   0.06     0.06  -0.01   0.05     0.12  -0.10   0.04
    17   1    -0.13   0.10   0.05     0.05  -0.00   0.04    -0.07   0.06  -0.15
    18   1     0.05   0.05   0.03     0.13  -0.03   0.02     0.03   0.05   0.10
    19   1    -0.06   0.02  -0.01     0.08  -0.03   0.18    -0.02  -0.13   0.08
    20   1     0.09  -0.14  -0.16     0.01   0.03   0.08     0.05   0.11  -0.06
    21   1     0.07   0.01  -0.01     0.02   0.04   0.15     0.03   0.14   0.19
    22   1     0.05   0.09   0.06     0.04   0.18   0.11    -0.13  -0.12  -0.09
    23   1     0.20   0.04   0.08     0.25   0.18   0.08    -0.09   0.05  -0.06
    24   1    -0.08  -0.23   0.12     0.05  -0.22   0.01     0.04   0.36   0.02
    25   1     0.03   0.04   0.05     0.09  -0.01   0.00    -0.04  -0.03  -0.41
    26   1     0.08  -0.05  -0.09     0.16  -0.04  -0.23    -0.26   0.17   0.22
    27   1     0.16  -0.53   0.06     0.13   0.19  -0.06    -0.23  -0.17  -0.07
    28   1    -0.04   0.23  -0.43    -0.13   0.11  -0.21    -0.08   0.02  -0.02
                     16                     17                     18
                      A                      A                      A
 Frequencies --    726.3215               747.5587               773.2466
 Red. masses --      3.1929                 2.7905                 2.5264
 Frc consts  --      0.9924                 0.9188                 0.8900
 IR Inten    --      0.8291                 1.6725                 0.6278
  Atom  AN      X      Y      Z        X      Y      Z        X      Y      Z
     1   8     0.02   0.00   0.02    -0.03  -0.03  -0.01     0.02   0.01  -0.00
     2   6     0.04  -0.05  -0.03    -0.06   0.03   0.04     0.02  -0.02   0.02
     3   6    -0.11  -0.05   0.12     0.02  -0.10   0.11    -0.04  -0.04  -0.06
     4   6    -0.00   0.11   0.15     0.10  -0.04  -0.04     0.06   0.14   0.02
     5   6     0.20  -0.09  -0.06     0.02   0.05  -0.04    -0.05   0.05  -0.04
     6   6    -0.02  -0.01  -0.10    -0.10   0.07  -0.13     0.08  -0.07  -0.08
     7   6    -0.11  -0.01  -0.13     0.00   0.02   0.07    -0.05  -0.11   0.09
     8   6    -0.05  -0.03  -0.02    -0.01  -0.00  -0.04    -0.04   0.10   0.10
     9   6    -0.06   0.10   0.06     0.06  -0.07  -0.03    -0.00   0.11  -0.05
    10   6     0.02   0.02   0.05    -0.03  -0.10   0.06     0.05  -0.05  -0.03
    11   6     0.10  -0.03  -0.04    -0.03  -0.01   0.14    -0.03  -0.07   0.10
    12   6     0.02   0.01  -0.03     0.02   0.15  -0.08    -0.03  -0.02  -0.02
    13   1    -0.12  -0.06   0.09     0.05  -0.14   0.09    -0.06  -0.15  -0.30
    14   1    -0.06   0.18   0.18     0.02   0.07   0.00     0.09  -0.17  -0.04
    15   1    -0.09   0.09   0.05     0.19  -0.05  -0.20     0.26   0.19   0.26
    16   1     0.07  -0.24  -0.06     0.13   0.13   0.06    -0.17   0.01  -0.20
    17   1    -0.11   0.03   0.03     0.01  -0.09  -0.07     0.01   0.06  -0.19
    18   1    -0.07   0.02   0.02    -0.23  -0.01  -0.23     0.30  -0.03  -0.13
    19   1     0.06   0.03  -0.08     0.23   0.07   0.14    -0.05  -0.18   0.06
    20   1     0.15  -0.23  -0.15     0.06   0.02  -0.14     0.02   0.06   0.04
    21   1     0.10   0.02   0.21     0.04   0.12  -0.00    -0.00   0.19   0.14
    22   1    -0.06   0.10   0.07     0.22  -0.06   0.01     0.01   0.14  -0.20
    23   1    -0.13  -0.07  -0.06    -0.28  -0.27  -0.13     0.09  -0.19  -0.19
    24   1     0.04   0.21  -0.03     0.00   0.23  -0.08     0.06   0.05  -0.07
    25   1    -0.05   0.12  -0.42    -0.06   0.04   0.07    -0.04  -0.12   0.06
    26   1    -0.23  -0.04   0.19    -0.08   0.07   0.17    -0.05  -0.05   0.11
    27   1     0.01   0.18  -0.02    -0.02   0.17  -0.09    -0.11  -0.07  -0.04
    28   1    -0.08  -0.14   0.05     0.13   0.26   0.02    -0.07  -0.08  -0.01
                     19                     20                     21
                      A                      A                      A
 Frequencies --    807.3836               845.0570               881.5484
 Red. masses --      2.7473                 3.0031                 2.2346
 Frc consts  --      1.0552                 1.2636                 1.0232
 IR Inten    --      1.8158                 1.5322                 1.4784
  Atom  AN      X      Y      Z        X      Y      Z        X      Y      Z
     1   8    -0.01  -0.04   0.01     0.05  -0.01   0.01     0.03  -0.02   0.00
     2   6    -0.03   0.03   0.02     0.02   0.03   0.01    -0.01   0.07   0.06
     3   6    -0.08  -0.00   0.00    -0.10  -0.14  -0.08    -0.13   0.02   0.01
     4   6    -0.02  -0.02  -0.03    -0.14  -0.06  -0.02     0.02  -0.08   0.03
     5   6     0.09  -0.07  -0.09    -0.05   0.13   0.07     0.08   0.00   0.07
     6   6     0.10  -0.10   0.07     0.17   0.02   0.09     0.06   0.03  -0.08
     7   6    -0.09  -0.02   0.08     0.04   0.04  -0.11    -0.03  -0.02  -0.08
     8   6    -0.02   0.12  -0.07    -0.06   0.07   0.03    -0.02   0.02   0.14
     9   6     0.06  -0.06  -0.04    -0.03  -0.07   0.01     0.04  -0.03  -0.07
    10   6    -0.13  -0.04   0.06     0.04  -0.10   0.02    -0.01   0.05  -0.07
    11   6    -0.01   0.11  -0.04     0.10   0.04  -0.01    -0.08   0.03   0.04
    12   6     0.14   0.01   0.03    -0.05   0.05   0.02     0.03  -0.04  -0.04
    13   1    -0.13  -0.02  -0.10    -0.21  -0.00   0.02    -0.24   0.12   0.05
    14   1    -0.06  -0.08  -0.03    -0.10  -0.06  -0.03     0.19   0.26  -0.00
    15   1    -0.07  -0.02   0.04     0.05  -0.06  -0.10    -0.20  -0.14  -0.23
    16   1     0.05  -0.04  -0.24    -0.16   0.07  -0.02     0.17   0.13   0.03
    17   1    -0.05   0.14  -0.04     0.28  -0.17   0.24     0.11  -0.12   0.08
    18   1     0.34   0.02   0.22    -0.08  -0.10  -0.07    -0.11  -0.05  -0.17
    19   1    -0.20   0.08   0.11     0.01   0.04  -0.12     0.11  -0.20  -0.14
    20   1    -0.02   0.17  -0.10     0.08   0.04  -0.14     0.03  -0.06   0.12
    21   1    -0.03   0.29  -0.14     0.05   0.08   0.20    -0.00   0.08   0.14
    22   1     0.09  -0.04  -0.11     0.12  -0.02  -0.14    -0.06  -0.02  -0.17
    23   1    -0.19   0.02   0.12    -0.28  -0.16  -0.06     0.21   0.14   0.04
    24   1    -0.13  -0.02   0.05     0.04   0.23  -0.07    -0.03  -0.21   0.03
    25   1    -0.01   0.33   0.03    -0.01  -0.04  -0.33     0.00   0.05   0.27
    26   1     0.03   0.13  -0.07    -0.19   0.07   0.19     0.15  -0.09  -0.11
    27   1     0.05   0.11   0.03     0.09  -0.10   0.03    -0.24  -0.01  -0.08
    28   1     0.25   0.11   0.18    -0.04   0.11  -0.15     0.11  -0.01   0.18
                     22                     23                     24
                      A                      A                      A
 Frequencies --    906.7062               910.9877               932.2958
 Red. masses --      2.1715                 2.2526                 2.0765
 Frc consts  --      1.0518                 1.1014                 1.0634
 IR Inten    --      4.3206                 1.2439                 0.5863
  Atom  AN      X      Y      Z        X      Y      Z        X      Y      Z
     1   8     0.02  -0.01   0.03    -0.01   0.01   0.00    -0.00  -0.03  -0.00
     2   6     0.04   0.03  -0.12     0.00   0.00  -0.05    -0.03   0.03   0.06
     3   6    -0.12  -0.01  -0.03     0.10  -0.02  -0.04    -0.07  -0.01  -0.03
     4   6     0.01  -0.01   0.02     0.06   0.01   0.15     0.03   0.04  -0.07
     5   6     0.04   0.01   0.04    -0.06  -0.06  -0.02    -0.05  -0.03   0.06
     6   6    -0.05   0.01  -0.11     0.08  -0.00  -0.04     0.03   0.04  -0.02
     7   6     0.04  -0.02   0.10    -0.10   0.04   0.02     0.05   0.02   0.06
     8   6     0.07   0.04  -0.06    -0.10  -0.00  -0.05    -0.08  -0.02  -0.06
     9   6    -0.02  -0.03  -0.01     0.01  -0.10   0.01    -0.08  -0.02   0.03
    10   6    -0.03   0.02  -0.02     0.06   0.07  -0.02     0.00   0.10   0.03
    11   6     0.05  -0.01   0.03    -0.06  -0.00  -0.01     0.02  -0.09  -0.07
    12   6    -0.04  -0.02   0.15    -0.04   0.04   0.08     0.13  -0.00  -0.01
    13   1    -0.36   0.09  -0.16     0.08  -0.02  -0.07    -0.05  -0.10  -0.16
    14   1     0.10   0.13   0.00     0.07   0.37   0.19     0.23  -0.18  -0.18
    15   1    -0.03  -0.04  -0.12    -0.05  -0.05  -0.22     0.06   0.08   0.18
    16   1     0.09  -0.00   0.16    -0.15  -0.05  -0.21    -0.06  -0.12   0.18
    17   1    -0.01  -0.00  -0.15     0.21  -0.11  -0.11     0.23  -0.14  -0.12
    18   1     0.02   0.00  -0.18    -0.06  -0.04  -0.03    -0.14  -0.03  -0.07
    19   1     0.18   0.04   0.16    -0.13   0.01  -0.00     0.17   0.06   0.10
    20   1    -0.15   0.24   0.10     0.13  -0.11  -0.27     0.09   0.08  -0.34
    21   1    -0.09  -0.03  -0.31     0.06   0.32   0.10     0.08   0.04   0.19
    22   1    -0.04  -0.03   0.00     0.03  -0.13   0.11    -0.22  -0.06   0.15
    23   1     0.12   0.05   0.02     0.00   0.12   0.04    -0.01   0.17   0.11
    24   1    -0.14  -0.04   0.13     0.05   0.03  -0.00    -0.00   0.01   0.06
    25   1    -0.02   0.01  -0.16     0.02  -0.17   0.16     0.03  -0.20  -0.07
    26   1    -0.10  -0.08   0.13     0.09   0.07  -0.11     0.01  -0.15  -0.05
    27   1     0.32  -0.18   0.18     0.18  -0.16   0.10    -0.02   0.22  -0.01
    28   1    -0.08   0.04  -0.24     0.01   0.18  -0.17     0.19  -0.01   0.24
                     25                     26                     27
                      A                      A                      A
 Frequencies --    964.2092               979.6925               988.8228
 Red. masses --      2.6237                 2.3150                 2.4911
 Frc consts  --      1.4372                 1.3091                 1.4351
 IR Inten    --      2.0790                 0.6136                 2.5606
  Atom  AN      X      Y      Z        X      Y      Z        X      Y      Z
     1   8    -0.03  -0.00   0.00    -0.05  -0.01  -0.01    -0.00  -0.00   0.01
     2   6    -0.00   0.00  -0.05    -0.03  -0.02  -0.01     0.01   0.01  -0.04
     3   6     0.03   0.14   0.03     0.15   0.01  -0.03    -0.03   0.10   0.17
     4   6    -0.06  -0.09  -0.06    -0.10  -0.01   0.03     0.10  -0.06  -0.10
     5   6     0.07   0.07  -0.06     0.02   0.03   0.05    -0.06   0.09   0.06
     6   6     0.08   0.09   0.01    -0.04  -0.01  -0.05     0.02  -0.15  -0.03
     7   6    -0.04  -0.07   0.11     0.01  -0.07  -0.02    -0.05   0.02  -0.07
     8   6    -0.08  -0.06  -0.10    -0.07   0.00   0.05    -0.07   0.02  -0.02
     9   6    -0.01   0.13   0.01    -0.04   0.01  -0.10    -0.06  -0.03   0.05
    10   6     0.05  -0.05   0.02    -0.07   0.01  -0.09     0.05  -0.03  -0.05
    11   6    -0.02  -0.04   0.03     0.08   0.02   0.06     0.03   0.01   0.00
    12   6     0.03  -0.09   0.07     0.13   0.05   0.07     0.01  -0.01   0.04
    13   1    -0.09   0.23   0.02     0.26  -0.01   0.08    -0.02   0.20   0.37
    14   1    -0.15  -0.03  -0.02    -0.27  -0.05   0.10     0.15   0.01  -0.11
    15   1    -0.20  -0.10  -0.04    -0.06  -0.00   0.05     0.20  -0.05  -0.15
    16   1     0.19   0.14   0.04     0.04   0.02   0.13     0.03   0.23   0.01
    17   1     0.17  -0.16   0.32    -0.05   0.02  -0.07    -0.18   0.20  -0.29
    18   1    -0.09  -0.09  -0.33     0.02   0.00  -0.07     0.42   0.00   0.08
    19   1    -0.06  -0.06   0.12     0.00  -0.24  -0.11    -0.12   0.12  -0.04
    20   1     0.11  -0.18  -0.26     0.07  -0.03  -0.11     0.05  -0.03  -0.14
    21   1     0.08   0.13   0.10     0.03   0.09   0.18     0.02  -0.02   0.14
    22   1    -0.05   0.11   0.05     0.02   0.04  -0.20    -0.04  -0.01  -0.02
    23   1    -0.00  -0.24  -0.19     0.26   0.10   0.02     0.02   0.02   0.01
    24   1     0.13   0.09  -0.12    -0.28  -0.15   0.21     0.06  -0.07  -0.06
    25   1    -0.01   0.04   0.11    -0.04   0.08  -0.25     0.02  -0.15  -0.07
    26   1     0.05   0.06  -0.03    -0.16  -0.15   0.24    -0.02  -0.10   0.04
    27   1    -0.01  -0.09   0.06     0.19   0.10   0.08     0.19   0.11   0.08
    28   1    -0.04  -0.16   0.02     0.20   0.14   0.04    -0.03  -0.04  -0.03
                     28                     29                     30
                      A                      A                      A
 Frequencies --    996.3376              1036.8320              1055.2527
 Red. masses --      2.1834                 2.0028                 1.9530
 Frc consts  --      1.2770                 1.2686                 1.2813
 IR Inten    --      4.3805                 4.4783                 5.2433
  Atom  AN      X      Y      Z        X      Y      Z        X      Y      Z
     1   8    -0.02  -0.01  -0.01    -0.00  -0.02   0.01     0.00   0.01   0.00
     2   6    -0.03   0.05   0.03    -0.01   0.05  -0.05     0.02  -0.05  -0.01
     3   6     0.06   0.03  -0.07    -0.04  -0.03   0.01    -0.02  -0.00  -0.04
     4   6     0.04  -0.05   0.12     0.03   0.03   0.01    -0.05   0.03   0.01
     5   6    -0.07   0.03   0.06     0.02  -0.02  -0.11     0.04  -0.04   0.10
     6   6    -0.06  -0.04  -0.03    -0.08   0.01   0.10    -0.06  -0.06  -0.04
     7   6     0.05  -0.11  -0.03     0.11  -0.02  -0.03     0.09   0.02   0.02
     8   6     0.01   0.07  -0.02    -0.04   0.00   0.03    -0.11  -0.01  -0.02
     9   6    -0.03   0.06  -0.00    -0.09  -0.03  -0.05     0.05   0.02   0.02
    10   6     0.01  -0.04   0.12     0.09  -0.00  -0.04     0.04  -0.07  -0.03
    11   6     0.02   0.01  -0.11    -0.07   0.00   0.03    -0.04   0.14  -0.01
    12   6     0.05  -0.04  -0.01     0.05   0.01   0.08    -0.04   0.00   0.00
    13   1    -0.01   0.08  -0.07    -0.13   0.01  -0.03    -0.01  -0.05  -0.13
    14   1     0.16   0.35   0.13    -0.03   0.03   0.04     0.06  -0.08  -0.05
    15   1    -0.14  -0.12  -0.22     0.12   0.02  -0.06    -0.22   0.04   0.20
    16   1    -0.02  -0.01   0.22    -0.04   0.02  -0.29     0.19   0.06   0.23
    17   1    -0.20   0.09  -0.00    -0.28   0.11   0.33    -0.02   0.04  -0.32
    18   1     0.20  -0.04  -0.20    -0.09   0.06   0.24     0.02   0.05   0.17
    19   1    -0.04  -0.12  -0.05     0.29  -0.01   0.01     0.28   0.03   0.07
    20   1    -0.04   0.21  -0.04     0.03   0.16  -0.17     0.11  -0.05  -0.28
    21   1    -0.01  -0.11   0.00     0.04  -0.22   0.25     0.07   0.05   0.25
    22   1    -0.09   0.10  -0.20    -0.19  -0.00  -0.22     0.26   0.04   0.04
    23   1    -0.33  -0.13   0.01     0.10  -0.10  -0.15    -0.09  -0.02   0.02
    24   1     0.08   0.26  -0.07     0.08   0.05  -0.06     0.20  -0.11  -0.21
    25   1     0.06  -0.08  -0.04    -0.01  -0.05   0.17    -0.00   0.26   0.14
    26   1     0.02   0.17  -0.12     0.07   0.16  -0.08     0.08   0.07  -0.09
    27   1    -0.15  -0.01  -0.04     0.16   0.02   0.10    -0.06  -0.14  -0.01
    28   1     0.12   0.00   0.14     0.12   0.12  -0.00    -0.09  -0.05  -0.07
                     31                     32                     33
                      A                      A                      A
 Frequencies --   1061.4080              1096.5768              1121.4450
 Red. masses --      2.0073                 1.9695                 1.7273
 Frc consts  --      1.3324                 1.3954                 1.2799
 IR Inten    --      0.3364                 9.8521                10.5239
  Atom  AN      X      Y      Z        X      Y      Z        X      Y      Z
     1   8     0.01   0.01  -0.00    -0.00   0.02   0.01    -0.01  -0.01   0.01
     2   6     0.00  -0.01   0.01     0.03  -0.09  -0.05    -0.01   0.09  -0.09
     3   6     0.04  -0.03  -0.00    -0.02   0.04   0.11     0.04  -0.02   0.03
     4   6    -0.09   0.02  -0.01     0.02   0.04  -0.07     0.01   0.02  -0.03
     5   6     0.11   0.06   0.01    -0.03  -0.07   0.04    -0.01   0.02   0.00
     6   6    -0.01  -0.03  -0.03     0.02   0.05   0.01    -0.02  -0.02   0.02
     7   6     0.00  -0.06  -0.04     0.01  -0.10  -0.06     0.04  -0.03  -0.03
     8   6    -0.00   0.12  -0.03    -0.01   0.04   0.02    -0.06   0.01  -0.00
     9   6    -0.01  -0.10   0.08     0.04  -0.02  -0.09     0.12   0.03   0.00
    10   6     0.06   0.07   0.02    -0.02   0.03   0.07    -0.07   0.05   0.06
    11   6    -0.07  -0.09   0.01    -0.04  -0.00  -0.06     0.02  -0.07  -0.02
    12   6    -0.05   0.02  -0.02    -0.04   0.06   0.05    -0.04  -0.06   0.01
    13   1     0.09  -0.06   0.02     0.11  -0.02   0.17    -0.19   0.16   0.04
    14   1    -0.31  -0.14   0.06     0.29  -0.16  -0.21    -0.23  -0.05   0.07
    15   1    -0.07   0.04   0.12    -0.10   0.07   0.22     0.39   0.04  -0.14
    16   1     0.23   0.13   0.11    -0.03  -0.16   0.19    -0.10  -0.06  -0.03
    17   1    -0.23   0.09   0.20     0.02  -0.07   0.23    -0.05   0.03  -0.01
    18   1     0.19  -0.03  -0.18    -0.09  -0.03  -0.11    -0.05   0.03   0.18
    19   1    -0.02  -0.08  -0.06     0.10  -0.33  -0.15     0.30   0.00   0.04
    20   1    -0.05   0.34  -0.11     0.02  -0.00   0.02     0.08  -0.22  -0.04
    21   1    -0.04   0.17  -0.11    -0.03   0.19  -0.07     0.02   0.22   0.06
    22   1    -0.13  -0.13   0.18     0.17   0.03  -0.19     0.05   0.04  -0.06
    23   1    -0.06   0.11   0.07    -0.14   0.03   0.06    -0.13   0.15   0.18
    24   1     0.21  -0.06  -0.12    -0.11   0.21   0.12    -0.02  -0.03   0.03
    25   1    -0.00  -0.09   0.18     0.02  -0.09   0.08    -0.01   0.03  -0.06
    26   1     0.13  -0.29  -0.12     0.03   0.22  -0.12    -0.01  -0.28   0.01
    27   1     0.07   0.09  -0.00     0.20  -0.03   0.08    -0.30  -0.35  -0.05
    28   1    -0.02   0.05  -0.02    -0.08   0.07  -0.17     0.08   0.08   0.02
                     34                     35                     36
                      A                      A                      A
 Frequencies --   1133.2618              1167.6450              1181.0621
 Red. masses --      1.3914                 2.0849                 1.0844
 Frc consts  --      1.0528                 1.6748                 0.8912
 IR Inten    --      3.9302                11.0157                 0.4052
  Atom  AN      X      Y      Z        X      Y      Z        X      Y      Z
     1   8     0.01  -0.00   0.01    -0.00  -0.01  -0.00     0.00   0.00  -0.00
     2   6    -0.00   0.03  -0.04    -0.04   0.14   0.00    -0.01   0.02   0.01
     3   6     0.01  -0.04   0.02     0.07  -0.03   0.06     0.04   0.00   0.00
     4   6    -0.02   0.04  -0.02     0.02   0.02  -0.02    -0.02  -0.02  -0.00
     5   6     0.03   0.01   0.02    -0.05  -0.08   0.04     0.00   0.01   0.01
     6   6     0.02  -0.02   0.00     0.01   0.05   0.01     0.01  -0.02  -0.03
     7   6    -0.04   0.04  -0.00    -0.03  -0.11  -0.05    -0.01   0.01   0.01
     8   6     0.03  -0.04   0.03     0.03   0.07  -0.04    -0.01   0.01  -0.01
     9   6    -0.03  -0.00  -0.08    -0.03  -0.01   0.09     0.02  -0.02   0.01
    10   6     0.03   0.01   0.06     0.03  -0.05  -0.06    -0.01   0.01  -0.00
    11   6    -0.05  -0.02  -0.05     0.01   0.09   0.02     0.01  -0.00   0.01
    12   6     0.00   0.01   0.04    -0.02  -0.08  -0.02    -0.02  -0.01  -0.01
    13   1    -0.00  -0.07  -0.04    -0.03  -0.06  -0.14     0.07  -0.13  -0.22
    14   1    -0.31  -0.09   0.09    -0.14  -0.06   0.04     0.19  -0.01  -0.09
    15   1     0.07   0.05   0.05     0.15   0.04   0.01    -0.26  -0.03   0.11
    16   1     0.26   0.07   0.35    -0.02  -0.11   0.15    -0.06   0.04  -0.14
    17   1     0.19  -0.05  -0.30     0.24  -0.13  -0.13    -0.22   0.09   0.28
    18   1     0.08  -0.02  -0.02    -0.24   0.02   0.12     0.11  -0.03  -0.13
    19   1    -0.16   0.21   0.06     0.15  -0.09  -0.01     0.28   0.38   0.25
    20   1     0.01  -0.24   0.18    -0.02  -0.11   0.13     0.04  -0.37   0.17
    21   1     0.01  -0.22   0.05    -0.05   0.24  -0.22     0.01  -0.02   0.04
    22   1    -0.22   0.03  -0.33    -0.29   0.01  -0.14    -0.02   0.04  -0.28
    23   1    -0.06  -0.09  -0.05     0.08  -0.06  -0.06    -0.06   0.09   0.09
    24   1     0.03   0.17   0.01     0.13  -0.15  -0.15    -0.04   0.00   0.04
    25   1     0.01   0.00   0.13    -0.01   0.17  -0.00     0.01  -0.13  -0.02
    26   1     0.09   0.06  -0.15    -0.02   0.14   0.04    -0.01  -0.03   0.02
    27   1     0.04  -0.03   0.04     0.23   0.37   0.05     0.12   0.14   0.02
    28   1     0.12   0.18  -0.01    -0.09  -0.17   0.02    -0.02  -0.01  -0.01
                     37                     38                     39
                      A                      A                      A
 Frequencies --   1203.2839              1225.1687              1238.7827
 Red. masses --      1.2371                 1.3575                 1.1765
 Frc consts  --      1.0553                 1.2005                 1.0637
 IR Inten    --      2.8041                 2.9684                 2.1477
  Atom  AN      X      Y      Z        X      Y      Z        X      Y      Z
     1   8     0.01   0.00   0.01    -0.00   0.01  -0.01     0.00  -0.00  -0.00
     2   6     0.00   0.01  -0.04     0.00  -0.06   0.06    -0.01   0.03   0.01
     3   6     0.04  -0.04   0.00    -0.01   0.03  -0.04     0.00  -0.03  -0.04
     4   6    -0.05   0.00  -0.01    -0.01  -0.03   0.01    -0.03   0.01   0.01
     5   6     0.02  -0.01   0.06     0.04   0.06   0.03     0.01   0.03   0.01
     6   6     0.00   0.01  -0.05    -0.01  -0.02  -0.01    -0.01  -0.05   0.00
     7   6    -0.04   0.00   0.03    -0.01   0.00   0.03     0.02   0.04  -0.00
     8   6     0.02  -0.01  -0.00     0.02  -0.03  -0.01    -0.02  -0.02   0.02
     9   6    -0.03   0.01  -0.01    -0.02   0.01  -0.06     0.00  -0.01  -0.01
    10   6     0.02  -0.01   0.02     0.02  -0.00   0.07    -0.01  -0.00   0.01
    11   6    -0.00   0.03  -0.00    -0.01  -0.02  -0.04    -0.02  -0.03  -0.04
    12   6    -0.00   0.01   0.02    -0.01   0.02   0.01     0.01  -0.01  -0.00
    13   1     0.10   0.07   0.30    -0.06   0.09   0.00     0.03   0.09   0.21
    14   1     0.34  -0.08  -0.19    -0.02   0.04   0.02     0.12   0.00  -0.05
    15   1     0.08   0.02   0.02    -0.01  -0.04  -0.04     0.08   0.01  -0.02
    16   1    -0.30  -0.24  -0.19    -0.09   0.16  -0.35     0.00  -0.08   0.16
    17   1    -0.06   0.01   0.08     0.07  -0.01  -0.21    -0.13   0.07   0.04
    18   1    -0.01  -0.00  -0.08    -0.23   0.09   0.40     0.14  -0.02  -0.02
    19   1    -0.08   0.02   0.03     0.22  -0.25  -0.05     0.22   0.00   0.02
    20   1    -0.03   0.05   0.02     0.00  -0.13   0.08     0.03  -0.19   0.08
    21   1     0.00  -0.08  -0.01    -0.02   0.17  -0.15    -0.03   0.41  -0.14
    22   1    -0.30  -0.02  -0.02    -0.10   0.02  -0.12    -0.13  -0.10   0.32
    23   1    -0.00  -0.08  -0.06    -0.12  -0.04   0.02     0.29  -0.27  -0.29
    24   1     0.23  -0.11  -0.20     0.08   0.11  -0.04    -0.18   0.16   0.16
    25   1    -0.03   0.35   0.01     0.01   0.02   0.01    -0.00   0.10   0.04
    26   1     0.02  -0.18  -0.01     0.06  -0.33  -0.07     0.00   0.29  -0.07
    27   1    -0.12  -0.15  -0.01     0.26   0.26   0.06     0.02   0.07   0.01
    28   1     0.19   0.24   0.04    -0.10  -0.08  -0.05    -0.04  -0.07  -0.00
                     40                     41                     42
                      A                      A                      A
 Frequencies --   1249.4909              1267.1571              1274.3377
 Red. masses --      1.2840                 1.3152                 1.6901
 Frc consts  --      1.1810                 1.2443                 1.6170
 IR Inten    --      1.6815                 9.4590                 7.1088
  Atom  AN      X      Y      Z        X      Y      Z        X      Y      Z
     1   8     0.00  -0.01  -0.01     0.01  -0.01   0.01     0.01   0.02  -0.00
     2   6    -0.02   0.05   0.04    -0.01   0.08  -0.05     0.02  -0.09   0.03
     3   6    -0.01  -0.03  -0.06     0.00  -0.07   0.01    -0.04   0.03   0.00
     4   6    -0.03   0.02   0.02    -0.03   0.02   0.02     0.03  -0.01   0.03
     5   6     0.04  -0.02  -0.02     0.02   0.03  -0.05    -0.06   0.02  -0.10
     6   6    -0.04   0.02   0.01    -0.03   0.01   0.03    -0.04   0.01   0.07
     7   6     0.05  -0.00   0.04     0.02  -0.03   0.01     0.10  -0.02  -0.02
     8   6    -0.03  -0.01  -0.01     0.00   0.01  -0.01    -0.04   0.03  -0.01
     9   6     0.05  -0.01  -0.01     0.00   0.02   0.03     0.04  -0.02   0.01
    10   6     0.00   0.03  -0.00    -0.01  -0.01  -0.01    -0.03   0.03   0.02
    11   6    -0.03  -0.01   0.02     0.02  -0.02   0.00     0.04  -0.03   0.03
    12   6    -0.02  -0.03  -0.00     0.00  -0.02   0.01    -0.06   0.01  -0.02
    13   1    -0.02   0.20   0.39     0.21  -0.07   0.31    -0.10   0.02  -0.09
    14   1     0.12  -0.00  -0.05     0.35  -0.01  -0.15     0.14   0.10  -0.00
    15   1     0.24   0.03  -0.09    -0.34   0.02   0.18    -0.18  -0.03   0.03
    16   1    -0.05  -0.16   0.03     0.23   0.37  -0.18     0.10   0.03   0.17
    17   1     0.02  -0.02  -0.04     0.14  -0.04  -0.25     0.08  -0.03  -0.13
    18   1     0.10  -0.02  -0.19    -0.11   0.04   0.16     0.11  -0.03  -0.14
    19   1    -0.33   0.06  -0.01    -0.15  -0.06  -0.04    -0.23   0.01  -0.07
    20   1     0.03  -0.07  -0.06     0.00  -0.03   0.01     0.07  -0.31   0.06
    21   1     0.03  -0.10   0.12    -0.01   0.10  -0.06    -0.00   0.17  -0.00
    22   1     0.21   0.07  -0.28    -0.07   0.03  -0.04    -0.33  -0.04  -0.09
    23   1    -0.07   0.12   0.10    -0.04   0.04   0.05     0.12  -0.06  -0.08
    24   1    -0.02   0.02   0.03    -0.07   0.02   0.06     0.17  -0.18  -0.16
    25   1    -0.02   0.08   0.04     0.03  -0.29  -0.04    -0.04   0.32  -0.08
    26   1     0.02  -0.05  -0.02    -0.01   0.04   0.01    -0.03  -0.17   0.08
    27   1     0.26   0.28   0.06    -0.13  -0.12  -0.02     0.13   0.12   0.02
    28   1    -0.25  -0.30  -0.07     0.03   0.01   0.01     0.21   0.33   0.02
                     43                     44                     45
                      A                      A                      A
 Frequencies --   1295.0204              1315.7457              1333.7740
 Red. masses --      1.3446                 1.3187                 1.3510
 Frc consts  --      1.3286                 1.3451                 1.4160
[...]
 .00005541,-0.00001072,-0.00002500,-0.00007804,-0.00001489,0.00012710,-
 0.00005677,0.00007519,-0.00005829,0.00004807,-0.00018820,0.00004806,0.
 00065055,0.00022443,-0.00060395,-0.00042198,-0.00014167,0.00123502,-0.
 00867661,-0.00217045,0.01104719,-0.13293626,-0.02945034,0.19901385,-0.
 00247248,0.00214802,0.00109532,-0.00223221,-0.00477265,-0.00380545,0.0
 0026299,-0.00013333,0.00027185,-0.00012918,-0.00007085,0.00019068,-0.0
 0023574,0.00034566,-0.00005019,0.00016114,0.00023665,0.00001373,0.0005
 5506,-0.00049597,-0.00057265,0.00050593,-0.00302316,0.00166011,-0.0554
 3843,0.03938923,-0.02458943,0.00296842,-0.01913497,0.01582976,-0.00329
 522,0.00078059,0.00169540,-0.01253075,0.02738407,-0.01536571,0.0000395
 8,0.00008806,0.00002888,-0.00000913,-0.00002507,0.00005004,0.00010102,
 0.00000739,-0.00007394,0.00010018,-0.00013310,-0.00005443,0.00005170,0
 .00005167,0.00002200,0.00000791,-0.00003587,-0.00010629,0.00033128,-0.
 00020497,0.00005021,0.00032774,-0.00018888,0.00051790,-0.00000511,0.00
 042758,-0.00012049,0.06914475,0.00007637,0.00012194,0.00017512,-0.0005
 6777,0.00033408,-0.00054447,-0.00056832,0.00083162,-0.00019326,0.00002
 283,0.00006564,-0.00008881,-0.00002533,0.00017470,-0.00036440,0.000265
 47,0.00033100,-0.00019126,-0.00054466,-0.00223940,-0.00589297,0.004806
 34,-0.02512574,0.01244444,0.04028702,-0.22813091,0.10883958,0.00081722
 ,-0.00161909,0.00031445,-0.00069480,0.00137903,-0.00030741,-0.00158488
 ,0.00314689,-0.00144954,0.00007215,0.00007174,0.00004034,0.00000819,-0
 .00000344,0.00007853,-0.00001984,-0.00001992,0.00000536,-0.00002267,0.
 00004053,0.00010112,-0.00009256,0.00005719,0.00005679,-0.00011584,-0.0
 0003557,0.00007679,0.00032005,-0.00181114,0.00070599,-0.00068768,0.000
 78951,0.00026137,0.00049133,0.00102386,-0.00001540,-0.04250961,0.24780
 121,-0.00072503,0.00088695,0.00028318,-0.00061886,-0.00251307,-0.00071
 992,0.00006270,0.00025228,-0.00031808,0.00010142,0.00012853,0.00002816
 ,-0.00002087,-0.00053285,0.00010711,0.00009543,-0.00008736,-0.00023402
 ,-0.00057727,-0.00263805,-0.00336441,0.00420437,-0.02200687,0.01092432
 ,-0.02543453,0.10912394,-0.11257619,-0.00239311,0.02189662,-0.01765370
 ,0.00520867,-0.00120276,-0.00139433,-0.00294741,0.00977623,-0.00474120
 ,0.00003987,0.00002221,0.00007231,0.00002733,-0.00002779,0.00008803,-0
 .00006344,0.00005546,-0.00000200,-0.00004089,0.00013639,0.00009617,-0.
 00006294,0.00003230,0.00002308,-0.00011099,0.00004499,0.00017722,0.000
 20304,-0.00135399,0.00041282,0.00005083,0.00074490,0.00093386,0.000156
 68,0.00062995,0.00106906,0.02354427,-0.11361070,0.12610597,0.00014487,
 -0.00012323,0.00005570,0.00002080,0.00029413,-0.00018805,0.00011732,-0
 .00008002,0.00002951,0.00006858,-0.00022203,0.00011182,0.00098152,0.00
 048701,-0.00171979,-0.00052525,-0.00031060,-0.00003473,-0.00000684,-0.
 00030119,0.00005689,-0.00356401,-0.00154533,0.00241093,-0.00275031,0.0
 2242857,0.01231269,-0.05169483,0.01441345,0.00589207,-0.00101107,0.007
 14302,0.00103605,0.00150086,0.00030068,0.00030813,-0.00002529,-0.00001
 720,-0.00000192,-0.00000523,0.00002842,-0.00003489,0.00003013,0.000007
 71,0.00003017,-0.00011251,0.00048349,0.00002475,0.00036601,0.00010486,
 0.00020591,0.00022236,-0.00005333,0.00007072,0.00001663,0.00007974,-0.
 00006500,0.00032341,-0.00000356,0.00016220,0.00032268,0.00096113,0.001
 11878,0.00116785,-0.00001968,-0.00073652,0.05214071,0.00009922,0.00021
 972,-0.00000245,-0.00006769,-0.00063504,0.00013732,0.00002818,0.000154
 78,-0.00008147,-0.00023727,-0.00028290,0.00012771,-0.00077549,-0.00012
 644,0.00425170,-0.00000489,0.00065547,0.00050747,-0.00022906,0.0002346
 5,0.00035941,0.00002842,0.00147511,0.00002543,-0.00113454,0.00066251,0
 .00146340,0.01464519,-0.25975106,-0.09499990,0.00212790,-0.02211918,-0
 .00779254,0.00007275,0.00050877,-0.00011635,0.00004343,0.00002410,-0.0
 0003482,0.00008768,0.00003382,0.00003162,0.00026961,-0.00001268,-0.000
 06366,0.00038717,-0.00134739,-0.00009254,0.00010462,0.00013007,0.00004
 823,0.00002777,-0.00008486,-0.00002556,0.00008518,0.00004455,-0.000094
 25,0.00000197,0.00000228,0.00012423,0.00002529,-0.00011254,-0.00003322
 ,-0.00012123,0.00174569,-0.00001975,-0.01573635,0.28295337,0.00001050,
 -0.00002093,-0.00002352,-0.00009507,0.00000713,0.00007429,-0.00012742,
 -0.00004844,-0.00004368,0.00034033,0.00042619,-0.00011037,0.00002401,0
 .00168252,-0.00405091,-0.00020633,-0.00035736,-0.00044237,-0.00008463,
 0.00047484,-0.00017705,0.00445630,0.00164780,-0.00251633,0.00180986,-0
 .02130146,-0.01336051,0.00572336,-0.09434164,-0.08694967,-0.00316162,0
 .02682672,0.00799381,-0.00071108,0.00043738,-0.00000263,0.00003378,-0.
 00002457,0.00008520,-0.00004549,-0.00005037,0.00002956,-0.00028262,0.0
 0001533,0.00007690,-0.00019460,0.00130008,0.00008989,0.00023366,-0.000
 04164,0.00013094,0.00009009,-0.00005774,0.00018547,-0.00003628,-0.0001
 4821,0.00012753,0.00003164,0.00028586,0.00036580,0.00028496,-0.0013517
 9,-0.00111936,-0.00025488,-0.00027007,0.00018786,-0.00897775,0.0987848
 3,0.10300884,-0.00049901,0.00088868,-0.00003723,0.00006277,-0.00179304
 ,0.00000783,-0.00000671,0.00010563,-0.00009346,0.00000066,0.00007499,0
 .00018104,-0.00001053,-0.00039419,-0.00049618,-0.00098669,-0.00020676,
 -0.00039689,-0.00020004,0.00019808,0.00031446,0.00038682,-0.00033699,-
 0.00186312,-0.02375740,-0.00399075,-0.00966730,-0.24547437,-0.04041167
 ,-0.09664494,-0.00357667,-0.00078414,-0.00162319,-0.00123075,-0.000771
 98,0.00476756,0.00006635,0.00009465,0.00005039,0.00009379,-0.00000149,
 0.00009223,-0.00000443,0.00005576,-0.00002018,0.00002652,0.00013040,0.
 00006361,0.00091600,-0.00000011,0.00030361,0.00039074,-0.00013435,0.00
 018536,0.00005561,0.00008277,-0.00002403,0.00067996,0.00066178,0.00103
 692,0.00061667,-0.00028416,0.00001988,0.00044016,-0.00039918,0.0002018
 1,0.00210568,-0.00047401,0.00078009,0.26798941,-0.00021733,0.00013095,
 -0.00004838,-0.00017142,-0.00029933,0.00020268,-0.00007984,-0.00000860
 ,0.00004667,0.00004376,-0.00001009,-0.00012531,0.00037183,0.00125112,0
 .00008030,0.00034800,-0.00079609,-0.00003386,0.00006225,0.00008388,-0.
 00013583,0.00081153,0.00038832,0.00011600,0.00075664,-0.00014426,-0.00
 074774,-0.04117731,-0.05945395,-0.02076210,0.01978594,0.00399306,0.011
 78809,0.00028046,0.00120736,-0.00013294,-0.00002156,0.00002152,-0.0000
 4894,-0.00016923,-0.00001073,-0.00005198,-0.00001680,-0.00005112,-0.00
 005524,-0.00010695,0.00015992,-0.00002530,-0.00004651,-0.00130534,-0.0
 0045555,-0.00012108,0.00011762,0.00002541,-0.00004240,0.00003176,-0.00
 000358,0.00006996,0.00021334,-0.00003364,-0.00008354,-0.00005040,0.000
 13161,-0.00007051,-0.00019606,-0.00020307,-0.02795014,-0.00582632,-0.0
 1315436,0.04656066,0.06176958,0.00033891,-0.00055788,0.00001106,0.0003
 0733,0.00102608,0.00010142,0.00004973,-0.00001283,-0.00004443,0.000072
 91,-0.00000869,-0.00006536,0.00018237,-0.00099510,-0.00000696,-0.00050
 074,-0.00003412,-0.00001892,0.00006036,-0.00013127,-0.00002026,0.00101
 662,0.00011351,0.00143152,0.02266602,0.00346547,0.00876575,-0.09662977
 ,-0.02078984,-0.09491911,-0.02162690,-0.00424077,-0.01470896,0.0026136
 7,-0.00001631,-0.00350259,-0.00005002,-0.00005040,0.00003328,0.0001997
 7,-0.00000775,0.00006383,-0.00005033,0.00010570,0.00009981,0.00002045,
 0.00004637,-0.00003032,0.00042766,-0.00027248,0.00044437,0.00021541,-0
 .00003513,0.00018130,0.00001052,-0.00004101,0.00001716,-0.00025840,0.0
 0005496,-0.00022655,-0.00014460,0.00027037,0.00021326,-0.00083030,0.00
 006255,0.00064871,-0.01180493,-0.00270065,-0.00611213,0.10331151,0.020
 62191,0.11014357,-0.00015544,0.00000310,0.00003443,0.00040189,-0.00008
 213,-0.00018058,0.00016255,-0.00004553,-0.00021177,0.00038552,0.002072
 23,-0.00037561,-0.00477490,-0.00063640,0.00196578,0.00004648,0.0003774
 3,-0.00014062,-0.00003325,-0.00010150,-0.00004568,0.00007259,0.0001237
 9,-0.00002872,0.00059272,0.00038163,-0.00099608,0.00386805,0.00079106,
 -0.00445756,-0.23564476,0.00437305,0.11434424,0.00003686,-0.00014461,-
 0.00014411,-0.00000550,0.00000718,0.00005216,0.00044695,-0.00001001,0.
 00028896,-0.00048766,0.00037350,0.00036857,0.00130349,0.00052575,-0.00
 056556,-0.00002297,0.00003253,0.00021343,-0.00001526,0.00009962,0.0001
 4352,0.00002524,0.00000956,0.00004354,0.00001891,0.00000720,0.00002330
 ,-0.00000593,-0.00003726,-0.00001410,0.00001711,0.00011903,-0.00005064
 ,0.00001177,-0.00060799,0.00028647,0.00147089,-0.00006892,0.00000463,0
 .25371551,-0.00005520,0.00038233,0.00005344,0.00008612,-0.00100464,-0.
 00018599,0.00006311,0.00031972,-0.00001545,-0.00077834,-0.00500175,-0.
 00131979,0.02903494,-0.00546088,-0.01526977,0.00060360,-0.00054383,0.0
 0097863,0.00007046,0.00025072,0.00034578,-0.00017160,-0.00034741,0.000
 01773,0.00154297,-0.00245502,0.00183931,-0.01792952,-0.00040447,0.0131
 7371,0.00418670,-0.04614468,-0.00580514,0.00048967,0.00005908,0.000145
 09,0.00003508,0.00009701,-0.00011710,-0.00016978,0.00009913,0.00021679
 ,0.00145308,-0.00055434,-0.00009695,0.00085304,0.00076758,-0.00032410,
 -0.00035439,0.00006716,-0.00020178,-0.00021821,-0.00019728,-0.00016543
 ,-0.00004421,0.00004735,-0.00005403,0.00000139,0.00009684,0.00000324,0
 .00001509,0.00020237,0.00008287,-0.00064479,-0.00012897,0.00098305,-0.
 00035481,0.00032035,-0.00067981,0.00025958,0.00108175,-0.00037337,-0.0
 0765947,0.05830291,0.00019143,-0.00008891,0.00001186,-0.00012145,0.000
 10815,-0.00005766,-0.00021348,0.00011601,0.00003863,-0.00110931,-0.000
 87184,0.00015969,0.00670940,0.00077648,-0.00395795,0.00033697,-0.00049
 235,0.00032870,-0.00017604,0.00017510,0.00021102,0.00006284,0.00031811
 ,0.00037986,-0.00301446,0.00466112,-0.00195102,0.02411306,0.00172372,-
 0.01894450,0.11469758,-0.00639131,-0.11783687,-0.00065181,-0.00037619,
 0.00008382,0.00000241,-0.00003229,0.00003735,0.00018750,0.00013055,0.0
 0017740,0.00035002,0.00012837,0.00007516,-0.00086341,0.00055706,0.0015
 3277,-0.00020294,0.00000937,-0.00028767,-0.00021877,-0.00019307,-0.000
 10534,-0.00001440,-0.00009102,0.00004196,-0.00003517,-0.00001609,-0.00
 006881,0.00002556,-0.00017044,-0.00008832,0.00112718,0.00022794,-0.001
 47469,-0.00019673,0.00006220,0.00082986,0.00006907,-0.00103841,0.00058
 852,-0.12354335,0.00025772,0.12818673,0.00011435,0.00005702,0.00001339
 ,-0.00000454,-0.00035612,-0.00005863,0.00009999,0.00013521,0.00011483,
 0.00088530,0.00180886,0.00122813,0.00424649,0.00396101,0.00487061,-0.0
 0016582,0.00174322,0.00078480,-0.00012661,-0.00004964,0.00000657,-0.00
 001428,0.00006067,0.00008677,-0.00002061,0.00039324,0.00026268,-0.0024
 6312,0.00029838,-0.00206908,-0.17792181,-0.06506930,-0.10837344,-0.000
 31873,-0.00043089,0.00004851,0.00000388,-0.00000931,0.00001882,0.00058
 371,0.00021512,-0.00002982,0.00011410,0.00006680,0.00024463,0.00001768
 ,-0.00027391,-0.00026784,0.00008609,0.00003988,0.00008598,0.00020621,0
 .00009773,0.00040916,0.00005277,-0.00003121,-0.00000457,0.00000499,0.0
 0001723,0.00005316,0.00003562,-0.00003575,-0.00004442,0.00006964,0.000
 01895,-0.00016634,0.00031707,0.00067955,-0.00024407,0.00130265,0.00090
 347,-0.00054708,-0.02168257,-0.01044234,-0.01770545,0.19469397,0.00011
 393,0.00015659,0.00006100,0.00000614,-0.00039777,-0.00025737,0.0003391
 4,0.00021492,-0.00010124,-0.00224949,0.00108925,-0.00141316,-0.0192138
 6,-0.01337446,-0.02091698,0.00110535,-0.00555376,0.00147293,-0.0004551
 8,-0.00029291,0.00021968,0.00014828,-0.00010014,-0.00001857,0.00013646
 ,0.00044874,-0.00071221,0.01742709,0.00550987,0.01363848,-0.06464583,-
 0.07851079,-0.05379922,-0.00035290,-0.00004710,0.00026116,0.00003136,0
 .00001363,0.00000165,0.00135982,0.00012826,0.00060533,-0.00014555,0.00
 039898,0.00039580,0.00003987,-0.00060416,0.00044941,-0.00005131,0.0001
 8895,0.00031343,-0.00021625,-0.00056192,-0.00189942,0.00019217,0.00014
 492,-0.00007056,0.00000278,-0.00007421,-0.00007125,-0.00005254,0.00013
 050,-0.00002428,0.00006577,0.00001218,-0.00015387,0.00030867,0.0012266
 5,-0.00018357,0.00049755,-0.00227621,0.00441100,-0.00019339,-0.0001082
 1,0.00032910,0.06620979,0.09220454,-0.00001507,0.00017069,0.00001815,0
 .00045114,-0.00061602,-0.00018209,-0.00008936,0.00015485,-0.00018839,-
 0.00105145,0.00083529,0.00062331,-0.00545229,-0.00439930,-0.00586946,0
 .00016156,-0.00223609,0.00086970,-0.00031437,0.00009399,0.00021524,0.0
 0012928,0.00004159,-0.00000896,-0.00123544,-0.00047293,0.00051411,-0.0
 2054675,-0.00794343,-0.01631819,-0.10782460,-0.05320974,-0.14179654,-0
 .00003536,-0.00055985,-0.00047699,0.00003560,0.00002190,0.00009531,0.0
 0092324,-0.00000889,0.00043468,0.00014639,0.00039499,0.00029444,-0.000
 00370,-0.00056708,-0.00033567,0.00011491,0.00022756,0.00012659,-0.0000
 8666,-0.00035963,-0.00073611,0.00010044,-0.00001119,0.00001902,0.00012
 030,0.00008431,0.00017725,0.00009691,-0.00002651,-0.00010201,0.0001888
 8,0.00007211,0.00017575,0.00053834,-0.00009347,0.00136979,-0.00031600,
 0.00372360,-0.00346514,0.01267541,0.00656626,0.01175718,0.12045232,0.0
 5717582,0.15229133,-0.00088604,0.00106142,-0.00339016,-0.00128379,0.00
 355623,0.01699550,-0.00000015,0.00026140,-0.00125318,0.00008578,0.0005
 7589,0.00016980,0.00006224,-0.00017602,-0.00011546,0.00005921,0.000035
 54,-0.00005181,-0.00022160,0.00032339,-0.00032270,-0.00597535,0.000873
 93,-0.00151622,-0.00106494,-0.01291057,-0.02822753,0.00140004,-0.00080
 678,-0.00073994,-0.00045876,-0.00048991,0.00017623,-0.04368018,-0.0001
 6799,-0.00481285,0.00006541,0.00000088,-0.00001945,0.00005064,-0.00000
 623,0.00001313,0.00003518,0.00005464,-0.00014467,0.00001625,0.00007927
 ,0.00003480,0.00004543,-0.00000317,-0.00003817,-0.00004430,-0.00000529
 ,0.00008808,0.00002562,-0.00010720,0.00008015,-0.00025686,-0.00168260,
 -0.00114090,0.00016651,0.00025288,0.00009974,-0.00050842,0.00034290,-0
 .00028877,-0.00022814,0.00054219,0.00023440,0.00055691,0.00021370,-0.0
 0009926,0.00018988,0.00016857,0.00010295,-0.00028041,-0.00042355,0.000
 75853,0.05151740,-0.00006621,0.00069341,0.00356267,0.00002649,-0.01129
 505,-0.03074793,0.00062486,-0.00083722,0.00344606,-0.00031892,-0.00141
 496,-0.00042575,-0.00004780,-0.00034317,0.00018897,0.00003507,0.000079
 84,-0.00006353,0.00043853,0.00067448,-0.00003414,-0.00086794,0.0002374
 0,-0.00009995,-0.00106208,-0.00109916,-0.00150129,-0.00011930,0.001246
 72,-0.00025567,-0.00037394,-0.00034079,-0.00077579,-0.00093111,-0.0777
 0960,-0.09133567,-0.00000390,-0.00020743,0.00029553,0.00017747,-0.0001
 6494,0.00029503,-0.00018014,0.00011630,0.00046472,-0.00004024,0.000069
 93,0.00000461,-0.00000799,-0.00000507,0.00001388,-0.00000889,0.0000262
 2,0.00006825,0.00006247,-0.00001557,0.00004325,-0.00006393,-0.00022126
 ,-0.00014811,0.00005706,0.00007942,0.00005990,-0.00000746,-0.00022635,
 0.00004780,-0.00026624,-0.00011371,0.00013522,0.00015957,-0.00002530,0
 .00009234,0.00028108,0.00022045,0.00015087,-0.00006487,0.00003385,0.00
 085383,0.00208276,0.08159465,-0.00026082,-0.00013980,0.00102264,0.0008
 3969,-0.00056530,0.00073281,0.00038446,-0.00018541,-0.00103064,-0.0001
 2822,0.00032191,-0.00025767,-0.00000610,-0.00005054,-0.00001403,0.0000
 7149,-0.00000562,-0.00005864,-0.00009017,0.00017136,-0.00013449,-0.001
 97568,0.00133088,0.00002725,-0.00062877,-0.00349119,-0.00760100,0.0013
 8765,0.00040011,-0.00003359,0.00033877,0.00013911,0.00001582,-0.007637
 23,-0.08522847,-0.26875608,-0.00003403,-0.00020359,0.00002418,0.000082
 24,0.00020250,0.00024634,0.00017737,0.00007176,-0.00000744,0.00001396,
 0.00001447,0.00004452,0.00003449,0.00001448,-0.00000277,-0.00002350,-0
 .00002356,0.00005717,0.00004356,-0.00008145,0.00005572,-0.00010073,-0.
 00069420,-0.00017999,0.00009656,0.00022130,0.00031394,-0.00043218,-0.0
 0008470,-0.00033928,-0.00060220,0.00015092,0.00033242,0.00007519,0.000
 20430,0.00003840,0.00012720,-0.00009310,0.00017332,0.00062004,0.000244
 61,0.00009511,0.00777753,0.09450136,0.29382391,0.00013196,0.00054794,0
 .00075428,0.00766444,0.00993415,-0.01034369,-0.00132759,0.00168613,0.0
 0085699,-0.00015517,-0.00028772,0.00014830,-0.00006944,0.00017245,-0.0
 0000536,0.00001450,0.00004097,0.00002262,-0.00005490,0.00016113,-0.000
 03331,-0.00072638,0.00086995,0.00091033,-0.01690005,-0.01648023,0.0167
 9055,-0.00357846,-0.00129664,-0.00368109,0.00012342,0.00028737,-0.0005
 9000,-0.11997629,-0.09040907,0.07901737,0.00038519,0.00055399,0.000128
 25,0.00001543,-0.00003306,0.00004592,0.00004293,-0.00002128,0.00001741
 ,0.00004762,-0.00008333,-0.00000480,0.00008462,0.00005753,0.00001985,0
 .00002154,-0.00004600,-0.00002355,0.00006555,-0.00006964,0.00000927,0.
 00010116,-0.00007107,-0.00040970,0.00033848,-0.00021411,-0.00055253,0.
 00060419,0.00020495,0.00034119,0.00006524,0.00013239,0.00008238,-0.001
 41499,0.00013534,0.00104446,0.00006181,-0.00004074,0.00009080,0.000163
 98,0.00001567,0.00007781,0.00061246,0.00048558,-0.00015058,0.13365875,
 -0.00100094,0.00470344,-0.00291999,-0.01637850,-0.02653843,0.01954302,
 0.00404806,-0.00326465,-0.00245906,0.00015375,0.00088629,-0.00024163,0
 .00007964,-0.00004657,0.00004460,-0.00005407,0.00010599,-0.00008899,0.
 00050829,0.00007979,0.00026909,-0.00037238,-0.00002244,0.00046656,0.00
 184441,0.00000328,0.00003829,0.00077726,0.00048739,-0.00040197,0.00009
 018,-0.00008079,-0.00018280,-0.08994250,-0.15234040,0.09894460,-0.0007
 0635,-0.00149276,-0.00007291,-0.00005524,0.00011741,0.00016350,0.00010
 379,0.00005818,-0.00007746,-0.00004795,0.00000261,0.00001432,-0.000075
 95,-0.00001463,0.00002087,0.00001620,0.00002262,-0.00000685,-0.0000875
 3,0.00003334,-0.00004023,0.00004755,0.00002746,-0.00024900,0.00006124,
 -0.00017116,-0.00045263,0.00064775,0.00160976,-0.00041146,-0.00005716,
 0.00002025,0.00000806,0.00021271,0.00000361,-0.00000268,0.00000947,0.0
 0003672,0.00003006,0.00005720,-0.00000018,0.00008735,0.00635373,0.0089
 4691,-0.00714214,0.09376735,0.16682695,-0.00177392,-0.00044837,0.00053
 949,0.00176331,-0.00376723,0.00062591,-0.00010890,-0.00063094,-0.00026
 492,-0.00014162,-0.00002556,0.00000989,-0.00000307,-0.00009723,0.00004
 135,-0.00000426,0.00004588,-0.00004509,0.00012579,-0.00001256,0.000015
 57,-0.00037335,0.00047340,0.00043659,-0.00744241,-0.00833395,0.0066163
 7,-0.00108635,-0.00028510,-0.00070232,-0.00014852,-0.00018790,-0.00041
 233,0.07758985,0.09720892,-0.13076405,0.00002032,-0.00011741,0.0000615
 3,0.00004166,-0.00005446,0.00015333,0.00005280,0.00006124,0.00002776,0
 .00001130,0.00001262,0.00000106,0.00001717,0.00001055,0.00001362,-0.00
 000605,0.00001683,0.00002095,0.00003414,-0.00001512,0.00002869,0.00011
 325,0.00009600,-0.00018870,0.00016916,-0.00005544,-0.00022187,-0.00003
 027,-0.00044948,0.00148421,-0.00000214,0.00007614,0.00002037,-0.000278
 02,0.00011567,0.00033878,0.00018275,0.00003818,0.00015899,0.00021035,0
 .00004230,0.00040258,0.01563022,0.02116352,-0.01858793,-0.08456318,-0.
 10488050,0.14019018\\0.00003115,0.00004633,0.00001308,-0.00008903,-0.0
 0007394,-0.00002766,0.00004792,0.00002772,0.00004663,0.00000903,-0.000
 00465,-0.00001618,-0.00000798,0.00001564,-0.00000776,-0.00004704,0.000
 01195,0.00002503,-0.00001454,-0.00006086,-0.00005127,0.00001896,-0.000
 00906,-0.00002858,0.00001521,0.00000771,0.00000575,-0.00002264,-0.0000
 4919,0.00000335,0.00003939,0.00004402,0.00002296,0.00003856,0.00007343
 ,-0.00002212,-0.00001051,0.00000889,0.00000443,-0.00000837,-0.00001432
 ,-0.00000348,-0.00000214,0.00000804,-0.00000023,-0.00000131,0.00000378
 ,-0.00000902,0.00000224,0.00000768,0.00001144,-0.00001402,0.00001092,0
 .00000318,-0.00000527,-0.00000629,0.00001043,0.00000237,-0.00000176,0.
 00001050,0.00000411,-0.00000050,0.00000231,-0.00000225,-0.00000622,0.0
 0000579,0.00000064,-0.00000622,-0.00000120,0.00000962,-0.00000738,-0.0
 0000611,0.00000373,0.00000461,-0.00000917,0.00001804,-0.00000807,0.000
 00574,-0.00000722,-0.00001035,0.00000421,-0.00000863,-0.00001192,0.000
 00798\\\@


 EVERYTHING'S GOT A MORAL, IF ONLY YOU CAN FIND IT.

                                    -- LEWIS CARROL, ALICE IN WONDERLAND
 Job cpu time:       0 days  0 hours  3 minutes 25.5 seconds.
 Elapsed time:       0 days  0 hours  3 minutes 30.7 seconds.
 File lengths (MBytes):  RWF=    151 Int=      0 D2E=      0 Chk=      6 Scr=      1
 Normal termination of Gaussian 16 at Thu Feb 22 11:02:20 2024.
