 Entering Gaussian System, Link 0=g16
 Input=/Volumes/SSD-PMU3/b3lyp_6-31gd_freq/LGVJRKCQQHOWAU-RKDXNWHRSA-N_calculating/gaussianinput0.gjf
 Output=/Volumes/SSD-PMU3/b3lyp_6-31gd_freq/LGVJRKCQQHOWAU-RKDXNWHRSA-N_calculating/gaussianinput0.log
 Initial command:
 /Applications/g16/l1.exe "/Users/macmini_m1_2022/PycharmProjects/sphere_model/sphere_model_lib/Gau-58360.inp" -scrdir="/Users/macmini_m1_2022/PycharmProjects/sphere_model/sphere_model_lib/"
 Entering Link 1 = /Applications/g16/l1.exe PID=     58361.
  
 Copyright (c) 1988,1990,1992,1993,1995,1998,2003,2009,2016,
            Gaussian, Inc.  All Rights Reserved.
  
 This is part of the Gaussian(R) 16 program.  It is based on
 the Gaussian(R) 09 system (copyright 2009, Gaussian, Inc.),
 the Gaussian(R) 03 system (copyright 2003, Gaussian, Inc.),
 the Gaussian(R) 98 system (copyright 1998, Gaussian, Inc.),
 the Gaussian(R) 94 system (copyright 1995, Gaussian, Inc.),
 the Gaussian 92(TM) system (copyright 1992, Gaussian, Inc.),
 the Gaussian 90(TM) system (copyright 1990, Gaussian, Inc.),
 the Gaussian 88(TM) system (copyright 1988, Gaussian, Inc.),
 the Gaussian 86(TM) system (copyright 1986, Carnegie Mellon
 University), and the Gaussian 82(TM) system (copyright 1983,
 Carnegie Mellon University). Gaussian is a federally registered
 trademark of Gaussian, Inc.
  
 This software contains proprietary and confidential information,
 including trade secrets, belonging to Gaussian, Inc.
  
 This software is provided under written license and may be
 used, copied, transmitted, or stored only in accord with that
 written license.
  
 The following legend is applicable only to US Government
 contracts under FAR:
  
                    RESTRICTED RIGHTS LEGEND
  
 Use, reproduction and disclosure by the US Government is
 subject to restrictions as set forth in subparagraphs (a)
 and (c) of the Commercial Computer Software - Restricted
 Rights clause in FAR 52.227-19.
  
 Gaussian, Inc.
 340 Quinnipiac St., Bldg. 40, Wallingford CT 06492
  
  
 ---------------------------------------------------------------
 Warning -- This program may not be used in any manner that
 competes with the business of Gaussian, Inc. or will provide
 assistance to any competitor of Gaussian, Inc.  The licensee
 of this program is prohibited from giving any competitor of
 Gaussian, Inc. access to this program.  By using this program,
 the user acknowledges that Gaussian, Inc. is engaged in the
 business of creating and licensing software in the field of
 computational chemistry and represents and warrants to the
 licensee that it is not a competitor of Gaussian, Inc. and that
 it will not use this program in any manner prohibited above.
 ---------------------------------------------------------------
  

 Cite this work as:
 Gaussian 16, Revision A.03,
 M. J. Frisch, G. W. Trucks, H. B. Schlegel, G. E. Scuseria, 
 M. A. Robb, J. R. Cheeseman, G. Scalmani, V. Barone, 
 G. A. Petersson, H. Nakatsuji, X. Li, M. Caricato, A. V. Marenich, 
 J. Bloino, B. G. Janesko, R. Gomperts, B. Mennucci, H. P. Hratchian, 
 J. V. Ortiz, A. F. Izmaylov, J. L. Sonnenberg, D. Williams-Young, 
 F. Ding, F. Lipparini, F. Egidi, J. Goings, B. Peng, A. Petrone, 
 T. Henderson, D. Ranasinghe, V. G. Zakrzewski, J. Gao, N. Rega, 
 G. Zheng, W. Liang, M. Hada, M. Ehara, K. Toyota, R. Fukuda, 
 J. Hasegawa, M. Ishida, T. Nakajima, Y. Honda, O. Kitao, H. Nakai, 
 T. Vreven, K. Throssell, J. A. Montgomery, Jr., J. E. Peralta, 
 F. Ogliaro, M. J. Bearpark, J. J. Heyd, E. N. Brothers, K. N. Kudin, 
 V. N. Staroverov, T. A. Keith, R. Kobayashi, J. Normand, 
 K. Raghavachari, A. P. Rendell, J. C. Burant, S. S. Iyengar, 
 J. Tomasi, M. Cossi, J. M. Millam, M. Klene, C. Adamo, R. Cammi, 
 J. W. Ochterski, R. L. Martin, K. Morokuma, O. Farkas, 
 J. B. Foresman, and D. J. Fox, Gaussian, Inc., Wallingford CT, 2016.
 
 ******************************************
 Gaussian 16:  EM64M-G16RevA.03 25-Dec-2016
                22-Feb-2024 
 ******************************************
 %nprocshared=8
 Will use up to    8 processors via shared memory.
 %mem=4GB
 %chk= 0.chk
 ---------------------
 # freq b3lyp/6-31g(d)
 ---------------------
 1/10=4,30=1,38=1/1,3;
 2/12=2,17=6,18=5,40=1/2;
 3/5=1,6=6,7=1,11=2,25=1,30=1,71=2,74=-5,140=1/1,2,3;
 4//1;
 5/5=2,38=5,98=1/2;
 8/6=4,10=90,11=11/1;
 11/6=1,8=1,9=11,15=111,16=1/1,2,10;
 10/6=1/2;
 6/7=2,8=2,9=2,10=2,28=1/1;
 7/8=1,10=1,25=1/1,2,3,16;
 1/10=4,30=1/3;
 99//99;
 ---------
 good luck
 ---------
 Symbolic Z-matrix:
 Charge =  0 Multiplicity = 1
 O                     1.2166    0.        0. 
 C                     0.        0.        0. 
 C                    -0.81829  -1.28445  -0.00129 
 C                    -1.91981  -1.28234  -1.08385 
 C                    -2.77713  -2.55794  -1.02078 
 C                    -3.88366  -2.56015  -2.08569 
 C                    -4.75482  -1.29919  -1.98848 
 C                    -3.90175  -0.02367  -2.05414 
 C                    -2.79302  -0.0108   -0.98717 
 C                    -1.92372   1.25363  -1.07698 
 C                    -0.81942   1.28397  -0.00129 
 H                    -0.13582  -2.13214  -0.11993 
 H                    -1.29654  -1.37952   0.9869 
 H                    -1.42183  -1.26142  -2.06768 
 H                    -2.13582  -3.44197  -1.13415 
 H                    -3.23306  -2.63082  -0.02129 
 H                    -4.50265  -3.46043  -1.98378 
 H                    -3.42542  -2.60812  -3.08446 
 H                    -5.31036  -1.31517  -1.03914 
 H                    -5.50598  -1.29217  -2.78837 
 H                    -3.43902   0.05291  -3.04996 
 H                    -4.53631   0.86518  -1.93873 
 H                    -3.27947  -0.01955   0.00392 
 H                    -2.55012   2.15022  -0.98619 
 H                    -1.45926   1.29945  -2.07262 
 H                    -1.28809   1.3809    0.99029 
 H                    -0.14062   2.132    -0.13104 
 

 GradGradGradGradGradGradGradGradGradGradGradGradGradGradGradGradGradGrad
 Berny optimization.
 Initialization pass.
 Trust Radius=3.00D-01 FncErr=1.00D-07 GrdErr=1.00D-07 EigMax=2.50D+02 EigMin=1.00D-04
 Number of steps in this run=      2 maximum allowed number of steps=      2.
 GradGradGradGradGradGradGradGradGradGradGradGradGradGradGradGradGradGrad

                          Input orientation:                          
 ---------------------------------------------------------------------
 Center     Atomic      Atomic             Coordinates (Angstroms)
 Number     Number       Type             X           Y           Z
 ---------------------------------------------------------------------
      1          8           0        1.216603    0.000000    0.000000
      2          6           0        0.000000    0.000000    0.000000
      3          6           0       -0.818291   -1.284447   -0.001291
      4          6           0       -1.919811   -1.282341   -1.083853
      5          6           0       -2.777131   -2.557940   -1.020776
      6          6           0       -3.883658   -2.560145   -2.085692
      7          6           0       -4.754824   -1.299187   -1.988481
      8          6           0       -3.901752   -0.023672   -2.054140
      9          6           0       -2.793018   -0.010802   -0.987172
     10          6           0       -1.923715    1.253627   -1.076982
     11          6           0       -0.819416    1.283971   -0.001291
     12          1           0       -0.135819   -2.132141   -0.119930
     13          1           0       -1.296540   -1.379519    0.986900
     14          1           0       -1.421825   -1.261420   -2.067683
     15          1           0       -2.135824   -3.441968   -1.134148
     16          1           0       -3.233058   -2.630816   -0.021293
     17          1           0       -4.502654   -3.460430   -1.983781
     18          1           0       -3.425423   -2.608121   -3.084456
     19          1           0       -5.310360   -1.315169   -1.039138
     20          1           0       -5.505975   -1.292173   -2.788372
     21          1           0       -3.439019    0.052912   -3.049963
     22          1           0       -4.536306    0.865181   -1.938725
     23          1           0       -3.279470   -0.019545    0.003918
     24          1           0       -2.550119    2.150216   -0.986188
     25          1           0       -1.459256    1.299452   -2.072622
     26          1           0       -1.288093    1.380897    0.990292
     27          1           0       -0.140615    2.132002   -0.131040
 ---------------------------------------------------------------------
                    Distance matrix (angstroms):
                    1          2          3          4          5
     1  O    0.000000
     2  C    1.216603   0.000000
     3  C    2.406366   1.522960   0.000000
     4  C    3.557559   2.550453   1.544439   0.000000
     5  C    4.851284   3.911202   2.549154   1.538223   0.000000
     6  C    6.075946   5.097769   3.920282   2.548168   1.535726
     7  C    6.426499   5.315101   4.409698   2.975892   2.536175
     8  C    5.515216   4.409503   3.912988   2.540432   2.958907
     9  C    4.129369   2.962360   2.548270   1.545526   2.547409
    10  C    3.548671   2.536168   2.969999   2.535980   3.906344
    11  C    2.407064   1.523163   2.568418   2.994790   4.430833
    12  H    2.527737   2.139826   1.094728   2.198621   2.823005
    13  H    3.031985   2.134961   1.101945   2.164701   2.758911
    14  H    3.581591   2.808573   2.152849   1.102882   2.147983
    15  H    4.936821   4.206564   2.770227   2.170986   1.098013
    16  H    5.169248   4.168250   2.764816   2.161489   1.100975
    17  H    6.972795   6.015302   4.715899   3.496430   2.172394
    18  H    6.153419   5.296195   4.249136   2.833191   2.163695
    19  H    6.738748   5.568608   4.610505   3.391003   2.821713
    20  H    7.391738   6.305592   5.453647   3.970649   3.489004
    21  H    5.565958   4.596947   4.236879   2.820724   3.372276
    22  H    6.132141   5.008519   4.711495   3.491232   3.956651
    23  H    4.496117   3.279531   2.767202   2.150947   2.783126
    24  H    4.447942   3.478376   3.970662   3.491314   4.713753
    25  H    3.625543   2.848467   3.373097   2.802754   4.209827
    26  H    3.026724   2.132308   2.882362   3.434237   4.666483
    27  H    2.530740   2.140649   3.485427   3.966249   5.453293
                    6          7          8          9         10
     6  C    0.000000
     7  C    1.535707   0.000000
     8  C    2.536734   1.535898   0.000000
     9  C    2.982514   2.551713   1.538791   0.000000
    10  C    4.404966   3.919549   2.549306   1.537054   0.000000
    11  C    5.339619   5.109703   3.927456   2.558027   1.541917
    12  H    4.253670   5.051782   4.729594   3.508973   3.946637
    13  H    4.186631   4.562792   4.227691   2.830158   3.403882
    14  H    2.783457   3.334154   2.771686   2.147491   2.749335
    15  H    2.176688   3.490065   3.955962   3.496628   4.700731
    16  H    2.165645   2.821141   3.372954   2.826841   4.232937
    17  H    1.097294   2.175910   3.489604   3.976936   5.449362
    18  H    1.099914   2.163741   2.822732   3.397735   4.604148
    19  H    2.163497   1.100058   2.163878   2.835681   4.250825
    20  H    2.175643   1.097316   2.172953   3.499481   4.716200
    21  H    2.820565   2.164777   1.100750   2.162518   2.762339
    22  H    3.490044   2.175940   1.098198   2.170680   2.778331
    23  H    3.344572   2.789947   2.150082   1.104070   2.151135
    24  H    5.017443   4.214700   2.773666   2.174626   1.097496
    25  H    4.557893   4.197710   2.777910   2.161918   1.099600
    26  H    5.632979   5.298506   4.251187   2.848155   2.166526
    27  H    6.312470   6.042687   4.742509   3.515653   2.201317
                   11         12         13         14         15
    11  C    0.000000
    12  H    3.485857   0.000000
    13  H    2.880685   1.771662   0.000000
    14  H    3.333450   2.491126   3.059431   0.000000
    15  H    5.034957   2.596980   3.075214   2.477110   0.000000
    16  H    4.599090   3.138677   2.516406   3.056718   1.760777
    17  H    6.325018   4.930268   4.840899   3.786052   2.514777
    18  H    5.607634   4.453815   4.755791   2.619511   2.482351
    19  H    5.291619   5.318671   4.496635   4.022623   3.822300
    20  H    6.030603   6.055139   5.655055   4.147363   4.326198
    21  H    4.203835   4.926528   4.789398   2.600272   4.193191
    22  H    4.212399   5.626388   4.908568   3.773467   4.996118
    23  H    2.784070   3.789583   2.597652   3.047069   3.783662
    24  H    2.171574   4.991776   4.233623   3.752591   5.609461
    25  H    2.167959   4.164171   4.069894   2.561150   4.880527
    26  H    1.101040   3.860280   2.760431   4.043629   5.337782
    27  H    1.093966   4.264160   3.862219   4.111861   6.004684
                   16         17         18         19         20
    16  H    0.000000
    17  H    2.480220   0.000000
    18  H    3.069281   1.760211   0.000000
    19  H    2.661225   2.479291   3.067253   0.000000
    20  H    3.822936   2.520984   2.479533   1.760288   0.000000
    21  H    4.051871   3.822517   2.661291   3.068710   2.479917
    22  H    4.194877   4.325977   3.822380   2.482407   2.513232
    23  H    2.611805   4.157742   4.032379   2.625095   3.791278
    24  H    4.925007   6.023864   5.273581   4.430646   4.882110
    25  H    4.775074   5.650366   4.489849   4.768158   4.858472
    26  H    4.571656   6.528167   6.089665   5.250332   6.262119
    27  H    5.679761   7.330439   6.479305   6.279641   6.897353
                   21         22         23         24         25
    21  H    0.000000
    22  H    1.760304   0.000000
    23  H    3.058904   2.477143   0.000000
    24  H    3.073759   2.550212   2.494018   0.000000
    25  H    2.535452   3.110427   3.060221   1.759011   0.000000
    26  H    4.765888   4.404088   2.626738   2.468002   3.068774
    27  H    4.870544   4.918807   3.807858   2.556818   2.490320
                   26         27
    26  H    0.000000
    27  H    1.771511   0.000000
 Stoichiometry    C10H16O
 Framework group  C1[X(C10H16O)]
 Deg. of freedom    75
 Full point group                 C1      NOp   1
 Largest Abelian subgroup         C1      NOp   1
 Largest concise Abelian subgroup C1      NOp   1
                         Standard orientation:                         
 ---------------------------------------------------------------------
 Center     Atomic      Atomic             Coordinates (Angstroms)
 Number     Number       Type             X           Y           Z
 ---------------------------------------------------------------------
      1          8           0        3.362817   -0.806892   -0.491870
      2          6           0        2.346059   -0.366496    0.010502
      3          6           0        1.148353   -1.247450    0.340389
      4          6           0       -0.179061   -0.663310   -0.190689
      5          6           0       -1.381609   -1.532935    0.213984
      6          6           0       -2.708286   -0.953924   -0.298978
      7          6           0       -2.895783    0.500805    0.155998
      8          6           0       -1.697791    1.372328   -0.249272
      9          6           0       -0.364235    0.801947    0.264704
     10          6           0        0.833796    1.661525   -0.169323
     11          6           0        2.173914    1.107289    0.354521
     12          1           0        1.335249   -2.251426   -0.053986
     13          1           0        1.082805   -1.328957    1.437358
     14          1           0       -0.125011   -0.657658   -1.292231
     15          1           0       -1.241654   -2.556207   -0.158789
     16          1           0       -1.415379   -1.604089    1.312138
     17          1           0       -3.547035   -1.572370    0.044649
     18          1           0       -2.720616   -0.994506   -1.398074
     19          1           0       -3.008943    0.526357    1.249922
     20          1           0       -3.821970    0.914708   -0.262289
     21          1           0       -1.655473    1.443797   -1.346884
     22          1           0       -1.829405    2.397232    0.122598
     23          1           0       -0.401045    0.802052    1.368160
     24          1           0        0.702813    2.694744    0.176800
     25          1           0        0.865332    1.704144   -1.267645
     26          1           0        2.194377    1.197737    1.451649
     27          1           0        3.031277    1.660906   -0.039432
 ---------------------------------------------------------------------
 Rotational constants (GHZ):           2.2178200           0.7484422           0.5960959
 Standard basis: 6-31G(d) (6D, 7F)
 There are   197 symmetry adapted cartesian basis functions of A   symmetry.
 There are   197 symmetry adapted basis functions of A   symmetry.
   197 basis functions,   372 primitive gaussians,   197 cartesian basis functions
    42 alpha electrons       42 beta electrons
       nuclear repulsion energy       646.0713888275 Hartrees.
 NAtoms=   27 NActive=   27 NUniq=   27 SFac= 1.00D+00 NAtFMM=   60 NAOKFM=F Big=F
 Integral buffers will be    131072 words long.
 Raffenetti 2 integral format.
 Two-electron integral symmetry is turned on.
 One-electron integrals computed using PRISM.
 NBasis=   197 RedAO= T EigKep=  2.71D-03  NBF=   197
 NBsUse=   197 1.00D-06 EigRej= -1.00D+00 NBFU=   197
 ExpMin= 1.61D-01 ExpMax= 5.48D+03 ExpMxC= 8.25D+02 IAcc=3 IRadAn=         5 AccDes= 0.00D+00
 Harris functional with IExCor=  402 and IRadAn=       5 diagonalized for initial guess.
 HarFok:  IExCor=  402 AccDes= 0.00D+00 IRadAn=         5 IDoV= 1 UseB2=F ITyADJ=14
 ICtDFT=  3500011 ScaDFX=  1.000000  1.000000  1.000000  1.000000
 FoFCou: FMM=F IPFlag=           0 FMFlag=      100000 FMFlg1=           0
         NFxFlg=           0 DoJE=T BraDBF=F KetDBF=T FulRan=T
         wScrn=  0.000000 ICntrl=       500 IOpCl=  0 I1Cent=   200000004 NGrid=           0
         NMat0=    1 NMatS0=      1 NMatT0=    0 NMatD0=    1 NMtDS0=    0 NMtDT0=    0
 Petite list used in FoFCou.
 Requested convergence on RMS density matrix=1.00D-08 within 128 cycles.
 Requested convergence on MAX density matrix=1.00D-06.
 Requested convergence on             energy=1.00D-06.
 No special actions if energy rises.
 Integral accuracy reduced to 1.0D-05 until final iterations.
 Initial convergence to 1.0D-05 achieved.  Increase integral accuracy.
 SCF Done:  E(RB3LYP) =  -465.944657593     A.U. after   13 cycles
            NFock= 13  Conv=0.73D-08     -V/T= 2.0098
 DoSCS=F DFT=T ScalE2(SS,OS)=  1.000000  1.000000
 Range of M.O.s used for correlation:     1   197
 NBasis=   197 NAE=    42 NBE=    42 NFC=     0 NFV=     0
 NROrb=    197 NOA=    42 NOB=    42 NVA=   155 NVB=   155
 Symmetrizing basis deriv contribution to polar:
 IMax=3 JMax=2 DiffMx= 0.00D+00
 G2DrvN: will do    28 centers at a time, making    1 passes.
 Calling FoFCou, ICntrl=  3107 FMM=F I1Cent=   0 AccDes= 0.00D+00.
 End of G2Drv F.D. properties file   721 does not exist.
 End of G2Drv F.D. properties file   722 does not exist.
 End of G2Drv F.D. properties file   788 does not exist.
          IDoAtm=111111111111111111111111111
          Differentiating once with respect to electric field.
                with respect to dipole field.
          Differentiating once with respect to nuclear coordinates.
 Keep R1 ints in memory in canonical form, NReq=198402002.
          There are    84 degrees of freedom in the 1st order CPHF.  IDoFFX=6 NUNeed=     3.
     81 vectors produced by pass  0 Test12= 7.75D-15 1.19D-09 XBig12= 7.32D+01 3.40D+00.
 AX will form    81 AO Fock derivatives at one time.
     81 vectors produced by pass  1 Test12= 7.75D-15 1.19D-09 XBig12= 9.49D+00 8.85D-01.
     81 vectors produced by pass  2 Test12= 7.75D-15 1.19D-09 XBig12= 8.50D-02 3.74D-02.
     81 vectors produced by pass  3 Test12= 7.75D-15 1.19D-09 XBig12= 2.49D-04 1.61D-03.
     81 vectors produced by pass  4 Test12= 7.75D-15 1.19D-09 XBig12= 2.69D-07 4.88D-05.
     38 vectors produced by pass  5 Test12= 7.75D-15 1.19D-09 XBig12= 1.64D-10 1.13D-06.
      4 vectors produced by pass  6 Test12= 7.75D-15 1.19D-09 XBig12= 8.51D-14 2.57D-08.
 InvSVY:  IOpt=1 It=  1 EMax= 5.33D-15
 Solved reduced A of dimension   447 with    84 vectors.
 Isotropic polarizability for W=    0.000000      101.20 Bohr**3.
 End of Minotr F.D. properties file   721 does not exist.
 End of Minotr F.D. properties file   722 does not exist.
 End of Minotr F.D. properties file   788 does not exist.

 **********************************************************************

            Population analysis using the SCF density.

 **********************************************************************

 Orbital symmetries:
       Occupied  (A) (A) (A) (A) (A) (A) (A) (A) (A) (A) (A) (A)
                 (A) (A) (A) (A) (A) (A) (A) (A) (A) (A) (A) (A)
                 (A) (A) (A) (A) (A) (A) (A) (A) (A) (A) (A) (A)
                 (A) (A) (A) (A) (A) (A)
       Virtual   (A) (A) (A) (A) (A) (A) (A) (A) (A) (A) (A) (A)
                 (A) (A) (A) (A) (A) (A) (A) (A) (A) (A) (A) (A)
                 (A) (A) (A) (A) (A) (A) (A) (A) (A) (A) (A) (A)
                 (A) (A) (A) (A) (A) (A) (A) (A) (A) (A) (A) (A)
                 (A) (A) (A) (A) (A) (A) (A) (A) (A) (A) (A) (A)
                 (A) (A) (A) (A) (A) (A) (A) (A) (A) (A) (A) (A)
                 (A) (A) (A) (A) (A) (A) (A) (A) (A) (A) (A) (A)
                 (A) (A) (A) (A) (A) (A) (A) (A) (A) (A) (A) (A)
                 (A) (A) (A) (A) (A) (A) (A) (A) (A) (A) (A) (A)
                 (A) (A) (A) (A) (A) (A) (A) (A) (A) (A) (A) (A)
                 (A) (A) (A) (A) (A) (A) (A) (A) (A) (A) (A) (A)
                 (A) (A) (A) (A) (A) (A) (A) (A) (A) (A) (A) (A)
                 (A) (A) (A) (A) (A) (A) (A) (A) (A) (A) (A)
 The electronic state is 1-A.
 Alpha  occ. eigenvalues --  -19.13062 -10.26678 -10.19561 -10.19237 -10.19138
 Alpha  occ. eigenvalues --  -10.18911 -10.18726 -10.18415 -10.18381 -10.18320
 Alpha  occ. eigenvalues --  -10.18299  -1.02935  -0.85171  -0.79579  -0.76850
 Alpha  occ. eigenvalues --   -0.73223  -0.70774  -0.63467  -0.60282  -0.59190
 Alpha  occ. eigenvalues --   -0.56075  -0.52383  -0.47302  -0.46582  -0.45782
 Alpha  occ. eigenvalues --   -0.44503  -0.43510  -0.43021  -0.42379  -0.40142
 Alpha  occ. eigenvalues --   -0.38661  -0.37484  -0.36458  -0.36022  -0.35403
 Alpha  occ. eigenvalues --   -0.34311  -0.33988  -0.33027  -0.32090  -0.29780
 Alpha  occ. eigenvalues --   -0.29660  -0.23270
 Alpha virt. eigenvalues --   -0.01031   0.08534   0.08797   0.10344   0.10837
 Alpha virt. eigenvalues --    0.13385   0.14234   0.15249   0.15728   0.15940
 Alpha virt. eigenvalues --    0.16911   0.16995   0.17386   0.17760   0.18426
 Alpha virt. eigenvalues --    0.18762   0.19440   0.19725   0.20627   0.23505
 Alpha virt. eigenvalues --    0.24721   0.26115   0.26490   0.27452   0.28154
 Alpha virt. eigenvalues --    0.28636   0.29971   0.33913   0.36736   0.50032
 Alpha virt. eigenvalues --    0.50642   0.51772   0.52518   0.53716   0.54394
 Alpha virt. eigenvalues --    0.56091   0.59091   0.60377   0.61948   0.63134
 Alpha virt. eigenvalues --    0.64400   0.65208   0.66618   0.67789   0.69527
 Alpha virt. eigenvalues --    0.70623   0.72898   0.73309   0.75250   0.76198
 Alpha virt. eigenvalues --    0.78186   0.79279   0.81375   0.82914   0.83550
 Alpha virt. eigenvalues --    0.83812   0.86305   0.86854   0.87642   0.88480
 Alpha virt. eigenvalues --    0.89828   0.90411   0.91269   0.91634   0.93157
 Alpha virt. eigenvalues --    0.93743   0.93779   0.95750   0.95968   0.96554
 Alpha virt. eigenvalues --    0.97031   0.97877   1.02164   1.07831   1.10989
 Alpha virt. eigenvalues --    1.12737   1.16974   1.17625   1.22547   1.27115
 Alpha virt. eigenvalues --    1.33976   1.37228   1.38951   1.41343   1.43252
 Alpha virt. eigenvalues --    1.46102   1.49009   1.53776   1.59594   1.65284
 Alpha virt. eigenvalues --    1.67118   1.70013   1.70420   1.71624   1.74898
 Alpha virt. eigenvalues --    1.75759   1.78021   1.80357   1.81278   1.86292
 Alpha virt. eigenvalues --    1.86814   1.87650   1.90897   1.91994   1.93107
 Alpha virt. eigenvalues --    1.95550   1.96970   1.97988   1.99156   1.99981
 Alpha virt. eigenvalues --    2.00828   2.02555   2.04001   2.05700   2.08104
 Alpha virt. eigenvalues --    2.10215   2.11245   2.20012   2.20745   2.25328
 Alpha virt. eigenvalues --    2.27114   2.28422   2.32713   2.36038   2.37523
 Alpha virt. eigenvalues --    2.38948   2.41459   2.43843   2.47442   2.49998
 Alpha virt. eigenvalues --    2.52329   2.53891   2.58210   2.58733   2.61353
 Alpha virt. eigenvalues --    2.64028   2.73025   2.73376   2.75132   2.80616
 Alpha virt. eigenvalues --    2.84441   2.85156   2.98674   3.02699   4.00343
 Alpha virt. eigenvalues --    4.12608   4.19687   4.24550   4.29177   4.31349
 Alpha virt. eigenvalues --    4.49805   4.54403   4.58781   4.62213   4.68247
          Condensed to atoms (all electrons):
               1          2          3          4          5          6
     1  O    7.999459   0.590300  -0.077293   0.000865  -0.000052   0.000000
     2  C    0.590300   4.469055   0.320196  -0.017682   0.002402  -0.000081
     3  C   -0.077293   0.320196   5.353549   0.332446  -0.036197   0.003562
     4  C    0.000865  -0.017682   0.332446   4.973216   0.374743  -0.033610
     5  C   -0.000052   0.002402  -0.036197   0.374743   5.036195   0.374499
     6  C    0.000000  -0.000081   0.003562  -0.033610   0.374499   4.997999
     7  C    0.000000   0.000000   0.000172  -0.013265  -0.044343   0.384577
     8  C    0.000000   0.000378   0.004226  -0.036191  -0.013290  -0.043770
     9  C    0.000089  -0.013719  -0.038734   0.384342  -0.034892  -0.014022
    10  C    0.001419  -0.024143  -0.002776  -0.040433   0.004647   0.000200
    11  C   -0.079312   0.328531  -0.139826  -0.003710  -0.000057   0.000007
    12  H    0.004676  -0.022894   0.339480  -0.026015  -0.003488   0.000023
    13  H    0.001378  -0.027289   0.341522  -0.034245  -0.008112   0.000120
    14  H    0.000431  -0.001428  -0.049511   0.369159  -0.047765  -0.002885
    15  H   -0.000001   0.000013  -0.003324  -0.032951   0.365146  -0.031719
    16  H   -0.000000   0.000027  -0.005691  -0.040102   0.366812  -0.039181
    17  H   -0.000000   0.000001  -0.000124   0.004345  -0.031407   0.368346
    18  H   -0.000000   0.000001   0.000008  -0.005626  -0.039650   0.372139
    19  H   -0.000000  -0.000000  -0.000030  -0.001116  -0.004388  -0.040952
    20  H    0.000000   0.000000   0.000006   0.000208   0.004767  -0.032840
    21  H   -0.000000  -0.000043   0.000046  -0.007880  -0.000555  -0.004718
    22  H   -0.000000  -0.000006  -0.000148   0.004953   0.000037   0.004802
    23  H   -0.000008  -0.001772  -0.003831  -0.053762  -0.005105  -0.000733
    24  H   -0.000067   0.003096  -0.000314   0.005238  -0.000170   0.000004
    25  H    0.000407  -0.002932   0.000572  -0.008632   0.000060  -0.000030
    26  H    0.001320  -0.028273   0.003701  -0.001778  -0.000014  -0.000000
    27  H    0.004737  -0.024083   0.006690  -0.000063   0.000010  -0.000000
               7          8          9         10         11         12
     1  O    0.000000   0.000000   0.000089   0.001419  -0.079312   0.004676
     2  C    0.000000   0.000378  -0.013719  -0.024143   0.328531  -0.022894
     3  C    0.000172   0.004226  -0.038734  -0.002776  -0.139826   0.339480
     4  C   -0.013265  -0.036191   0.384342  -0.040433  -0.003710  -0.026015
     5  C   -0.044343  -0.013290  -0.034892   0.004647  -0.000057  -0.003488
     6  C    0.384577  -0.043770  -0.014022   0.000200   0.000007   0.000023
     7  C    4.998844   0.374081  -0.033922   0.003767  -0.000142   0.000001
     8  C    0.374081   5.034583   0.378322  -0.038244   0.003734  -0.000132
     9  C   -0.033922   0.378322   4.944691   0.374906  -0.036840   0.004305
    10  C    0.003767  -0.038244   0.374906   5.067763   0.323537  -0.000207
    11  C   -0.000142   0.003734  -0.036840   0.323537   5.321528   0.006772
    12  H    0.000001  -0.000132   0.004305  -0.000207   0.006772   0.565951
    13  H   -0.000020   0.000014  -0.006213  -0.001345   0.003267  -0.027625
    14  H   -0.000716  -0.005465  -0.049867  -0.006451   0.000469  -0.003856
    15  H    0.004774   0.000042   0.004992  -0.000149  -0.000007   0.004272
    16  H   -0.004703  -0.000576  -0.007928   0.000018   0.000002  -0.000241
    17  H   -0.032751   0.004749   0.000230   0.000005  -0.000000  -0.000003
    18  H   -0.040836  -0.004371  -0.001088  -0.000030   0.000000  -0.000002
    19  H    0.371591  -0.039938  -0.005559   0.000007   0.000002   0.000000
    20  H    0.368336  -0.031391   0.004306  -0.000123   0.000002  -0.000000
    21  H   -0.039579   0.367343  -0.039222  -0.005784   0.000090   0.000002
    22  H   -0.031858   0.364662  -0.033212  -0.003932   0.000006   0.000003
    23  H   -0.003368  -0.046698   0.367195  -0.050059  -0.001849  -0.000046
    24  H    0.000015  -0.003703  -0.030808   0.362686  -0.027986   0.000018
    25  H    0.000044  -0.005647  -0.036625   0.370261  -0.041767  -0.000039
    26  H    0.000001  -0.000006  -0.003428  -0.035337   0.346907  -0.000140
    27  H    0.000001  -0.000114   0.003655  -0.024445   0.343041  -0.000178
              13         14         15         16         17         18
     1  O    0.001378   0.000431  -0.000001  -0.000000  -0.000000  -0.000000
     2  C   -0.027289  -0.001428   0.000013   0.000027   0.000001   0.000001
     3  C    0.341522  -0.049511  -0.003324  -0.005691  -0.000124   0.000008
     4  C   -0.034245   0.369159  -0.032951  -0.040102   0.004345  -0.005626
     5  C   -0.008112  -0.047765   0.365146   0.366812  -0.031407  -0.039650
     6  C    0.000120  -0.002885  -0.031719  -0.039181   0.368346   0.372139
     7  C   -0.000020  -0.000716   0.004774  -0.004703  -0.032751  -0.040836
     8  C    0.000014  -0.005465   0.000042  -0.000576   0.004749  -0.004371
     9  C   -0.006213  -0.049867   0.004992  -0.007928   0.000230  -0.001088
    10  C   -0.001345  -0.006451  -0.000149   0.000018   0.000005  -0.000030
    11  C    0.003267   0.000469  -0.000007   0.000002  -0.000000   0.000000
    12  H   -0.027625  -0.003856   0.004272  -0.000241  -0.000003  -0.000002
    13  H    0.591648   0.006420  -0.000363   0.005934  -0.000002   0.000006
    14  H    0.006420   0.641332  -0.004835   0.006479  -0.000060   0.005026
    15  H   -0.000363  -0.004835   0.603954  -0.037410  -0.002287  -0.004268
    16  H    0.005934   0.006479  -0.037410   0.618638  -0.004408   0.005952
    17  H   -0.000002  -0.000060  -0.002287  -0.004408   0.603310  -0.036835
    18  H    0.000006   0.005026  -0.004268   0.005952  -0.036835   0.612148
    19  H   -0.000006   0.000161  -0.000051   0.004837  -0.004365   0.006006
    20  H    0.000000  -0.000024  -0.000158  -0.000048  -0.002235  -0.004379
    21  H    0.000006   0.005432  -0.000028   0.000150  -0.000048   0.004795
    22  H    0.000001  -0.000079   0.000014  -0.000029  -0.000161  -0.000051
    23  H    0.005484   0.007323  -0.000075   0.005376  -0.000028   0.000157
    24  H   -0.000010  -0.000023   0.000003   0.000003  -0.000000   0.000001
    25  H    0.000090   0.005476   0.000001   0.000004  -0.000000  -0.000007
    26  H    0.001102   0.000101   0.000000  -0.000007  -0.000000  -0.000000
    27  H   -0.000135  -0.000042  -0.000000  -0.000000   0.000000  -0.000000
              19         20         21         22         23         24
     1  O   -0.000000   0.000000  -0.000000  -0.000000  -0.000008  -0.000067
     2  C   -0.000000   0.000000  -0.000043  -0.000006  -0.001772   0.003096
     3  C   -0.000030   0.000006   0.000046  -0.000148  -0.003831  -0.000314
     4  C   -0.001116   0.000208  -0.007880   0.004953  -0.053762   0.005238
     5  C   -0.004388   0.004767  -0.000555   0.000037  -0.005105  -0.000170
     6  C   -0.040952  -0.032840  -0.004718   0.004802  -0.000733   0.000004
     7  C    0.371591   0.368336  -0.039579  -0.031858  -0.003368   0.000015
     8  C   -0.039938  -0.031391   0.367343   0.364662  -0.046698  -0.003703
     9  C   -0.005559   0.004306  -0.039222  -0.033212   0.367195  -0.030808
    10  C    0.000007  -0.000123  -0.005784  -0.003932  -0.050059   0.362686
    11  C    0.000002   0.000002   0.000090   0.000006  -0.001849  -0.027986
    12  H    0.000000  -0.000000   0.000002   0.000003  -0.000046   0.000018
    13  H   -0.000006   0.000000   0.000006   0.000001   0.005484  -0.000010
    14  H    0.000161  -0.000024   0.005432  -0.000079   0.007323  -0.000023
    15  H   -0.000051  -0.000158  -0.000028   0.000014  -0.000075   0.000003
    16  H    0.004837  -0.000048   0.000150  -0.000029   0.005376   0.000003
    17  H   -0.004365  -0.002235  -0.000048  -0.000161  -0.000028  -0.000000
    18  H    0.006006  -0.004379   0.004795  -0.000051   0.000157   0.000001
    19  H    0.615237  -0.037089   0.005964  -0.004284   0.005090  -0.000002
    20  H   -0.037089   0.603948  -0.004318  -0.002298  -0.000046  -0.000002
    21  H    0.005964  -0.004318   0.615676  -0.037383   0.006560  -0.000318
    22  H   -0.004284  -0.002298  -0.037383   0.608637  -0.004975   0.004953
    23  H    0.005090  -0.000046   0.006560  -0.004975   0.655645  -0.004552
    24  H   -0.000002  -0.000002  -0.000318   0.004953  -0.004552   0.599004
    25  H    0.000005   0.000001   0.005471  -0.000356   0.006434  -0.037463
    26  H   -0.000001   0.000000   0.000007  -0.000006   0.004961  -0.006514
    27  H    0.000000  -0.000000   0.000002  -0.000002  -0.000018  -0.002294
              25         26         27
     1  O    0.000407   0.001320   0.004737
     2  C   -0.002932  -0.028273  -0.024083
     3  C    0.000572   0.003701   0.006690
     4  C   -0.008632  -0.001778  -0.000063
     5  C    0.000060  -0.000014   0.000010
     6  C   -0.000030  -0.000000  -0.000000
     7  C    0.000044   0.000001   0.000001
     8  C   -0.005647  -0.000006  -0.000114
     9  C   -0.036625  -0.003428   0.003655
    10  C    0.370261  -0.035337  -0.024445
    11  C   -0.041767   0.346907   0.343041
    12  H   -0.000039  -0.000140  -0.000178
    13  H    0.000090   0.001102  -0.000135
    14  H    0.005476   0.000101  -0.000042
    15  H    0.000001   0.000000  -0.000000
    16  H    0.000004  -0.000007  -0.000000
    17  H   -0.000000  -0.000000   0.000000
    18  H   -0.000007  -0.000000  -0.000000
    19  H    0.000005  -0.000001   0.000000
    20  H    0.000001   0.000000  -0.000000
    21  H    0.005471   0.000007   0.000002
    22  H   -0.000356  -0.000006  -0.000002
    23  H    0.006434   0.004961  -0.000018
    24  H   -0.037463  -0.006514  -0.002294
    25  H    0.601268   0.005735  -0.003282
    26  H    0.005735   0.585991  -0.026890
    27  H   -0.003282  -0.026890   0.561396
 Mulliken charges:
               1
     1  O   -0.448348
     2  C    0.450346
     3  C   -0.348375
     4  C   -0.092453
     5  C   -0.259833
     6  C   -0.261738
     7  C   -0.260704
     8  C   -0.262596
     9  C   -0.080954
    10  C   -0.275757
    11  C   -0.346398
    12  H    0.159361
    13  H    0.148372
    14  H    0.125201
    15  H    0.134411
    16  H    0.126093
    17  H    0.133727
    18  H    0.130904
    19  H    0.128882
    20  H    0.133378
    21  H    0.128329
    22  H    0.130713
    23  H    0.112700
    24  H    0.139205
    25  H    0.140951
    26  H    0.152567
    27  H    0.162014
 Sum of Mulliken charges =  -0.00000
 Mulliken charges with hydrogens summed into heavy atoms:
               1
     1  O   -0.448348
     2  C    0.450346
     3  C   -0.040642
     4  C    0.032747
     5  C    0.000671
     6  C    0.002893
     7  C    0.001557
     8  C   -0.003554
     9  C    0.031746
    10  C    0.004399
    11  C   -0.031816
 APT charges:
               1
     1  O   -0.658973
     2  C    0.742386
     3  C   -0.072782
     4  C    0.111894
     5  C    0.109598
     6  C    0.114415
     7  C    0.118108
     8  C    0.114390
     9  C    0.063765
    10  C    0.139956
    11  C   -0.051210
    12  H   -0.028338
    13  H   -0.007439
    14  H   -0.058837
    15  H   -0.055272
    16  H   -0.049573
    17  H   -0.063389
    18  H   -0.048658
    19  H   -0.050673
    20  H   -0.063646
    21  H   -0.045974
    22  H   -0.059672
    23  H   -0.064874
    24  H   -0.054069
    25  H   -0.039523
    26  H   -0.011263
    27  H   -0.030346
 Sum of APT charges =   0.00000
 APT charges with hydrogens summed into heavy atoms:
               1
     1  O   -0.658973
     2  C    0.742386
     3  C   -0.108558
     4  C    0.053057
     5  C    0.004753
     6  C    0.002368
     7  C    0.003788
     8  C    0.008743
     9  C   -0.001109
    10  C    0.046365
    11  C   -0.092819
 Electronic spatial extent (au):  <R**2>=           1958.2765
 Charge=             -0.0000 electrons
 Dipole moment (field-independent basis, Debye):
    X=             -2.8546    Y=              1.0997    Z=              1.0767  Tot=              3.2430
 Quadrupole moment (field-independent basis, Debye-Ang):
   XX=            -80.5658   YY=            -67.4959   ZZ=            -66.9449
   XY=              4.6757   XZ=              3.7477   YZ=             -0.6453
 Traceless Quadrupole moment (field-independent basis, Debye-Ang):
   XX=             -8.8969   YY=              4.1730   ZZ=              4.7239
   XY=              4.6757   XZ=              3.7477   YZ=             -0.6453
 Octapole moment (field-independent basis, Debye-Ang**2):
  XXX=            -41.0727  YYY=             -2.2535  ZZZ=             -0.8812  XYY=              2.4868
  XXY=             15.9768  XXZ=             11.6319  XZZ=              4.3120  YZZ=             -0.5997
  YYZ=              0.3268  XYZ=             -2.7870
 Hexadecapole moment (field-independent basis, Debye-Ang**3):
 XXXX=          -1954.2443 YYYY=           -651.4608 ZZZZ=           -164.3636 XXXY=             52.1380
 XXXZ=             36.8423 YYYX=             -5.6986 YYYZ=              6.2245 ZZZX=             -3.4837
 ZZZY=              0.8174 XXYY=           -411.4671 XXZZ=           -322.8508 YYZZ=           -139.2409
 XXYZ=            -11.9997 YYXZ=             -0.4321 ZZXY=             -1.7977
 N-N= 6.460713888275D+02 E-N=-2.372567412675D+03  KE= 4.614433314010D+02
  Exact polarizability: 118.521  -0.263 101.037  -2.205   1.062  84.055
 Approx polarizability: 150.570  -5.134 139.021  -8.190   3.816 139.422
 Calling FoFJK, ICntrl=    100127 FMM=F ISym2X=0 I1Cent= 0 IOpClX= 0 NMat=1 NMatS=1 NMatT=0.
 Full mass-weighted force constant matrix:
 Low frequencies ---   -8.3245    0.0009    0.0009    0.0010    3.7689   10.8187
 Low frequencies ---   70.2357  114.2791  167.8468
 Diagonal vibrational polarizability:
        5.2730224       5.5486054      17.0562229
 Harmonic frequencies (cm**-1), IR intensities (KM/Mole), Raman scattering
 activities (A**4/AMU), depolarization ratios for plane and unpolarized
 incident light, reduced masses (AMU), force constants (mDyne/A),
 and normal coordinates:
                      1                      2                      3
                      A                      A                      A
 Frequencies --     70.2324               114.2787               167.8468
 Red. masses --      5.2584                 2.6457                 2.5579
 Frc consts  --      0.0153                 0.0204                 0.0425
 IR Inten    --      3.1652                 0.8663                 0.3216
  Atom  AN      X      Y      Z        X      Y      Z        X      Y      Z
     1   8     0.18  -0.06   0.36    -0.05  -0.09  -0.01    -0.09   0.04  -0.05
     2   6     0.03  -0.00   0.00    -0.01  -0.01   0.00    -0.03   0.01   0.09
     3   6    -0.02  -0.01  -0.18    -0.01   0.06   0.17    -0.02   0.02   0.13
     4   6    -0.03   0.02  -0.12     0.02   0.02   0.06     0.03  -0.02  -0.06
     5   6    -0.01  -0.01  -0.12     0.01  -0.02  -0.08     0.02  -0.05  -0.15
     6   6    -0.05   0.03   0.04     0.05   0.00  -0.16    -0.02   0.04   0.02
     7   6    -0.01  -0.01   0.18    -0.01  -0.06   0.01     0.07   0.00   0.16
     8   6    -0.05   0.02   0.11    -0.02   0.02   0.13     0.01  -0.01  -0.04
     9   6    -0.01  -0.00  -0.05     0.00   0.02   0.07     0.02  -0.01  -0.10
    10   6    -0.04  -0.00  -0.13    -0.03   0.02  -0.02     0.04  -0.03  -0.11
    11   6    -0.02   0.03  -0.15     0.04   0.04  -0.17    -0.03   0.01   0.11
    12   1     0.00   0.03  -0.26    -0.03  -0.01   0.33     0.02  -0.02   0.24
    13   1    -0.04  -0.13  -0.19    -0.02   0.24   0.19    -0.12   0.14   0.13
    14   1    -0.07   0.07  -0.13     0.12   0.04   0.07     0.15  -0.05  -0.05
    15   1    -0.04   0.02  -0.21     0.06   0.01  -0.14    -0.01   0.01  -0.31
    16   1     0.07  -0.11  -0.12    -0.09  -0.09  -0.09     0.06  -0.21  -0.16
    17   1    -0.02   0.00   0.07     0.03  -0.05  -0.31     0.01   0.02   0.06
    18   1    -0.15   0.12   0.04     0.17   0.14  -0.16    -0.14   0.14   0.02
    19   1     0.12  -0.09   0.20    -0.04  -0.19   0.01     0.29  -0.06   0.18
    20   1    -0.06   0.02   0.32    -0.00  -0.03   0.02    -0.01   0.03   0.36
    21   1    -0.17   0.08   0.11    -0.02   0.15   0.14    -0.11  -0.08  -0.05
    22   1    -0.02  -0.00   0.18    -0.05  -0.02   0.25     0.06   0.01  -0.09
    23   1     0.10  -0.04  -0.05     0.06   0.02   0.07     0.04   0.02  -0.10
    24   1    -0.03   0.01  -0.17     0.00   0.02  -0.01    -0.00   0.00  -0.24
    25   1    -0.09  -0.05  -0.14    -0.14   0.02  -0.02     0.15  -0.16  -0.11
    26   1     0.02   0.12  -0.16     0.22   0.16  -0.18    -0.20   0.03   0.11
    27   1    -0.03   0.01  -0.21    -0.01  -0.02  -0.36     0.03   0.00   0.21
                      4                      5                      6
                      A                      A                      A
 Frequencies --    211.2101               275.8774               324.2144
 Red. masses --      2.0848                 3.3376                 1.7124
 Frc consts  --      0.0548                 0.1497                 0.1061
 IR Inten    --      0.5039                 0.5111                 0.0790
  Atom  AN      X      Y      Z        X      Y      Z        X      Y      Z
     1   8    -0.01  -0.08   0.02     0.08   0.14  -0.00     0.02   0.01   0.01
     2   6    -0.01  -0.01  -0.02     0.04   0.05  -0.01    -0.01  -0.01  -0.03
     3   6    -0.02   0.05   0.03     0.08  -0.05   0.06     0.01  -0.03  -0.02
     4   6     0.02   0.04  -0.04     0.00  -0.15   0.05    -0.01  -0.01   0.06
     5   6     0.04  -0.02  -0.09    -0.12  -0.07  -0.04    -0.03   0.03   0.07
     6   6    -0.03  -0.03   0.09    -0.09   0.12   0.00     0.05   0.05  -0.11
     7   6     0.02  -0.00   0.02     0.00   0.14  -0.01     0.05  -0.03   0.11
     8   6    -0.01  -0.04  -0.13     0.10  -0.05  -0.02    -0.02  -0.05  -0.09
     9   6    -0.03   0.02  -0.00     0.00  -0.16   0.06    -0.02   0.02  -0.01
    10   6    -0.01   0.09   0.16    -0.08  -0.08   0.05    -0.02   0.03   0.03
    11   6     0.04   0.01  -0.06    -0.01   0.06  -0.09    -0.03  -0.02  -0.02
    12   1    -0.04   0.01   0.12     0.17  -0.06   0.11    -0.02  -0.01  -0.09
    13   1    -0.05   0.14   0.03     0.12  -0.00   0.07     0.08  -0.11  -0.02
    14   1     0.07   0.07  -0.04     0.05  -0.14   0.05    -0.04  -0.04   0.06
    15   1     0.05   0.03  -0.21    -0.26  -0.05  -0.16    -0.01  -0.01   0.18
    16   1     0.13  -0.14  -0.09    -0.14  -0.20  -0.05    -0.15   0.14   0.07
    17   1     0.03  -0.02   0.26    -0.14   0.18   0.00    -0.02  -0.00  -0.38
    18   1    -0.22  -0.10   0.10    -0.12   0.15   0.00     0.28   0.26  -0.12
    19   1     0.11   0.08   0.03    -0.02   0.19  -0.02     0.32  -0.16   0.14
    20   1    -0.02  -0.03   0.07     0.05   0.21  -0.06    -0.05   0.01   0.38
    21   1     0.01  -0.23  -0.14     0.16  -0.15  -0.03    -0.07  -0.27  -0.11
    22   1    -0.02   0.02  -0.29     0.24   0.00  -0.12    -0.00   0.03  -0.29
    23   1    -0.15  -0.03  -0.01    -0.04  -0.16   0.06    -0.08   0.08  -0.01
    24   1    -0.00   0.01   0.41    -0.17  -0.10   0.09    -0.01   0.01   0.12
    25   1    -0.07   0.36   0.17    -0.17  -0.03   0.05    -0.03   0.13   0.04
    26   1     0.24  -0.00  -0.06     0.16   0.15  -0.10    -0.01  -0.06  -0.01
    27   1    -0.00  -0.01  -0.18    -0.09   0.06  -0.26    -0.03  -0.01  -0.00
                      7                      8                      9
                      A                      A                      A
 Frequencies --    341.5878               367.6619               398.4049
 Red. masses --      1.9709                 3.6956                 3.7452
 Frc consts  --      0.1355                 0.2943                 0.3503
 IR Inten    --      0.0240                 0.9968                 1.4883
  Atom  AN      X      Y      Z        X      Y      Z        X      Y      Z
     1   8     0.03  -0.00  -0.02     0.21  -0.02  -0.06    -0.02  -0.01  -0.01
     2   6     0.03  -0.01  -0.01     0.18  -0.05  -0.08     0.05   0.10   0.04
     3   6     0.01  -0.01  -0.03     0.09   0.08   0.09    -0.04   0.11  -0.05
     4   6    -0.02   0.10   0.16     0.02   0.02  -0.00    -0.10  -0.00  -0.02
     5   6    -0.00  -0.04  -0.07    -0.03   0.06  -0.02    -0.17   0.01   0.02
     6   6    -0.03  -0.01   0.00    -0.08   0.04  -0.01    -0.19  -0.08  -0.08
     7   6    -0.01  -0.01  -0.01    -0.18   0.01   0.04    -0.02  -0.10   0.02
     8   6    -0.01  -0.02  -0.05    -0.17   0.01  -0.01     0.02  -0.10   0.01
     9   6    -0.03   0.10   0.15    -0.09   0.02  -0.06     0.07  -0.01   0.00
    10   6     0.01  -0.04  -0.05     0.01  -0.06   0.02     0.17  -0.02   0.02
    11   6     0.01  -0.02   0.00     0.03  -0.11   0.05     0.24   0.11   0.06
    12   1    -0.07   0.05  -0.22    -0.02  -0.06   0.39     0.06   0.13  -0.05
    13   1     0.13  -0.21  -0.03     0.13   0.41   0.12    -0.06   0.09  -0.05
    14   1    -0.02   0.24   0.16     0.09  -0.04   0.00    -0.16  -0.01  -0.02
    15   1     0.08   0.07  -0.34    -0.08   0.05   0.01    -0.11  -0.04   0.19
    16   1    -0.04  -0.34  -0.09    -0.05   0.09  -0.01    -0.26   0.17   0.03
    17   1    -0.01  -0.01   0.05    -0.03  -0.05  -0.06    -0.20  -0.06  -0.05
    18   1    -0.09  -0.01   0.01    -0.06   0.10  -0.02    -0.20  -0.09  -0.08
    19   1    -0.00   0.03  -0.01    -0.18  -0.01   0.04     0.08  -0.21   0.03
    20   1    -0.01  -0.01  -0.02    -0.19  -0.02   0.04    -0.01   0.06   0.16
    21   1     0.10  -0.25  -0.06    -0.26   0.02  -0.01     0.01  -0.15   0.00
    22   1    -0.09   0.05  -0.27    -0.14   0.01   0.00    -0.06  -0.09  -0.05
    23   1    -0.04   0.25   0.15    -0.12   0.02  -0.06     0.09  -0.02   0.00
    24   1     0.10   0.05  -0.29     0.10  -0.06   0.03     0.10   0.01  -0.08
    25   1    -0.04  -0.31  -0.06     0.07  -0.04   0.02     0.23  -0.11   0.02
    26   1    -0.03  -0.01   0.00    -0.10  -0.30   0.07     0.36   0.23   0.04
    27   1     0.01  -0.01   0.02     0.01   0.07   0.25     0.19   0.05  -0.12
                     10                     11                     12
                      A                      A                      A
 Frequencies --    440.3672               467.2481               486.6278
 Red. masses --      3.1341                 2.8049                 2.2436
 Frc consts  --      0.3581                 0.3608                 0.3130
 IR Inten    --      1.2726                 2.6903                 0.6863
  Atom  AN      X      Y      Z        X      Y      Z        X      Y      Z
     1   8    -0.03   0.06  -0.02     0.08   0.11   0.02    -0.01   0.05  -0.03
     2   6    -0.01  -0.07   0.12    -0.04  -0.06  -0.08     0.03  -0.02   0.12
     3   6     0.05  -0.17   0.05    -0.02  -0.09   0.07     0.03  -0.09   0.01
     4   6     0.14   0.04  -0.02    -0.03  -0.01   0.08    -0.02  -0.05   0.04
     5   6     0.03   0.19  -0.06    -0.10  -0.05  -0.01    -0.00  -0.10   0.02
     6   6    -0.08   0.02  -0.01    -0.11  -0.08  -0.02     0.04   0.00   0.03
     7   6    -0.15  -0.02   0.03     0.08  -0.05  -0.04    -0.04   0.02  -0.00
     8   6    -0.03  -0.14   0.04     0.05   0.04   0.02    -0.12   0.14  -0.05
     9   6     0.08   0.01   0.01     0.08   0.09  -0.05    -0.07   0.04  -0.10
    10   6     0.02   0.08  -0.04     0.06   0.15  -0.04     0.05   0.00   0.03
    11   6    -0.01  -0.01  -0.04    -0.06  -0.08  -0.05     0.10   0.01  -0.01
    12   1     0.06  -0.08  -0.18    -0.11  -0.13   0.15     0.05   0.01  -0.25
    13   1    -0.04  -0.41   0.02     0.08   0.03   0.09     0.02  -0.38  -0.01
    14   1     0.25   0.06  -0.02     0.01  -0.07   0.08    -0.01  -0.13   0.04
    15   1     0.01   0.13   0.11    -0.01  -0.02  -0.05    -0.03  -0.05  -0.13
    16   1     0.03   0.34  -0.05    -0.18  -0.12  -0.01    -0.00  -0.25   0.01
    17   1     0.06  -0.11   0.07    -0.12   0.03   0.16    -0.01   0.02  -0.06
    18   1    -0.17   0.03  -0.01    -0.24  -0.21  -0.02     0.10   0.03   0.02
    19   1    -0.27  -0.01   0.01     0.17  -0.12  -0.03     0.02   0.04   0.00
    20   1    -0.07   0.06  -0.09     0.06   0.03   0.08    -0.11  -0.10   0.04
    21   1    -0.05  -0.28   0.03     0.03   0.24   0.04    -0.22   0.31  -0.04
    22   1    -0.02  -0.08  -0.12    -0.04  -0.03   0.20    -0.11   0.07   0.14
    23   1     0.15   0.00   0.01     0.13   0.18  -0.04    -0.15   0.09  -0.10
    24   1     0.06   0.07   0.03     0.12   0.08   0.21     0.07  -0.01   0.08
    25   1    -0.00   0.13  -0.03     0.05   0.39  -0.03     0.11   0.09   0.03
    26   1     0.05   0.17  -0.06    -0.20  -0.23  -0.04     0.33   0.25  -0.03
    27   1     0.03  -0.16  -0.16     0.07  -0.13   0.15     0.05  -0.12  -0.30
                     13                     14                     15
                      A                      A                      A
 Frequencies --    512.5995               556.2276               686.7259
 Red. masses --      2.4080                 1.9357                 3.3627
 Frc consts  --      0.3728                 0.3529                 0.9343
 IR Inten    --      5.1962                 3.1823                 1.3172
  Atom  AN      X      Y      Z        X      Y      Z        X      Y      Z
     1   8     0.05   0.15  -0.01     0.00   0.11   0.04     0.11  -0.04  -0.12
     2   6    -0.02  -0.07   0.05    -0.08  -0.02  -0.04     0.21  -0.11   0.20
     3   6    -0.09  -0.01   0.02    -0.10   0.02  -0.02    -0.09  -0.01   0.00
     4   6    -0.03   0.07  -0.07    -0.05  -0.00  -0.03    -0.10   0.06  -0.09
     5   6     0.03   0.08  -0.01     0.02  -0.06   0.03    -0.05  -0.07   0.04
     6   6     0.01  -0.04  -0.02     0.07   0.03   0.04     0.00  -0.02   0.02
     7   6     0.08  -0.03  -0.01    -0.08   0.01   0.04     0.06  -0.00   0.01
     8   6     0.01   0.05  -0.03    -0.00  -0.06   0.03     0.06  -0.03   0.04
     9   6    -0.05   0.00   0.06     0.05   0.01  -0.01    -0.00   0.04   0.02
    10   6    -0.01  -0.14   0.05     0.10   0.02  -0.01    -0.10   0.09  -0.06
    11   6     0.00  -0.11  -0.04     0.05  -0.07  -0.02    -0.05   0.05   0.01
    12   1    -0.20  -0.09   0.17    -0.14  -0.07   0.19    -0.21  -0.05   0.05
    13   1    -0.21   0.15   0.03    -0.12   0.24  -0.00    -0.41  -0.03  -0.02
    14   1    -0.02   0.14  -0.07    -0.12  -0.02  -0.03    -0.21   0.09  -0.09
    15   1     0.08   0.02   0.19    -0.00   0.01  -0.17    -0.02  -0.05  -0.01
    16   1     0.05   0.30   0.00     0.10  -0.24   0.02     0.02  -0.09   0.04
    17   1     0.05  -0.00   0.15     0.01  -0.05  -0.27    -0.11   0.04  -0.17
    18   1    -0.11  -0.14  -0.01     0.32   0.22   0.03     0.17   0.07   0.01
    19   1     0.26  -0.10   0.01    -0.36   0.14   0.00    -0.10   0.06  -0.01
    20   1     0.00  -0.02   0.18     0.03  -0.05  -0.27     0.14   0.01  -0.15
    21   1     0.07   0.08  -0.02    -0.03  -0.28   0.01     0.11  -0.19   0.03
    22   1    -0.04   0.03   0.01     0.02   0.01  -0.19     0.01   0.03  -0.13
    23   1    -0.13  -0.07   0.05     0.11  -0.00  -0.01     0.11  -0.01   0.02
    24   1     0.07  -0.08  -0.10     0.13   0.01   0.03    -0.09   0.02   0.14
    25   1    -0.06  -0.29   0.04     0.12   0.06  -0.01    -0.19   0.27  -0.05
    26   1     0.28   0.10  -0.06     0.10  -0.07  -0.02    -0.21   0.31  -0.01
    27   1    -0.07  -0.21  -0.35     0.11  -0.19  -0.06    -0.07   0.10   0.03
                     16                     17                     18
                      A                      A                      A
 Frequencies --    750.6715               787.4595               830.4024
 Red. masses --      2.2349                 2.0670                 2.3397
 Frc consts  --      0.7420                 0.7552                 0.9506
 IR Inten    --      1.6571                 2.7908                 0.5618
  Atom  AN      X      Y      Z        X      Y      Z        X      Y      Z
     1   8    -0.02   0.03  -0.00     0.05  -0.02  -0.01    -0.05  -0.01   0.00
     2   6     0.03   0.04   0.07    -0.00  -0.05  -0.08    -0.02  -0.04   0.07
     3   6    -0.03   0.14   0.02    -0.08  -0.07  -0.01     0.17   0.07  -0.10
     4   6    -0.03   0.09   0.09    -0.01   0.04   0.07     0.06   0.05  -0.03
     5   6     0.01   0.08   0.01    -0.01   0.12   0.02    -0.02  -0.03   0.07
     6   6    -0.01   0.01   0.01     0.01   0.04   0.04    -0.11  -0.02   0.01
     7   6     0.01  -0.02  -0.00     0.02  -0.05  -0.03    -0.01   0.00  -0.01
     8   6     0.04  -0.08   0.00     0.02  -0.10  -0.03     0.04  -0.04  -0.01
     9   6     0.01  -0.08  -0.10     0.02  -0.04  -0.08     0.03   0.06  -0.03
    10   6    -0.00  -0.13  -0.03    -0.04   0.03   0.03    -0.03   0.01   0.02
    11   6    -0.00  -0.10  -0.07    -0.00   0.11   0.09    -0.13  -0.10   0.04
    12   1    -0.07   0.27  -0.32    -0.28  -0.15   0.09     0.24  -0.01   0.15
    13   1     0.04  -0.24  -0.01     0.03   0.07   0.01     0.15   0.35  -0.07
    14   1    -0.01   0.00   0.09    -0.05  -0.05   0.07    -0.07   0.05  -0.04
    15   1     0.10   0.17  -0.20     0.01   0.24  -0.32     0.02   0.04  -0.11
    16   1    -0.03  -0.15  -0.01     0.02  -0.25  -0.00     0.06  -0.21   0.06
    17   1     0.02  -0.03  -0.01     0.04  -0.03  -0.03    -0.21  -0.04  -0.26
    18   1     0.02   0.02   0.01     0.11   0.05   0.04     0.15   0.09  -0.00
    19   1    -0.01  -0.00  -0.01     0.09  -0.00  -0.02     0.06   0.04  -0.00
    20   1     0.05   0.05  -0.03     0.02   0.00   0.01     0.03   0.15   0.04
    21   1    -0.05   0.12   0.01    -0.06   0.26  -0.01     0.04   0.13  -0.00
    22   1     0.11  -0.14   0.19     0.04  -0.23   0.32     0.01  -0.09   0.13
    23   1     0.03   0.02  -0.10    -0.07   0.01  -0.08     0.01   0.07  -0.03
    24   1     0.01  -0.28   0.43    -0.24   0.08  -0.19     0.10   0.06  -0.07
    25   1    -0.04   0.34  -0.01     0.13  -0.17   0.03     0.07  -0.08   0.02
    26   1    -0.17  -0.11  -0.06     0.26   0.16   0.08     0.21   0.20   0.01
    27   1    -0.01  -0.01   0.05    -0.09   0.08  -0.14    -0.21  -0.26  -0.35
                     19                     20                     21
                      A                      A                      A
 Frequencies --    854.1851               864.7075               872.5094
 Red. masses --      1.5900                 2.2915                 1.6499
 Frc consts  --      0.6835                 1.0095                 0.7400
 IR Inten    --      0.2425                 2.4391                 1.3567
  Atom  AN      X      Y      Z        X      Y      Z        X      Y      Z
     1   8    -0.01   0.01  -0.00    -0.03   0.01   0.00    -0.01   0.01   0.01
     2   6     0.00   0.00   0.03     0.00  -0.00   0.06     0.01   0.04  -0.01
     3   6    -0.02  -0.03  -0.02     0.06   0.02  -0.07     0.01  -0.01   0.07
     4   6     0.01  -0.01  -0.03    -0.02  -0.06  -0.01     0.02   0.02  -0.08
     5   6     0.04   0.02   0.06    -0.07   0.06   0.01    -0.07   0.01  -0.01
     6   6    -0.03  -0.01   0.01     0.12   0.17   0.02    -0.04   0.02   0.10
     7   6    -0.12   0.03  -0.06     0.08  -0.08  -0.09     0.08  -0.08  -0.01
     8   6    -0.00   0.01  -0.06    -0.11  -0.08   0.03    -0.00  -0.05  -0.05
     9   6     0.03  -0.06   0.09    -0.03   0.01   0.05    -0.03   0.03   0.04
    10   6     0.02   0.02  -0.03     0.01   0.03  -0.04     0.01   0.02   0.04
    11   6     0.05   0.02  -0.04     0.02  -0.05  -0.00     0.03  -0.02  -0.07
    12   1     0.03  -0.06   0.10     0.19  -0.04   0.15     0.12   0.08  -0.11
    13   1    -0.16   0.07  -0.02    -0.01   0.22  -0.05    -0.07  -0.22   0.04
    14   1    -0.09   0.06  -0.03    -0.18  -0.03  -0.01     0.14   0.07  -0.07
    15   1     0.00   0.10  -0.18    -0.33   0.09  -0.17    -0.17  -0.01   0.01
    16   1     0.19  -0.21   0.05    -0.12  -0.10  -0.01     0.12   0.06  -0.00
    17   1    -0.02  -0.11  -0.13     0.15   0.31   0.37    -0.18  -0.00  -0.29
    18   1     0.19  -0.09   0.01    -0.12  -0.13   0.04     0.24   0.30   0.08
    19   1     0.38  -0.09  -0.00     0.13  -0.21  -0.08     0.00   0.20  -0.02
    20   1    -0.31   0.08   0.42     0.00  -0.17   0.00     0.13  -0.12  -0.16
    21   1     0.20   0.19  -0.04    -0.04  -0.09   0.03     0.01   0.22  -0.03
    22   1     0.03  -0.04   0.10    -0.29  -0.10   0.02    -0.19  -0.16   0.21
    23   1     0.03  -0.10   0.09     0.04   0.01   0.05    -0.19  -0.06   0.03
    24   1     0.04   0.00   0.04     0.11   0.01   0.06     0.14   0.09  -0.15
    25   1    -0.15   0.05  -0.03    -0.06   0.11  -0.04    -0.09  -0.19   0.03
    26   1    -0.23  -0.05  -0.03    -0.06   0.06  -0.01    -0.10  -0.25  -0.04
    27   1     0.16   0.01   0.20     0.10  -0.15   0.02     0.07   0.07   0.15
                     22                     23                     24
                      A                      A                      A
 Frequencies --    922.4424               941.3944               984.0131
 Red. masses --      2.3622                 1.4499                 1.9619
 Frc consts  --      1.1843                 0.7571                 1.1192
 IR Inten    --      1.3838                 2.2032                 5.2508
  Atom  AN      X      Y      Z        X      Y      Z        X      Y      Z
     1   8    -0.02  -0.02   0.01    -0.02   0.01   0.00    -0.01   0.01   0.00
     2   6     0.01   0.05  -0.01    -0.01  -0.02   0.02    -0.01  -0.02   0.04
     3   6     0.05  -0.09   0.01     0.02  -0.04  -0.08     0.07   0.00  -0.01
     4   6    -0.05  -0.01  -0.04    -0.01  -0.00   0.07    -0.06  -0.01   0.00
     5   6    -0.08   0.14  -0.00    -0.00  -0.00  -0.08    -0.04   0.11  -0.00
     6   6     0.02  -0.06   0.04     0.01  -0.02   0.03     0.02  -0.08  -0.02
     7   6    -0.00  -0.10   0.02     0.00  -0.01   0.05     0.01  -0.01   0.06
     8   6     0.02   0.15  -0.01     0.01  -0.00  -0.08     0.07   0.06   0.00
     9   6     0.09   0.05  -0.01    -0.00  -0.02   0.05    -0.07  -0.04  -0.03
    10   6     0.03  -0.14   0.04     0.01  -0.04  -0.05    -0.09   0.10  -0.01
    11   6    -0.07   0.06  -0.02     0.04   0.03   0.02     0.11  -0.06  -0.01
    12   1     0.21  -0.12   0.15     0.00  -0.16   0.21     0.17   0.01   0.04
    13   1    -0.01   0.05   0.02     0.06   0.29  -0.05     0.10   0.05  -0.00
    14   1    -0.13  -0.04  -0.04    -0.05   0.23   0.06    -0.18  -0.15  -0.00
    15   1    -0.10   0.24  -0.29     0.04  -0.09   0.19     0.07   0.19  -0.19
    16   1    -0.02  -0.17  -0.02    -0.12   0.25  -0.06    -0.15  -0.12  -0.02
    17   1     0.04  -0.16  -0.09     0.06  -0.14  -0.07     0.14  -0.24   0.01
    18   1     0.18  -0.03   0.04    -0.08   0.27   0.02     0.01  -0.07  -0.02
    19   1    -0.12  -0.10   0.00    -0.06   0.28   0.03    -0.17   0.02   0.04
    20   1    -0.02  -0.24  -0.08     0.02  -0.15  -0.13     0.09  -0.02  -0.11
    21   1     0.07  -0.13  -0.02    -0.01   0.26  -0.06     0.00  -0.04  -0.01
    22   1    -0.08   0.23  -0.28     0.02  -0.10   0.19     0.25   0.11  -0.06
    23   1     0.20   0.01  -0.00    -0.08   0.22   0.04    -0.24  -0.18  -0.03
    24   1     0.03  -0.20   0.22    -0.06  -0.13   0.21    -0.16   0.16  -0.22
    25   1     0.04   0.07   0.05    -0.11   0.22  -0.04    -0.23  -0.13  -0.03
    26   1    -0.09   0.07  -0.02    -0.14   0.21   0.00     0.01  -0.16   0.01
    27   1    -0.21   0.27  -0.04     0.11  -0.05   0.06     0.33  -0.29   0.14
                     25                     26                     27
                      A                      A                      A
 Frequencies --    986.3683              1006.3603              1044.0708
 Red. masses --      2.0904                 1.6489                 2.1366
 Frc consts  --      1.1983                 0.9839                 1.3723
 IR Inten    --      0.2922                 1.7510                 2.8726
  Atom  AN      X      Y      Z        X      Y      Z        X      Y      Z
     1   8    -0.03   0.01   0.02    -0.01  -0.01  -0.01    -0.01   0.02  -0.00
     2   6    -0.03   0.01  -0.02     0.04   0.03   0.05    -0.00  -0.04   0.04
     3   6     0.05  -0.11  -0.00    -0.00  -0.05  -0.03    -0.05   0.04  -0.08
     4   6     0.00   0.06  -0.02    -0.04  -0.03   0.01     0.18   0.03   0.03
     5   6     0.08   0.01   0.06     0.04   0.00   0.02    -0.02  -0.04   0.07
     6   6    -0.11  -0.00  -0.05     0.02   0.00  -0.07    -0.05   0.05  -0.03
     7   6     0.12   0.05  -0.02    -0.02   0.04   0.05     0.01  -0.08   0.04
     8   6    -0.08  -0.03   0.06     0.02  -0.07  -0.02    -0.02   0.09  -0.05
     9   6    -0.06   0.02  -0.03    -0.01   0.04  -0.01     0.11  -0.04  -0.01
    10   6    -0.03  -0.08  -0.03     0.09   0.00   0.08    -0.02  -0.01   0.06
    11   6     0.11   0.05   0.00    -0.07   0.02  -0.10     0.02   0.02  -0.05
    12   1     0.07  -0.18   0.17     0.16  -0.08   0.13    -0.31  -0.04   0.01
    13   1     0.00   0.10   0.01    -0.28   0.06  -0.04    -0.11   0.14  -0.07
    14   1    -0.06   0.09  -0.02    -0.30  -0.05   0.00     0.17  -0.08   0.03
    15   1     0.29   0.09  -0.08     0.15   0.04  -0.03     0.02   0.01  -0.03
    16   1     0.24  -0.13   0.06    -0.15  -0.08   0.01    -0.17  -0.17   0.06
    17   1    -0.28   0.22  -0.10     0.16  -0.06   0.15    -0.17   0.26   0.07
    18   1     0.04  -0.07  -0.04    -0.19  -0.06  -0.06    -0.18   0.05  -0.03
    19   1    -0.05  -0.05  -0.04    -0.13   0.03   0.04    -0.25  -0.16   0.01
    20   1     0.27   0.32  -0.10     0.09   0.18  -0.06    -0.00  -0.29  -0.15
    21   1    -0.24  -0.19   0.04    -0.21   0.11  -0.02    -0.24   0.02  -0.07
    22   1    -0.20   0.01  -0.08     0.12  -0.12   0.17     0.06   0.10  -0.07
    23   1    -0.07   0.05  -0.03    -0.29   0.07  -0.02    -0.07  -0.18  -0.02
    24   1    -0.12  -0.15   0.15     0.33   0.09  -0.10    -0.09   0.03  -0.10
    25   1    -0.11   0.12  -0.02     0.05  -0.18   0.07    -0.27  -0.20   0.05
    26   1    -0.09  -0.02   0.01    -0.17  -0.11  -0.08    -0.21   0.00  -0.04
    27   1     0.16   0.07   0.15    -0.14   0.25   0.06     0.12  -0.00   0.14
                     28                     29                     30
                      A                      A                      A
 Frequencies --   1069.3964              1073.8154              1085.0921
 Red. masses --      1.4969                 1.3924                 1.9608
 Frc consts  --      1.0086                 0.9460                 1.3602
 IR Inten    --      1.0345                 0.6499                 2.4029
  Atom  AN      X      Y      Z        X      Y      Z        X      Y      Z
     1   8     0.01  -0.01  -0.01     0.01  -0.00  -0.01     0.00  -0.00   0.00
     2   6    -0.01  -0.04  -0.00     0.02   0.01   0.01    -0.02  -0.03  -0.01
     3   6    -0.02   0.04  -0.02    -0.01   0.02   0.01     0.10  -0.03   0.06
     4   6     0.00  -0.05   0.02    -0.05  -0.05   0.02    -0.12   0.13  -0.02
     5   6     0.02   0.06  -0.01     0.08   0.02  -0.00     0.03  -0.04   0.01
     6   6    -0.04  -0.04   0.01    -0.04   0.01  -0.01    -0.01   0.08   0.00
     7   6     0.06   0.01  -0.01     0.03   0.00  -0.01    -0.03  -0.06  -0.01
     8   6    -0.03   0.02   0.02    -0.07   0.02  -0.02     0.02   0.01  -0.01
     9   6    -0.07  -0.05   0.03     0.09  -0.02   0.02    -0.03  -0.11  -0.01
    10   6     0.11   0.02  -0.01    -0.04   0.02   0.01     0.08   0.04  -0.00
    11   6    -0.06   0.03   0.00    -0.01  -0.03  -0.00    -0.05   0.04  -0.01
    12   1    -0.23   0.02  -0.06     0.12   0.05  -0.01     0.09  -0.01  -0.00
    13   1     0.33   0.04   0.01    -0.11  -0.05  -0.00     0.18  -0.06   0.06
    14   1     0.14  -0.31   0.02    -0.24  -0.25   0.01    -0.20   0.21  -0.03
    15   1     0.08   0.09  -0.06     0.40   0.06   0.01     0.34  -0.02   0.08
    16   1     0.04  -0.02  -0.01    -0.13  -0.01  -0.01     0.06   0.07   0.02
    17   1    -0.02  -0.11  -0.09    -0.01  -0.04  -0.03    -0.22   0.38   0.05
    18   1     0.04   0.06   0.00    -0.22   0.31  -0.02    -0.14   0.14   0.00
    19   1     0.04   0.12  -0.01     0.10   0.31  -0.01    -0.06  -0.15  -0.01
    20   1     0.10   0.07  -0.04     0.00  -0.10  -0.05    -0.18  -0.41  -0.01
    21   1     0.04  -0.07   0.02     0.11   0.04  -0.01     0.09  -0.01  -0.01
    22   1    -0.15   0.03  -0.06    -0.38  -0.02  -0.03     0.28   0.04  -0.00
    23   1    -0.16  -0.38   0.03     0.33  -0.15   0.03    -0.07  -0.24  -0.01
    24   1     0.38   0.05   0.02    -0.16   0.03  -0.06    -0.01   0.04  -0.04
    25   1    -0.05   0.03  -0.01     0.03  -0.06   0.01     0.17   0.00  -0.00
    26   1    -0.25   0.41  -0.03     0.12  -0.16   0.01    -0.05   0.06  -0.02
    27   1    -0.01  -0.06  -0.03    -0.02  -0.04  -0.03     0.01  -0.05  -0.01
                     31                     32                     33
                      A                      A                      A
 Frequencies --   1102.3331              1145.6246              1157.0629
 Red. masses --      2.8925                 1.9773                 1.5952
 Frc consts  --      2.0709                 1.5290                 1.2583
 IR Inten    --      2.0752                 7.7039                 1.8449
  Atom  AN      X      Y      Z        X      Y      Z        X      Y      Z
     1   8    -0.01   0.00   0.00    -0.00   0.01   0.01    -0.03   0.01   0.01
     2   6    -0.02  -0.04   0.01    -0.05  -0.08  -0.02     0.01   0.03   0.01
     3   6     0.07  -0.00   0.02     0.04   0.00   0.04     0.02  -0.05  -0.03
     4   6     0.01   0.16  -0.02    -0.07   0.06  -0.08     0.10   0.07  -0.00
     5   6    -0.15  -0.03  -0.01     0.00  -0.06   0.02    -0.03  -0.02   0.03
     6   6     0.12  -0.12  -0.00     0.05   0.05  -0.02     0.02  -0.02   0.01
     7   6     0.05   0.16   0.00    -0.07  -0.01   0.01    -0.01  -0.00  -0.03
     8   6    -0.16  -0.04  -0.01     0.05  -0.05  -0.01     0.02  -0.02   0.07
     9   6     0.10  -0.11   0.00     0.06   0.14  -0.05    -0.12   0.03  -0.06
    10   6     0.05   0.01   0.03    -0.04  -0.07   0.06    -0.02  -0.02  -0.02
    11   6    -0.04   0.03  -0.03     0.06   0.03   0.00     0.04   0.01  -0.01
    12   1    -0.04  -0.01  -0.01    -0.07   0.03  -0.08    -0.19  -0.13   0.07
    13   1     0.06   0.01   0.02     0.44  -0.05   0.06    -0.14   0.08  -0.03
    14   1     0.01   0.31  -0.02    -0.03  -0.28  -0.08     0.03  -0.14  -0.01
    15   1    -0.05  -0.02   0.01    -0.02  -0.07   0.04     0.08   0.00   0.00
    16   1    -0.36  -0.02  -0.02    -0.12  -0.02   0.02    -0.43  -0.10   0.01
    17   1     0.11  -0.10   0.03     0.19  -0.08   0.11     0.04  -0.05   0.00
    18   1     0.18  -0.27   0.00    -0.15   0.05  -0.01    -0.15   0.21   0.01
    19   1     0.16   0.35   0.01     0.04   0.03   0.02     0.19   0.24  -0.01
    20   1     0.03   0.12   0.02    -0.03   0.14   0.07    -0.12  -0.18   0.05
    21   1    -0.31  -0.03  -0.01     0.15   0.08   0.00     0.48  -0.09   0.08
    22   1    -0.12  -0.04   0.02    -0.23  -0.11   0.06     0.04   0.02  -0.04
    23   1     0.20  -0.30   0.01     0.04  -0.12  -0.05     0.06  -0.17  -0.05
    24   1    -0.18   0.01  -0.06    -0.03  -0.06   0.03     0.18  -0.01   0.02
    25   1     0.07  -0.10   0.03    -0.43  -0.12   0.04     0.15   0.07  -0.01
    26   1    -0.06  -0.04  -0.03    -0.26   0.27  -0.01     0.08  -0.16   0.00
    27   1     0.03  -0.03   0.04     0.10   0.03   0.10    -0.07   0.20   0.03
                     34                     35                     36
                      A                      A                      A
 Frequencies --   1163.1039              1197.5645              1240.0238
 Red. masses --      2.1321                 1.5184                 1.4366
 Frc consts  --      1.6994                 1.2830                 1.3015
 IR Inten    --      2.1899                17.2770                 1.1116
  Atom  AN      X      Y      Z        X      Y      Z        X      Y      Z
     1   8    -0.03   0.02  -0.01    -0.01  -0.01   0.00    -0.04   0.01   0.01
     2   6     0.02  -0.06   0.12     0.03   0.08  -0.00     0.03   0.02   0.06
     3   6     0.01   0.01  -0.08    -0.05  -0.04  -0.02    -0.01  -0.02  -0.02
     4   6    -0.07  -0.03   0.10    -0.03  -0.01   0.03    -0.04  -0.00  -0.04
     5   6     0.02  -0.00  -0.10    -0.04   0.01  -0.06    -0.01   0.01   0.04
     6   6    -0.02   0.01   0.08     0.03  -0.04   0.04     0.01   0.00  -0.08
     7   6    -0.01  -0.01  -0.08    -0.00   0.05  -0.03     0.00   0.01   0.08
     8   6     0.00   0.01   0.07    -0.03  -0.04   0.02    -0.00  -0.01  -0.07
     9   6     0.01   0.01  -0.09     0.06   0.04  -0.03    -0.01  -0.01   0.06
    10   6     0.01   0.01   0.10    -0.07   0.01   0.01    -0.03   0.02  -0.04
    11   6     0.00   0.03  -0.12     0.04  -0.06   0.03     0.02  -0.02  -0.01
    12   1    -0.16  -0.09   0.10     0.09  -0.05   0.07    -0.28  -0.09   0.04
    13   1     0.33   0.20  -0.04     0.14   0.06   0.01     0.50   0.08   0.03
    14   1     0.09  -0.03   0.10     0.10  -0.13   0.03     0.17  -0.03  -0.03
    15   1    -0.06  -0.09   0.12     0.36   0.03   0.04    -0.07   0.04  -0.07
    16   1     0.23   0.25  -0.07     0.02   0.11  -0.05     0.26  -0.06   0.04
    17   1    -0.05  -0.05  -0.11    -0.24   0.29  -0.05     0.00   0.10   0.09
    18   1     0.19   0.05   0.07     0.17  -0.09   0.04    -0.04  -0.19  -0.07
    19   1     0.14  -0.12  -0.05     0.08  -0.01  -0.02    -0.14   0.09   0.06
    20   1    -0.04   0.09   0.11    -0.17  -0.24   0.06     0.05  -0.06  -0.09
    21   1     0.05  -0.16   0.06    -0.16  -0.03   0.01     0.10   0.16  -0.05
    22   1    -0.07   0.06  -0.11     0.30  -0.01   0.03    -0.05  -0.07   0.09
    23   1     0.07   0.08  -0.09     0.06  -0.03  -0.03     0.21  -0.06   0.06
    24   1    -0.27   0.06  -0.16     0.42   0.08  -0.01     0.10   0.02   0.01
    25   1     0.20  -0.20   0.09    -0.35  -0.08  -0.00     0.16   0.08  -0.03
    26   1    -0.09  -0.30  -0.08    -0.01   0.11   0.02     0.22  -0.30   0.01
    27   1     0.05   0.16   0.17    -0.09   0.08  -0.04    -0.16   0.28   0.01
                     37                     38                     39
                      A                      A                      A
 Frequencies --   1249.0529              1276.8431              1293.2914
 Red. masses --      1.7621                 1.4417                 1.2305
 Frc consts  --      1.6197                 1.3849                 1.2127
 IR Inten    --     25.8255                 7.7710                 0.3781
  Atom  AN      X      Y      Z        X      Y      Z        X      Y      Z
     1   8    -0.02  -0.02   0.01    -0.01   0.03   0.01     0.01   0.00  -0.00
     2   6     0.07   0.16  -0.01    -0.06  -0.12  -0.00    -0.01  -0.03   0.01
     3   6     0.03  -0.07   0.01     0.00   0.03   0.01    -0.03  -0.00  -0.03
     4   6    -0.03   0.07   0.04     0.00   0.01   0.02     0.01   0.02   0.02
     5   6     0.02  -0.05  -0.02     0.03  -0.01  -0.00    -0.04  -0.01  -0.03
     6   6    -0.01   0.05   0.03    -0.03   0.02   0.03     0.03   0.02   0.05
     7   6    -0.02  -0.04  -0.02     0.02  -0.02  -0.04    -0.04  -0.00   0.02
     8   6     0.03   0.04  -0.02    -0.01   0.03  -0.00     0.05   0.01  -0.04
     9   6     0.04  -0.05  -0.03     0.02  -0.04   0.00    -0.01   0.01   0.03
    10   6    -0.02   0.03  -0.02    -0.03   0.03  -0.04     0.02  -0.00  -0.05
    11   6    -0.02  -0.05   0.03     0.07  -0.02   0.03    -0.01   0.01   0.01
    12   1    -0.40  -0.17   0.07     0.20   0.08  -0.03     0.31   0.03   0.04
    13   1    -0.02   0.02   0.01     0.02  -0.01   0.00    -0.06   0.05  -0.03
    14   1    -0.13   0.15   0.03    -0.15   0.14   0.01     0.24  -0.15   0.03
    15   1    -0.17  -0.11   0.09    -0.14  -0.05   0.03     0.38   0.02   0.05
    16   1    -0.01   0.07  -0.01    -0.07   0.01   0.00    -0.23   0.04  -0.03
    17   1     0.17  -0.22   0.00     0.12  -0.23  -0.04    -0.08   0.15   0.02
    18   1    -0.01   0.09   0.03    -0.05   0.17   0.02     0.20  -0.14   0.06
    19   1    -0.06  -0.23  -0.02     0.02  -0.12  -0.04    -0.17  -0.28   0.02
    20   1     0.14   0.35   0.02     0.06   0.09  -0.00     0.07   0.26   0.04
    21   1    -0.11   0.00  -0.03    -0.23  -0.04  -0.02     0.10   0.08  -0.03
    22   1    -0.25   0.02  -0.06     0.14   0.06  -0.04    -0.34  -0.05   0.01
    23   1    -0.03  -0.37  -0.04     0.05  -0.14   0.00    -0.19  -0.25   0.02
    24   1     0.21   0.04  -0.00     0.29   0.07  -0.02    -0.14  -0.05   0.03
    25   1    -0.19  -0.03  -0.03    -0.13   0.06  -0.05     0.05   0.10  -0.04
    26   1     0.11  -0.04   0.02     0.11  -0.05   0.03     0.12  -0.12   0.02
    27   1     0.02  -0.19  -0.08    -0.35   0.60  -0.01    -0.08   0.11  -0.02
                     40                     41                     42
                      A                      A                      A
 Frequencies --   1298.8046              1314.2988              1333.1936
 Red. masses --      1.3730                 1.3980                 1.2465
 Frc consts  --      1.3646                 1.4228                 1.3054
 IR Inten    --      2.4833                 5.3696                 1.0739
  Atom  AN      X      Y      Z        X      Y      Z        X      Y      Z
     1   8     0.02  -0.01  -0.01     0.01  -0.01  -0.01     0.00  -0.00  -0.00
     2   6    -0.00   0.01  -0.01     0.04   0.04   0.03    -0.00   0.01  -0.01
     3   6    -0.07  -0.02  -0.02    -0.11  -0.03  -0.01    -0.02  -0.00   0.01
     4   6    -0.01   0.02   0.07    -0.00   0.01  -0.07     0.02  -0.01  -0.04
     5   6    -0.01  -0.02   0.03    -0.01  -0.01   0.07     0.00  -0.00  -0.01
     6   6     0.00   0.02  -0.05     0.01   0.01   0.01     0.00   0.01   0.05
     7   6    -0.01  -0.02   0.04     0.00  -0.01  -0.06     0.01  -0.02  -0.00
     8   6    -0.01   0.01   0.00     0.01   0.01   0.04    -0.03   0.01  -0.05
     9   6    -0.01  -0.03  -0.09     0.02  -0.00   0.03    -0.05  -0.02   0.03
    10   6    -0.02   0.02   0.04     0.02  -0.00  -0.01    -0.07   0.00   0.05
    11   6     0.02  -0.04  -0.01    -0.03  -0.01  -0.01     0.03  -0.01  -0.03
    12   1     0.50   0.04   0.08     0.27   0.01   0.06    -0.01   0.01  -0.01
    13   1    -0.03   0.05  -0.01     0.45   0.06   0.04     0.14  -0.01   0.02
    14   1     0.26   0.38   0.08     0.30   0.15  -0.05    -0.07   0.03  -0.04
    15   1    -0.12  -0.01  -0.01     0.15   0.04  -0.02     0.17   0.01   0.01
    16   1     0.27  -0.02   0.04    -0.14  -0.14   0.05    -0.27  -0.02  -0.02
    17   1     0.08  -0.02   0.07     0.17  -0.21   0.02    -0.00  -0.01  -0.01
    18   1    -0.06  -0.09  -0.05    -0.24   0.35   0.00     0.06   0.07   0.05
    19   1    -0.01   0.18   0.04     0.13  -0.00  -0.05    -0.12  -0.30  -0.01
    20   1     0.05   0.01  -0.04    -0.02   0.03   0.04     0.14   0.27  -0.02
    21   1     0.33   0.02   0.02    -0.27  -0.10   0.02     0.03   0.10  -0.05
    22   1    -0.18   0.00  -0.03     0.12   0.05  -0.04     0.18   0.00   0.03
    23   1     0.15  -0.18  -0.08    -0.24   0.10   0.01     0.49   0.16   0.04
    24   1     0.09   0.07  -0.07    -0.14  -0.03   0.01     0.16   0.06  -0.04
    25   1     0.03  -0.09   0.04     0.06   0.03  -0.01     0.40  -0.05   0.06
    26   1    -0.20   0.25  -0.03     0.06  -0.08  -0.00    -0.23   0.23  -0.04
    27   1    -0.01   0.01  -0.00     0.04  -0.11  -0.01     0.11  -0.08   0.05
                     43                     44                     45
                      A                      A                      A
 Frequencies --   1345.9391              1360.2985              1369.4792
 Red. masses --      1.3652                 1.3317                 1.3431
 Frc consts  --      1.4572                 1.4518                 1.4842
 IR Inten    --      1.4754                10.4838                 6.1117
  Atom  AN      X      Y      Z        X      Y      Z        X      Y      Z
     1   8     0.02  -0.01  -0.01     0.00   0.00   0.00     0.01   0.00  -0.01
     2   6     0.00  -0.01   0.01    -0.02  -0.04  -0.00    -0.00  -0.04   0.02
     3   6    -0.03  -0.01  -0.02     0.08   0.02  -0.02    -0.05   0.02   0.02
     4   6    -0.02   0.07   0.04    -0.06  -0.02  -0.01     0.06  -0.05  -0.01
     5   6     0.04  -0.01  -0.01    -0.07  -0.01   0.03     0.02   0.02  -0.01
     6   6    -0.02  -0.00   0.00     0.00   0.04  -0.00     0.01  -0.02   0.01
     7   6     0.02  -0.02  -0.00     0.01  -0.00  -0.01    -0.02  -0.02   0.02
     8   6    -0.06  -0.02  -0.03     0.01   0.01  -0.00     0.01   0.01   0.01
     9   6    -0.03   0.07   0.02    -0.02  -0.04  -0.02    -0.01  -0.03  -0.05
    10   6     0.03  -0.04  -0.01    -0.01  -0.01   0.01    -0.01  -0.03   0.00
    11   6    -0.05   0.07   0.00    -0.02   0.07   0.01    -0.05   0.10   0.01
    12   1     0.30   0.01   0.07    -0.13  -0.01  -0.03     0.07   0.05  -0.01
    13   1    -0.05   0.03  -0.02    -0.30   0.00  -0.04     0.29  -0.03   0.04
    14   1     0.09  -0.34   0.05     0.48   0.05   0.02    -0.36   0.39  -0.03
    15   1    -0.30  -0.07   0.02     0.39   0.06  -0.01     0.00   0.02  -0.01
    16   1     0.06   0.04  -0.01     0.18  -0.03   0.04    -0.18  -0.01  -0.02
    17   1     0.00  -0.04  -0.02     0.21  -0.21   0.06    -0.14   0.18  -0.01
    18   1    -0.01   0.03  -0.00    -0.05   0.07   0.00     0.07  -0.08   0.01
    19   1    -0.00  -0.03  -0.01     0.01  -0.07  -0.01     0.00   0.09   0.02
    20   1     0.08   0.08  -0.04     0.01   0.01  -0.02     0.03   0.10   0.02
    21   1    -0.03   0.05  -0.03    -0.04  -0.02  -0.01     0.13   0.01   0.01
    22   1     0.45   0.01   0.06    -0.03  -0.00   0.00    -0.16   0.01  -0.05
    23   1     0.33  -0.34   0.04     0.22   0.24  -0.01     0.04   0.11  -0.06
    24   1     0.02  -0.06   0.05     0.33   0.03   0.00     0.36   0.02   0.02
    25   1    -0.15   0.03  -0.01    -0.21  -0.02   0.00    -0.27   0.00  -0.01
    26   1     0.18  -0.22   0.03     0.15  -0.15   0.03     0.25  -0.27   0.04
    27   1     0.16  -0.23   0.03     0.11  -0.10   0.05     0.17  -0.19   0.06
                     46                     47                     48
                      A                      A                      A
 Frequencies --   1385.2526              1394.0693              1398.1097
 Red. masses --      1.3859                 1.3667                 1.4606
 Frc consts  --      1.5669                 1.5650                 1.6821
 IR Inten    --      1.0558                 0.8839                 4.0214
  Atom  AN      X      Y      Z        X      Y      Z        X      Y      Z
     1   8    -0.01   0.00   0.00    -0.00  -0.00  -0.00     0.01   0.00  -0.00
[...]
 .00006321,-0.00001083,-0.00003381,-0.00000414,-0.00000082,0.00012277,0
 .00000154,0.00164057,0.00005392,0.00116372,-0.00031879,-0.00001046,-0.
 00015814,-0.00085130,0.00081133,0.00030317,-0.00062159,0.00115510,-0.0
 0038500,0.00034399,-0.00042795,0.00034529,-0.00121766,0.05475632,-0.00
 011065,-0.00001658,0.00000159,0.00012475,0.00004653,-0.00000937,-0.000
 00339,-0.00001936,0.00000108,0.00018708,-0.00001346,0.00001063,0.00034
 987,-0.00004179,0.00080394,0.00366283,-0.00028754,0.00253823,-0.127980
 08,0.00123778,-0.19085924,0.00315480,0.00026426,0.00198963,0.00033991,
 -0.00002707,0.00072520,-0.00009475,0.00028397,0.00020867,0.00001171,-0
 .00001596,0.00004150,-0.00001155,0.00000163,0.00000195,0.00001364,-0.0
 0000888,0.00000359,-0.00004837,-0.00000281,-0.00000784,-0.00015015,-0.
 00016757,0.00020844,0.00024448,-0.00011688,0.00046708,-0.00014408,0.00
 054814,-0.00005524,-0.00014534,0.00044687,0.00083909,-0.01938321,0.000
 17475,-0.02153272,0.14005247,-0.00131290,0.20339232,0.00002209,0.00000
 714,-0.00002471,0.00002350,-0.00001667,0.00003337,0.00004277,-0.000099
 22,-0.00008086,0.00148977,-0.00059354,-0.00039775,-0.00011260,-0.00008
 260,-0.00012190,0.00044330,0.00118773,-0.00029872,-0.00998802,-0.00190
 427,0.01824907,-0.09387035,-0.00418917,0.09495388,0.00925502,0.0009638
 4,-0.02298060,0.00140583,0.00067197,-0.00059532,0.00011122,0.00013472,
 -0.00010824,-0.00003432,0.00000118,0.00008988,-0.00008267,0.00001202,0
 .00013645,-0.00017158,-0.00001108,0.00031420,0.00008516,0.00004085,0.0
 0005372,-0.00013788,0.00001317,0.00001097,-0.00000678,0.00010398,-0.00
 029224,0.00064010,-0.00041584,-0.00036065,-0.00134931,-0.00405965,-0.0
 0014122,0.00023601,0.00062033,-0.00010998,0.10370186,-0.00001715,-0.00
 007091,-0.00000822,0.00003060,0.00017862,0.00002585,0.00004792,-0.0000
 4283,-0.00000354,-0.00048060,0.00014808,0.00090583,0.00006424,-0.00022
 114,-0.00003963,-0.00042210,0.00172251,0.00121456,-0.01315540,-0.00285
 828,0.02631813,-0.00416335,-0.05180962,0.01326509,0.00002457,-0.000691
 13,-0.00008962,0.00041508,0.00027138,-0.00089727,-0.00000059,-0.000122
 10,0.00002302,-0.00000767,-0.00000963,-0.00001877,0.00002747,-0.000033
 76,-0.00005000,0.00024215,0.00005959,0.00005335,0.00008004,-0.00001642
 ,0.00002576,-0.00001495,0.00003455,-0.00022654,0.00002005,0.00032241,-
 0.00042147,0.00044259,-0.00035708,-0.00063009,-0.00331697,-0.00459881,
 0.00049991,0.00063021,0.00116224,-0.00043128,0.00921273,0.05402204,-0.
 00012039,-0.00003202,0.00001658,0.00020055,0.00007738,-0.00002615,-0.0
 0033790,0.00001939,0.00033619,0.00167633,-0.00089043,0.00013167,-0.000
 20934,0.00017351,0.00006475,-0.00013510,-0.00033662,-0.00001099,0.0007
 7252,0.00006076,-0.00097392,0.09482004,0.01345556,-0.25046396,0.009365
 09,0.00075566,-0.02447653,0.00160860,0.00090456,0.00020302,-0.00037315
 ,-0.00007728,0.00041039,-0.00011837,0.00001345,0.00000079,0.00015252,-
 0.00005626,0.00028814,-0.00090021,0.00071547,0.00069989,0.00000136,0.0
 0009621,-0.00001678,0.00001686,-0.00020505,0.00011386,-0.00016119,0.00
 011796,0.00025119,-0.00035333,0.00060891,0.00022793,0.00000460,-0.0000
 6763,0.00136291,0.00029636,0.00038446,0.00082593,-0.10278172,-0.014741
 71,0.27603420,-0.00011286,-0.00040155,-0.00002194,0.00037765,0.0009973
 5,0.00019512,-0.00056870,0.00143327,0.00031295,-0.00245495,-0.00190991
 ,-0.00445207,-0.00031312,-0.00046483,-0.00007659,-0.00247460,-0.002952
 26,0.00035954,0.01255333,-0.01720546,-0.00244160,-0.13520508,0.1196136
 4,0.01833431,-0.01522387,0.01918348,0.00370286,0.00042805,0.00160659,0
 .00073903,0.00031313,-0.00051945,-0.00009708,-0.00044023,-0.00002393,-
 0.00044093,0.00001926,-0.00001863,-0.00009228,0.00031534,-0.00040564,-
 0.00001672,0.00011454,0.00013946,0.00008557,0.00006604,0.00007747,0.00
 001018,0.00064389,-0.00111991,-0.00003267,-0.00000160,-0.00003515,-0.0
 0015784,0.00084407,0.00082379,-0.00005879,0.00079071,0.00084550,-0.000
 11164,-0.00844541,0.01102243,0.00176598,0.14777618,0.00011027,0.000138
 28,-0.00001973,-0.00022949,-0.00029813,0.00000404,-0.00000046,0.000141
 80,-0.00020538,-0.00077572,0.00101752,0.00042785,-0.00032657,0.0004020
 1,-0.00039518,-0.00568468,-0.00321701,0.00073269,0.01679443,-0.0225624
 4,-0.00365597,0.11960285,-0.21334960,-0.02399409,0.00006769,-0.0002765
 1,0.00049176,-0.00071109,0.00069720,-0.00014388,0.00007813,0.00027615,
 0.00012761,0.00002318,-0.00001216,0.00004029,-0.00001951,-0.00000834,0
 .00000875,-0.00000178,0.00000352,-0.00008702,0.00010741,-0.00000445,0.
 00004673,0.00004595,-0.00000535,0.00011433,0.00117164,-0.00160518,0.00
 004201,-0.00010792,0.00031259,-0.00012383,0.00015634,0.00109472,0.0006
 2993,-0.00006464,0.00086853,-0.00053346,-0.00137985,0.00215120,-0.0004
 5560,-0.12911337,0.23354704,-0.00008612,-0.00019833,0.00001077,0.00017
 879,0.00049037,0.00004601,-0.00085455,0.00114986,0.00057806,-0.0026544
 3,-0.00163965,-0.00348560,-0.00002108,-0.00036991,-0.00001688,-0.00002
 935,-0.00004041,0.00048102,-0.00074334,0.00233643,-0.00056975,0.018858
 37,-0.02450023,-0.05387038,-0.01585327,0.02032066,0.00201698,0.0006630
 3,0.00078188,0.00055098,0.00025340,0.00006402,-0.00006705,-0.00038510,
 0.00001352,-0.00039839,0.00012398,-0.00000792,0.00003461,-0.00031945,0
 .00011400,0.00031685,0.00006314,0.00004335,0.00003067,0.00005257,0.000
 03197,-0.00000700,0.00000896,-0.00010912,0.00038182,-0.00029281,0.0004
 2627,0.00026104,-0.00054039,0.00008165,0.00030727,0.00019703,-0.000271
 98,-0.00006081,0.01758194,-0.02481547,-0.00324547,-0.01718575,0.026473
 18,0.05557043,0.00015170,0.00000126,0.00006319,-0.00037707,-0.00000152
 ,-0.00000927,0.00061073,-0.00057084,0.00128951,-0.01056730,0.00162152,
 0.01839291,0.00030894,-0.00123034,-0.00016281,-0.00006893,0.00006988,-
 0.00007198,0.00135310,0.00055390,-0.00021886,0.00900245,-0.00018273,-0
 .02338690,-0.09525306,-0.00063004,0.09363073,-0.00985278,-0.00130781,0
 .01746236,0.00056104,0.00064994,0.00110036,0.00029191,0.00000948,-0.00
 029362,-0.00017914,0.00028841,-0.00081997,-0.00191414,0.00341789,0.000
 23016,0.00003768,-0.00007253,-0.00032992,0.00059681,0.00035964,-0.0004
 3014,0.00006733,-0.00004671,0.00005297,-0.00014385,0.00001206,0.000010
 81,-0.00020216,-0.00003971,0.00036034,0.00012931,0.00032847,0.00020847
 ,-0.00297439,-0.00040979,-0.00417907,0.00110865,0.00000957,0.00080623,
 0.10802197,0.00000658,0.00016547,0.00000617,-0.00001819,-0.00041319,-0
 .00003361,-0.00091628,0.00097682,-0.00064826,0.01404516,-0.00242959,-0
 .02557608,0.00059575,0.00167600,-0.00111359,-0.00002721,-0.00017129,0.
 00004571,0.00034549,0.00017974,-0.00078035,0.00001807,-0.00017108,0.00
 060137,-0.00052387,-0.04921608,0.00060301,-0.01450252,-0.00220637,0.02
 601063,0.00092593,0.00107181,0.00057807,-0.00037926,-0.00002133,0.0001
 0820,-0.00002467,0.00002434,0.00068728,0.00345666,-0.00439079,-0.00056
 611,-0.00005327,0.00027353,0.00037942,-0.00033405,-0.00036252,0.000597
 06,-0.00008062,-0.00002369,-0.00002378,0.00000510,0.00003578,0.0002009
 5,-0.00016426,0.00010253,-0.00004373,0.00000819,-0.00000900,0.00006978
 ,-0.00006259,0.00063185,0.00018600,-0.00041158,0.00016087,0.00027541,0
 .00067624,0.05735902,0.00002017,-0.00001387,-0.00012998,-0.00001004,0.
 00001801,0.00017866,-0.00048823,0.00031913,0.00054292,0.00209460,-0.00
 056071,-0.00440270,0.00012664,0.00062528,-0.00014122,-0.00026855,-0.00
 020244,0.00011049,0.00155889,0.00066646,0.00035260,0.00926613,0.000036
 58,-0.02402735,0.09374735,0.00085590,-0.23846418,0.00131766,0.00037063
 ,-0.00327820,-0.00038086,-0.00031222,0.00058712,0.00001068,-0.00008550
 ,0.00032505,0.00036907,-0.00007215,0.00063662,0.00022319,-0.00065752,0
 .00091206,-0.00016527,-0.00016477,0.00029759,-0.00041471,-0.00062199,0
 .00038322,0.00000503,-0.00010421,-0.00002357,0.00001659,0.00021879,0.0
 0012381,-0.00089634,-0.00079056,0.00065809,-0.00023804,0.00015235,0.00
 050157,-0.00380773,0.00006544,-0.00266615,-0.00002962,0.00044953,0.000
 94309,-0.10214748,-0.00133801,0.26445049,-0.00187167,0.00182676,0.0007
 9524,-0.00081328,-0.00488732,-0.00395709,-0.00006354,0.00008837,0.0006
 1116,-0.00243760,-0.00236388,0.00002118,0.00084177,-0.00102168,-0.0001
 1667,0.00021517,0.00004965,0.00008648,0.00017454,0.00008616,0.00018543
 ,0.00124307,-0.00053120,0.00024211,0.01151895,-0.01652755,-0.00258939,
 -0.13335583,0.12100416,0.01633336,-0.01472183,0.02038953,-0.00048522,0
 .00006255,0.00009321,0.00010091,-0.00001193,-0.00004724,0.00000765,0.0
 0001556,-0.00006408,-0.00019881,-0.00020657,-0.00039373,-0.00000080,0.
 00000688,0.00006183,0.00002343,0.00000199,0.00002715,0.00001803,-0.000
 00258,-0.00000970,-0.00001412,-0.00000257,-0.00000381,0.,0.00003065,0.
 00006427,0.00001122,-0.00006787,0.00007303,-0.00007027,-0.00003912,0.0
 0025078,0.00012114,0.00078320,0.00080979,-0.00012423,0.14533405,-0.000
 05051,0.00011456,0.00016782,-0.00053091,0.00054769,-0.00039281,-0.0003
 7365,0.00061668,-0.00020997,-0.00583512,-0.00327418,0.00088220,0.00184
 135,-0.00093613,-0.00015898,0.00036058,0.00014412,0.00018992,-0.000351
 57,0.00019430,0.00018782,0.00169360,0.00059468,0.00038749,0.01632078,-
 0.02340269,-0.00359343,0.12006042,-0.21840367,-0.01980076,-0.00108532,
 0.00234013,-0.00000496,0.00012744,0.00001046,0.00006645,0.00000942,-0.
 00002326,0.00004667,-0.00007832,0.00033108,-0.00012599,-0.00039049,-0.
 00067779,0.00001645,-0.00006582,-0.00001877,0.00007768,-0.00014390,0.0
 0007607,-0.00006770,-0.00002212,0.00002107,-0.00003775,0.00001874,-0.0
 0001552,0.00001276,-0.00004486,0.00005119,-0.00001579,-0.00010333,0.00
 000741,-0.00003095,-0.00111772,0.00051796,-0.00044645,0.00007328,0.001
 09875,0.00046767,-0.12971627,0.23807116,-0.00231684,0.00183295,0.00093
 565,-0.00182220,-0.00368802,-0.00383899,0.00027413,-0.00008832,0.00035
 261,0.00034693,0.00016550,0.00008162,-0.00006275,0.00008001,0.00058566
 ,0.00012448,0.00007952,-0.00003626,-0.00016139,0.00011223,-0.00009359,
 0.00040460,-0.00067703,0.00003059,-0.00137589,0.00351331,-0.00066843,0
 .01631216,-0.02052889,-0.05204850,-0.01587397,0.02203581,-0.00052000,0
 .00003192,0.00009389,0.00005698,-0.00002280,-0.00001616,0.00001926,-0.
 00031308,0.00033291,0.00038149,0.00000841,0.00003569,-0.00002071,-0.00
 007014,-0.00011904,-0.00000081,-0.00000244,0.00002119,0.00002620,0.000
 00614,0.00000407,0.00000844,0.00003069,0.00002342,-0.00002258,-0.00001
 439,-0.00004248,-0.00001165,0.00008399,-0.00010051,-0.00001222,-0.0002
 6952,-0.00005541,0.00018489,-0.00057254,0.00002846,0.00023829,-0.01363
 211,0.02209004,0.05484930,-0.00019112,-0.00024401,0.00034186,0.0017701
 2,-0.00078220,-0.00050232,0.00001240,0.00004729,-0.00020341,0.00017194
 ,0.00130250,-0.00027730,0.00005007,-0.00001230,-0.00018808,0.00003109,
 0.00004180,0.00006895,0.00002028,-0.00012845,-0.00031287,0.00064407,0.
 00059450,0.00178756,-0.01021422,-0.00144645,0.01802951,-0.09566461,-0.
 00154725,0.09789735,0.00956021,0.00095353,-0.02393144,0.00006174,0.000
 03758,0.00004069,-0.00010349,0.00001286,-0.00000827,0.00063759,-0.0003
 2498,-0.00033845,-0.00000271,-0.00006278,-0.00006341,0.00006076,0.0001
 5938,-0.00007556,-0.00002016,0.00000131,-0.00001434,0.00000703,-0.0000
 3343,-0.00003457,0.00016709,0.00018040,-0.00015145,-0.00003187,-0.0000
 5233,-0.00006525,-0.00011866,-0.00029891,-0.00101800,-0.00004391,-0.00
 004207,0.00001707,-0.00162531,-0.00375844,-0.00021485,-0.00839208,-0.0
 0092415,0.01740342,0.10527966,-0.00014753,0.00014716,-0.00014679,-0.00
 027960,-0.00028887,0.00073466,0.00022063,-0.00012757,-0.00012384,-0.00
 080854,0.00187988,0.00142349,-0.00014851,-0.00008804,-0.00009906,0.000
 00668,0.00006530,0.00002369,0.00007916,-0.00013674,0.00002583,0.001022
 78,0.00081952,0.00109227,-0.01344733,-0.00251724,0.02578975,-0.0011341
 4,-0.05197002,0.00744666,0.00006031,-0.00010399,-0.00065403,0.00005625
 ,-0.00000621,0.00003192,-0.00004569,0.00008961,-0.00016546,0.00035421,
 -0.00037809,-0.00065445,0.00005289,-0.00000893,-0.00009273,0.00016900,
 0.00008008,-0.00018809,0.00001832,-0.00000299,0.00000104,-0.00000295,-
 0.00002772,-0.00003727,0.00013012,0.00007963,-0.00012021,0.00003459,-0
 .00000943,-0.00008044,-0.00003617,0.00017107,-0.00070072,-0.00003236,-
 0.00000076,-0.00017053,-0.00332297,-0.00429920,0.00053344,0.01151765,0
 .00148133,-0.02511431,0.00593535,0.05398302,-0.00128034,0.00039637,0.0
 0037508,0.00211353,-0.00164145,-0.00052400,-0.00006783,0.00038261,-0.0
 0027977,-0.00006862,-0.00056692,-0.00016710,-0.00020869,0.00009847,0.0
 0041384,0.00004140,0.00000041,-0.00007504,-0.00010665,0.00003394,0.000
 45152,-0.00057421,-0.00031279,0.00053861,0.00195262,0.00077254,-0.0031
 4275,0.09756129,0.00719986,-0.25280008,0.00750688,0.00128862,-0.021142
 44,0.00001211,0.00011746,-0.00000930,0.00000328,-0.00006084,0.00015486
 ,-0.00038261,0.00062684,0.00045876,0.00002614,0.00006193,-0.00000594,-
 0.00009799,-0.00020233,0.00001302,-0.00000095,0.00001166,0.00001377,0.
 00000651,0.00002449,0.00003366,-0.00014364,-0.00016833,-0.00006636,0.0
 0005636,0.00007629,0.00000484,0.00037278,0.00001185,0.00064482,-0.0000
 3606,0.00004332,0.00000479,0.00005082,0.00055954,0.00098273,0.00165640
 ,-0.00053898,-0.00252780,-0.10458375,-0.00820625,0.27813044,-0.0011859
 1,0.00381077,-0.00331248,-0.01138718,-0.00026792,0.01785528,0.00031736
 ,-0.00017976,-0.00112399,-0.00010726,-0.00030135,-0.00006661,-0.000022
 14,-0.00000213,-0.00003236,0.00000110,-0.00000388,-0.00000709,0.000012
 48,-0.00002967,0.00017594,0.00003254,0.00032136,-0.00028194,0.00160742
 ,0.00052055,-0.00024353,0.00954646,-0.00288471,-0.02505360,-0.09177008
 ,0.00793522,0.10439368,-0.00008046,-0.00008334,-0.00032765,0.00057670,
 0.00036320,-0.00025574,-0.00011289,0.00006250,0.00001362,0.00000420,0.
 00001323,0.00000314,0.00000748,-0.00001021,0.00001241,-0.00000174,0.00
 001090,0.00000340,-0.00000314,0.00000434,0.00000586,-0.00002653,-0.000
 03446,0.00000646,0.00003260,0.00004607,0.00000403,-0.00009171,-0.00003
 742,0.00019595,-0.00003392,0.00000547,-0.00002428,-0.00017659,-0.00004
 620,0.00042284,0.00160987,-0.00000989,0.00091475,-0.00328206,-0.000510
 58,-0.00384770,0.10275065,0.00256567,-0.00270885,0.00358085,0.01235106
 ,0.00140620,-0.02881453,-0.00140615,-0.00039384,0.00331706,0.00039800,
 0.00019893,0.00019052,0.00004649,-0.00000185,0.00000405,-0.00000729,-0
 .00000976,-0.00002062,0.00001650,-0.00002831,-0.00000554,-0.00009957,0
 .00005314,0.00002042,0.00050592,0.00009825,-0.00100017,-0.00077059,0.0
 0038619,0.00114495,0.00924875,-0.05387772,-0.02528793,0.00007376,0.000
 41035,0.00042027,-0.00039266,-0.00158495,-0.00002544,0.00000406,0.0001
 0163,0.00005750,-0.00001105,0.00001248,0.00001639,-0.00000207,-0.00002
 275,0.00000377,0.00000695,0.00001044,0.00000371,-0.00000376,0.00000042
 ,0.00000518,-0.00001194,0.00000151,0.00000439,0.00001466,0.00001512,0.
 00001600,-0.00001067,-0.00003953,0.00003946,0.00002939,-0.00001477,0.0
 0000410,-0.00023337,0.00001265,0.00008078,-0.00052380,0.00019223,0.000
 40243,0.00046099,0.00101670,0.00038193,-0.01176943,0.05105441,-0.00067
 274,-0.00063680,-0.00078193,0.00083664,0.00004270,0.00076224,0.0006141
 9,0.00015434,-0.00063430,-0.00038072,-0.00005468,-0.00010573,0.0000576
 3,-0.00001389,-0.00000522,-0.00001606,0.00001694,-0.00000517,-0.000026
 90,-0.00000105,0.00007635,-0.00029127,0.00004738,0.00018044,0.00156064
 ,0.00066116,0.00043019,0.00886655,-0.00199535,-0.02481170,0.09995159,-
 0.01963757,-0.24433584,-0.00003315,-0.00017369,0.00023024,-0.00027512,
 0.00002289,0.00051345,-0.00001287,0.00016659,0.00016165,-0.00001194,-0
 .00002524,0.00000454,-0.00003068,-0.00003250,0.00003192,0.00000306,-0.
 00000775,0.00000145,0.00000212,0.00000699,0.00001188,-0.00004455,-0.00
 004205,0.00000958,0.00000073,0.00000079,-0.00001026,0.00012345,0.00006
 440,0.00030375,0.00000443,0.00001006,-0.00003409,-0.00077335,-0.000726
 82,0.00059220,0.00039668,0.00043032,0.00138986,-0.00448983,-0.00020588
 ,-0.00233122,-0.10684478,0.02184948,0.27150592,0.00184001,-0.00133702,
 0.00012451,0.01161328,0.01581196,-0.00292609,-0.00209086,0.00274359,0.
 00044235,-0.00035226,0.00022683,-0.00010187,0.00014707,-0.00004991,0.0
 0004038,-0.00002226,0.00008931,0.00002759,-0.00027955,0.00023069,-0.00
 047387,-0.00022247,-0.00157561,0.00046360,-0.00223381,0.00202060,-0.00
 423770,-0.01289150,-0.01735095,0.00429042,-0.15282158,-0.13132970,0.02
 205016,0.00057611,0.00090953,0.00008824,-0.00008668,-0.00008828,-0.000
 03794,0.00006397,-0.00006414,0.00001017,-0.00000529,-0.00011074,-0.000
 01063,-0.00001503,0.00001329,0.00000027,0.00001779,-0.00004578,0.00000
 917,0.00001819,-0.00000143,-0.00000787,0.00000593,-0.00000587,0.000032
 59,-0.00013419,-0.00020692,-0.00000682,-0.00000508,-0.00000820,-0.0001
 1873,0.00000656,0.00003344,0.00006427,0.00030991,0.00041004,0.00000709
 ,0.00014822,0.00033833,0.00056843,0.00121619,0.00025843,0.00003891,-0.
 00821725,-0.01047983,0.00148625,0.16341457,0.00004900,0.00602186,-0.00
 082831,-0.02216756,-0.02653817,0.00461028,0.00498611,-0.00320392,-0.00
 069901,0.00047442,0.00024167,0.00045893,-0.00012213,0.00010656,-0.0001
 8101,0.00001044,-0.00004571,0.00007458,0.00001810,0.00000226,-0.000025
 11,0.00012471,0.00014203,0.00019407,0.00056556,0.00084298,0.00019989,0
 .00157549,0.00218429,-0.00107530,-0.12688870,-0.20898879,0.02760266,-0
 .00089610,-0.00150571,-0.00009018,0.00008517,0.00042353,0.00017767,-0.
 00004218,-0.00001310,-0.00012093,0.00002603,0.00007043,0.00002809,0.00
 000991,-0.00000037,0.00000953,-0.00004378,-0.00001008,-0.00002747,-0.0
 0000217,0.00000607,-0.00001424,0.00000098,0.00000129,0.00000930,-0.000
 01838,0.00002289,0.00000209,-0.00000500,-0.00001170,-0.00001446,-0.000
 04062,0.00002530,-0.00003666,-0.00002316,-0.00005502,0.00006396,-0.000
 25208,0.00034114,-0.00042126,-0.00006973,0.00015252,-0.00039024,0.0030
 7735,0.00371168,0.00007922,0.13956833,0.22607607,-0.00073529,0.0002423
 0,-0.00116231,0.00075053,-0.00251883,-0.00064880,-0.00000976,0.0003010
 2,0.00123060,-0.00020010,0.00054969,-0.00007429,0.00014528,-0.00002967
 ,0.00003637,-0.00002494,0.00010246,0.00001996,-0.00029108,0.00016583,-
 0.00046080,-0.00064306,-0.00137061,0.00066403,-0.00271181,0.00160131,-
 0.00374612,-0.01452928,-0.02032921,0.00354159,0.02166576,0.02791919,-0
 .05497302,0.00007746,0.00007477,0.00037945,-0.00033973,-0.00041514,0.0
 0022558,0.00004435,-0.00002743,-0.00001818,-0.00000192,-0.00007428,0.0
 0001174,-0.00001203,0.00000117,0.00001220,0.00002456,-0.00003124,0.000
 00845,0.00001380,-0.00000452,-0.00000577,0.00000309,0.00000755,0.00002
 077,-0.00012848,-0.00018950,-0.00001815,0.00009797,0.00000093,-0.00002
 386,0.00001112,0.00002746,0.00003613,-0.00026295,-0.00008672,0.0003167
 6,0.00057827,0.00040122,0.00066070,0.00088674,-0.00034266,0.00085108,0
 .01741440,0.02361101,-0.00315023,-0.02182289,-0.02958610,0.05626609\\-
 0.00000562,0.00000868,0.00004350,0.00004522,-0.00001902,-0.00000127,-0
 .00006399,-0.00001735,-0.00004508,0.00008707,-0.00004305,0.00000628,-0
 .00002161,0.00000439,0.00001310,0.00002597,-0.00002745,-0.00001533,-0.
 00001778,0.00003269,-0.00000459,0.00001409,0.00000036,0.00001260,-0.00
 005058,0.00003370,0.00000678,0.00004182,-0.00000221,0.00000937,-0.0000
 6054,0.00001276,-0.00001543,0.00000073,-0.00000155,0.00000217,0.000012
 71,0.00000321,-0.00000067,-0.00001547,-0.00000458,-0.00000273,0.000004
 00,0.00000487,-0.00000283,0.00000296,0.00000406,-0.00000818,0.00000421
 ,0.00000307,0.00000767,-0.00000993,-0.00000310,0.00000501,0.00000770,0
 .00000117,-0.00000212,0.00000459,-0.00000359,-0.00000511,-0.00001604,-
 0.00000232,0.00000547,0.00000311,-0.00000324,0.00000405,0.00000259,0.0
 0001149,-0.00000195,-0.00000074,0.00000048,-0.00000018,-0.00000449,-0.
 00000376,0.00000027,0.00000468,0.00000861,-0.00001234,0.00000534,0.000
 00170,0.00000156\\\@


 IN NATURE THERE ARE NEITHER REWARDS OR
 PUNISHMENTS -- THERE ARE CONSEQUENCES.

                            -- ROBERT GREEN INGERSOLL
 Job cpu time:       0 days  0 hours  2 minutes 43.4 seconds.
 Elapsed time:       0 days  0 hours 51 minutes 47.9 seconds.
 File lengths (MBytes):  RWF=    127 Int=      0 D2E=      0 Chk=      5 Scr=      1
 Normal termination of Gaussian 16 at Thu Feb 22 08:56:41 2024.
