 Entering Gaussian System, Link 0=g16
 Input=/Volumes/SSD-PMU3/b3lyp_6-31gd_freq/VEETYWFTVNETTL-LLVKDONJSA-N_calculating/gaussianinput1.gjf
 Output=/Volumes/SSD-PMU3/b3lyp_6-31gd_freq/VEETYWFTVNETTL-LLVKDONJSA-N_calculating/gaussianinput1.log
 Initial command:
 /Applications/g16/l1.exe "/Users/macmini_m1_2022/PycharmProjects/sphere_model/sphere_model_lib/Gau-83303.inp" -scrdir="/Users/macmini_m1_2022/PycharmProjects/sphere_model/sphere_model_lib/"
 Entering Link 1 = /Applications/g16/l1.exe PID=     83304.
  
 Copyright (c) 1988,1990,1992,1993,1995,1998,2003,2009,2016,
            Gaussian, Inc.  All Rights Reserved.
  
 This is part of the Gaussian(R) 16 program.  It is based on
 the Gaussian(R) 09 system (copyright 2009, Gaussian, Inc.),
 the Gaussian(R) 03 system (copyright 2003, Gaussian, Inc.),
 the Gaussian(R) 98 system (copyright 1998, Gaussian, Inc.),
 the Gaussian(R) 94 system (copyright 1995, Gaussian, Inc.),
 the Gaussian 92(TM) system (copyright 1992, Gaussian, Inc.),
 the Gaussian 90(TM) system (copyright 1990, Gaussian, Inc.),
 the Gaussian 88(TM) system (copyright 1988, Gaussian, Inc.),
 the Gaussian 86(TM) system (copyright 1986, Carnegie Mellon
 University), and the Gaussian 82(TM) system (copyright 1983,
 Carnegie Mellon University). Gaussian is a federally registered
 trademark of Gaussian, Inc.
  
 This software contains proprietary and confidential information,
 including trade secrets, belonging to Gaussian, Inc.
  
 This software is provided under written license and may be
 used, copied, transmitted, or stored only in accord with that
 written license.
  
 The following legend is applicable only to US Government
 contracts under FAR:
  
                    RESTRICTED RIGHTS LEGEND
  
 Use, reproduction and disclosure by the US Government is
 subject to restrictions as set forth in subparagraphs (a)
 and (c) of the Commercial Computer Software - Restricted
 Rights clause in FAR 52.227-19.
  
 Gaussian, Inc.
 340 Quinnipiac St., Bldg. 40, Wallingford CT 06492
  
  
 ---------------------------------------------------------------
 Warning -- This program may not be used in any manner that
 competes with the business of Gaussian, Inc. or will provide
 assistance to any competitor of Gaussian, Inc.  The licensee
 of this program is prohibited from giving any competitor of
 Gaussian, Inc. access to this program.  By using this program,
 the user acknowledges that Gaussian, Inc. is engaged in the
 business of creating and licensing software in the field of
 computational chemistry and represents and warrants to the
 licensee that it is not a competitor of Gaussian, Inc. and that
 it will not use this program in any manner prohibited above.
 ---------------------------------------------------------------
  

 Cite this work as:
 Gaussian 16, Revision A.03,
 M. J. Frisch, G. W. Trucks, H. B. Schlegel, G. E. Scuseria, 
 M. A. Robb, J. R. Cheeseman, G. Scalmani, V. Barone, 
 G. A. Petersson, H. Nakatsuji, X. Li, M. Caricato, A. V. Marenich, 
 J. Bloino, B. G. Janesko, R. Gomperts, B. Mennucci, H. P. Hratchian, 
 J. V. Ortiz, A. F. Izmaylov, J. L. Sonnenberg, D. Williams-Young, 
 F. Ding, F. Lipparini, F. Egidi, J. Goings, B. Peng, A. Petrone, 
 T. Henderson, D. Ranasinghe, V. G. Zakrzewski, J. Gao, N. Rega, 
 G. Zheng, W. Liang, M. Hada, M. Ehara, K. Toyota, R. Fukuda, 
 J. Hasegawa, M. Ishida, T. Nakajima, Y. Honda, O. Kitao, H. Nakai, 
 T. Vreven, K. Throssell, J. A. Montgomery, Jr., J. E. Peralta, 
 F. Ogliaro, M. J. Bearpark, J. J. Heyd, E. N. Brothers, K. N. Kudin, 
 V. N. Staroverov, T. A. Keith, R. Kobayashi, J. Normand, 
 K. Raghavachari, A. P. Rendell, J. C. Burant, S. S. Iyengar, 
 J. Tomasi, M. Cossi, J. M. Millam, M. Klene, C. Adamo, R. Cammi, 
 J. W. Ochterski, R. L. Martin, K. Morokuma, O. Farkas, 
 J. B. Foresman, and D. J. Fox, Gaussian, Inc., Wallingford CT, 2016.
 
 ******************************************
 Gaussian 16:  EM64M-G16RevA.03 25-Dec-2016
                24-Feb-2024 
 ******************************************
 %nprocshared=10
 Will use up to   10 processors via shared memory.
 %mem=12GB
 %chk= 1.chk
 ---------------------
 # freq b3lyp/6-31g(d)
 ---------------------
 1/10=4,30=1,38=1/1,3;
 2/12=2,17=6,18=5,40=1/2;
 3/5=1,6=6,7=1,11=2,25=1,30=1,71=2,74=-5,140=1/1,2,3;
 4//1;
 5/5=2,38=5,98=1/2;
 8/6=4,10=90,11=11/1;
 11/6=1,8=1,9=11,15=111,16=1/1,2,10;
 10/6=1/2;
 6/7=2,8=2,9=2,10=2,28=1/1;
 7/8=1,10=1,25=1/1,2,3,16;
 1/10=4,30=1/3;
 99//99;
 ---------
 good luck
 ---------
 Symbolic Z-matrix:
 Charge =  0 Multiplicity = 1
 O                     1.21802   0.        0. 
 C                     0.        0.        0. 
 C                    -0.81206  -1.29184   0.01042 
 C                    -1.97936  -1.31819  -1.00797 
 C                    -1.55321  -1.58301  -2.44966 
 C                    -2.53031  -1.98758  -3.37883 
 C                    -2.21938  -2.23551  -4.70724 
 C                    -0.89854  -2.08776  -5.15856 
 O                    -0.68979  -2.35506  -6.48185 
 C                     0.62829  -2.22646  -6.98934 
 C                     0.09105  -1.69536  -4.25489 
 C                    -0.2428   -1.44953  -2.91679 
 C                    -2.81009  -0.01407  -0.87487 
 C                    -1.94969   1.24528  -1.0339 
 C                    -0.8154    1.28468   0.01042 
 H                    -1.24875  -1.37547   1.01734 
 H                    -0.13098  -2.13738  -0.12081 
 H                    -2.63702  -2.14877  -0.71687 
 H                    -3.55896  -2.11831  -3.048 
 H                    -2.97854  -2.55232  -5.41582 
 H                     0.56778  -2.48133  -8.04909 
 H                     1.00366  -1.19976  -6.88431 
 H                     1.32289  -2.91514  -6.49006 
 H                     1.12219  -1.57956  -4.56889 
 H                     0.55559  -1.15728  -2.24255 
 H                    -3.29137  -0.00317   0.11434 
 H                    -3.6165   -0.01479  -1.61714 
 H                    -2.56997   2.14418  -0.93664 
 H                    -1.51692   1.268    -2.04197 
 H                    -0.13674   2.12901  -0.14216 
 H                    -1.25727   1.38962   1.0138 
 

 GradGradGradGradGradGradGradGradGradGradGradGradGradGradGradGradGradGrad
 Berny optimization.
 Initialization pass.
 Trust Radius=3.00D-01 FncErr=1.00D-07 GrdErr=1.00D-07 EigMax=2.50D+02 EigMin=1.00D-04
 Number of steps in this run=      2 maximum allowed number of steps=      2.
 GradGradGradGradGradGradGradGradGradGradGradGradGradGradGradGradGradGrad

                          Input orientation:                          
 ---------------------------------------------------------------------
 Center     Atomic      Atomic             Coordinates (Angstroms)
 Number     Number       Type             X           Y           Z
 ---------------------------------------------------------------------
      1          8           0        1.218015    0.000000    0.000000
      2          6           0        0.000000    0.000000    0.000000
      3          6           0       -0.812058   -1.291835    0.010415
      4          6           0       -1.979359   -1.318192   -1.007967
      5          6           0       -1.553213   -1.583005   -2.449663
      6          6           0       -2.530305   -1.987576   -3.378833
      7          6           0       -2.219376   -2.235514   -4.707235
      8          6           0       -0.898540   -2.087762   -5.158563
      9          8           0       -0.689785   -2.355058   -6.481853
     10          6           0        0.628290   -2.226461   -6.989340
     11          6           0        0.091046   -1.695355   -4.254886
     12          6           0       -0.242798   -1.449529   -2.916793
     13          6           0       -2.810092   -0.014071   -0.874874
     14          6           0       -1.949694    1.245283   -1.033897
     15          6           0       -0.815403    1.284682    0.010415
     16          1           0       -1.248752   -1.375470    1.017335
     17          1           0       -0.130984   -2.137377   -0.120812
     18          1           0       -2.637015   -2.148773   -0.716872
     19          1           0       -3.558956   -2.118315   -3.048000
     20          1           0       -2.978536   -2.552323   -5.415823
     21          1           0        0.567784   -2.481328   -8.049088
     22          1           0        1.003659   -1.199756   -6.884311
     23          1           0        1.322894   -2.915138   -6.490062
     24          1           0        1.122187   -1.579558   -4.568887
     25          1           0        0.555593   -1.157282   -2.242547
     26          1           0       -3.291371   -0.003171    0.114344
     27          1           0       -3.616496   -0.014785   -1.617144
     28          1           0       -2.569968    2.144180   -0.936637
     29          1           0       -1.516921    1.268003   -2.041973
     30          1           0       -0.136736    2.129005   -0.142161
     31          1           0       -1.257272    1.389620    1.013803
 ---------------------------------------------------------------------
                    Distance matrix (angstroms):
                    1          2          3          4          5
     1  O    0.000000
     2  C    1.218015   0.000000
     3  C    2.406271   1.525904   0.000000
     4  C    3.602336   2.582923   1.549319   0.000000
     5  C    4.023240   3.304425   2.585744   1.526504   0.000000
     6  C    5.423732   4.665770   3.863086   2.524405   1.407744
     7  C    6.242695   5.664028   5.012713   3.818857   2.442575
     8  C    5.953934   5.637100   5.230613   4.357506   2.832228
     9  O    7.155447   6.930838   6.579889   5.718524   4.195251
    10  C    7.359061   7.362252   7.207267   6.587990   5.077564
    11  C    4.716815   4.581110   4.378495   3.869278   2.444390
    12  C    3.569705   3.266155   2.986213   2.583894   1.397574
    13  C    4.122044   2.943165   2.531513   1.551954   2.553676
    14  C    3.557254   2.533965   2.970147   2.563778   3.187602
    15  C    2.405266   1.521643   2.576519   3.027680   3.849672
    16  H    3.001971   2.118082   1.100720   2.153814   3.486523
    17  H    2.530370   2.144792   1.093629   2.207849   2.784531
    18  H    4.471285   3.476346   2.143305   1.098687   2.120680
    19  H    6.049547   5.142347   4.193140   2.701307   2.160456
    20  H    7.311397   6.687090   5.977166   4.685150   3.430631
    21  H    8.447935   8.441989   8.262835   7.577480   6.054682
    22  H    6.991359   7.059779   7.130396   6.591194   5.133281
    23  H    7.115471   7.236642   7.032022   6.596096   5.135309
    24  H    4.835175   4.962765   4.979367   4.729487   3.413047
    25  H    2.609046   2.583990   2.639017   2.824192   2.161296
    26  H    4.510837   3.293358   2.796149   2.170308   3.477240
    27  H    5.097830   3.961618   3.484921   2.179492   2.722047
    28  H    4.452371   3.475562   3.974085   3.513108   4.149090
    29  H    3.641066   2.842276   3.355875   2.823371   2.880239
    30  H    2.527493   2.138123   3.490198   4.003504   4.594561
    31  H    3.014280   2.130627   2.897448   3.455606   4.573803
                    6          7          8          9         10
     6  C    0.000000
     7  C    1.386651   0.000000
     8  C    2.416637   1.403615   0.000000
     9  O    3.626471   2.345892   1.366061   0.000000
    10  C    4.803077   3.649286   2.387926   1.418239   0.000000
    11  C    2.779270   2.415459   1.396387   2.450365   2.836890
    12  C    2.394925   2.780345   2.421337   3.705325   4.236515
    13  C    3.200440   4.468864   5.128764   6.435382   7.355531
    14  C    4.035742   5.067750   5.406199   6.650568   7.359776
    15  C    5.013538   6.051375   6.172408   7.443993   7.962973
    16  H    4.619886   5.869624   6.226695   7.583525   8.267667
    17  H    4.048936   5.040465   5.096130   6.389248   6.910941
    18  H    2.668971   4.013096   4.770182   6.088453   7.071924
    19  H    1.088424   2.135713   3.396060   4.481020   5.751425
    20  H    2.160828   1.085720   2.146714   2.532531   3.948587
    21  H    5.626120   4.358517   3.264986   2.013368   1.091643
    22  H    5.039637   4.024973   2.717558   2.089126   1.098206
    23  H    5.038577   4.023436   2.718862   2.089171   1.098194
    24  H    3.863082   3.408146   2.165485   2.746649   2.553627
    25  H    3.391652   3.864935   3.388723   4.577920   4.866259
    26  H    4.088933   5.420346   6.154243   7.470571   8.412436
    27  H    2.859242   4.053670   4.922008   6.140677   7.195152
    28  H    4.799719   5.789822   6.207066   7.384284   8.121981
    29  H    3.662368   4.457768   4.621330   5.789927   6.425702
    30  H    5.757730   6.650287   6.597405   7.784881   8.151025
    31  H    5.685184   6.840871   7.093587   8.398185   8.982298
                   11         12         13         14         15
    11  C    0.000000
    12  C    1.400848   0.000000
    13  C    4.761071   3.580638   0.000000
    14  C    4.815261   3.704160   1.533475   0.000000
    15  C    5.281578   4.046274   2.539543   1.542322   0.000000
    16  H    5.449193   4.061378   2.805645   3.401061   2.877167
    17  H    4.163562   2.881518   3.500665   3.947635   3.492297
    18  H    4.490595   3.325789   2.147527   3.477432   3.954217
    19  H    3.867555   3.385468   3.116266   4.237939   5.334920
    20  H    3.391829   3.865950   5.204932   5.889109   6.988978
    21  H    3.903973   5.297368   8.304622   8.332960   9.002868
    22  H    2.827076   4.166202   7.215530   6.994845   7.551070
    23  H    2.828663   4.167452   7.551695   7.601886   8.029135
    24  H    1.084093   2.146976   5.617766   5.469217   5.738304
    25  H    2.134206   1.085101   3.808582   3.675543   3.594253
    26  H    5.778789   4.535806   1.100137   2.162682   2.792809
    27  H    4.850553   3.889655   1.096017   2.169373   3.490514
    28  H    5.730079   4.717148   2.172446   1.096456   2.171208
    29  H    4.032869   3.126288   2.162897   1.097281   2.169033
    30  H    5.620687   4.529430   3.503780   2.205215   1.093961
    31  H    6.252529   4.953737   2.819344   2.166416   1.101384
                   16         17         18         19         20
    16  H    0.000000
    17  H    1.767848   0.000000
    18  H    2.352179   2.575968   0.000000
    19  H    4.734534   4.507747   2.507002   0.000000
    20  H    6.764810   6.026431   4.728597   2.476254   0.000000
    21  H    9.312505   7.966438   8.008915   6.494047   4.417636
    22  H    8.218287   6.921811   7.224434   6.031458   4.454635
    23  H    8.083622   6.579211   7.042579   6.026208   4.448362
    24  H    6.071975   4.654779   5.412359   4.951410   4.298779
    25  H    3.732305   2.435926   3.674709   4.301378   4.950342
    26  H    2.621238   3.820756   2.392219   3.813903   6.097441
    27  H    3.794490   4.346631   2.514712   2.544700   4.612597
    28  H    4.236927   4.994591   4.299097   4.858479   6.502859
    29  H    4.052065   4.148288   3.832083   4.080337   5.302271
    30  H    3.855173   4.266439   4.988093   6.180228   7.602774
    31  H    2.765105   3.872413   4.173626   5.839658   7.735745
                   21         22         23         24         25
    21  H    0.000000
    22  H    1.785811   0.000000
    23  H    1.785762   1.788820   0.000000
    24  H    3.637630   2.349359   2.348397   0.000000
    25  H    5.955599   4.663533   4.660493   2.431297   0.000000
    26  H    9.363544   8.298209   8.566748   6.625492   4.656827
    27  H    8.059897   7.105845   7.520303   5.797967   4.370670
    28  H    9.045870   7.702438   8.461182   6.378987   4.730136
    29  H    7.381660   5.990943   6.734145   4.632363   3.196491
    30  H    9.179924   7.605113   8.238310   5.910519   3.961139
    31  H   10.022528   8.613761   9.027524   6.756054   4.514090
                   26         27         28         29         30
    26  H    0.000000
    27  H    1.761787   0.000000
    28  H    2.497218   2.493881   0.000000
    29  H    3.068266   2.496846   1.760216   0.000000
    30  H    3.816240   4.345128   2.559695   2.501104   0.000000
    31  H    2.624205   3.802653   2.469159   3.069198   1.771594
                   31
    31  H    0.000000
 Stoichiometry    C13H16O2
 Framework group  C1[X(C13H16O2)]
 Deg. of freedom    87
 Full point group                 C1      NOp   1
 Largest Abelian subgroup         C1      NOp   1
 Largest concise Abelian subgroup C1      NOp   1
                         Standard orientation:                         
 ---------------------------------------------------------------------
 Center     Atomic      Atomic             Coordinates (Angstroms)
 Number     Number       Type             X           Y           Z
 ---------------------------------------------------------------------
      1          8           0        2.630732    2.362777   -0.338816
      2          6           0        2.727093    1.155425   -0.210072
      3          6           0        2.299086    0.185050   -1.307144
      4          6           0        1.446254   -1.007118   -0.805345
      5          6           0       -0.013900   -0.663561   -0.522269
      6          6           0       -0.946795   -1.712935   -0.420950
      7          6           0       -2.287267   -1.477895   -0.155072
      8          6           0       -2.748719   -0.163715    0.018503
      9          8           0       -4.083935   -0.032279    0.275497
     10          6           0       -4.604166    1.274958    0.454079
     11          6           0       -1.844942    0.895689   -0.085161
     12          6           0       -0.494580    0.637965   -0.354375
     13          6           0        2.140752   -1.659109    0.419867
     14          6           0        2.415885   -0.649611    1.540921
     15          6           0        3.300200    0.512317    1.044264
     16          1           0        3.225567   -0.227205   -1.735237
     17          1           0        1.796277    0.747589   -2.098824
     18          1           0        1.442889   -1.756523   -1.608771
     19          1           0       -0.612473   -2.739057   -0.562265
     20          1           0       -3.000803   -2.293117   -0.083880
     21          1           0       -5.671302    1.149290    0.646723
     22          1           0       -4.138615    1.782043    1.309756
     23          1           0       -4.468265    1.890664   -0.445069
     24          1           0       -2.169812    1.922886    0.035604
     25          1           0        0.174783    1.487854   -0.438554
     26          1           0        3.091230   -2.103980    0.089745
     27          1           0        1.522818   -2.481653    0.797799
     28          1           0        2.903425   -1.146093    2.388284
     29          1           0        1.464991   -0.249094    1.914301
     30          1           0        3.434411    1.288624    1.803266
     31          1           0        4.297099    0.119017    0.790186
 ---------------------------------------------------------------------
 Rotational constants (GHZ):           1.2145673           0.3283375           0.2919774
 Standard basis: 6-31G(d) (6D, 7F)
 There are   257 symmetry adapted cartesian basis functions of A   symmetry.
 There are   257 symmetry adapted basis functions of A   symmetry.
   257 basis functions,   484 primitive gaussians,   257 cartesian basis functions
    55 alpha electrons       55 beta electrons
       nuclear repulsion energy       975.1989364818 Hartrees.
 NAtoms=   31 NActive=   31 NUniq=   31 SFac= 1.00D+00 NAtFMM=   60 NAOKFM=F Big=F
 Integral buffers will be    131072 words long.
 Raffenetti 2 integral format.
 Two-electron integral symmetry is turned on.
 One-electron integrals computed using PRISM.
 NBasis=   257 RedAO= T EigKep=  4.18D-04  NBF=   257
 NBsUse=   257 1.00D-06 EigRej= -1.00D+00 NBFU=   257
 ExpMin= 1.61D-01 ExpMax= 5.48D+03 ExpMxC= 8.25D+02 IAcc=3 IRadAn=         5 AccDes= 0.00D+00
 Harris functional with IExCor=  402 and IRadAn=       5 diagonalized for initial guess.
 HarFok:  IExCor=  402 AccDes= 0.00D+00 IRadAn=         5 IDoV= 1 UseB2=F ITyADJ=14
 ICtDFT=  3500011 ScaDFX=  1.000000  1.000000  1.000000  1.000000
 FoFCou: FMM=F IPFlag=           0 FMFlag=      100000 FMFlg1=           0
         NFxFlg=           0 DoJE=T BraDBF=F KetDBF=T FulRan=T
         wScrn=  0.000000 ICntrl=       500 IOpCl=  0 I1Cent=   200000004 NGrid=           0
         NMat0=    1 NMatS0=      1 NMatT0=    0 NMatD0=    1 NMtDS0=    0 NMtDT0=    0
 Petite list used in FoFCou.
 Requested convergence on RMS density matrix=1.00D-08 within 128 cycles.
 Requested convergence on MAX density matrix=1.00D-06.
 Requested convergence on             energy=1.00D-06.
 No special actions if energy rises.
 Integral accuracy reduced to 1.0D-05 until final iterations.
 Initial convergence to 1.0D-05 achieved.  Increase integral accuracy.
 SCF Done:  E(RB3LYP) =  -655.461373837     A.U. after   15 cycles
            NFock= 15  Conv=0.45D-08     -V/T= 2.0095
 DoSCS=F DFT=T ScalE2(SS,OS)=  1.000000  1.000000
 Range of M.O.s used for correlation:     1   257
 NBasis=   257 NAE=    55 NBE=    55 NFC=     0 NFV=     0
 NROrb=    257 NOA=    55 NOB=    55 NVA=   202 NVB=   202
 Symmetrizing basis deriv contribution to polar:
 IMax=3 JMax=2 DiffMx= 0.00D+00
 G2DrvN: will do    32 centers at a time, making    1 passes.
 Calling FoFCou, ICntrl=  3107 FMM=F I1Cent=   0 AccDes= 0.00D+00.
 End of G2Drv F.D. properties file   721 does not exist.
 End of G2Drv F.D. properties file   722 does not exist.
 End of G2Drv F.D. properties file   788 does not exist.
          IDoAtm=1111111111111111111111111111111
          Differentiating once with respect to electric field.
                with respect to dipole field.
          Differentiating once with respect to nuclear coordinates.
 Keep R1 ints in memory in canonical form, NReq=560459160.
          There are    96 degrees of freedom in the 1st order CPHF.  IDoFFX=6 NUNeed=     3.
     93 vectors produced by pass  0 Test12= 1.16D-14 1.04D-09 XBig12= 1.62D+02 7.23D+00.
 AX will form    93 AO Fock derivatives at one time.
     93 vectors produced by pass  1 Test12= 1.16D-14 1.04D-09 XBig12= 3.18D+01 1.39D+00.
     93 vectors produced by pass  2 Test12= 1.16D-14 1.04D-09 XBig12= 2.97D-01 4.95D-02.
     93 vectors produced by pass  3 Test12= 1.16D-14 1.04D-09 XBig12= 1.11D-03 2.85D-03.
     93 vectors produced by pass  4 Test12= 1.16D-14 1.04D-09 XBig12= 1.36D-06 8.99D-05.
     55 vectors produced by pass  5 Test12= 1.16D-14 1.04D-09 XBig12= 1.01D-09 2.69D-06.
      5 vectors produced by pass  6 Test12= 1.16D-14 1.04D-09 XBig12= 6.54D-13 6.03D-08.
      2 vectors produced by pass  7 Test12= 1.16D-14 1.04D-09 XBig12= 5.28D-16 2.17D-09.
 InvSVY:  IOpt=1 It=  1 EMax= 5.33D-15
 Solved reduced A of dimension   527 with    96 vectors.
 Isotropic polarizability for W=    0.000000      136.21 Bohr**3.
 End of Minotr F.D. properties file   721 does not exist.
 End of Minotr F.D. properties file   722 does not exist.
 End of Minotr F.D. properties file   788 does not exist.

 **********************************************************************

            Population analysis using the SCF density.

 **********************************************************************

 Orbital symmetries:
       Occupied  (A) (A) (A) (A) (A) (A) (A) (A) (A) (A) (A) (A)
                 (A) (A) (A) (A) (A) (A) (A) (A) (A) (A) (A) (A)
                 (A) (A) (A) (A) (A) (A) (A) (A) (A) (A) (A) (A)
                 (A) (A) (A) (A) (A) (A) (A) (A) (A) (A) (A) (A)
                 (A) (A) (A) (A) (A) (A) (A)
       Virtual   (A) (A) (A) (A) (A) (A) (A) (A) (A) (A) (A) (A)
                 (A) (A) (A) (A) (A) (A) (A) (A) (A) (A) (A) (A)
                 (A) (A) (A) (A) (A) (A) (A) (A) (A) (A) (A) (A)
                 (A) (A) (A) (A) (A) (A) (A) (A) (A) (A) (A) (A)
                 (A) (A) (A) (A) (A) (A) (A) (A) (A) (A) (A) (A)
                 (A) (A) (A) (A) (A) (A) (A) (A) (A) (A) (A) (A)
                 (A) (A) (A) (A) (A) (A) (A) (A) (A) (A) (A) (A)
                 (A) (A) (A) (A) (A) (A) (A) (A) (A) (A) (A) (A)
                 (A) (A) (A) (A) (A) (A) (A) (A) (A) (A) (A) (A)
                 (A) (A) (A) (A) (A) (A) (A) (A) (A) (A) (A) (A)
                 (A) (A) (A) (A) (A) (A) (A) (A) (A) (A) (A) (A)
                 (A) (A) (A) (A) (A) (A) (A) (A) (A) (A) (A) (A)
                 (A) (A) (A) (A) (A) (A) (A) (A) (A) (A) (A) (A)
                 (A) (A) (A) (A) (A) (A) (A) (A) (A) (A) (A) (A)
                 (A) (A) (A) (A) (A) (A) (A) (A) (A) (A) (A) (A)
                 (A) (A) (A) (A) (A) (A) (A) (A) (A) (A) (A) (A)
                 (A) (A) (A) (A) (A) (A) (A) (A) (A) (A)
 The electronic state is 1-A.
 Alpha  occ. eigenvalues --  -19.17598 -19.13335 -10.27014 -10.24390 -10.23989
 Alpha  occ. eigenvalues --  -10.20337 -10.19092 -10.19085 -10.19010 -10.18987
 Alpha  occ. eigenvalues --  -10.18853 -10.18743 -10.18582 -10.18459 -10.18307
 Alpha  occ. eigenvalues --   -1.06160  -1.03228  -0.85665  -0.82751  -0.77123
 Alpha  occ. eigenvalues --   -0.74603  -0.73953  -0.72251  -0.69073  -0.63309
 Alpha  occ. eigenvalues --   -0.60417  -0.59893  -0.56855  -0.53456  -0.52336
 Alpha  occ. eigenvalues --   -0.48453  -0.47702  -0.46663  -0.46477  -0.45155
 Alpha  occ. eigenvalues --   -0.44984  -0.43321  -0.42838  -0.41623  -0.41223
 Alpha  occ. eigenvalues --   -0.40360  -0.39789  -0.38769  -0.37231  -0.36010
 Alpha  occ. eigenvalues --   -0.35397  -0.35027  -0.33481  -0.32897  -0.32333
 Alpha  occ. eigenvalues --   -0.31514  -0.30722  -0.24802  -0.23612  -0.21302
 Alpha virt. eigenvalues --   -0.01672   0.00216   0.01500   0.08407   0.09914
 Alpha virt. eigenvalues --    0.10932   0.11475   0.12568   0.13667   0.14358
 Alpha virt. eigenvalues --    0.15241   0.15580   0.15886   0.16361   0.16742
 Alpha virt. eigenvalues --    0.16786   0.16916   0.17282   0.18357   0.19657
 Alpha virt. eigenvalues --    0.21278   0.21782   0.22376   0.24161   0.24661
 Alpha virt. eigenvalues --    0.25865   0.27208   0.27585   0.31501   0.32216
 Alpha virt. eigenvalues --    0.34007   0.34707   0.36517   0.41230   0.47954
 Alpha virt. eigenvalues --    0.49738   0.50674   0.51923   0.52224   0.52702
 Alpha virt. eigenvalues --    0.53209   0.54367   0.55944   0.56536   0.57720
 Alpha virt. eigenvalues --    0.58546   0.59528   0.59921   0.60499   0.60622
 Alpha virt. eigenvalues --    0.61618   0.62263   0.63518   0.65195   0.65759
 Alpha virt. eigenvalues --    0.67577   0.68548   0.70070   0.71450   0.73730
 Alpha virt. eigenvalues --    0.74093   0.75199   0.76635   0.78116   0.79075
 Alpha virt. eigenvalues --    0.80244   0.82246   0.83259   0.84174   0.84466
 Alpha virt. eigenvalues --    0.84923   0.86023   0.86240   0.86541   0.87850
 Alpha virt. eigenvalues --    0.88448   0.89487   0.90938   0.92004   0.93420
 Alpha virt. eigenvalues --    0.93789   0.94065   0.95039   0.95885   0.97785
 Alpha virt. eigenvalues --    0.98298   1.01068   1.01652   1.04715   1.05466
 Alpha virt. eigenvalues --    1.06619   1.07119   1.09619   1.12384   1.13672
 Alpha virt. eigenvalues --    1.16951   1.19244   1.19857   1.20422   1.22115
 Alpha virt. eigenvalues --    1.25684   1.28976   1.30836   1.35736   1.36413
 Alpha virt. eigenvalues --    1.37640   1.40150   1.43521   1.45167   1.46376
 Alpha virt. eigenvalues --    1.48179   1.50917   1.51832   1.52754   1.55213
 Alpha virt. eigenvalues --    1.57701   1.58295   1.65496   1.68836   1.70019
 Alpha virt. eigenvalues --    1.71875   1.76484   1.77729   1.79376   1.79867
 Alpha virt. eigenvalues --    1.81509   1.82964   1.84055   1.85434   1.86501
 Alpha virt. eigenvalues --    1.87386   1.88660   1.91219   1.93571   1.95878
 Alpha virt. eigenvalues --    1.97338   1.98206   1.98968   2.00987   2.01722
 Alpha virt. eigenvalues --    2.02790   2.06069   2.07243   2.08410   2.10460
 Alpha virt. eigenvalues --    2.11252   2.11930   2.14205   2.15179   2.16173
 Alpha virt. eigenvalues --    2.16611   2.23258   2.24496   2.25615   2.27333
 Alpha virt. eigenvalues --    2.29410   2.31578   2.31966   2.35640   2.36102
 Alpha virt. eigenvalues --    2.36541   2.39355   2.41535   2.42870   2.47808
 Alpha virt. eigenvalues --    2.49846   2.53948   2.54317   2.57999   2.59479
 Alpha virt. eigenvalues --    2.62923   2.64461   2.66593   2.67902   2.69426
 Alpha virt. eigenvalues --    2.70701   2.74267   2.77076   2.79766   2.84449
 Alpha virt. eigenvalues --    2.91186   2.97025   2.99513   2.99664   3.02382
 Alpha virt. eigenvalues --    3.19063   3.42713   4.04988   4.06322   4.11535
 Alpha virt. eigenvalues --    4.12787   4.13094   4.22325   4.28061   4.30114
 Alpha virt. eigenvalues --    4.34814   4.36748   4.49396   4.54769   4.59764
 Alpha virt. eigenvalues --    4.64844   4.77105
          Condensed to atoms (all electrons):
               1          2          3          4          5          6
     1  O    8.041178   0.551427  -0.078759   0.001764   0.000178  -0.000001
     2  C    0.551427   4.480745   0.322767  -0.014794  -0.003582  -0.000007
     3  C   -0.078759   0.322767   5.375556   0.306109  -0.040999   0.003890
     4  C    0.001764  -0.014794   0.306109   5.104552   0.360591  -0.054823
     5  C    0.000178  -0.003582  -0.040999   0.360591   4.686280   0.525403
     6  C   -0.000001  -0.000007   0.003890  -0.054823   0.525403   4.980687
     7  C   -0.000000  -0.000006  -0.000147   0.006143  -0.023285   0.517624
     8  C    0.000000  -0.000000  -0.000011   0.000202  -0.033458  -0.015547
     9  O    0.000000   0.000000  -0.000000   0.000000   0.000198   0.003112
    10  C    0.000000   0.000000   0.000000  -0.000000  -0.000009  -0.000122
    11  C    0.000064   0.000061   0.000080   0.007269  -0.021683  -0.047792
    12  C   -0.005637  -0.000448  -0.001262  -0.060304   0.549491  -0.035096
    13  C    0.000146  -0.018631  -0.044469   0.352038  -0.045385  -0.006161
    14  C    0.001227  -0.024664  -0.004997  -0.039361  -0.008217  -0.000542
    15  C   -0.074347   0.335044  -0.137481  -0.001818  -0.000181  -0.000006
    16  H    0.001567  -0.028230   0.343051  -0.028134   0.005055  -0.000099
    17  H    0.003757  -0.027201   0.345999  -0.027955  -0.002959   0.000148
    18  H   -0.000082   0.003416  -0.035407   0.363550  -0.042577  -0.007070
    19  H    0.000000   0.000003   0.000128  -0.009285  -0.048432   0.353607
    20  H   -0.000000   0.000000   0.000002  -0.000132   0.004175  -0.040680
    21  H    0.000000   0.000000   0.000000  -0.000000  -0.000000   0.000004
    22  H    0.000000  -0.000000  -0.000000   0.000000   0.000000  -0.000004
    23  H   -0.000000   0.000000   0.000000  -0.000000  -0.000004   0.000001
    24  H   -0.000006  -0.000002   0.000012  -0.000164   0.003308   0.000784
    25  H    0.013733   0.007393  -0.004677  -0.012075  -0.039488   0.005561
    26  H   -0.000006  -0.001193  -0.002128  -0.035823   0.005360   0.000193
    27  H    0.000001   0.000328   0.004991  -0.033132  -0.006344   0.004806
    28  H   -0.000065   0.003200  -0.000220   0.004687   0.000174  -0.000008
    29  H    0.000324  -0.002161   0.000362  -0.007518   0.008211   0.000761
    30  H    0.004515  -0.023534   0.006564  -0.000122  -0.000037  -0.000001
    31  H    0.001259  -0.028281   0.003697  -0.001677   0.000112   0.000001
               7          8          9         10         11         12
     1  O   -0.000000   0.000000   0.000000   0.000000   0.000064  -0.005637
     2  C   -0.000006  -0.000000   0.000000   0.000000   0.000061  -0.000448
     3  C   -0.000147  -0.000011  -0.000000   0.000000   0.000080  -0.001262
     4  C    0.006143   0.000202   0.000000  -0.000000   0.007269  -0.060304
     5  C   -0.023285  -0.033458   0.000198  -0.000009  -0.021683   0.549491
     6  C    0.517624  -0.015547   0.003112  -0.000122  -0.047792  -0.035096
     7  C    4.986179   0.536670  -0.053949   0.004163  -0.063515  -0.045271
     8  C    0.536670   4.506868   0.279136  -0.043398   0.475244  -0.000178
     9  O   -0.053949   0.279136   8.201012   0.249238  -0.061702   0.003981
    10  C    0.004163  -0.043398   0.249238   4.893256  -0.006492   0.000369
    11  C   -0.063515   0.475244  -0.061702  -0.006492   5.127632   0.460328
    12  C   -0.045271  -0.000178   0.003981   0.000369   0.460328   5.035840
    13  C    0.000127   0.000015  -0.000000  -0.000000  -0.000120  -0.001781
    14  C   -0.000001   0.000006  -0.000000  -0.000000  -0.000039   0.000927
    15  C    0.000001   0.000001  -0.000000  -0.000000  -0.000008  -0.000933
    16  H    0.000001   0.000000  -0.000000  -0.000000  -0.000001   0.000111
    17  H   -0.000008  -0.000005   0.000000   0.000000  -0.000135   0.001328
    18  H    0.000145   0.000007  -0.000000   0.000000  -0.000138   0.003619
    19  H   -0.043151   0.004500  -0.000061   0.000003   0.000185   0.006717
    20  H    0.343729  -0.037080   0.000121  -0.000223   0.007661   0.000047
    21  H   -0.000113   0.003194  -0.033618   0.386085   0.000226   0.000003
    22  H    0.000052  -0.004346  -0.035611   0.362778   0.004900  -0.000172
    23  H    0.000038  -0.004459  -0.035524   0.362915   0.004812  -0.000163
    24  H    0.004479  -0.046580  -0.007741   0.006070   0.351806  -0.034521
    25  H    0.000479   0.003256  -0.000047  -0.000008  -0.036648   0.340519
    26  H    0.000002   0.000000   0.000000   0.000000   0.000002  -0.000084
    27  H   -0.000121  -0.000006  -0.000000   0.000000  -0.000004  -0.000016
    28  H   -0.000002   0.000000   0.000000   0.000000  -0.000000  -0.000005
    29  H   -0.000097  -0.000026   0.000000   0.000000  -0.000001   0.002974
    30  H    0.000000  -0.000000  -0.000000   0.000000  -0.000000   0.000044
    31  H   -0.000000   0.000000  -0.000000   0.000000   0.000000  -0.000016
              13         14         15         16         17         18
     1  O    0.000146   0.001227  -0.074347   0.001567   0.003757  -0.000082
     2  C   -0.018631  -0.024664   0.335044  -0.028230  -0.027201   0.003416
     3  C   -0.044469  -0.004997  -0.137481   0.343051   0.345999  -0.035407
     4  C    0.352038  -0.039361  -0.001818  -0.028134  -0.027955   0.363550
     5  C   -0.045385  -0.008217  -0.000181   0.005055  -0.002959  -0.042577
     6  C   -0.006161  -0.000542  -0.000006  -0.000099   0.000148  -0.007070
     7  C    0.000127  -0.000001   0.000001   0.000001  -0.000008   0.000145
     8  C    0.000015   0.000006   0.000001   0.000000  -0.000005   0.000007
     9  O   -0.000000  -0.000000  -0.000000  -0.000000   0.000000  -0.000000
    10  C   -0.000000  -0.000000  -0.000000  -0.000000   0.000000   0.000000
    11  C   -0.000120  -0.000039  -0.000008  -0.000001  -0.000135  -0.000138
    12  C   -0.001781   0.000927  -0.000933   0.000111   0.001328   0.003619
    13  C    5.085477   0.369759  -0.044143  -0.001027   0.004808  -0.043036
    14  C    0.369759   5.036654   0.333750  -0.001490  -0.000146   0.005805
    15  C   -0.044143   0.333750   5.299924   0.002817   0.006327  -0.000309
    16  H   -0.001027  -0.001490   0.002817   0.578765  -0.025789  -0.008217
    17  H    0.004808  -0.000146   0.006327  -0.025789   0.554242  -0.002474
    18  H   -0.043036   0.005805  -0.000309  -0.008217  -0.002474   0.626952
    19  H    0.000293   0.000088  -0.000001  -0.000006   0.000002   0.004306
    20  H    0.000000   0.000000  -0.000000  -0.000000   0.000000  -0.000006
    21  H    0.000000  -0.000000  -0.000000  -0.000000  -0.000000   0.000000
    22  H    0.000000   0.000000   0.000000   0.000000   0.000000  -0.000000
    23  H   -0.000000  -0.000000  -0.000000  -0.000000  -0.000000   0.000000
    24  H    0.000001   0.000000  -0.000001  -0.000000   0.000000   0.000003
    25  H    0.000378  -0.000632   0.001241   0.000350   0.001848  -0.000074
    26  H    0.359208  -0.043740  -0.003697   0.003527  -0.000110  -0.004932
    27  H    0.364791  -0.030639   0.004475  -0.000078  -0.000144  -0.001970
    28  H   -0.030306   0.368421  -0.029106  -0.000028   0.000014  -0.000170
    29  H   -0.039425   0.375933  -0.041604   0.000059  -0.000070   0.000115
    30  H    0.004043  -0.025630   0.345148  -0.000120  -0.000170   0.000016
    31  H   -0.002854  -0.036824   0.346594   0.001071  -0.000147  -0.000031
              19         20         21         22         23         24
     1  O    0.000000  -0.000000   0.000000   0.000000  -0.000000  -0.000006
     2  C    0.000003   0.000000   0.000000  -0.000000   0.000000  -0.000002
     3  C    0.000128   0.000002   0.000000  -0.000000   0.000000   0.000012
     4  C   -0.009285  -0.000132  -0.000000   0.000000  -0.000000  -0.000164
     5  C   -0.048432   0.004175  -0.000000   0.000000  -0.000004   0.003308
     6  C    0.353607  -0.040680   0.000004  -0.000004   0.000001   0.000784
     7  C   -0.043151   0.343729  -0.000113   0.000052   0.000038   0.004479
     8  C    0.004500  -0.037080   0.003194  -0.004346  -0.004459  -0.046580
     9  O   -0.000061   0.000121  -0.033618  -0.035611  -0.035524  -0.007741
    10  C    0.000003  -0.000223   0.386085   0.362778   0.362915   0.006070
    11  C    0.000185   0.007661   0.000226   0.004900   0.004812   0.351806
    12  C    0.006717   0.000047   0.000003  -0.000172  -0.000163  -0.034521
    13  C    0.000293   0.000000   0.000000   0.000000  -0.000000   0.000001
    14  C    0.000088   0.000000  -0.000000   0.000000  -0.000000   0.000000
    15  C   -0.000001  -0.000000  -0.000000   0.000000  -0.000000  -0.000001
    16  H   -0.000006  -0.000000  -0.000000   0.000000  -0.000000  -0.000000
    17  H    0.000002   0.000000  -0.000000   0.000000  -0.000000   0.000000
    18  H    0.004306  -0.000006   0.000000  -0.000000   0.000000   0.000003
    19  H    0.612233  -0.006534  -0.000000  -0.000000  -0.000000   0.000017
    20  H   -0.006534   0.592510  -0.000029   0.000030   0.000029  -0.000167
    21  H   -0.000000  -0.000029   0.539366  -0.031936  -0.031899  -0.000106
    22  H   -0.000000   0.000030  -0.031936   0.600002  -0.049647   0.001748
    23  H   -0.000000   0.000029  -0.031899  -0.049647   0.599308   0.001936
    24  H    0.000017  -0.000167  -0.000106   0.001748   0.001936   0.590448
    25  H   -0.000178   0.000014  -0.000000   0.000002  -0.000000  -0.005361
    26  H   -0.000138  -0.000000  -0.000000  -0.000000   0.000000  -0.000000
    27  H    0.002390   0.000005  -0.000000  -0.000000   0.000000   0.000000
    28  H    0.000002  -0.000000   0.000000  -0.000000   0.000000  -0.000000
    29  H    0.000003  -0.000001  -0.000000  -0.000000   0.000000  -0.000004
    30  H   -0.000000   0.000000   0.000000   0.000000  -0.000000   0.000000
    31  H    0.000000  -0.000000   0.000000  -0.000000   0.000000  -0.000000
              25         26         27         28         29         30
     1  O    0.013733  -0.000006   0.000001  -0.000065   0.000324   0.004515
     2  C    0.007393  -0.001193   0.000328   0.003200  -0.002161  -0.023534
     3  C   -0.004677  -0.002128   0.004991  -0.000220   0.000362   0.006564
     4  C   -0.012075  -0.035823  -0.033132   0.004687  -0.007518  -0.000122
     5  C   -0.039488   0.005360  -0.006344   0.000174   0.008211  -0.000037
     6  C    0.005561   0.000193   0.004806  -0.000008   0.000761  -0.000001
     7  C    0.000479   0.000002  -0.000121  -0.000002  -0.000097   0.000000
     8  C    0.003256   0.000000  -0.000006   0.000000  -0.000026  -0.000000
     9  O   -0.000047   0.000000  -0.000000   0.000000   0.000000  -0.000000
    10  C   -0.000008   0.000000   0.000000   0.000000   0.000000   0.000000
    11  C   -0.036648   0.000002  -0.000004  -0.000000  -0.000001  -0.000000
    12  C    0.340519  -0.000084  -0.000016  -0.000005   0.002974   0.000044
    13  C    0.000378   0.359208   0.364791  -0.030306  -0.039425   0.004043
    14  C   -0.000632  -0.043740  -0.030639   0.368421   0.375933  -0.025630
    15  C    0.001241  -0.003697   0.004475  -0.029106  -0.041604   0.345148
    16  H    0.000350   0.003527  -0.000078  -0.000028   0.000059  -0.000120
    17  H    0.001848  -0.000110  -0.000144   0.000014  -0.000070  -0.000170
    18  H   -0.000074  -0.004932  -0.001970  -0.000170   0.000115   0.000016
    19  H   -0.000178  -0.000138   0.002390   0.000002   0.000003  -0.000000
    20  H    0.000014  -0.000000   0.000005  -0.000000  -0.000001   0.000000
    21  H   -0.000000  -0.000000  -0.000000   0.000000  -0.000000   0.000000
    22  H    0.000002  -0.000000  -0.000000  -0.000000  -0.000000   0.000000
    23  H   -0.000000   0.000000   0.000000   0.000000   0.000000  -0.000000
    24  H   -0.005361  -0.000000   0.000000  -0.000000  -0.000004   0.000000
    25  H    0.567565  -0.000007  -0.000016   0.000019   0.000133  -0.000055
    26  H   -0.000007   0.621832  -0.034034  -0.003770   0.005906  -0.000012
    27  H   -0.000016  -0.034034   0.586253  -0.002811  -0.003166  -0.000140
    28  H    0.000019  -0.003770  -0.002811   0.591788  -0.035464  -0.002296
    29  H    0.000133   0.005906  -0.003166  -0.035464   0.574301  -0.003076
    30  H   -0.000055  -0.000012  -0.000140  -0.002296  -0.003076   0.558472
    31  H    0.000025   0.005095  -0.000019  -0.006401   0.005506  -0.026762
              31
     1  O    0.001259
     2  C   -0.028281
     3  C    0.003697
     4  C   -0.001677
     5  C    0.000112
     6  C    0.000001
     7  C   -0.000000
     8  C    0.000000
     9  O   -0.000000
    10  C    0.000000
    11  C    0.000000
    12  C   -0.000016
    13  C   -0.002854
    14  C   -0.036824
    15  C    0.346594
    16  H    0.001071
    17  H   -0.000147
    18  H   -0.000031
    19  H    0.000000
    20  H   -0.000000
    21  H    0.000000
    22  H   -0.000000
    23  H    0.000000
    24  H   -0.000000
    25  H    0.000025
    26  H    0.005095
    27  H   -0.000019
    28  H   -0.006401
    29  H    0.005506
    30  H   -0.026762
    31  H    0.587211
 Mulliken charges:
               1
     1  O   -0.462238
     2  C    0.468350
     3  C   -0.362650
     4  C   -0.179787
     5  C    0.168105
     6  C   -0.188623
     7  C   -0.170167
     8  C    0.375993
     9  O   -0.508547
    10  C   -0.214623
    11  C   -0.201993
    12  C   -0.220409
    13  C   -0.263745
    14  C   -0.275649
    15  C   -0.341685
    16  H    0.156845
    17  H    0.168841
    18  H    0.138558
    19  H    0.123311
    20  H    0.136528
    21  H    0.168825
    22  H    0.152203
    23  H    0.152657
    24  H    0.134043
    25  H    0.156749
    26  H    0.128550
    27  H    0.144598
    28  H    0.142345
    29  H    0.158024
    30  H    0.163153
    31  H    0.152439
 Sum of Mulliken charges =  -0.00000
 Mulliken charges with hydrogens summed into heavy atoms:
               1
     1  O   -0.462238
     2  C    0.468350
     3  C   -0.036964
     4  C   -0.041229
     5  C    0.168105
     6  C   -0.065312
     7  C   -0.033640
     8  C    0.375993
     9  O   -0.508547
    10  C    0.259062
    11  C   -0.067951
    12  C   -0.063661
    13  C    0.009403
    14  C    0.024721
    15  C   -0.026094
 APT charges:
               1
     1  O   -0.643221
     2  C    0.713316
     3  C   -0.084479
     4  C    0.210674
     5  C   -0.086424
     6  C    0.046018
     7  C   -0.135179
     8  C    0.628704
     9  O   -0.924462
    10  C    0.554681
    11  C   -0.149850
    12  C    0.003345
    13  C    0.084844
    14  C    0.117566
    15  C   -0.039516
    16  H   -0.015563
    17  H   -0.009525
    18  H   -0.087426
    19  H    0.016005
    20  H    0.033144
    21  H   -0.016687
    22  H   -0.045006
    23  H   -0.045141
    24  H    0.032919
    25  H    0.055064
    26  H   -0.073137
    27  H   -0.030314
    28  H   -0.052588
    29  H   -0.022486
    30  H   -0.022430
    31  H   -0.012847
 Sum of APT charges =   0.00000
 APT charges with hydrogens summed into heavy atoms:
               1
     1  O   -0.643221
     2  C    0.713316
     3  C   -0.109568
     4  C    0.123249
     5  C   -0.086424
     6  C    0.062023
     7  C   -0.102035
     8  C    0.628704
     9  O   -0.924462
    10  C    0.447847
    11  C   -0.116930
    12  C    0.058409
    13  C   -0.018607
    14  C    0.042492
    15  C   -0.074794
 Electronic spatial extent (au):  <R**2>=           3880.1719
 Charge=             -0.0000 electrons
 Dipole moment (field-independent basis, Debye):
    X=             -0.2053    Y=             -1.6943    Z=              0.5010  Tot=              1.7788
 Quadrupole moment (field-independent basis, Debye-Ang):
   XX=            -80.8431   YY=            -91.6472   ZZ=            -88.9902
   XY=            -14.1098   XZ=             -0.6198   YZ=              2.3960
 Traceless Quadrupole moment (field-independent basis, Debye-Ang):
   XX=              6.3170   YY=             -4.4870   ZZ=             -1.8301
   XY=            -14.1098   XZ=             -0.6198   YZ=              2.3960
 Octapole moment (field-independent basis, Debye-Ang**2):
  XXX=            -22.7551  YYY=            -17.5056  ZZZ=              2.8086  XYY=            -37.3829
  XXY=             12.6792  XXZ=              9.2846  XZZ=              5.8764  YZZ=              4.9138
  YYZ=              3.3064  XYZ=              0.7129
 Hexadecapole moment (field-independent basis, Debye-Ang**3):
 XXXX=          -3490.4646 YYYY=           -927.7762 ZZZZ=           -419.7105 XXXY=           -170.0778
 XXXZ=            -38.9113 YYYX=            -44.8393 YYYZ=             10.8421 ZZZX=            -10.3957
 ZZZY=             -2.6533 XXYY=           -787.0276 XXZZ=           -688.7032 YYZZ=           -220.4493
 XXYZ=             23.2890 YYXZ=              3.6545 ZZXY=             -0.0463
 N-N= 9.751989364818D+02 E-N=-3.473521470442D+03  KE= 6.492737786010D+02
  Exact polarizability: 177.350  -7.447 138.883  -6.371   2.473  92.398
 Approx polarizability: 239.743  -7.241 236.249 -16.494   4.492 134.612
 Calling FoFJK, ICntrl=    100127 FMM=F ISym2X=0 I1Cent= 0 IOpClX= 0 NMat=1 NMatS=1 NMatT=0.
 Full mass-weighted force constant matrix:
 Low frequencies ---  -13.4886   -2.9009   -2.0738   -0.0005    0.0003    0.0005
 Low frequencies ---   37.7457   55.7209   82.2661
 Diagonal vibrational polarizability:
       37.4826690       5.1266780      60.6704771
 Harmonic frequencies (cm**-1), IR intensities (KM/Mole), Raman scattering
 activities (A**4/AMU), depolarization ratios for plane and unpolarized
 incident light, reduced masses (AMU), force constants (mDyne/A),
 and normal coordinates:
                      1                      2                      3
                      A                      A                      A
 Frequencies --     37.6897                55.7161                82.2579
 Red. masses --      3.8113                 3.6130                 7.2822
 Frc consts  --      0.0032                 0.0066                 0.0290
 IR Inten    --      2.0669                 1.2377                 5.5620
  Atom  AN      X      Y      Z        X      Y      Z        X      Y      Z
     1   8    -0.10   0.01   0.14    -0.01  -0.00  -0.04     0.52   0.03  -0.10
     2   6    -0.04   0.00   0.06    -0.04   0.00   0.02     0.14   0.01   0.00
     3   6    -0.00   0.05  -0.00     0.07  -0.03   0.01    -0.01   0.07   0.00
     4   6     0.00   0.03  -0.06     0.03  -0.02  -0.04    -0.04   0.08  -0.05
     5   6     0.01   0.02  -0.01     0.02  -0.01  -0.11    -0.04   0.06  -0.02
     6   6     0.05   0.00   0.18     0.03  -0.01  -0.05     0.01   0.03   0.04
     7   6     0.05   0.00   0.21     0.04  -0.00  -0.01     0.01  -0.02   0.09
     8   6     0.02   0.01   0.04     0.05   0.00  -0.02    -0.04  -0.03   0.07
     9   8     0.03   0.01   0.08     0.07   0.01   0.08    -0.03  -0.10   0.11
    10   6    -0.01   0.02  -0.13     0.11   0.00   0.21    -0.14  -0.11  -0.10
    11   6    -0.02   0.03  -0.15     0.03   0.00  -0.13    -0.08   0.00   0.01
    12   6    -0.02   0.03  -0.17     0.02  -0.01  -0.17    -0.07   0.05  -0.02
    13   6     0.03  -0.04  -0.12    -0.05   0.00   0.02    -0.07   0.02  -0.07
    14   6     0.03  -0.11  -0.05    -0.19   0.02   0.03    -0.14  -0.02  -0.01
    15   6    -0.01  -0.06   0.01    -0.18   0.05   0.11    -0.08  -0.04   0.09
    16   1     0.01   0.08  -0.00     0.11  -0.03   0.10    -0.05   0.05  -0.07
    17   1     0.01   0.08   0.01     0.14  -0.05  -0.06     0.00   0.15   0.05
    18   1    -0.01   0.07  -0.11     0.08  -0.04  -0.03    -0.05   0.11  -0.08
    19   1     0.07  -0.01   0.31     0.03  -0.02  -0.01     0.04   0.04   0.04
    20   1     0.08  -0.01   0.36     0.04  -0.00   0.06     0.05  -0.05   0.13
    21   1    -0.00   0.02  -0.08     0.13   0.01   0.35    -0.14  -0.17  -0.11
    22   1    -0.01   0.19  -0.23     0.23  -0.05   0.18    -0.21   0.05  -0.15
    23   1    -0.06  -0.13  -0.24    -0.01   0.05   0.23    -0.16  -0.23  -0.18
    24   1    -0.04   0.03  -0.28     0.04   0.01  -0.16    -0.12  -0.01   0.01
    25   1    -0.05   0.03  -0.30     0.02  -0.01  -0.23    -0.09   0.07  -0.05
    26   1     0.04  -0.01  -0.16    -0.00   0.04   0.10    -0.05   0.05  -0.05
    27   1     0.06  -0.08  -0.16    -0.05  -0.02  -0.03    -0.06  -0.01  -0.13
    28   1     0.05  -0.16  -0.09    -0.25   0.04   0.08    -0.21  -0.06   0.01
    29   1     0.02  -0.16  -0.01    -0.24  -0.02  -0.06    -0.16  -0.02  -0.08
    30   1    -0.03  -0.10   0.06    -0.31   0.07   0.11    -0.13  -0.04   0.10
    31   1     0.00  -0.01  -0.02    -0.13   0.09   0.24    -0.05  -0.05   0.20
                      4                      5                      6
                      A                      A                      A
 Frequencies --     93.7128               124.9524               173.4755
 Red. masses --      3.4623                 3.5546                 4.1182
 Frc consts  --      0.0179                 0.0327                 0.0730
 IR Inten    --      0.9531                 2.1947                 0.4269
  Atom  AN      X      Y      Z        X      Y      Z        X      Y      Z
     1   8     0.06  -0.01   0.06    -0.08  -0.04   0.08     0.11   0.09   0.06
     2   6     0.09  -0.02   0.02     0.06  -0.04  -0.00    -0.01   0.08   0.05
     3   6     0.01   0.01   0.03     0.07  -0.03  -0.01    -0.15   0.12   0.06
     4   6    -0.02   0.03   0.05     0.00   0.01  -0.01    -0.02  -0.01   0.02
     5   6    -0.03   0.04   0.00    -0.01   0.04  -0.11    -0.05  -0.15  -0.03
     6   6    -0.00   0.02   0.06    -0.00   0.03  -0.15    -0.08  -0.13  -0.06
     7   6    -0.02   0.00   0.01     0.01   0.01  -0.06    -0.09  -0.09  -0.05
     8   6    -0.06   0.00  -0.10     0.02  -0.00   0.06    -0.04  -0.07  -0.02
     9   8    -0.06  -0.03  -0.11     0.05  -0.04   0.23    -0.00   0.05   0.10
    10   6    -0.04  -0.06   0.20    -0.04  -0.04  -0.09     0.17   0.14  -0.03
    11   6    -0.09   0.02  -0.18    -0.00   0.01   0.01    -0.01  -0.10  -0.07
    12   6    -0.07   0.04  -0.12    -0.01   0.03  -0.07    -0.03  -0.14  -0.07
    13   6    -0.04   0.03   0.07    -0.13   0.05   0.09     0.04   0.04   0.02
    14   6     0.08   0.04   0.02    -0.05   0.10   0.03     0.05   0.05   0.01
    15   6     0.18  -0.06  -0.05     0.13  -0.06  -0.05     0.06   0.03  -0.01
    16   1    -0.03  -0.03  -0.01     0.07  -0.09   0.04    -0.17   0.23  -0.10
    17   1    -0.00   0.02   0.05     0.12  -0.04  -0.03    -0.28   0.15   0.16
    18   1    -0.01   0.01   0.06     0.05  -0.03   0.04     0.10   0.00   0.01
    19   1     0.03   0.02   0.15    -0.00   0.04  -0.21    -0.11  -0.14  -0.07
    20   1     0.01  -0.01   0.07     0.02   0.00  -0.06    -0.11  -0.07  -0.05
    21   1    -0.01  -0.10   0.34    -0.03  -0.07  -0.06     0.17   0.30   0.11
    22   1     0.09  -0.21   0.21    -0.08   0.21  -0.22     0.32   0.22  -0.16
    23   1    -0.19   0.10   0.28    -0.08  -0.26  -0.25     0.14  -0.01  -0.14
    24   1    -0.12   0.02  -0.27    -0.01   0.00   0.06     0.03  -0.09  -0.08
    25   1    -0.08   0.05  -0.17    -0.01   0.04  -0.06    -0.01  -0.16  -0.06
    26   1    -0.09  -0.06   0.06    -0.16  -0.09   0.18     0.04   0.07   0.01
    27   1    -0.10   0.09   0.11    -0.24   0.15   0.13     0.07   0.02   0.04
    28   1     0.07   0.02   0.03    -0.15   0.11   0.09     0.05   0.05   0.01
    29   1     0.13   0.15   0.04    -0.01   0.27  -0.05     0.05   0.06   0.02
    30   1     0.33  -0.07  -0.06     0.30  -0.06  -0.08     0.14   0.00   0.00
    31   1     0.10  -0.17  -0.15     0.04  -0.24  -0.12     0.02  -0.00  -0.09
                      7                      8                      9
                      A                      A                      A
 Frequencies --    195.0928               250.5837               277.3233
 Red. masses --      2.5842                 1.2267                 2.7870
 Frc consts  --      0.0580                 0.0454                 0.1263
 IR Inten    --      0.0641                 0.2047                 3.2931
  Atom  AN      X      Y      Z        X      Y      Z        X      Y      Z
     1   8     0.01  -0.01  -0.07    -0.01  -0.01   0.01    -0.02  -0.01  -0.04
     2   6    -0.02  -0.00   0.02    -0.01  -0.01  -0.01     0.03  -0.00  -0.01
     3   6     0.03  -0.05   0.04    -0.03   0.01  -0.02     0.11  -0.03  -0.00
     4   6     0.01  -0.02   0.06    -0.00  -0.00   0.00    -0.04   0.08  -0.01
     5   6    -0.01   0.01   0.02     0.02   0.01   0.05    -0.03   0.10   0.00
     6   6    -0.04   0.03  -0.07     0.02   0.01   0.03     0.04   0.05   0.00
     7   6    -0.04   0.04  -0.11     0.01   0.01  -0.01     0.02  -0.08   0.02
     8   6    -0.03   0.03  -0.03     0.01   0.01  -0.03    -0.05  -0.11   0.01
     9   8    -0.01   0.00   0.12     0.01  -0.00  -0.03    -0.06  -0.04  -0.02
    10   6    -0.09  -0.02   0.01     0.01  -0.01  -0.01     0.20   0.07  -0.04
    11   6    -0.03   0.03  -0.08     0.01   0.01   0.01    -0.11  -0.06   0.04
    12   6    -0.02   0.02  -0.03     0.02   0.01   0.07    -0.09   0.07   0.04
    13   6     0.09  -0.04   0.01     0.00  -0.00  -0.01    -0.09   0.01  -0.02
    14   6     0.18  -0.10   0.04    -0.06   0.01  -0.01     0.05  -0.04   0.00
    15   6    -0.03   0.07   0.06    -0.01  -0.03  -0.02    -0.01   0.02   0.02
    16   1     0.05  -0.08   0.11    -0.04   0.03  -0.06     0.12  -0.16   0.15
    17   1     0.08  -0.08  -0.01    -0.07   0.02   0.01     0.25  -0.04  -0.10
    18   1    -0.02  -0.02   0.06    -0.03   0.01  -0.00    -0.09   0.08  -0.01
    19   1    -0.05   0.03  -0.10     0.02   0.01   0.02     0.12   0.08  -0.02
    20   1    -0.05   0.04  -0.14     0.01   0.01  -0.03     0.09  -0.15   0.01
    21   1    -0.04  -0.08   0.26     0.11  -0.06   0.55     0.21   0.29   0.12
    22   1     0.04   0.18  -0.18     0.39   0.18  -0.33     0.43   0.03  -0.14
    23   1    -0.34  -0.16  -0.13    -0.48  -0.17  -0.19     0.21  -0.02  -0.10
    24   1    -0.03   0.04  -0.10     0.00   0.01  -0.03    -0.17  -0.08   0.04
    25   1    -0.02   0.02  -0.02     0.03   0.01   0.09    -0.15   0.12   0.06
    26   1     0.06  -0.02  -0.10     0.02   0.03   0.01    -0.15  -0.10  -0.04
    27   1     0.13  -0.06   0.03     0.02  -0.02  -0.03    -0.18   0.09   0.00
    28   1     0.36  -0.13  -0.08    -0.11   0.04   0.03     0.14  -0.10  -0.09
    29   1     0.19  -0.24   0.23    -0.07   0.04  -0.09     0.09  -0.07   0.14
    30   1    -0.20   0.09   0.07     0.04  -0.03  -0.03    -0.09   0.02   0.04
    31   1     0.06   0.27   0.11    -0.03  -0.08  -0.03     0.03   0.09   0.06
                     10                     11                     12
                      A                      A                      A
 Frequencies --    290.1959               319.0111               379.6819
 Red. masses --      3.1558                 2.8374                 3.2514
 Frc consts  --      0.1566                 0.1701                 0.2762
 IR Inten    --      1.2553                 2.3234                 0.9513
  Atom  AN      X      Y      Z        X      Y      Z        X      Y      Z
     1   8    -0.03  -0.03   0.04    -0.02  -0.07   0.01     0.01   0.15  -0.02
     2   6     0.13  -0.02   0.01     0.01  -0.07  -0.03    -0.01   0.15   0.00
     3   6     0.19  -0.05  -0.01    -0.06  -0.01  -0.03     0.13  -0.01   0.08
     4   6     0.05  -0.00  -0.06    -0.00   0.01   0.06     0.03  -0.01   0.02
     5   6    -0.01  -0.06  -0.03     0.03   0.07   0.16     0.03  -0.04   0.13
     6   6    -0.06  -0.03   0.00     0.04   0.06   0.05     0.01  -0.03   0.11
     7   6    -0.07  -0.01   0.03     0.00  -0.00  -0.14    -0.03  -0.00  -0.11
     8   6    -0.09  -0.01   0.03    -0.03  -0.02  -0.08    -0.02   0.00  -0.08
     9   8    -0.11   0.05  -0.00     0.01  -0.04   0.12     0.00   0.02   0.08
    10   6    -0.08   0.07   0.02     0.08   0.00  -0.00    -0.03   0.01   0.01
    11   6    -0.04  -0.05   0.04    -0.07   0.01  -0.11     0.00  -0.02  -0.06
    12   6    -0.04  -0.07   0.01    -0.03   0.07   0.04     0.02  -0.04   0.06
    13   6     0.15   0.05  -0.09     0.13   0.01  -0.02    -0.08  -0.14  -0.02
    14   6    -0.05   0.09  -0.07    -0.08   0.02   0.00    -0.05  -0.03  -0.13
    15   6     0.08   0.04   0.06    -0.01  -0.05  -0.01    -0.01  -0.01  -0.09
    16   1     0.19  -0.17   0.12    -0.11   0.00  -0.16     0.22  -0.10   0.37
    17   1     0.34  -0.02  -0.09    -0.16   0.02   0.05     0.31  -0.17  -0.15
    18   1     0.06   0.01  -0.07    -0.12   0.01   0.07    -0.01   0.10  -0.08
    19   1    -0.10  -0.05   0.01     0.10   0.07   0.05     0.00  -0.05   0.18
    20   1    -0.06  -0.03   0.04     0.03  -0.03  -0.21    -0.04   0.00  -0.16
    21   1    -0.07   0.08   0.12     0.02   0.11  -0.27    -0.05  -0.00  -0.08
    22   1    -0.00   0.09  -0.04    -0.07  -0.05   0.11    -0.12   0.03   0.05
    23   1    -0.16   0.05  -0.01     0.36  -0.00   0.03     0.04   0.01   0.02
    24   1    -0.01  -0.04   0.04    -0.11   0.00  -0.12     0.02  -0.01  -0.05
    25   1    -0.04  -0.07   0.02    -0.06   0.10   0.06     0.03  -0.05   0.06
    26   1     0.24   0.25  -0.11     0.23   0.25  -0.07    -0.15  -0.32   0.05
    27   1     0.32  -0.08  -0.11     0.31  -0.16  -0.10    -0.25   0.01   0.04
    28   1    -0.25   0.11   0.06    -0.22   0.09   0.12    -0.10   0.05  -0.05
    29   1    -0.12   0.13  -0.30    -0.15   0.04  -0.19    -0.06   0.01  -0.21
    30   1    -0.03   0.07   0.06     0.03  -0.01  -0.05     0.11  -0.15   0.03
    31   1     0.10   0.02   0.21    -0.03  -0.14   0.03    -0.06  -0.05  -0.23
                     13                     14                     15
                      A                      A                      A
 Frequencies --    423.8408               426.9472               443.1723
 Red. masses --      3.6523                 3.3881                 2.6690
 Frc consts  --      0.3866                 0.3639                 0.3089
 IR Inten    --      0.3482                 0.3448                 2.4066
  Atom  AN      X      Y      Z        X      Y      Z        X      Y      Z
     1   8    -0.03  -0.06  -0.02     0.02  -0.00   0.03     0.01   0.05  -0.08
     2   6     0.08  -0.04   0.05    -0.03  -0.01  -0.04    -0.09   0.06   0.07
     3   6    -0.05  -0.03   0.07     0.02   0.03  -0.09    -0.02  -0.05   0.15
     4   6    -0.14   0.01  -0.04     0.09   0.01  -0.01    -0.02  -0.05   0.06
     5   6    -0.10  -0.03   0.03     0.06   0.01  -0.03    -0.03   0.04  -0.04
     6   6    -0.05  -0.06   0.16     0.08   0.01   0.17    -0.03   0.04  -0.05
     7   6    -0.06   0.03  -0.13    -0.01  -0.01  -0.18    -0.00   0.03   0.02
     8   6     0.07   0.05  -0.05    -0.05  -0.03   0.01     0.02   0.01   0.10
     9   8     0.10  -0.05  -0.00    -0.06   0.04   0.01    -0.01  -0.05  -0.06
    10   6     0.08  -0.09  -0.02    -0.06   0.06   0.01     0.06  -0.04  -0.02
    11   6     0.06   0.07   0.10     0.02  -0.07   0.20    -0.01   0.04   0.10
    12   6    -0.01   0.01  -0.09    -0.04   0.00  -0.19    -0.04   0.06  -0.12
    13   6    -0.08   0.05  -0.09     0.02   0.02   0.06     0.11  -0.06  -0.00
    14   6     0.03   0.06  -0.10     0.00  -0.03   0.09    -0.03  -0.01  -0.02
    15   6     0.10   0.09   0.10    -0.06  -0.04  -0.04     0.03  -0.05  -0.04
    16   1    -0.10  -0.13   0.06     0.03   0.10  -0.14     0.07  -0.05   0.35
    17   1     0.04   0.08   0.10    -0.05   0.01  -0.06     0.10  -0.15   0.01
    18   1    -0.14   0.05  -0.07     0.12  -0.04   0.03    -0.01  -0.01   0.03
    19   1    -0.02  -0.07   0.31     0.12  -0.01   0.38    -0.03   0.05  -0.09
    20   1    -0.18   0.13  -0.21     0.02  -0.05  -0.35    -0.03   0.05  -0.04
    21   1     0.08  -0.10   0.00    -0.04   0.05   0.09     0.06   0.03   0.05
    22   1     0.08  -0.06  -0.04    -0.02   0.09  -0.03     0.15  -0.07  -0.05
    23   1     0.06  -0.11  -0.03    -0.11   0.04  -0.01     0.05  -0.05  -0.03
    24   1     0.09   0.07   0.23     0.05  -0.08   0.39    -0.01   0.04   0.10
    25   1     0.05  -0.06  -0.22    -0.12   0.05  -0.37    -0.07   0.07  -0.25
    26   1    -0.13   0.00  -0.16     0.04   0.01   0.11     0.18   0.17  -0.10
    27   1    -0.06   0.09   0.02    -0.01   0.01  -0.01     0.31  -0.22  -0.02
    28   1    -0.08  -0.04  -0.09     0.12  -0.02   0.03    -0.12   0.07   0.08
    29   1     0.04   0.11  -0.13     0.02  -0.07   0.18    -0.08   0.01  -0.17
    30   1    -0.17   0.12   0.12     0.03  -0.01  -0.09     0.33  -0.16   0.03
    31   1     0.20   0.22   0.29    -0.09  -0.09  -0.10    -0.09  -0.19  -0.30
                     16                     17                     18
                      A                      A                      A
 Frequencies --    475.1878               493.0894               522.5889
 Red. masses --      2.6966                 2.7887                 3.4273
 Frc consts  --      0.3588                 0.3995                 0.5515
 IR Inten    --      6.1448                 4.1635                11.0030
  Atom  AN      X      Y      Z        X      Y      Z        X      Y      Z
     1   8     0.07   0.04   0.14     0.05   0.03   0.17     0.05  -0.01   0.10
     2   6    -0.06   0.00  -0.07     0.04   0.01  -0.07    -0.05  -0.02  -0.01
     3   6     0.07  -0.05  -0.12    -0.03  -0.06  -0.06    -0.06  -0.09   0.02
     4   6    -0.06   0.03   0.00     0.04  -0.12   0.04    -0.12   0.00   0.05
     5   6    -0.07  -0.04   0.02     0.03   0.02   0.01    -0.03   0.06   0.09
     6   6    -0.08  -0.05   0.02    -0.02   0.06  -0.03     0.06  -0.02  -0.05
     7   6    -0.06   0.03   0.01    -0.01   0.06   0.02     0.04  -0.16  -0.02
     8   6     0.03   0.05  -0.02    -0.03   0.02   0.07     0.09  -0.12   0.09
     9   8     0.04  -0.05  -0.00    -0.06  -0.06  -0.02     0.11   0.15  -0.04
    10   6     0.06  -0.07  -0.02     0.05  -0.03  -0.01    -0.10   0.08   0.02
    11   6     0.01   0.07  -0.01    -0.02   0.03   0.03     0.01  -0.09  -0.01
    12   6    -0.01  -0.02   0.03    -0.02   0.03  -0.05     0.00   0.07  -0.05
    13   6     0.02   0.11   0.00     0.03  -0.14   0.06    -0.02   0.03  -0.03
    14   6     0.00   0.01   0.08     0.03   0.04  -0.11     0.02   0.05  -0.06
    15   6    -0.10  -0.02  -0.09    -0.03   0.09  -0.05    -0.02   0.04  -0.04
    16   1     0.14  -0.25   0.22    -0.05   0.02  -0.19    -0.02  -0.22   0.22
    17   1     0.31  -0.18  -0.36    -0.19  -0.13  -0.01     0.09  -0.17  -0.13
    18   1    -0.05  -0.04   0.07    -0.02  -0.11   0.03    -0.20  -0.00   0.05
    19   1    -0.11  -0.06   0.04    -0.06   0.06  -0.08     0.19   0.05  -0.24
    20   1    -0.14   0.11   0.04    -0.01   0.05  -0.05     0.06  -0.20  -0.20
    21   1     0.06  -0.03  -0.02     0.04   0.09   0.01    -0.07  -0.19   0.01
    22   1     0.08  -0.07  -0.02     0.13  -0.07  -0.03    -0.24   0.14   0.06
    23   1     0.09  -0.08  -0.02     0.10  -0.06  -0.02    -0.26   0.17   0.06
    24   1     0.04   0.08  -0.02     0.00   0.04  -0.02    -0.17  -0.14  -0.13
    25   1     0.06  -0.08   0.02    -0.04   0.05  -0.10    -0.05   0.09  -0.19
    26   1     0.09   0.30  -0.06    -0.04  -0.32   0.10    -0.02   0.09  -0.14
    27   1     0.18  -0.04  -0.07    -0.09   0.01   0.19     0.08  -0.01   0.03
    28   1     0.21  -0.02  -0.06    -0.07   0.20   0.04    -0.00   0.05  -0.05
    29   1     0.05  -0.07   0.28    -0.03   0.05  -0.29     0.01   0.05  -0.08
    30   1     0.03   0.04  -0.17    -0.41   0.17  -0.07    -0.12   0.09  -0.07
    31   1    -0.14  -0.09  -0.17     0.12   0.32   0.22     0.03   0.13   0.01
                     19                     20                     21
                      A                      A                      A
 Frequencies --    545.3484               594.5727               648.9295
 Red. masses --      3.1420                 3.6845                 6.3937
 Frc consts  --      0.5506                 0.7674                 1.5863
 IR Inten    --      3.3852                 4.3193                 0.9181
  Atom  AN      X      Y      Z        X      Y      Z        X      Y      Z
     1   8    -0.07   0.03  -0.05    -0.06   0.09  -0.01     0.02  -0.05   0.01
     2   6     0.13   0.03  -0.07     0.18   0.08  -0.12    -0.04  -0.05  -0.01
     3   6     0.07   0.09  -0.06     0.04   0.03  -0.03    -0.01   0.00   0.04
     4   6     0.03   0.10   0.06    -0.02   0.04   0.14     0.00   0.08   0.06
     5   6     0.00  -0.05   0.19    -0.12   0.04  -0.10    -0.03  -0.10  -0.01
     6   6    -0.05  -0.06  -0.04    -0.06  -0.04  -0.03     0.23  -0.26  -0.08
     7   6    -0.03   0.01  -0.01    -0.05  -0.09   0.05     0.30   0.11  -0.04
     8   6     0.06   0.01   0.22     0.04  -0.03  -0.15     0.02   0.10  -0.03
     9   8     0.01  -0.00  -0.06     0.13   0.06  -0.00     0.01   0.03   0.00
    10   6     0.01  -0.02  -0.01     0.00  -0.01  -0.00    -0.02   0.07   0.01
    11   6     0.00   0.03  -0.02    -0.02   0.02   0.06    -0.20   0.22   0.07
    12   6    -0.03  -0.04  -0.07    -0.06   0.06  -0.03    -0.29  -0.15   0.02
    13   6    -0.02  -0.01   0.01     0.05  -0.12   0.08     0.01  -0.02   0.01
    14   6    -0.04  -0.07   0.04    -0.03  -0.09   0.03     0.02   0.00  -0.04
    15   6    -0.00  -0.05   0.02    -0.01  -0.04  -0.01    -0.02  -0.00  -0.04
    16   1    -0.04   0.00  -0.21    -0.10  -0.07  -0.23     0.00  -0.06   0.13
    17   1    -0.01   0.14   0.02    -0.13  -0.00   0.05     0.04  -0.04  -0.03
    18   1    -0.02   0.13   0.04     0.01   0.06   0.12     0.02   0.10   0.04
    19   1    -0.15  -0.04  -0.38     0.06  -0.03   0.22     0.17  -0.29  -0.02
    20   1    -0.16   0.09  -0.38    -0.04  -0.07   0.37     0.24   0.18   0.06
    21   1     0.02  -0.03   0.00     0.02  -0.18  -0.00    -0.01   0.03   0.01
    22   1     0.03  -0.05  -0.00    -0.09   0.06   0.01    -0.03   0.07   0.01
    23   1    -0.00   0.01   0.01    -0.09   0.02   0.01    -0.03   0.07   0.01
    24   1    -0.03   0.06  -0.38    -0.08  -0.04   0.41    -0.07   0.25   0.13
    25   1    -0.04  -0.07  -0.37     0.01   0.03   0.19    -0.19  -0.23   0.04
    26   1    -0.03  -0.05   0.04     0.08   0.02  -0.04    -0.03  -0.07  -0.04
    27   1    -0.11   0.01  -0.09     0.15  -0.23   0.01    -0.03   0.02   0.02
    28   1    -0.00  -0.07   0.02    -0.04   0.06   0.13    -0.07   0.08   0.05
    29   1    -0.03  -0.08   0.07    -0.09  -0.11  -0.08    -0.02   0.04  -0.16
    30   1    -0.03  -0.06   0.04    -0.14  -0.05   0.02    -0.13   0.03  -0.06
    31   1     0.00  -0.11   0.13     0.04  -0.05   0.20     0.03   0.10   0.00
                     22                     23                     24
                      A                      A                      A
 Frequencies --    684.0234               708.6979               744.8622
 Red. masses --      3.1957                 3.6444                 3.9897
 Frc consts  --      0.8810                 1.0784                 1.3042
 IR Inten    --     10.8562                 0.5694                 1.5529
  Atom  AN      X      Y      Z        X      Y      Z        X      Y      Z
     1   8     0.04  -0.09  -0.02     0.01  -0.11  -0.00     0.01   0.06  -0.01
     2   6    -0.15  -0.08   0.08    -0.05  -0.10  -0.02    -0.03   0.05   0.05
     3   6     0.07   0.09  -0.04    -0.00   0.11   0.08     0.01  -0.07  -0.12
     4   6     0.13   0.03  -0.08     0.01   0.21   0.15     0.01  -0.11  -0.10
     5   6    -0.04   0.02   0.00     0.03  -0.01   0.11     0.05  -0.02   0.27
     6   6    -0.10  -0.01   0.04    -0.04   0.02  -0.09    -0.02   0.01  -0.12
     7   6    -0.12  -0.06   0.00    -0.02   0.00   0.08     0.03  -0.01   0.13
     8   6     0.04  -0.02   0.02    -0.04   0.02  -0.13    -0.04   0.01  -0.23
     9   8     0.14   0.06  -0.03    -0.06  -0.03   0.02     0.03   0.01   0.02
    10   6     0.04  -0.04  -0.01    -0.01  -0.00   0.00     0.01  -0.01   0.00
    11   6    -0.09   0.04   0.00     0.12  -0.07   0.05    -0.02   0.01   0.12
    12   6    -0.10   0.04   0.04     0.09  -0.03  -0.12    -0.06   0.00  -0.11
    13   6     0.09  -0.04   0.04     0.02   0.03   0.00    -0.01   0.02  -0.04
    14   6     0.06   0.03  -0.00     0.03  -0.00  -0.07    -0.01   0.02   0.04
    15   6    -0.02   0.00  -0.01    -0.06  -0.04  -0.10     0.05   0.02   0.12
    16   1     0.19   0.28   0.01     0.01  -0.06   0.28     0.02   0.03  -0.18
    17   1     0.10   0.17  -0.01     0.17   0.08  -0.05    -0.05  -0.04  -0.07
    18   1     0.12   0.03  -0.08     0.04   0.28   0.09    -0.19  -0.16  -0.05
    19   1    -0.10  -0.00   0.01    -0.06   0.01  -0.07    -0.07   0.03  -0.38
    20   1    -0.20   0.01  -0.03     0.03  -0.02   0.30     0.05  -0.01   0.24
    21   1     0.05  -0.21  -0.03    -0.02   0.09   0.02     0.01  -0.05  -0.00
    22   1    -0.06   0.00   0.02     0.04  -0.01  -0.02    -0.02   0.02   0.00
    23   1    -0.06   0.01   0.01     0.04  -0.04  -0.01    -0.01  -0.01  -0.00
    24   1    -0.21   0.00  -0.04     0.23  -0.06   0.29    -0.00  -0.00   0.30
    25   1    -0.12   0.06   0.02     0.11  -0.04  -0.10    -0.12   0.02  -0.34
    26   1    -0.01  -0.37   0.19    -0.07  -0.11  -0.07    -0.02  -0.11   0.10
    27   1    -0.20   0.20   0.09    -0.13   0.13  -0.04    -0.10   0.11   0.01
    28   1    -0.14   0.16   0.19    -0.09   0.12   0.08    -0.03  -0.13  -0.03
    29   1    -0.02   0.09  -0.28    -0.02   0.05  -0.25     0.01  -0.01   0.10
    30   1     0.03   0.03  -0.04    -0.28   0.05  -0.15     0.27  -0.04   0.15
    31   1    -0.03   0.10  -0.18     0.04   0.15   0.00    -0.04  -0.11  -0.06
                     25                     26                     27
                      A                      A                      A
 Frequencies --    760.1532               820.0377               831.4114
 Red. masses --      2.1507                 4.1824                 1.3302
 Frc consts  --      0.7322                 1.6571                 0.5418
 IR Inten    --      3.5813                 7.5599                10.8184
  Atom  AN      X      Y      Z        X      Y      Z        X      Y      Z
     1   8    -0.01  -0.06   0.02    -0.00   0.03  -0.00     0.00   0.01  -0.00
     2   6     0.10  -0.04   0.03    -0.01   0.02  -0.05    -0.01   0.01   0.01
     3   6     0.08  -0.01   0.14    -0.07  -0.03   0.04     0.01  -0.02  -0.02
     4   6     0.05  -0.05   0.01     0.06   0.00   0.06     0.01   0.01   0.02
     5   6     0.02  -0.00   0.03     0.12  -0.02  -0.01    -0.00   0.00   0.01
     6   6    -0.02   0.01  -0.01    -0.03   0.23   0.01     0.01  -0.01   0.03
     7   6    -0.02  -0.00   0.02    -0.01   0.16   0.01     0.01  -0.01   0.04
     8   6    -0.00  -0.00  -0.02    -0.05   0.00   0.02     0.01  -0.00   0.05
     9   8     0.03   0.02  -0.00     0.15   0.08  -0.03    -0.01  -0.00  -0.01
    10   6     0.01  -0.01  -0.00     0.06  -0.08  -0.02    -0.00   0.00  -0.00
    11   6    -0.03   0.00   0.02    -0.08  -0.18  -0.01    -0.02   0.01  -0.12
    12   6    -0.04  -0.00  -0.02    -0.14  -0.19   0.01    -0.01   0.00  -0.06
    13   6    -0.03   0.01  -0.03    -0.05   0.10  -0.02     0.01   0.02  -0.01
    14   6    -0.05   0.07  -0.09    -0.02  -0.04  -0.04     0.01  -0.00  -0.02
    15   6    -0.12   0.07  -0.10     0.05  -0.07  -0.01    -0.01   0.00   0.03
    16   1    -0.03   0.12  -0.23    -0.01  -0.06   0.18    -0.01  -0.02  -0.06
    17   1    -0.15   0.14   0.40    -0.05  -0.22  -0.10    -0.04  -0.02   0.01
    18   1     0.06   0.03  -0.06     0.13  -0.05   0.11    -0.03  -0.03   0.05
    19   1    -0.04   0.01  -0.04    -0.22   0.16   0.10    -0.03   0.01  -0.19
    20   1    -0.02   0.00   0.02     0.12   0.06   0.02    -0.06   0.02  -0.31
    21   1     0.02  -0.05  -0.00     0.09  -0.31  -0.03     0.00   0.01   0.04
    22   1    -0.01   0.00   0.00    -0.06  -0.02   0.01     0.01   0.01  -0.01
    23   1    -0.01  -0.00   0.00    -0.06  -0.02   0.00    -0.01  -0.01  -0.01
    24   1    -0.04  -0.00   0.06     0.03  -0.16   0.05     0.15  -0.04   0.75
    25   1    -0.05   0.01   0.00    -0.29  -0.07   0.11     0.09  -0.03   0.45
    26   1     0.04   0.12   0.04    -0.01   0.18  -0.02    -0.03  -0.05  -0.01
    27   1     0.07  -0.04   0.03    -0.01   0.03  -0.12    -0.05   0.08   0.02
    28   1     0.40   0.04  -0.37    -0.06  -0.18  -0.10    -0.02  -0.02  -0.02
    29   1     0.03  -0.16   0.34     0.05   0.07   0.02    -0.01  -0.03  -0.04
    30   1     0.12   0.02  -0.09    -0.25  -0.05   0.03     0.07  -0.04   0.05
    31   1    -0.23  -0.16  -0.19     0.17   0.10   0.22    -0.04  -0.03  -0.05
                     28                     29                     30
                      A                      A                      A
 Frequencies --    838.6663               857.0726               872.4794
 Red. masses --      1.6770                 2.2795                 1.9795
 Frc consts  --      0.6950                 0.9866                 0.8878
 IR Inten    --     20.7226                11.8565                 4.3456
  Atom  AN      X      Y      Z        X      Y      Z        X      Y      Z
     1   8     0.00   0.01  -0.00    -0.00   0.02  -0.01     0.00  -0.01   0.01
     2   6    -0.02   0.01   0.04    -0.02   0.02   0.02     0.02  -0.00   0.04
     3   6     0.03  -0.06  -0.06     0.02  -0.06  -0.01     0.03  -0.04  -0.06
     4   6     0.02   0.01   0.07     0.07  -0.00   0.10    -0.10   0.08   0.05
     5   6     0.00  -0.00   0.04    -0.02   0.01  -0.08    -0.02   0.01  -0.07
     6   6    -0.02  -0.01  -0.08     0.00  -0.05   0.05     0.01   0.05   0.04
     7   6    -0.02  -0.00  -0.10    -0.01  -0.05   0.07     0.04   0.07   0.03
     8   6     0.02  -0.00   0.09    -0.01   0.00  -0.09    -0.03   0.01  -0.04
     9   8    -0.01  -0.00  -0.02    -0.01  -0.01   0.02     0.02   0.01   0.01
    10   6    -0.00   0.00  -0.00    -0.01   0.01   0.00     0.01  -0.01  -0.00
    11   6     0.01   0.01  -0.01     0.01   0.04   0.06     0.03  -0.09   0.03
    12   6     0.01   0.00  -0.01     0.02   0.04   0.03    -0.01  -0.08   0.01
    13   6     0.02   0.08  -0.03     0.01   0.16   0.02     0.05  -0.06  -0.02
    14   6     0.02  -0.00  -0.07     0.02  -0.03  -0.14     0.04   0.01   0.02
    15   6    -0.03  -0.01   0.06    -0.03  -0.10   0.03    -0.07   0.09   0.06
    16   1    -0.03  -0.03  -0.20     0.00   0.05  -0.14    -0.13  -0.20  -0.23
    17   1    -0.11  -0.05   0.03    -0.17  -0.13   0.06    -0.01   0.10   0.06
    18   1    -0.05  -0.07   0.15     0.16  -0.17   0.26    -0.17   0.06   0.07
    19   1     0.10  -0.06   0.53    -0.04  -0.01  -0.31    -0.06   0.05  -0.11
    20   1     0.09  -0.04   0.59    -0.14   0.02  -0.43     0.04   0.05  -0.25
    21   1    -0.00   0.02   0.01    -0.01   0.04  -0.01     0.01  -0.04  -0.02
    22   1     0.01  -0.00  -0.00     0.00  -0.00   0.00    -0.01  -0.01   0.00
    23   1     0.00   0.00  -0.00     0.01   0.00   0.00    -0.00  -0.01   0.00
    24   1     0.01   0.01  -0.01    -0.10   0.06  -0.32     0.05  -0.05  -0.26
    25   1     0.03  -0.01   0.06     0.00   0.04  -0.12    -0.03  -0.07  -0.02
    26   1    -0.07  -0.11  -0.03    -0.04   0.06  -0.00    -0.10  -0.25  -0.19
    27   1    -0.10   0.21   0.08    -0.04   0.23   0.09    -0.07   0.09   0.10
    28   1    -0.04  -0.07  -0.08    -0.06  -0.13  -0.15    -0.04   0.17   0.15
    29   1    -0.03  -0.07  -0.11     0.03  -0.01  -0.15    -0.12  -0.16  -0.20
    30   1     0.13  -0.12   0.15    -0.15  -0.25   0.19     0.39   0.02   0.05
    31   1    -0.10  -0.08  -0.12     0.01   0.02   0.02    -0.25  -0.16  -0.30
                     31                     32                     33
                      A                      A                      A
 Frequencies --    909.3800               925.4762               961.8579
 Red. masses --      1.6946                 2.3763                 1.2928
 Frc consts  --      0.8257                 1.1992                 0.7047
 IR Inten    --      2.8467                 6.6330                 0.3418
  Atom  AN      X      Y      Z        X      Y      Z        X      Y      Z
     1   8     0.02  -0.00  -0.01     0.02   0.00   0.03     0.00  -0.00  -0.00
     2   6    -0.08  -0.00   0.07    -0.05  -0.01  -0.04    -0.01  -0.00   0.00
     3   6     0.14   0.01  -0.07     0.00  -0.11   0.04    -0.00   0.02  -0.01
     4   6    -0.05  -0.00   0.04     0.13   0.07   0.08    -0.00  -0.01   0.00
     5   6    -0.01   0.01   0.01     0.03   0.00  -0.02     0.00  -0.00   0.02
     6   6     0.00   0.00  -0.00    -0.01  -0.04   0.00    -0.02   0.01  -0.12
     7   6     0.01   0.02  -0.00    -0.04  -0.04   0.01     0.02  -0.01   0.09
     8   6    -0.00   0.00   0.00     0.00   0.00  -0.01    -0.00   0.00  -0.01
     9   8    -0.00   0.00  -0.00    -0.00  -0.00   0.00     0.00  -0.00   0.01
    10   6    -0.00  -0.00  -0.00    -0.00  -0.00   0.00    -0.00   0.00   0.00
    11   6     0.01  -0.03  -0.01    -0.00   0.04   0.02     0.00  -0.00   0.01
    12   6     0.00  -0.03  -0.00     0.00   0.02  -0.01    -0.00  -0.00  -0.02
    13   6    -0.12  -0.04   0.04    -0.07  -0.01  -0.14    -0.00  -0.01  -0.00
    14   6     0.02  -0.02  -0.02    -0.05  -0.06   0.10    -0.01   0.01  -0.01
    15   6     0.03   0.00  -0.03     0.09   0.14  -0.02     0.01   0.00   0.01
    16   1     0.09   0.20  -0.34    -0.02   0.02  -0.13     0.02   0.02   0.03
    17   1    -0.08   0.15   0.17    -0.30  -0.30   0.10     0.03   0.01  -0.04
    18   1    -0.11  -0.07   0.10     0.15   0.11   0.03    -0.04   0.01  -0.02
    19   1    -0.00   0.00   0.01    -0.02  -0.05   0.02     0.14  -0.05   0.74
    20   1     0.02   0.02   0.02    -0.10   0.00  -0.04    -0.10   0.04  -0.60
    21   1    -0.00  -0.00   0.00    -0.00   0.01  -0.00    -0.00   0.00  -0.00
    22   1     0.00  -0.00  -0.00     0.01  -0.01  -0.00    -0.00   0.00   0.00
    23   1     0.00  -0.00  -0.00     0.01  -0.00  -0.00     0.00   0.00   0.00
    24   1     0.05  -0.02   0.03    -0.04   0.04  -0.11    -0.02   0.01  -0.10
    25   1    -0.00  -0.03  -0.02     0.02   0.02   0.10     0.03  -0.01   0.13
    26   1     0.02   0.40  -0.16    -0.07  -0.01  -0.15     0.01   0.00   0.03
    27   1     0.26  -0.37  -0.04    -0.17  -0.07  -0.44     0.02  -0.02   0.02
    28   1    -0.11   0.02   0.08    -0.21  -0.17   0.13     0.03  -0.02  -0.04
    29   1     0.12   0.28  -0.07    -0.07   0.00  -0.01     0.01  -0.00   0.05
    30   1    -0.12  -0.07   0.08     0.20   0.32  -0.22     0.00   0.00   0.00
    31   1     0.11   0.33  -0.20     0.05   0.14  -0.16     0.01  -0.01   0.03
                     34                     35                     36
                      A                      A                      A
 Frequencies --    963.8249              1003.5298              1030.5312
 Red. masses --      1.3156                 2.5438                 2.6100
 Frc consts  --      0.7201                 1.5094                 1.6331
 IR Inten    --      1.6897                 2.1824                 4.2709
[...]
 02298,-0.12817172,-0.05200564,-0.16812597,-0.00007396,-0.00015210,0.00
 012902,0.00001878,0.00009248,0.00034420,-0.00018099,0.00009557,-0.0002
 4869,0.00005688,-0.00009661,0.00012150,0.00036837,0.00022530,-0.000874
 93,-0.00009160,-0.00004453,-0.00003797,0.00063654,0.00015010,0.0005799
 1,-0.00011746,0.00017609,-0.00002206,0.00007058,0.00000234,-0.00002060
 ,0.00006068,0.00005054,-0.00001285,0.00007713,-0.00002818,0.00002182,-
 0.00010938,0.00105173,0.00091894,0.13625980,0.05929390,0.18110622,0.00
 026959,-0.00000733,0.00003639,-0.00061919,-0.00004632,-0.00004339,0.00
 038761,-0.00052986,0.00089789,-0.00821860,0.00120676,0.01661593,-0.001
 01219,0.00274783,-0.00115871,-0.00018729,-0.00023552,-0.00007056,-0.00
 009475,-0.00014621,0.00031276,0.00009103,-0.00001722,-0.00030295,-0.00
 013178,0.00009334,0.00040814,0.00015758,0.00002172,-0.00007019,0.00005
 117,-0.00018181,0.00012555,0.00012851,0.00003164,0.00045388,-0.0975087
 0,0.00084477,0.09452564,-0.00914945,-0.00069059,0.01783730,0.00067383,
 0.00076708,0.00122030,-0.00028268,0.00031741,-0.00061426,0.00028560,0.
 00003252,-0.00021399,0.00094997,-0.00035472,-0.00045772,0.00012340,0.0
 0027797,-0.00003743,0.00000498,-0.00001003,0.00004225,-0.00000677,0.00
 000366,0.00001605,-0.00002234,-0.00001492,-0.00000933,-0.00002870,0.00
 000139,-0.00000349,-0.00002126,-0.00000190,0.00004762,-0.00002144,0.00
 013105,0.00000536,0.10308457,-0.00017555,0.00018875,0.00008298,0.00026
 681,-0.00043285,-0.00006116,-0.00078032,0.00091928,-0.00036487,0.01238
 706,-0.00303158,-0.02685067,0.00382006,-0.00388385,0.00123993,0.000337
 98,0.00005099,-0.00015842,-0.00002580,0.00015622,0.00001335,0.00021883
 ,0.00009409,0.00050846,0.00020892,-0.00012235,-0.00066260,-0.00027101,
 -0.00005539,0.00010745,0.00003819,0.00036859,-0.00054866,-0.00036414,-
 0.00037044,-0.00080891,0.00092379,-0.04772542,-0.00184155,-0.01353771,
 -0.00107138,0.02731632,0.00100875,0.00116994,0.00056545,0.00017340,-0.
 00000588,0.00053206,-0.00035134,-0.00005432,0.00005742,-0.00065940,0.0
 0111949,-0.00039760,-0.00008710,-0.00005914,0.00005063,-0.00001281,-0.
 00002153,-0.00005321,0.00001220,-0.00000611,-0.00002899,0.00004100,0.0
 0002797,0.00002026,0.00004132,0.00000497,0.00000933,0.00004640,0.00002
 451,-0.00012162,0.00008815,-0.00025634,0.00007120,-0.00047362,0.057001
 28,-0.00003738,-0.00001504,-0.00005250,0.00015567,0.00015975,0.0000941
 6,-0.00024633,0.00037327,0.00027979,0.00001248,0.00039856,-0.00292886,
 0.00066446,-0.00090763,0.00053316,0.00038846,-0.00015053,0.00003706,0.
 00000082,-0.00001215,0.00019488,0.00025422,0.00015602,0.00047787,0.000
 17099,-0.00008728,-0.00050302,-0.00022508,-0.00000973,0.00009352,-0.00
 008549,-0.00006750,-0.00046957,-0.00052909,-0.00034525,0.00042116,0.09
 502316,-0.00236017,-0.25325725,0.00125818,0.00051657,-0.00396568,-0.00
 049507,-0.00039208,0.00083362,0.00023586,-0.00006745,0.00052435,0.0000
 4409,-0.00009383,0.00023104,-0.00022652,-0.00060455,0.00037730,0.00004
 405,0.00021399,-0.00000469,-0.00001240,-0.00000801,-0.00002418,0.00000
 999,-0.00000586,-0.00002894,0.00002817,0.00001397,0.00001444,0.0000346
 7,-0.00000054,0.00001596,0.00000813,0.00004270,-0.00003532,0.00002499,
 -0.00001401,0.00002108,-0.10669952,0.00197513,0.27496182,-0.00057476,0
 .00006136,0.00010440,0.00131168,-0.00010642,0.00022655,-0.00096019,0.0
 0339791,0.00137113,-0.01392413,0.00082100,-0.01119027,0.00065128,-0.00
 059059,-0.00145986,-0.00000591,-0.00053806,-0.00006048,-0.00002456,-0.
 00009742,0.00065692,0.00040997,0.00020525,0.00025960,0.00011763,-0.000
 02143,-0.00019788,-0.00013387,0.00000004,0.00003748,0.00001868,-0.0000
 8265,-0.00054352,-0.00058095,-0.00006121,0.00054450,-0.18701054,-0.000
 75140,-0.12893731,-0.01365752,-0.00011466,-0.01279680,-0.00112175,-0.0
 0346239,0.00169589,0.00017061,-0.00001002,-0.00018075,-0.00072289,-0.0
 0010602,-0.00088020,0.00069323,0.00005327,0.00024858,0.00040686,0.0004
 3523,-0.00006646,-0.00001800,-0.00000289,0.00001357,0.00000774,-0.0000
 0304,-0.00001642,0.00001076,0.00000801,0.00001000,0.00001723,-0.000002
 90,0.00001410,0.00000590,0.00001435,-0.00000837,0.00011053,-0.00003068
 ,-0.00005967,0.01176072,-0.00010145,0.00971463,0.20246505,0.00004485,0
 .00097755,-0.00000529,-0.00005595,-0.00227516,-0.00000086,0.00313096,-
 0.00482075,-0.00177061,0.02100462,-0.00048800,0.01916626,-0.00067816,0
 .00081523,0.00101583,0.00071697,0.00020286,0.00003069,-0.00013730,-0.0
 0004693,-0.00040476,-0.00031930,-0.00008518,-0.00012775,-0.00007722,0.
 00000775,0.00015399,0.00007604,0.00000752,-0.00001861,0.00004222,0.000
 03458,0.00040792,0.00028991,0.00011569,-0.00039781,-0.00067258,-0.0473
 8697,-0.00004498,-0.02069635,-0.00016028,-0.02073128,-0.00319767,-0.00
 465107,0.00208353,-0.00040966,0.00001572,-0.00023074,0.00154589,0.0002
 4272,0.00120753,-0.00082356,0.00097341,0.00022505,-0.00022118,-0.00067
 769,-0.00026654,0.00002821,-0.00000308,-0.00001562,-0.00000674,0.00000
 278,0.00001043,-0.00001007,-0.00000588,-0.00000919,-0.00000932,-0.0000
 0122,-0.00000676,-0.00000184,-0.00001425,-0.00000126,-0.00007488,-0.00
 002758,0.00004325,-0.00023496,-0.00039290,-0.00019712,0.00044854,0.055
 54334,-0.00008798,-0.00004752,-0.00007098,0.00026217,0.00013301,-0.000
 03214,0.00079259,-0.00011531,0.00069520,0.00309216,-0.00022523,0.00142
 922,0.00117797,-0.00006208,0.00028901,-0.00005266,-0.00051350,-0.00015
 240,0.00005514,-0.00000265,0.00005874,0.00007914,0.00002563,-0.0000899
 5,-0.00003192,0.00002863,0.00012446,0.00003716,0.00000426,-0.00002244,
 0.00004418,-0.00003760,-0.00009816,-0.00021523,-0.00007372,0.00025116,
 -0.13095478,0.00038368,-0.17292604,0.00441763,0.00009080,0.00322124,0.
 00068105,0.00024184,0.00071949,0.00016630,-0.00013134,0.00038432,-0.00
 006591,-0.00009854,0.00031246,-0.00015750,0.00047591,-0.00000725,0.000
 24503,-0.00024876,-0.00009746,0.00000300,-0.00003211,0.00003788,-0.000
 00133,0.00000106,0.00000647,-0.00000653,-0.00000186,-0.00000237,-0.000
 00736,-0.00000133,-0.00000040,-0.00001022,0.00001393,0.00000487,0.0000
 2681,-0.00000228,-0.00000525,-0.02160999,0.00010724,-0.02025666,0.1422
 1376,0.00088908,0.18482849,-0.00196125,0.00197052,0.00095986,-0.001052
 09,-0.00504954,-0.00409539,0.00005515,0.00013585,0.00053254,-0.0025516
 8,-0.00282987,0.00050396,-0.00002337,0.00014662,0.00049726,-0.00005718
 ,0.00001318,-0.00019533,-0.00005147,0.00001496,0.00012264,0.00013884,0
 .00001438,-0.00002802,-0.00000650,0.00000113,0.00003447,0.00000686,0.0
 0000179,-0.00001239,0.00005366,0.00001259,-0.00015727,-0.00010002,0.00
 010053,-0.00003157,0.01246853,-0.01777181,-0.00243973,-0.13250933,0.12
 197415,0.01664763,-0.01504333,0.02111605,-0.00019868,-0.00004232,-0.00
 006179,0.00001337,0.00011343,0.00010642,0.00010654,0.00064415,-0.00112
 161,0.00009688,0.00002713,-0.00000626,0.00002111,0.00000184,0.00000272
 ,-0.00000022,0.00000018,0.00000206,0.00000533,-0.00000476,0.00000224,-
 0.00000122,-0.00000165,-0.00000529,0.00000166,-0.00000148,-0.00000217,
 -0.00001877,0.00004478,-0.00008607,-0.00005152,0.00073389,0.00079532,-
 0.00009591,0.00086543,0.00077583,-0.00019182,0.14423409,-0.00001143,0.
 00016009,0.00021889,-0.00066401,0.00055102,-0.00044751,-0.00040362,0.0
 0081199,-0.00025555,-0.00521699,-0.00315191,0.00105961,-0.00027516,0.0
 0035904,0.00083579,0.00003213,0.00005603,-0.00017137,0.00000227,0.0000
 1874,0.00000543,0.00005353,0.00005550,0.00026415,0.00011158,-0.0000457
 2,-0.00033341,-0.00013630,-0.00002333,0.00006000,-0.00002326,-0.000034
 16,-0.00014868,-0.00007989,0.00004533,-0.00003800,0.01602074,-0.022336
 89,-0.00346792,0.12099925,-0.22199640,-0.02104006,-0.00121009,0.002629
 46,0.00007932,-0.00000573,-0.00003222,0.00001621,0.00011443,0.00006112
 ,0.00002593,0.00096584,-0.00169221,-0.00019979,0.00002467,-0.00001418,
 0.00005290,-0.00000610,-0.00001603,-0.00003084,0.00000671,-0.00000385,
 -0.00001896,0.00002287,0.00001180,0.00000783,0.00001923,0.00000550,0.0
 0000719,0.00002092,-0.00000488,-0.00002549,-0.00001471,-0.00000642,0.0
 0001476,0.00019059,0.00099419,0.00054233,-0.00003914,0.00087373,-0.000
 56002,-0.13023608,0.24115958,-0.00233499,0.00184482,0.00099866,-0.0017
 6811,-0.00364558,-0.00373079,0.00028062,-0.00013898,0.00036870,0.00049
 505,0.00064150,0.00013093,-0.00001745,-0.00013353,0.00006488,0.0001607
 4,0.00000974,0.00029411,0.00007547,-0.00000726,-0.00012255,-0.00013298
 ,0.00002103,0.00013868,0.00006369,-0.00002262,-0.00014902,-0.00006473,
 -0.00000143,0.00002796,0.00000971,-0.00003662,0.00013036,-0.00018228,-
 0.00013487,-0.00003607,-0.00211434,0.00426865,-0.00049580,0.01690197,-
 0.02204709,-0.05229805,-0.01544701,0.02162650,-0.00049943,-0.00003344,
 -0.00000094,0.00000832,0.00002528,0.00009272,0.00005372,0.00007431,0.0
 0019092,0.00023918,-0.00003052,0.00000508,0.00000192,-0.00000378,-0.00
 000084,-0.00000948,0.00000361,-0.00000311,-0.00000936,0.00001061,0.000
 00280,0.00000285,0.00001077,0.00000094,0.00000208,0.00000521,0.0000062
 1,-0.00000974,-0.00006469,0.00004475,-0.00010036,-0.00053694,-0.000022
 91,0.00022916,0.00013878,-0.00041946,0.00008862,-0.01444983,0.02347527
 ,0.05496232,-0.00028524,-0.00016563,0.00031821,0.00184355,-0.00097046,
 -0.00066625,-0.00001298,0.00004947,-0.00021441,0.00028856,0.00082370,-
 0.00023404,0.00048751,0.00012851,0.00002054,-0.00017097,0.00011213,-0.
 00014525,0.00001194,-0.00000824,-0.00011501,-0.00003716,-0.00005632,-0
 .00001185,-0.00001384,0.00001439,-0.00002283,0.00001377,-0.00001021,-0
 .00000248,0.00001196,0.00003825,0.00012175,0.00005113,0.00009319,-0.00
 012684,-0.00922187,-0.00107902,0.01870556,-0.09126389,0.00047528,0.094
 84175,0.00919905,0.00067068,-0.02507465,-0.00009506,-0.00002191,-0.000
 00209,0.00010182,0.00004388,0.00005515,-0.00004451,0.00009969,-0.00006
 624,0.00000338,-0.00001111,0.00001955,-0.00000323,-0.00001575,-0.00000
 363,-0.00000059,-0.00000155,-0.00000062,0.00000533,0.00000027,0.000002
 02,-0.00000329,0.00000632,-0.00000365,0.00000278,0.00000068,-0.0000028
 9,-0.00003264,0.00012115,-0.00001989,-0.00149341,-0.00392015,0.0000594
 8,0.00025794,0.00061584,-0.00005683,-0.00777108,-0.00060682,0.01742948
 ,0.10056274,-0.00010119,0.00002103,-0.00016558,-0.00025965,-0.00004646
 ,0.00085848,0.00017270,-0.00024037,-0.00017875,0.00021723,0.00112217,0
 .00061417,0.00004522,-0.00036242,0.00010438,-0.00037456,-0.00012657,-0
 .00043926,-0.00012571,-0.00002957,0.00017825,0.00019342,-0.00009399,-0
 .00035424,-0.00016650,0.00007019,0.00044412,0.00019447,0.00003197,-0.0
 0008404,0.00014079,-0.00004030,-0.00016513,0.00046670,-0.00007829,-0.0
 0041416,-0.01233438,-0.00076983,0.02706315,0.00109592,-0.05196526,0.00
 302448,0.00002380,-0.00019857,-0.00076876,-0.00007381,0.00013787,-0.00
 012407,0.00006811,-0.00001830,0.00004928,0.00000431,0.00037073,-0.0002
 3939,0.00007409,0.00002450,0.00001488,0.00000889,0.00000966,0.00002072
 ,-0.00001012,0.00000368,0.00002456,-0.00003252,-0.00001705,-0.00000733
 ,-0.00002931,-0.00000642,-0.00000757,-0.00002897,0.00001785,0.00001159
 ,0.00007317,-0.00009326,0.00003866,-0.00346211,-0.00461593,0.00079455,
 0.00055323,0.00106534,-0.00053873,0.01070977,0.00100797,-0.02561684,0.
 00320891,0.05377363,-0.00115566,0.00033359,0.00028924,0.00188602,-0.00
 144298,-0.00041297,-0.00010183,0.00037653,-0.00020233,0.00025972,-0.00
 032892,-0.00042584,-0.00017608,-0.00049578,-0.00010511,0.00018584,-0.0
 0002285,0.00044716,0.00013862,-0.00000091,-0.00024059,-0.00027016,-0.0
 0001574,0.00007876,0.00005744,-0.00002113,-0.00013393,-0.00005318,0.00
 001390,0.00002786,0.00001645,-0.00012877,0.00029501,0.00005480,-0.0004
 2451,-0.00018963,0.00178653,0.00144363,-0.00233058,0.09412534,0.003750
 38,-0.26517786,0.00640164,0.00078080,-0.02051547,-0.00001459,-0.000031
 76,0.00013483,-0.00000953,0.00010164,-0.00002119,-0.00005448,0.0001015
 9,0.00006107,-0.00004848,-0.00001094,-0.00001181,-0.00000229,0.0000061
 6,-0.00000433,0.00000199,-0.00000270,-0.00000982,0.00000757,-0.0000034
 3,-0.00000005,0.00001258,-0.00000192,0.00000269,-0.00000027,0.00002331
 ,0.00000309,-0.00014852,0.00015079,-0.00011837,0.00034661,0.00010924,0
 .00134038,0.00019857,0.00037328,0.00059245,0.00141806,-0.00077311,-0.0
 0227430,-0.10113290,-0.00369826,0.29001987,0.00178351,-0.00124125,0.00
 015728,0.01157713,0.01573855,-0.00339961,-0.00210606,0.00277149,0.0004
 8637,-0.00031488,0.00021683,-0.00007615,0.00008037,-0.00007042,0.00014
 670,-0.00004414,-0.00004330,-0.00000782,0.00004705,0.00000897,0.000024
 60,-0.00000004,0.00003049,0.00011298,0.00006550,-0.00001789,-0.0001420
 6,-0.00007014,-0.00001227,0.00002700,0.00001101,-0.00000432,-0.0000647
 0,-0.00007761,-0.00000962,-0.00002011,-0.00272137,0.00172976,-0.004418
 08,-0.01286458,-0.01759732,0.00508904,-0.15274663,-0.13064900,0.025399
 92,-0.00011228,-0.00011411,-0.00002136,0.00060474,0.00090650,0.0000807
 1,0.00009226,-0.00010388,0.00003787,0.00004733,0.00004291,0.00001299,-
 0.00000438,-0.00000179,-0.00000363,0.00000362,-0.00000128,-0.00000812,
 0.00001048,0.00000663,0.00000310,0.00001060,0.00000123,0.00000342,0.00
 001137,-0.00000246,-0.00001146,0.00003274,-0.00001560,-0.00002192,0.00
 033165,0.00039326,-0.00001709,-0.00072551,-0.00151807,-0.00001010,0.00
 017320,0.00034081,0.00060269,0.00120376,0.00024520,0.00003410,0.163415
 68,0.00002669,0.00600011,-0.00090507,-0.02207452,-0.02673360,0.0053019
 1,0.00497842,-0.00312727,-0.00092231,0.00046619,0.00019377,0.00042705,
 -0.00013170,0.00005716,0.00010531,0.00006424,0.00000717,-0.00005564,0.
 00001141,-0.00000559,-0.00002830,-0.00002217,0.00000144,0.00008757,0.0
 0005706,-0.00001169,-0.00012469,-0.00006302,-0.00002073,0.00002460,-0.
 00000788,0.00002371,-0.00003697,-0.00003611,0.00005502,-0.00004169,0.0
 0058883,0.00105262,0.00009833,0.00135404,0.00205313,-0.00119090,-0.126
 07538,-0.20767710,0.03195876,0.00008986,0.00043838,0.00015973,-0.00091
 323,-0.00146561,-0.00002523,-0.00011086,0.00004040,-0.00011421,0.00000
 511,-0.00000054,0.00001565,0.00000069,-0.00000317,-0.00001358,0.000003
 45,0.00000052,-0.00000601,0.00000982,0.00000970,0.00000022,0.00000741,
 0.00000150,0.00000255,0.00001502,-0.00001493,-0.00001944,-0.00003252,-
 0.00007513,0.00006689,-0.00000787,-0.00006602,0.00005940,0.00013766,0.
 00015284,0.00015245,-0.00023835,0.00035023,-0.00041180,-0.00010360,0.0
 0012127,-0.00037574,0.13879569,0.22473445,-0.00085987,0.00028607,-0.00
 114737,0.00071752,-0.00300758,-0.00059985,0.00014304,0.00028464,0.0012
 0117,-0.00019784,0.00046859,-0.00010126,0.00004409,0.00000683,0.000136
 08,-0.00004671,-0.00003522,-0.00001746,0.00002859,0.00000884,0.0000237
 9,0.00000468,0.00000302,0.00002192,0.00002971,0.00000105,-0.00004098,-
 0.00002736,-0.00001506,0.00000518,0.00002660,0.00001296,-0.00004524,-0
 .00007528,0.00001450,-0.00003496,-0.00304118,0.00124084,-0.00355913,-0
 .01376254,-0.01952181,0.00418749,0.02483348,0.03226032,-0.05655713,-0.
 00032520,-0.00041620,0.00024208,0.00007770,0.00006597,0.00036554,0.000
 13203,-0.00004840,0.00004161,0.00004334,0.00002566,0.00000764,-0.00000
 059,0.00000160,-0.00000031,0.00000250,0.00000143,-0.00000034,0.0000045
 3,0.00000624,-0.00000087,0.00000315,0.00000041,0.00000078,0.00000962,-
 0.00001188,-0.00001262,0.00002548,-0.00004808,0.00001274,-0.00026747,-
 0.00009809,0.00026878,-0.00091459,-0.00118046,0.00030145,0.00059774,0.
 00038267,0.00065300,0.00089762,-0.00032822,0.00083176,-0.02566438,-0.0
 3411941,0.05766485,-0.00110441,0.00367009,-0.00340073,-0.01097804,0.00
 002647,0.01809831,0.00025399,-0.00013432,-0.00111983,-0.00012036,-0.00
 029581,-0.00005902,-0.00005940,0.00004727,0.00000476,0.00003140,-0.000
 02008,-0.00001354,-0.00001976,0.00000196,0.00003191,0.00001007,-0.0000
 0221,-0.00003497,-0.00001028,0.00000679,0.00005155,0.00001524,0.000000
 84,-0.00001035,0.00002197,0.00000664,0.00002902,-0.00007517,0.00001300
 ,0.00001675,0.00168303,0.00058336,-0.00032144,0.00886442,-0.00328775,-
 0.02600397,-0.08611779,0.00809149,0.09988394,0.00051501,0.00039248,-0.
 00030615,-0.00008162,-0.00006259,-0.00032772,-0.00001091,-0.00001457,-
 0.00000170,-0.00000416,-0.00000532,-0.00000578,0.00000283,0.00000242,0
 .00000189,-0.00000017,0.00000113,0.00000391,-0.00000403,0.00000041,-0.
 00000191,-0.00000298,-0.00000219,-0.00000055,-0.00000174,-0.00000414,-
 0.00000492,0.00002690,-0.00005112,-0.00000651,-0.00023556,-0.00004104,
 0.00053741,0.00017935,0.00042492,0.00016606,0.00161634,0.00000375,0.00
 089310,-0.00359547,-0.00049709,-0.00376392,-0.00771439,0.00320562,0.01
 756159,0.09691569,0.00245925,-0.00256637,0.00351874,0.01159592,0.00092
 870,-0.02913556,-0.00120728,-0.00040904,0.00356504,0.00041557,0.000285
 02,0.00003888,-0.00004395,0.00009862,-0.00003565,-0.00001693,0.0000169
 1,0.00001198,-0.00000854,-0.00000217,-0.00001182,-0.00000691,-0.000012
 39,-0.00004033,-0.00002234,0.00000875,0.00003625,0.00001985,-0.0000027
 1,-0.00000693,-0.00003136,-0.00000527,0.00001450,0.00009992,-0.0000106
 0,0.00000822,0.00048506,-0.00001122,-0.00112795,-0.00070122,0.00044272
 ,0.00125200,0.00944014,-0.05393738,-0.02726662,-0.00035379,-0.00162122
 ,-0.00000342,0.00007959,0.00036717,0.00043236,0.00003570,-0.00001548,0
 .00001588,-0.00001310,-0.00001227,-0.00000932,0.00000078,-0.00000212,0
 .00000282,-0.00000085,0.00000081,0.00000215,-0.00000132,-0.00000115,-0
 .00000120,-0.00000332,0.00000195,-0.00000151,0.00000048,-0.00000375,0.
 00000844,-0.00005012,0.00007251,0.00004216,-0.00025273,0.00005117,0.00
 009249,-0.00001350,0.00000587,0.00014506,-0.00048728,0.00020687,0.0004
 1296,0.00046843,0.00092472,0.00021461,-0.00982573,0.00390798,0.0237587
 7,-0.01206040,0.05129336,-0.00068543,-0.00065975,-0.00070882,0.0010480
 0,-0.00009251,0.00041229,0.00062730,0.00015030,-0.00064691,-0.00040026
 ,-0.00001292,-0.00007033,0.00005086,0.00005764,-0.00002285,0.00003222,
 -0.00000773,0.00008805,0.00002413,-0.00000413,-0.00001067,-0.00002940,
 0.00002493,0.00005539,0.00002003,-0.00001890,-0.00005091,-0.00002355,0
 .00001353,0.00001357,-0.00002264,-0.00002883,0.00004663,0.00000448,-0.
 00006458,0.00003706,0.00148640,0.00060270,0.00071236,0.00788708,-0.002
 16511,-0.02466839,0.09560011,-0.02147296,-0.24845297,-0.00025431,0.000
 03821,0.00050815,-0.00002305,-0.00018183,0.00021196,0.00001646,-0.0000
 6197,-0.00000419,-0.00000940,-0.00000262,-0.00000761,-0.00000304,0.000
 00596,0.00000003,0.00000005,-0.00000199,-0.00000540,0.00000054,-0.0000
 0302,0.00000216,0.00000538,-0.00000201,0.00000242,-0.00000321,0.000008
 85,0.00000558,-0.00002761,0.00005461,-0.00001460,-0.00079573,-0.000747
 19,0.00057715,-0.00013588,0.00022225,0.00041596,0.00040860,0.00046245,
 0.00133949,-0.00456876,-0.00011094,-0.00194998,0.00166784,-0.00006942,
 -0.00384837,-0.10189720,0.02406699,0.27603377\\0.00002268,0.00000630,-
 0.00000745,-0.00007103,0.00000495,-0.00003438,-0.00000746,0.00002661,-
 0.00000139,0.00003400,-0.00006029,0.00000465,0.00000386,0.00000183,0.0
 0001985,-0.00001226,-0.00000075,-0.00001322,-0.00000433,0.00001044,0.0
 0001931,0.00000726,-0.00000955,0.00001567,0.00001787,-0.00000366,-0.00
 000974,0.00000775,0.00000115,-0.00001020,0.00001340,0.00000255,-0.0000
 0014,0.00000930,0.00000497,-0.00000946,-0.00006875,-0.00000540,-0.0000
 1315,-0.00000932,0.00003930,-0.00000307,0.00004414,-0.00001745,0.00000
 220,0.00000033,0.00000322,0.00000641,-0.00000308,0.00000163,-0.0000013
 9,0.00000645,0.00001030,0.00001048,0.00001558,0.00000330,0.00000889,0.
 00000906,0.00000093,0.00000560,-0.00000950,-0.00000172,0.00000076,-0.0
 0000972,-0.00000093,0.00000577,0.00000198,0.00000445,-0.00000864,-0.00
 000824,-0.00000472,-0.00000657,-0.00001412,-0.00000165,-0.00000903,0.0
 0000193,-0.00000048,-0.00000487,0.00000624,-0.00000149,-0.00000145,0.0
 0000911,-0.00000387,0.00001072,-0.00000173,-0.00000058,0.00000882,-0.0
 0000134,0.00000077,0.00000189,0.00000992,-0.00001016,0.00001314\\\@


 HE THAT FOLLOWS NATURE IS NEVER LOST.

                             -- BACON
 Job cpu time:       0 days  0 hours  3 minutes 38.5 seconds.
 Elapsed time:       0 days  0 hours  3 minutes 44.5 seconds.
 File lengths (MBytes):  RWF=    241 Int=      0 D2E=      0 Chk=     16 Scr=      1
 Normal termination of Gaussian 16 at Sat Feb 24 01:19:35 2024.
