 Entering Gaussian System, Link 0=g16
 Input=/Volumes/SSD-PMU3/b3lyp_6-31gd_freq/UFMMPFIGNHFIED-HXJSNMKCSA-N_calculating/gaussianinput1.gjf
 Output=/Volumes/SSD-PMU3/b3lyp_6-31gd_freq/UFMMPFIGNHFIED-HXJSNMKCSA-N_calculating/gaussianinput1.log
 Initial command:
 /Applications/g16/l1.exe "/Users/macmini_m1_2022/PycharmProjects/sphere_model/sphere_model_lib/Gau-71617.inp" -scrdir="/Users/macmini_m1_2022/PycharmProjects/sphere_model/sphere_model_lib/"
 Entering Link 1 = /Applications/g16/l1.exe PID=     71618.
  
 Copyright (c) 1988,1990,1992,1993,1995,1998,2003,2009,2016,
            Gaussian, Inc.  All Rights Reserved.
  
 This is part of the Gaussian(R) 16 program.  It is based on
 the Gaussian(R) 09 system (copyright 2009, Gaussian, Inc.),
 the Gaussian(R) 03 system (copyright 2003, Gaussian, Inc.),
 the Gaussian(R) 98 system (copyright 1998, Gaussian, Inc.),
 the Gaussian(R) 94 system (copyright 1995, Gaussian, Inc.),
 the Gaussian 92(TM) system (copyright 1992, Gaussian, Inc.),
 the Gaussian 90(TM) system (copyright 1990, Gaussian, Inc.),
 the Gaussian 88(TM) system (copyright 1988, Gaussian, Inc.),
 the Gaussian 86(TM) system (copyright 1986, Carnegie Mellon
 University), and the Gaussian 82(TM) system (copyright 1983,
 Carnegie Mellon University). Gaussian is a federally registered
 trademark of Gaussian, Inc.
  
 This software contains proprietary and confidential information,
 including trade secrets, belonging to Gaussian, Inc.
  
 This software is provided under written license and may be
 used, copied, transmitted, or stored only in accord with that
 written license.
  
 The following legend is applicable only to US Government
 contracts under FAR:
  
                    RESTRICTED RIGHTS LEGEND
  
 Use, reproduction and disclosure by the US Government is
 subject to restrictions as set forth in subparagraphs (a)
 and (c) of the Commercial Computer Software - Restricted
 Rights clause in FAR 52.227-19.
  
 Gaussian, Inc.
 340 Quinnipiac St., Bldg. 40, Wallingford CT 06492
  
  
 ---------------------------------------------------------------
 Warning -- This program may not be used in any manner that
 competes with the business of Gaussian, Inc. or will provide
 assistance to any competitor of Gaussian, Inc.  The licensee
 of this program is prohibited from giving any competitor of
 Gaussian, Inc. access to this program.  By using this program,
 the user acknowledges that Gaussian, Inc. is engaged in the
 business of creating and licensing software in the field of
 computational chemistry and represents and warrants to the
 licensee that it is not a competitor of Gaussian, Inc. and that
 it will not use this program in any manner prohibited above.
 ---------------------------------------------------------------
  

 Cite this work as:
 Gaussian 16, Revision A.03,
 M. J. Frisch, G. W. Trucks, H. B. Schlegel, G. E. Scuseria, 
 M. A. Robb, J. R. Cheeseman, G. Scalmani, V. Barone, 
 G. A. Petersson, H. Nakatsuji, X. Li, M. Caricato, A. V. Marenich, 
 J. Bloino, B. G. Janesko, R. Gomperts, B. Mennucci, H. P. Hratchian, 
 J. V. Ortiz, A. F. Izmaylov, J. L. Sonnenberg, D. Williams-Young, 
 F. Ding, F. Lipparini, F. Egidi, J. Goings, B. Peng, A. Petrone, 
 T. Henderson, D. Ranasinghe, V. G. Zakrzewski, J. Gao, N. Rega, 
 G. Zheng, W. Liang, M. Hada, M. Ehara, K. Toyota, R. Fukuda, 
 J. Hasegawa, M. Ishida, T. Nakajima, Y. Honda, O. Kitao, H. Nakai, 
 T. Vreven, K. Throssell, J. A. Montgomery, Jr., J. E. Peralta, 
 F. Ogliaro, M. J. Bearpark, J. J. Heyd, E. N. Brothers, K. N. Kudin, 
 V. N. Staroverov, T. A. Keith, R. Kobayashi, J. Normand, 
 K. Raghavachari, A. P. Rendell, J. C. Burant, S. S. Iyengar, 
 J. Tomasi, M. Cossi, J. M. Millam, M. Klene, C. Adamo, R. Cammi, 
 J. W. Ochterski, R. L. Martin, K. Morokuma, O. Farkas, 
 J. B. Foresman, and D. J. Fox, Gaussian, Inc., Wallingford CT, 2016.
 
 ******************************************
 Gaussian 16:  EM64M-G16RevA.03 25-Dec-2016
                23-Feb-2024 
 ******************************************
 %nprocshared=10
 Will use up to   10 processors via shared memory.
 %mem=12GB
 %chk= 1.chk
 ---------------------
 # freq b3lyp/6-31g(d)
 ---------------------
 1/10=4,30=1,38=1/1,3;
 2/12=2,17=6,18=5,40=1/2;
 3/5=1,6=6,7=1,11=2,25=1,30=1,71=2,74=-5,140=1/1,2,3;
 4//1;
 5/5=2,38=5,98=1/2;
 8/6=4,10=90,11=11/1;
 11/6=1,8=1,9=11,15=111,16=1/1,2,10;
 10/6=1/2;
 6/7=2,8=2,9=2,10=2,28=1/1;
 7/8=1,10=1,25=1/1,2,3,16;
 1/10=4,30=1/3;
 99//99;
 ---------
 good luck
 ---------
 Symbolic Z-matrix:
 Charge =  0 Multiplicity = 1
 C                    -6.16469  -5.89509  -2.00615 
 C                    -5.56094  -4.64406  -2.67241 
 C                    -4.62369  -3.9052   -1.68714 
 C                    -3.46948  -4.82462  -1.16355 
 C                    -2.25176  -3.90714  -0.86455 
 C                    -2.82469  -2.48904  -1.0046 
 C                    -1.8644   -1.30063  -1.14516 
 C                    -0.81696  -1.28132  -0.00737 
 C                     0.        0.        0. 
 C                    -0.82964   1.27647  -0.00737 
 C                     0.01172   2.54751   0.15952 
 C                    -0.88839   3.78744   0.23877 
 C                    -1.8313    3.87503  -0.96909 
 C                    -2.64093   2.5816   -1.16907 
 C                    -1.77651   1.29509  -1.26304 
 C                    -2.68508   0.01977  -1.18107 
 C                    -3.79453  -0.04849  -2.25448 
 C                    -4.69113  -1.30034  -2.13991 
 C                    -3.87425  -2.60826  -2.14808 
 C                    -3.22486  -2.83118  -3.53222 
 C                    -0.95003   1.3165   -2.56863 
 O                     1.21828   0.        0. 
 C                    -6.70016  -3.77127  -3.22396 
 H                    -6.77205  -5.61779  -1.13413 
 H                    -6.8178   -6.42943  -2.70622 
 H                    -5.39682  -6.59771  -1.66759 
 H                    -4.9555   -4.98719  -3.52454 
 H                    -5.24133  -3.61188  -0.82281 
 H                    -3.21171  -5.57979  -1.91594 
 H                    -3.78405  -5.37546  -0.27156 
 H                    -1.82746  -4.08997   0.12804 
 H                    -1.44361  -4.07481  -1.58734 
 H                    -3.41073  -2.29882  -0.08846 
 H                    -1.31575  -1.40475  -2.09073 
 H                    -1.34349  -1.34932   0.95797 
 H                    -0.13279  -2.13207  -0.07389 
 H                    -1.50284   1.20337   0.86421 
 H                     0.72235   2.63979  -0.67001 
 H                     0.62408   2.45499   1.06369 
 H                    -0.27883   4.69699   0.31161 
 H                    -1.48706   3.73989   1.16108 
 H                    -1.24639   4.09269  -1.87274 
 H                    -2.52497   4.71703  -0.84826 
 H                    -3.33962   2.46857  -0.32593 
 H                    -3.25699   2.68183  -2.07081 
 H                    -3.20094   0.08511  -0.20709 
 H                    -4.43416   0.83789  -2.17957 
 H                    -3.34923  -0.01475  -3.25631 
 H                    -5.26347  -1.24744  -1.20186 
 H                    -5.42596  -1.27643  -2.95187 
 H                    -3.99341  -2.88916  -4.31102 
 H                    -2.6499   -3.76209  -3.5738 
 H                    -2.54622  -2.02041  -3.812 
 H                    -0.27794   0.45634  -2.65125 
 H                    -1.60513   1.31599  -3.4464 
 H                    -0.32486   2.21059  -2.63559 
 H                    -7.28684  -3.3255   -2.41033 
 H                    -6.33566  -2.95766  -3.85722 
 H                    -7.38529  -4.37546  -3.83089 
 

 GradGradGradGradGradGradGradGradGradGradGradGradGradGradGradGradGradGrad
 Berny optimization.
 Initialization pass.
 Trust Radius=3.00D-01 FncErr=1.00D-07 GrdErr=1.00D-07 EigMax=2.50D+02 EigMin=1.00D-04
 Number of steps in this run=      2 maximum allowed number of steps=      2.
 GradGradGradGradGradGradGradGradGradGradGradGradGradGradGradGradGradGrad

 Stoichiometry    C22H36O
 Framework group  C1[X(C22H36O)]
 Deg. of freedom   171
 Full point group                 C1      NOp   1
 Largest Abelian subgroup         C1      NOp   1
 Largest concise Abelian subgroup C1      NOp   1
                         Standard orientation:                         
 ---------------------------------------------------------------------
 Center     Atomic      Atomic             Coordinates (Angstroms)
 Number     Number       Type             X           Y           Z
 ---------------------------------------------------------------------
      1          6           0       -6.004403    0.068195   -0.751687
      2          6           0       -4.807583   -0.496928    0.036821
      3          6           0       -3.487925    0.154603   -0.441848
      4          6           0       -3.512237    1.714179   -0.304585
      5          6           0       -2.049287    2.176040   -0.058664
      6          6           0       -1.223726    0.902642   -0.294805
      7          6           0        0.227200    0.844526    0.200847
      8          6           0        1.050194    2.048472   -0.314183
      9          6           0        2.533803    1.897592   -0.021973
     10          6           0        3.136586    0.578813   -0.485875
     11          6           0        4.659991    0.517539   -0.322246
     12          6           0        5.214636   -0.794106   -0.893096
     13          6           0        4.519096   -2.014376   -0.274368
     14          6           0        2.986890   -1.931674   -0.392534
     15          6           0        2.371939   -0.624801    0.177628
     16          6           0        0.864387   -0.504897   -0.236558
     17          6           0       -0.017331   -1.697920    0.195898
     18          6           0       -1.492131   -1.569365   -0.242960
     19          6           0       -2.130859   -0.248127    0.230725
     20          6           0       -2.274676   -0.238441    1.769060
     21          6           0        2.539383   -0.596662    1.713614
     22          8           0        3.180156    2.759190    0.547307
     23          6           0       -4.819653   -2.030921   -0.065768
     24          1           0       -5.906982   -0.156266   -1.822357
     25          1           0       -6.942908   -0.380325   -0.404976
     26          1           0       -6.097164    1.153608   -0.645859
     27          1           0       -4.955498   -0.227949    1.093312
     28          1           0       -3.384545   -0.089479   -1.511572
     29          1           0       -4.159746    2.014158    0.528214
     30          1           0       -3.932756    2.178037   -1.202376
     31          1           0       -1.754417    2.994216   -0.723742
     32          1           0       -1.917489    2.542100    0.967141
     33          1           0       -1.176507    0.761372   -1.388771
     34          1           0        0.224088    0.897913    1.297695
     35          1           0        0.928554    2.117268   -1.406981
     36          1           0        0.702274    2.990463    0.119299
     37          1           0        2.912244    0.507714   -1.564209
     38          1           0        4.929188    0.621689    0.735253
     39          1           0        5.109002    1.380290   -0.827340
     40          1           0        6.298454   -0.852075   -0.731426
     41          1           0        5.061951   -0.805946   -1.982985
     42          1           0        4.807816   -2.101639    0.781618
     43          1           0        4.866816   -2.935459   -0.759613
     44          1           0        2.710061   -2.009853   -1.455117
     45          1           0        2.542768   -2.800432    0.108183
     46          1           0        0.859436   -0.501108   -1.340636
     47          1           0        0.385223   -2.625252   -0.226487
     48          1           0        0.025107   -1.819801    1.285133
     49          1           0       -1.545166   -1.613399   -1.340939
     50          1           0       -2.041891   -2.441119    0.128045
     51          1           0       -2.901999   -1.073450    2.100375
     52          1           0       -2.740619    0.682483    2.134724
     53          1           0       -1.312979   -0.338109    2.280317
     54          1           0        2.173803    0.335444    2.156260
     55          1           0        1.997406   -1.425511    2.181486
     56          1           0        3.587936   -0.693023    2.006839
     57          1           0       -4.586307   -2.361303   -1.086205
     58          1           0       -4.100428   -2.501699    0.610195
     59          1           0       -5.811729   -2.423377    0.188394
 ---------------------------------------------------------------------
 Rotational constants (GHZ):           0.5961157           0.1390090           0.1221199
 Standard basis: 6-31G(d) (6D, 7F)
 There are   417 symmetry adapted cartesian basis functions of A   symmetry.
 There are   417 symmetry adapted basis functions of A   symmetry.
   417 basis functions,   788 primitive gaussians,   417 cartesian basis functions
    88 alpha electrons       88 beta electrons
       nuclear repulsion energy      2157.6019813842 Hartrees.
 NAtoms=   59 NActive=   59 NUniq=   59 SFac= 1.00D+00 NAtFMM=   60 NAOKFM=F Big=F
 Integral buffers will be    131072 words long.
 Raffenetti 2 integral format.
 Two-electron integral symmetry is turned on.
 One-electron integrals computed using PRISM.
 NBasis=   417 RedAO= T EigKep=  1.64D-03  NBF=   417
 NBsUse=   417 1.00D-06 EigRej= -1.00D+00 NBFU=   417
 ExpMin= 1.61D-01 ExpMax= 5.48D+03 ExpMxC= 8.25D+02 IAcc=3 IRadAn=         5 AccDes= 0.00D+00
 Harris functional with IExCor=  402 and IRadAn=       5 diagonalized for initial guess.
 HarFok:  IExCor=  402 AccDes= 0.00D+00 IRadAn=         5 IDoV= 1 UseB2=F ITyADJ=14
 ICtDFT=  3500011 ScaDFX=  1.000000  1.000000  1.000000  1.000000
 FoFCou: FMM=F IPFlag=           0 FMFlag=      100000 FMFlg1=           0
         NFxFlg=           0 DoJE=T BraDBF=F KetDBF=T FulRan=T
         wScrn=  0.000000 ICntrl=       500 IOpCl=  0 I1Cent=   200000004 NGrid=           0
         NMat0=    1 NMatS0=      1 NMatT0=    0 NMatD0=    1 NMtDS0=    0 NMtDT0=    0
 Petite list used in FoFCou.
 Requested convergence on RMS density matrix=1.00D-08 within 128 cycles.
 Requested convergence on MAX density matrix=1.00D-06.
 Requested convergence on             energy=1.00D-06.
 No special actions if energy rises.
 Integral accuracy reduced to 1.0D-05 until final iterations.
 Initial convergence to 1.0D-05 achieved.  Increase integral accuracy.
 SCF Done:  E(RB3LYP) =  -935.274036054     A.U. after   14 cycles
            NFock= 14  Conv=0.32D-08     -V/T= 2.0099
 DoSCS=F DFT=T ScalE2(SS,OS)=  1.000000  1.000000
 Range of M.O.s used for correlation:     1   417
 NBasis=   417 NAE=    88 NBE=    88 NFC=     0 NFV=     0
 NROrb=    417 NOA=    88 NOB=    88 NVA=   329 NVB=   329
 Symmetrizing basis deriv contribution to polar:
 IMax=3 JMax=2 DiffMx= 0.00D+00
 G2DrvN: will do    60 centers at a time, making    1 passes.
 Calling FoFCou, ICntrl=  3107 FMM=F I1Cent=   0 AccDes= 0.00D+00.
 End of G2Drv F.D. properties file   721 does not exist.
 End of G2Drv F.D. properties file   722 does not exist.
 End of G2Drv F.D. properties file   788 does not exist.
          IDoAtm=11111111111111111111111111111111111111111111111111
          IDoAtm=111111111
          Differentiating once with respect to electric field.
                with respect to dipole field.
          Differentiating once with respect to nuclear coordinates.
 CalDSu exits because no D1Ps are significant.
          There are   180 degrees of freedom in the 1st order CPHF.  IDoFFX=6 NUNeed=     3.
    177 vectors produced by pass  0 Test12= 2.90D-14 1.00D-09 XBig12= 1.50D+02 2.22D+00.
 AX will form   177 AO Fock derivatives at one time.
    177 vectors produced by pass  1 Test12= 2.90D-14 1.00D-09 XBig12= 1.02D+01 6.32D-01.
    177 vectors produced by pass  2 Test12= 2.90D-14 1.00D-09 XBig12= 7.92D-02 1.97D-02.
    177 vectors produced by pass  3 Test12= 2.90D-14 1.00D-09 XBig12= 1.87D-04 7.48D-04.
    177 vectors produced by pass  4 Test12= 2.90D-14 1.00D-09 XBig12= 1.66D-07 2.67D-05.
     74 vectors produced by pass  5 Test12= 2.90D-14 1.00D-09 XBig12= 1.06D-10 6.97D-07.
      3 vectors produced by pass  6 Test12= 2.90D-14 1.00D-09 XBig12= 7.68D-14 1.78D-08.
 InvSVY:  IOpt=1 It=  1 EMax= 5.33D-15
 Solved reduced A of dimension   962 with   180 vectors.
 Isotropic polarizability for W=    0.000000      221.23 Bohr**3.
 End of Minotr F.D. properties file   721 does not exist.
 End of Minotr F.D. properties file   722 does not exist.
 End of Minotr F.D. properties file   788 does not exist.

 **********************************************************************

            Population analysis using the SCF density.

 **********************************************************************

 Orbital symmetries:
       Occupied  (A) (A) (A) (A) (A) (A) (A) (A) (A) (A) (A) (A)
                 (A) (A) (A) (A) (A) (A) (A) (A) (A) (A) (A) (A)
                 (A) (A) (A) (A) (A) (A) (A) (A) (A) (A) (A) (A)
                 (A) (A) (A) (A) (A) (A) (A) (A) (A) (A) (A) (A)
                 (A) (A) (A) (A) (A) (A) (A) (A) (A) (A) (A) (A)
                 (A) (A) (A) (A) (A) (A) (A) (A) (A) (A) (A) (A)
                 (A) (A) (A) (A) (A) (A) (A) (A) (A) (A) (A) (A)
                 (A) (A) (A) (A)
       Virtual   (A) (A) (A) (A) (A) (A) (A) (A) (A) (A) (A) (A)
                 (A) (A) (A) (A) (A) (A) (A) (A) (A) (A) (A) (A)
                 (A) (A) (A) (A) (A) (A) (A) (A) (A) (A) (A) (A)
                 (A) (A) (A) (A) (A) (A) (A) (A) (A) (A) (A) (A)
                 (A) (A) (A) (A) (A) (A) (A) (A) (A) (A) (A) (A)
                 (A) (A) (A) (A) (A) (A) (A) (A) (A) (A) (A) (A)
                 (A) (A) (A) (A) (A) (A) (A) (A) (A) (A) (A) (A)
                 (A) (A) (A) (A) (A) (A) (A) (A) (A) (A) (A) (A)
                 (A) (A) (A) (A) (A) (A) (A) (A) (A) (A) (A) (A)
                 (A) (A) (A) (A) (A) (A) (A) (A) (A) (A) (A) (A)
                 (A) (A) (A) (A) (A) (A) (A) (A) (A) (A) (A) (A)
                 (A) (A) (A) (A) (A) (A) (A) (A) (A) (A) (A) (A)
                 (A) (A) (A) (A) (A) (A) (A) (A) (A) (A) (A) (A)
                 (A) (A) (A) (A) (A) (A) (A) (A) (A) (A) (A) (A)
                 (A) (A) (A) (A) (A) (A) (A) (A) (A) (A) (A) (A)
                 (A) (A) (A) (A) (A) (A) (A) (A) (A) (A) (A) (A)
                 (A) (A) (A) (A) (A) (A) (A) (A) (A) (A) (A) (A)
                 (A) (A) (A) (A) (A) (A) (A) (A) (A) (A) (A) (A)
                 (A) (A) (A) (A) (A) (A) (A) (A) (A) (A) (A) (A)
                 (A) (A) (A) (A) (A) (A) (A) (A) (A) (A) (A) (A)
                 (A) (A) (A) (A) (A) (A) (A) (A) (A) (A) (A) (A)
                 (A) (A) (A) (A) (A) (A) (A) (A) (A) (A) (A) (A)
                 (A) (A) (A) (A) (A) (A) (A) (A) (A) (A) (A) (A)
                 (A) (A) (A) (A) (A) (A) (A) (A) (A) (A) (A) (A)
                 (A) (A) (A) (A) (A) (A) (A) (A) (A) (A) (A) (A)
                 (A) (A) (A) (A) (A) (A) (A) (A) (A) (A) (A) (A)
                 (A) (A) (A) (A) (A) (A) (A) (A) (A) (A) (A) (A)
                 (A) (A) (A) (A) (A)
 The electronic state is 1-A.
 Alpha  occ. eigenvalues --  -19.12899 -10.26153 -10.20277 -10.19138 -10.19001
 Alpha  occ. eigenvalues --  -10.18929 -10.18739 -10.18642 -10.18390 -10.18198
 Alpha  occ. eigenvalues --  -10.18118 -10.18018 -10.18008 -10.17897 -10.17784
 Alpha  occ. eigenvalues --  -10.17727 -10.17675 -10.17656 -10.17354 -10.17340
 Alpha  occ. eigenvalues --  -10.17256 -10.17103 -10.17064  -1.02722  -0.86639
 Alpha  occ. eigenvalues --   -0.84544  -0.80844  -0.78239  -0.78013  -0.75603
 Alpha  occ. eigenvalues --   -0.74641  -0.72399  -0.70184  -0.68377  -0.68263
 Alpha  occ. eigenvalues --   -0.67468  -0.66890  -0.62095  -0.60561  -0.60189
 Alpha  occ. eigenvalues --   -0.58143  -0.55844  -0.54327  -0.53898  -0.53039
 Alpha  occ. eigenvalues --   -0.50959  -0.48178  -0.47552  -0.46461  -0.46202
 Alpha  occ. eigenvalues --   -0.45143  -0.44891  -0.44398  -0.43945  -0.42926
 Alpha  occ. eigenvalues --   -0.42477  -0.41634  -0.40815  -0.40620  -0.40318
 Alpha  occ. eigenvalues --   -0.39830  -0.39477  -0.39078  -0.38604  -0.38395
 Alpha  occ. eigenvalues --   -0.37994  -0.37537  -0.37126  -0.35811  -0.35736
 Alpha  occ. eigenvalues --   -0.34829  -0.34463  -0.34276  -0.33929  -0.33662
 Alpha  occ. eigenvalues --   -0.33141  -0.32937  -0.32428  -0.31727  -0.31138
 Alpha  occ. eigenvalues --   -0.31079  -0.30823  -0.30451  -0.29906  -0.29209
 Alpha  occ. eigenvalues --   -0.28187  -0.27279  -0.22870
 Alpha virt. eigenvalues --   -0.00713   0.07037   0.07783   0.08031   0.09566
 Alpha virt. eigenvalues --    0.10184   0.10513   0.10810   0.11416   0.12034
 Alpha virt. eigenvalues --    0.12883   0.13163   0.13556   0.14153   0.14905
 Alpha virt. eigenvalues --    0.15105   0.15304   0.15598   0.15869   0.16188
 Alpha virt. eigenvalues --    0.16703   0.16724   0.17499   0.17647   0.17897
 Alpha virt. eigenvalues --    0.18042   0.18177   0.19114   0.19411   0.19803
 Alpha virt. eigenvalues --    0.20233   0.20413   0.20833   0.21342   0.21815
 Alpha virt. eigenvalues --    0.21957   0.22624   0.22965   0.23426   0.23891
 Alpha virt. eigenvalues --    0.24074   0.24336   0.24395   0.25123   0.25448
 Alpha virt. eigenvalues --    0.25753   0.26281   0.26807   0.27619   0.27887
 Alpha virt. eigenvalues --    0.28244   0.28480   0.29071   0.29706   0.30259
 Alpha virt. eigenvalues --    0.30852   0.31759   0.32950   0.33934   0.35001
 Alpha virt. eigenvalues --    0.37093   0.38398   0.39345   0.49083   0.49890
 Alpha virt. eigenvalues --    0.50231   0.50589   0.51105   0.51817   0.52181
 Alpha virt. eigenvalues --    0.53112   0.54037   0.54705   0.55252   0.55842
 Alpha virt. eigenvalues --    0.56473   0.57864   0.58292   0.59814   0.60553
 Alpha virt. eigenvalues --    0.61024   0.61817   0.62500   0.63457   0.63796
 Alpha virt. eigenvalues --    0.64674   0.65418   0.65742   0.65953   0.67484
 Alpha virt. eigenvalues --    0.68211   0.68345   0.69535   0.69745   0.70483
 Alpha virt. eigenvalues --    0.71399   0.71735   0.73044   0.73682   0.74069
 Alpha virt. eigenvalues --    0.75589   0.75774   0.76122   0.77358   0.78633
 Alpha virt. eigenvalues --    0.79996   0.81231   0.81449   0.81930   0.82725
 Alpha virt. eigenvalues --    0.83487   0.84027   0.85070   0.85487   0.85794
 Alpha virt. eigenvalues --    0.86067   0.86510   0.86658   0.87182   0.87741
 Alpha virt. eigenvalues --    0.88365   0.88755   0.88909   0.89074   0.89594
 Alpha virt. eigenvalues --    0.89821   0.90162   0.90730   0.90978   0.91330
 Alpha virt. eigenvalues --    0.92169   0.92563   0.93298   0.93696   0.94215
 Alpha virt. eigenvalues --    0.94496   0.95254   0.95423   0.95663   0.95903
 Alpha virt. eigenvalues --    0.96698   0.97423   0.97684   0.97821   0.98244
 Alpha virt. eigenvalues --    0.99088   1.00069   1.00742   1.00957   1.01753
 Alpha virt. eigenvalues --    1.02163   1.02781   1.03341   1.04055   1.05088
 Alpha virt. eigenvalues --    1.06343   1.08459   1.08977   1.10816   1.11546
 Alpha virt. eigenvalues --    1.12697   1.15063   1.18484   1.19455   1.20084
 Alpha virt. eigenvalues --    1.21855   1.22238   1.22805   1.27171   1.28380
 Alpha virt. eigenvalues --    1.31088   1.31475   1.33932   1.34304   1.36271
 Alpha virt. eigenvalues --    1.37673   1.39314   1.43093   1.45377   1.46366
 Alpha virt. eigenvalues --    1.49824   1.50614   1.52596   1.54824   1.55390
 Alpha virt. eigenvalues --    1.56803   1.57610   1.58812   1.61879   1.63249
 Alpha virt. eigenvalues --    1.63883   1.64723   1.66444   1.68825   1.69114
 Alpha virt. eigenvalues --    1.70716   1.72896   1.73688   1.74191   1.75315
 Alpha virt. eigenvalues --    1.75910   1.76330   1.77688   1.77972   1.79740
 Alpha virt. eigenvalues --    1.80812   1.81119   1.83579   1.83868   1.84606
 Alpha virt. eigenvalues --    1.85376   1.87563   1.88266   1.88691   1.89792
 Alpha virt. eigenvalues --    1.90875   1.91607   1.92592   1.93442   1.93891
 Alpha virt. eigenvalues --    1.94233   1.94618   1.96216   1.96753   1.97268
 Alpha virt. eigenvalues --    1.97754   1.99522   1.99939   2.01066   2.01299
 Alpha virt. eigenvalues --    2.02066   2.02605   2.04069   2.05280   2.06120
 Alpha virt. eigenvalues --    2.06732   2.07873   2.08222   2.08916   2.09575
 Alpha virt. eigenvalues --    2.10735   2.10985   2.11848   2.13034   2.13582
 Alpha virt. eigenvalues --    2.15053   2.16302   2.17839   2.18185   2.18818
 Alpha virt. eigenvalues --    2.20004   2.21573   2.23661   2.24813   2.26524
 Alpha virt. eigenvalues --    2.27674   2.28902   2.29683   2.30823   2.32545
 Alpha virt. eigenvalues --    2.33432   2.34296   2.35545   2.36652   2.38664
 Alpha virt. eigenvalues --    2.38970   2.39850   2.41028   2.41663   2.42739
 Alpha virt. eigenvalues --    2.43394   2.44967   2.45956   2.47539   2.48575
 Alpha virt. eigenvalues --    2.50218   2.52897   2.53762   2.55434   2.56864
 Alpha virt. eigenvalues --    2.58339   2.59569   2.61809   2.62481   2.62684
 Alpha virt. eigenvalues --    2.64283   2.65055   2.66748   2.68877   2.69840
 Alpha virt. eigenvalues --    2.72956   2.74527   2.75490   2.75890   2.79095
 Alpha virt. eigenvalues --    2.80833   2.84209   2.85446   2.85935   2.90478
 Alpha virt. eigenvalues --    2.91030   2.91223   2.95131   3.00724   3.02946
 Alpha virt. eigenvalues --    3.07513   4.06735   4.12136   4.14957   4.21744
 Alpha virt. eigenvalues --    4.23438   4.25812   4.27186   4.29015   4.30107
 Alpha virt. eigenvalues --    4.31134   4.36259   4.39720   4.45826   4.46846
 Alpha virt. eigenvalues --    4.53895   4.57016   4.58275   4.64304   4.66683
 Alpha virt. eigenvalues --    4.70317   4.77004   4.80527   4.82676
          Condensed to atoms (all electrons):
 Mulliken charges:
               1
     1  C   -0.448797
     2  C   -0.080442
     3  C   -0.073074
     4  C   -0.296026
     5  C   -0.291551
     6  C   -0.090301
     7  C   -0.113652
     8  C   -0.352201
     9  C    0.447618
    10  C   -0.181572
    11  C   -0.259366
    12  C   -0.263887
    13  C   -0.267753
    14  C   -0.273389
    15  C    0.091276
    16  C   -0.095317
    17  C   -0.291593
    18  C   -0.279594
    19  C    0.092079
    20  C   -0.483611
    21  C   -0.483531
    22  O   -0.462526
    23  C   -0.450540
    24  H    0.137131
    25  H    0.138870
    26  H    0.147920
    27  H    0.120666
    28  H    0.107641
    29  H    0.135577
    30  H    0.139242
    31  H    0.135980
    32  H    0.136038
    33  H    0.109410
    34  H    0.132235
    35  H    0.145455
    36  H    0.162529
    37  H    0.128531
    38  H    0.146959
    39  H    0.143488
    40  H    0.132810
    41  H    0.124846
    42  H    0.134740
    43  H    0.131575
    44  H    0.123397
    45  H    0.135241
    46  H    0.106974
    47  H    0.137885
    48  H    0.137123
    49  H    0.122572
    50  H    0.131993
    51  H    0.146932
    52  H    0.147017
    53  H    0.147127
    54  H    0.155550
    55  H    0.145615
    56  H    0.154815
    57  H    0.138401
    58  H    0.147321
    59  H    0.138144
 Sum of Mulliken charges =  -0.00000
 Mulliken charges with hydrogens summed into heavy atoms:
               1
     1  C   -0.024875
     2  C    0.040224
     3  C    0.034568
     4  C   -0.021206
     5  C   -0.019534
     6  C    0.019109
     7  C    0.018582
     8  C   -0.044218
     9  C    0.447618
    10  C   -0.053041
    11  C    0.031081
    12  C   -0.006232
    13  C   -0.001438
    14  C   -0.014751
    15  C    0.091276
    16  C    0.011657
    17  C   -0.016585
    18  C   -0.025030
    19  C    0.092079
    20  C   -0.042535
    21  C   -0.027551
    22  O   -0.462526
    23  C   -0.026673
 APT charges:
               1
     1  C    0.061215
     2  C    0.132667
     3  C    0.077253
     4  C    0.072475
     5  C    0.071639
     6  C    0.077752
     7  C    0.087196
     8  C   -0.105131
     9  C    0.757530
    10  C   -0.100447
    11  C    0.092046
    12  C    0.122382
    13  C    0.121765
    14  C    0.065146
    15  C    0.125852
    16  C    0.052503
    17  C    0.072376
    18  C    0.102718
    19  C    0.047004
    20  C    0.021330
    21  C   -0.008632
    22  O   -0.664275
    23  C    0.047444
    24  H   -0.024351
    25  H   -0.046887
    26  H   -0.013902
    27  H   -0.066386
    28  H   -0.066499
    29  H   -0.046775
    30  H   -0.048520
    31  H   -0.045278
    32  H   -0.039743
    33  H   -0.064030
    34  H   -0.037569
    35  H   -0.004780
    36  H   -0.023519
    37  H   -0.033261
    38  H   -0.023110
    39  H   -0.042331
    40  H   -0.066763
    41  H   -0.049529
    42  H   -0.043699
    43  H   -0.067320
    44  H   -0.047163
    45  H   -0.045712
    46  H   -0.058829
    47  H   -0.047538
    48  H   -0.027410
    49  H   -0.045488
    50  H   -0.055849
    51  H   -0.019670
    52  H   -0.010633
    53  H   -0.017565
    54  H   -0.004672
    55  H   -0.006478
    56  H   -0.008485
    57  H   -0.016140
    58  H   -0.017863
    59  H   -0.046059
 Sum of APT charges =   0.00000
 APT charges with hydrogens summed into heavy atoms:
               1
     1  C   -0.023925
     2  C    0.066281
     3  C    0.010753
     4  C   -0.022820
     5  C   -0.013382
     6  C    0.013722
     7  C    0.049627
     8  C   -0.133430
     9  C    0.757530
    10  C   -0.133708
    11  C    0.026605
    12  C    0.006090
    13  C    0.010746
    14  C   -0.027729
    15  C    0.125852
    16  C   -0.006326
    17  C   -0.002572
    18  C    0.001380
    19  C    0.047004
    20  C   -0.026537
    21  C   -0.028268
    22  O   -0.664275
    23  C   -0.032618
 Electronic spatial extent (au):  <R**2>=           9225.7919
 Charge=             -0.0000 electrons
 Dipole moment (field-independent basis, Debye):
    X=             -1.6891    Y=             -2.2998    Z=             -0.9845  Tot=              3.0185
 Quadrupole moment (field-independent basis, Debye-Ang):
   XX=           -150.3252   YY=           -152.8972   ZZ=           -143.0773
   XY=            -10.3928   XZ=             -3.9631   YZ=             -3.6274
 Traceless Quadrupole moment (field-independent basis, Debye-Ang):
   XX=             -1.5586   YY=             -4.1306   ZZ=              5.6893
   XY=            -10.3928   XZ=             -3.9631   YZ=             -3.6274
 Octapole moment (field-independent basis, Debye-Ang**2):
  XXX=             -2.5677  YYY=            -16.7033  ZZZ=             -1.0194  XYY=            -27.3864
  XXY=            -32.6050  XXZ=             -4.6389  XZZ=              5.1383  YZZ=              4.0838
  YYZ=             -8.0805  XYZ=            -10.8696
 Hexadecapole moment (field-independent basis, Debye-Ang**3):
 XXXX=          -9956.0823 YYYY=          -2121.9453 ZZZZ=           -717.8333 XXXY=            -79.4862
 XXXZ=            -53.9606 YYYX=            -80.5210 YYYZ=            -24.8627 ZZZX=              9.1312
 ZZZY=              5.7053 XXYY=          -2107.4453 XXZZ=          -1765.9490 YYZZ=           -453.8611
 XXYZ=            -37.8791 YYXZ=            -34.2509 ZZXY=              6.6804
 N-N= 2.157601981384D+03 E-N=-6.480293673621D+03  KE= 9.261171747607D+02
  Exact polarizability: 273.603   0.357 211.670   0.487   0.732 178.426
 Approx polarizability: 317.774   7.519 313.655   4.671   7.066 308.153
 Calling FoFJK, ICntrl=    100127 FMM=F ISym2X=0 I1Cent= 0 IOpClX= 0 NMat=1 NMatS=1 NMatT=0.
 Full mass-weighted force constant matrix:
 Low frequencies ---   -6.1875   -2.9032   -0.0001    0.0009    0.0014    4.2435
 Low frequencies ---   41.6327   49.6798   77.7179
 Diagonal vibrational polarizability:
        9.9093676       6.9909544      16.1975033
 Harmonic frequencies (cm**-1), IR intensities (KM/Mole), Raman scattering
 activities (A**4/AMU), depolarization ratios for plane and unpolarized
 incident light, reduced masses (AMU), force constants (mDyne/A),
 and normal coordinates:
                      1                      2                      3
                      A                      A                      A
 Frequencies --     41.6230                49.6737                77.7161
 Red. masses --      3.4660                 3.8675                 2.8594
 Frc consts  --      0.0035                 0.0056                 0.0102
 IR Inten    --      0.0753                 0.9359                 0.3732
  Atom  AN      X      Y      Z        X      Y      Z        X      Y      Z
     1   6    -0.05   0.04   0.20    -0.01  -0.04   0.03     0.04  -0.12  -0.17
     2   6     0.00   0.00   0.08    -0.00   0.04   0.07    -0.00   0.02  -0.00
     3   6    -0.02   0.01   0.02    -0.01  -0.01  -0.02    -0.00   0.02   0.00
     4   6    -0.01   0.01   0.07     0.01  -0.00  -0.14    -0.01   0.02   0.02
     5   6     0.00  -0.00   0.00     0.01   0.00  -0.14    -0.02   0.02   0.11
     6   6    -0.01   0.00  -0.06     0.01  -0.01  -0.08    -0.01   0.04   0.04
     7   6    -0.00  -0.00  -0.09    -0.00  -0.00  -0.05    -0.00   0.01   0.03
     8   6     0.00  -0.01  -0.09     0.01   0.00  -0.02     0.01   0.02   0.06
     9   6    -0.00   0.01  -0.04    -0.02  -0.01   0.08     0.02   0.01  -0.01
    10   6     0.02  -0.00   0.02     0.01   0.02   0.03     0.00  -0.00   0.01
    11   6     0.01   0.00   0.11     0.00   0.02   0.06     0.00  -0.03   0.03
    12   6     0.05  -0.01   0.16     0.02   0.05   0.01    -0.01  -0.03   0.03
    13   6     0.01  -0.00   0.12     0.01   0.02  -0.07    -0.04  -0.03   0.01
    14   6     0.02  -0.00   0.02     0.02   0.02  -0.10    -0.03  -0.00  -0.00
    15   6    -0.01   0.00  -0.02     0.00  -0.02  -0.03    -0.02   0.00  -0.01
    16   6     0.01   0.00  -0.09     0.00  -0.01  -0.04    -0.01   0.03  -0.02
    17   6    -0.00  -0.02  -0.16    -0.00   0.00  -0.02    -0.01   0.00  -0.10
    18   6    -0.00   0.01  -0.14    -0.01  -0.00   0.00    -0.01   0.03  -0.09
    19   6     0.01  -0.01  -0.06     0.00   0.01  -0.03    -0.00   0.01  -0.01
    20   6     0.08  -0.07  -0.05     0.03   0.07  -0.03     0.01  -0.06  -0.01
    21   6    -0.09   0.01  -0.01    -0.01  -0.09  -0.03    -0.04  -0.01  -0.00
    22   8    -0.03   0.03  -0.05    -0.06  -0.07   0.23     0.06   0.05  -0.10
    23   6    -0.01   0.01   0.02    -0.01   0.03   0.25     0.05   0.01   0.20
    24   1    -0.13   0.09   0.18    -0.04  -0.18   0.05     0.12  -0.30  -0.13
    25   1    -0.03   0.03   0.24    -0.01   0.01   0.10     0.02  -0.08  -0.16
    26   1    -0.04   0.04   0.26     0.01  -0.03  -0.11     0.02  -0.11  -0.35
    27   1     0.08  -0.05   0.11     0.02   0.16   0.04    -0.09   0.15  -0.05
    28   1    -0.08   0.04   0.01    -0.04  -0.10  -0.01    -0.00   0.03   0.00
    29   1     0.04  -0.02   0.12    -0.01   0.07  -0.18    -0.06   0.02  -0.01
    30   1    -0.06   0.03   0.11     0.04  -0.07  -0.19     0.05   0.04   0.00
    31   1    -0.03   0.01   0.00     0.02  -0.03  -0.18    -0.00   0.07   0.18
    32   1     0.05  -0.02   0.00    -0.00   0.05  -0.16    -0.06  -0.06   0.14
    33   1    -0.04   0.03  -0.06     0.02  -0.06  -0.07    -0.01   0.10   0.03
    34   1     0.01  -0.00  -0.09    -0.02  -0.00  -0.05     0.01  -0.02   0.03
    35   1     0.03  -0.04  -0.10     0.07  -0.00  -0.03    -0.02   0.06   0.06
    36   1    -0.01  -0.00  -0.12    -0.02  -0.00  -0.04     0.03   0.01   0.10
    37   1     0.09  -0.02   0.00     0.03   0.06   0.02     0.02   0.00   0.01
    38   1    -0.05   0.01   0.13    -0.02  -0.03   0.07    -0.01  -0.04   0.03
    39   1     0.05  -0.00   0.13     0.01   0.05   0.11     0.02  -0.03   0.04
    40   1     0.04  -0.00   0.24     0.02   0.05   0.04    -0.01  -0.05   0.04
    41   1     0.13  -0.01   0.15     0.05   0.11   0.01     0.00  -0.02   0.03
    42   1    -0.05  -0.00   0.14    -0.01  -0.04  -0.07    -0.05  -0.04   0.01
    43   1     0.04  -0.00   0.14     0.03   0.04  -0.11    -0.04  -0.03   0.01
    44   1     0.08  -0.01   0.01     0.04   0.08  -0.10    -0.02   0.00  -0.01
    45   1    -0.01   0.00   0.00     0.01  -0.01  -0.15    -0.05   0.00  -0.01
    46   1     0.06   0.03  -0.09     0.01  -0.02  -0.04     0.00   0.08  -0.02
    47   1    -0.00   0.01  -0.23    -0.01  -0.01  -0.01    -0.01   0.03  -0.15
    48   1     0.01  -0.10  -0.17     0.01   0.02  -0.02    -0.01  -0.07  -0.10
    49   1    -0.02   0.07  -0.14    -0.03  -0.04   0.00    -0.00   0.11  -0.09
    50   1    -0.00  -0.01  -0.18    -0.01   0.01   0.04    -0.02   0.01  -0.15
    51   1     0.10  -0.08  -0.05     0.01   0.11   0.02     0.01  -0.08  -0.04
    52   1     0.10  -0.08   0.00     0.06   0.10  -0.06     0.01  -0.08   0.03
    53   1     0.11  -0.08  -0.10     0.03   0.07  -0.04     0.01  -0.08  -0.02
    54   1    -0.07   0.03  -0.04    -0.08  -0.14   0.02     0.02   0.02  -0.01
    55   1    -0.14   0.04  -0.03     0.04  -0.15  -0.08    -0.10   0.03  -0.01
    56   1    -0.10  -0.03   0.04    -0.01  -0.04  -0.03    -0.05  -0.07   0.01
    57   1    -0.09   0.05  -0.02    -0.05  -0.09   0.28     0.13  -0.13   0.27
    58   1     0.03  -0.03  -0.06     0.01   0.10   0.28     0.01   0.12   0.32
    59   1     0.00  -0.00   0.07    -0.01   0.07   0.33     0.04   0.02   0.19
                      4                      5                      6
                      A                      A                      A
 Frequencies --     94.8565                99.9045               112.0894
 Red. masses --      4.0268                 2.8675                 3.7352
 Frc consts  --      0.0213                 0.0169                 0.0276
 IR Inten    --      0.9870                 0.0850                 0.7405
  Atom  AN      X      Y      Z        X      Y      Z        X      Y      Z
     1   6    -0.00  -0.12   0.04     0.03  -0.09  -0.08    -0.05  -0.09   0.17
     2   6     0.04  -0.06   0.01     0.01  -0.05  -0.02     0.05  -0.07   0.02
     3   6     0.00   0.02   0.00     0.00   0.03   0.06    -0.00  -0.02  -0.05
     4   6    -0.04   0.01   0.05    -0.03   0.02   0.14    -0.03  -0.02  -0.12
     5   6    -0.03   0.04  -0.01    -0.01   0.04   0.00    -0.04   0.03  -0.10
     6   6    -0.01   0.06  -0.04    -0.01   0.03  -0.00     0.00   0.04  -0.02
     7   6    -0.00   0.06  -0.03     0.01   0.04  -0.05    -0.01   0.05   0.05
     8   6     0.04   0.05  -0.03     0.01  -0.00  -0.14     0.03   0.06   0.13
     9   6     0.02  -0.02   0.03    -0.01  -0.00  -0.04     0.06   0.03   0.05
    10   6    -0.01  -0.00  -0.06     0.01  -0.01   0.00     0.01   0.00   0.08
    11   6    -0.00  -0.05  -0.14     0.00  -0.02   0.09     0.01  -0.06   0.08
    12   6    -0.07  -0.10  -0.09     0.03  -0.01   0.09    -0.04  -0.05  -0.01
    13   6    -0.06  -0.03   0.07    -0.04  -0.04  -0.03    -0.08  -0.06  -0.08
    14   6    -0.06  -0.02   0.12    -0.03   0.01  -0.10    -0.08   0.01  -0.05
    15   6    -0.02   0.04   0.01    -0.02  -0.01  -0.04    -0.02   0.00   0.03
    16   6    -0.01   0.05  -0.02    -0.02   0.01  -0.02    -0.01   0.05   0.04
    17   6     0.00   0.04  -0.05    -0.02   0.04   0.05    -0.01   0.05   0.02
    18   6     0.01   0.05  -0.07    -0.02   0.03   0.08     0.01   0.04  -0.01
    19   6     0.02   0.04  -0.04     0.00   0.05   0.05     0.00   0.03  -0.03
    20   6     0.05   0.02  -0.03     0.03   0.10   0.06    -0.02   0.06  -0.04
    21   6    -0.03   0.15   0.01    -0.01  -0.08  -0.04    -0.02  -0.07   0.03
    22   8     0.01  -0.13   0.22    -0.05  -0.01   0.01     0.13   0.09  -0.11
    23   6     0.12  -0.06  -0.02     0.10  -0.05  -0.07     0.09  -0.07  -0.06
    24   1    -0.01  -0.11   0.03     0.12  -0.05  -0.08    -0.16  -0.05   0.15
    25   1     0.03  -0.16   0.05     0.03  -0.15  -0.15     0.00  -0.13   0.26
    26   1    -0.05  -0.12   0.04    -0.03  -0.10  -0.04    -0.07  -0.09   0.21
    27   1     0.04  -0.09   0.01    -0.06  -0.09  -0.02     0.13  -0.13   0.05
    28   1    -0.01   0.06  -0.01     0.03   0.10   0.05    -0.01  -0.07  -0.04
    29   1    -0.00  -0.03   0.10     0.05  -0.04   0.23    -0.05   0.01  -0.14
    30   1    -0.10   0.03   0.09    -0.15   0.06   0.21    -0.02  -0.07  -0.15
    31   1    -0.08   0.05  -0.02    -0.07   0.01  -0.07    -0.05   0.01  -0.13
    32   1    -0.00   0.05  -0.02     0.07   0.10  -0.03    -0.09   0.08  -0.11
    33   1    -0.01   0.08  -0.04    -0.05   0.01   0.00     0.06   0.02  -0.02
    34   1    -0.01   0.07  -0.03     0.05   0.09  -0.06    -0.06   0.01   0.05
    35   1     0.06   0.05  -0.03     0.05  -0.10  -0.15     0.02   0.15   0.14
    36   1     0.05   0.05  -0.02    -0.00   0.03  -0.22     0.07   0.04   0.20
    37   1    -0.07  -0.01  -0.04     0.07  -0.01  -0.01     0.03   0.03   0.07
    38   1     0.06   0.01  -0.16    -0.06  -0.05   0.11     0.01  -0.15   0.09
    39   1     0.00  -0.09  -0.22     0.04  -0.02   0.14     0.05  -0.04   0.15
    40   1    -0.06  -0.11  -0.17     0.02  -0.04   0.18    -0.04  -0.10  -0.02
    41   1    -0.16  -0.19  -0.07     0.13   0.04   0.08    -0.05   0.04  -0.01
    42   1    -0.01   0.08   0.07    -0.09  -0.12  -0.02    -0.07  -0.15  -0.10
    43   1    -0.09  -0.09   0.16    -0.03  -0.01  -0.08    -0.13  -0.04  -0.16
    44   1    -0.09  -0.12   0.14     0.02   0.08  -0.12    -0.10   0.07  -0.04
    45   1    -0.05   0.04   0.22    -0.07  -0.02  -0.18    -0.10  -0.00  -0.08
    46   1     0.02   0.05  -0.02    -0.04  -0.02  -0.02    -0.01   0.07   0.04
    47   1     0.01   0.06  -0.07    -0.03   0.02   0.08     0.01   0.05   0.03
    48   1    -0.01   0.01  -0.05     0.01   0.08   0.05    -0.03   0.05   0.02
    49   1     0.03   0.09  -0.07    -0.06  -0.01   0.09     0.03   0.03  -0.01
    50   1     0.01   0.04  -0.10    -0.01   0.05   0.13     0.01   0.04  -0.02
    51   1     0.08   0.00  -0.03     0.02   0.12   0.09    -0.00   0.05  -0.03
    52   1     0.03   0.01  -0.02     0.04   0.12   0.04    -0.04   0.06  -0.06
    53   1     0.06   0.04  -0.05     0.03   0.11   0.04    -0.02   0.09  -0.02
    54   1     0.03   0.20  -0.05    -0.05  -0.11  -0.00    -0.00  -0.09   0.07
    55   1    -0.08   0.21   0.07     0.02  -0.12  -0.08    -0.03  -0.08  -0.01
    56   1    -0.03   0.11   0.02    -0.01  -0.05  -0.04    -0.02  -0.11   0.02
    57   1     0.18  -0.04  -0.01     0.25  -0.01  -0.05     0.07  -0.01  -0.08
    58   1     0.12  -0.04   0.01     0.04  -0.03   0.01     0.13  -0.09  -0.11
    59   1     0.13  -0.11  -0.06     0.09  -0.10  -0.20     0.12  -0.12  -0.04
                      7                      8                      9
                      A                      A                      A
 Frequencies --    148.8079               156.4438               177.5776
 Red. masses --      2.0419                 2.3043                 1.9107
 Frc consts  --      0.0266                 0.0332                 0.0355
 IR Inten    --      0.2528                 0.5163                 0.1711
  Atom  AN      X      Y      Z        X      Y      Z        X      Y      Z
     1   6    -0.02  -0.01   0.05    -0.02  -0.01  -0.00     0.03   0.04  -0.04
     2   6     0.01  -0.01  -0.00    -0.02  -0.01   0.00    -0.03  -0.02   0.00
     3   6     0.00  -0.02  -0.04    -0.02  -0.01   0.01     0.00  -0.06   0.03
     4   6    -0.00  -0.00  -0.11    -0.02  -0.01  -0.01    -0.02  -0.06  -0.02
     5   6    -0.05  -0.00   0.15    -0.02   0.00  -0.03    -0.03  -0.02  -0.03
     6   6    -0.01   0.04   0.05    -0.01  -0.00   0.01    -0.00  -0.01   0.02
     7   6     0.01   0.04  -0.00    -0.01  -0.01   0.02     0.00   0.03   0.01
     8   6     0.02   0.00  -0.09    -0.00   0.03   0.14     0.02   0.03   0.00
     9   6     0.01  -0.01  -0.04     0.03  -0.01   0.02     0.03   0.02  -0.00
    10   6     0.02  -0.00  -0.04    -0.00   0.01  -0.08     0.04   0.02  -0.02
    11   6     0.02  -0.01  -0.00     0.00   0.02  -0.09     0.03  -0.03   0.05
    12   6     0.04  -0.03   0.06     0.06  -0.04   0.11     0.01  -0.04   0.03
    13   6    -0.02  -0.03   0.01     0.00   0.00   0.12    -0.05  -0.05  -0.05
    14   6    -0.01   0.01  -0.05     0.02   0.02  -0.07    -0.04   0.02  -0.02
    15   6     0.01   0.01  -0.03    -0.00   0.01  -0.08     0.00   0.05  -0.03
    16   6    -0.00   0.02   0.01    -0.01   0.01  -0.05     0.01   0.05  -0.03
    17   6     0.00   0.04   0.07     0.00   0.01  -0.03     0.04   0.01  -0.04
    18   6     0.03   0.02  -0.00    -0.02  -0.01   0.05     0.01  -0.02   0.05
    19   6    -0.01   0.00  -0.00    -0.02   0.00   0.03     0.01  -0.02   0.05
    20   6    -0.07  -0.04  -0.01    -0.02   0.03   0.03     0.03  -0.01   0.05
    21   6     0.05   0.01  -0.03     0.01   0.01  -0.09     0.01   0.10  -0.03
    22   8    -0.02  -0.04   0.04     0.08  -0.04   0.00     0.02  -0.00   0.04
    23   6    -0.00  -0.01  -0.01    -0.02  -0.01  -0.01    -0.11  -0.02  -0.00
    24   1    -0.09  -0.05   0.05    -0.01   0.01  -0.01     0.10   0.11  -0.05
    25   1    -0.01   0.03   0.12    -0.02  -0.02  -0.02     0.00   0.01  -0.14
    26   1     0.01   0.00   0.01    -0.03  -0.01   0.01     0.02   0.03   0.03
    27   1     0.05  -0.01   0.00    -0.03  -0.02   0.00    -0.04  -0.02   0.00
    28   1     0.00  -0.07  -0.03    -0.00  -0.02   0.02     0.03  -0.09   0.04
    29   1    -0.17   0.06  -0.26    -0.01  -0.01   0.00    -0.03  -0.04  -0.04
    30   1     0.19  -0.05  -0.22    -0.04  -0.02  -0.00    -0.02  -0.09  -0.04
    31   1     0.02   0.12   0.32    -0.02  -0.02  -0.07    -0.04  -0.04  -0.05
    32   1    -0.18  -0.18   0.23    -0.01   0.04  -0.05    -0.05   0.02  -0.04
    33   1    -0.04   0.11   0.04    -0.01  -0.03   0.01    -0.01  -0.04   0.02
    34   1     0.06   0.07  -0.00    -0.04  -0.09   0.02     0.02   0.01   0.01
    35   1     0.02  -0.08  -0.09    -0.05   0.19   0.15     0.01   0.03   0.01
    36   1     0.02   0.03  -0.15     0.04  -0.01   0.28     0.03   0.03   0.01
    37   1     0.04  -0.02  -0.04    -0.03   0.05  -0.08     0.07   0.04  -0.03
    38   1    -0.01   0.03   0.00    -0.01   0.19  -0.10    -0.03  -0.08   0.07
    39   1     0.04  -0.03  -0.02    -0.01  -0.04  -0.21     0.09  -0.03   0.11
    40   1     0.03  -0.04   0.15     0.05  -0.01   0.24    -0.00  -0.08   0.08
    41   1     0.13  -0.04   0.05     0.20  -0.15   0.09     0.06   0.01   0.03
    42   1    -0.07  -0.06   0.02    -0.13   0.07   0.16    -0.04  -0.13  -0.05
    43   1    -0.02  -0.02   0.01     0.06  -0.03   0.23    -0.09  -0.03  -0.11
    44   1     0.03   0.05  -0.06     0.15   0.06  -0.11    -0.07   0.02  -0.02
    45   1    -0.05   0.01  -0.09    -0.06   0.01  -0.16    -0.07   0.04  -0.01
    46   1    -0.03  -0.00   0.01    -0.04   0.04  -0.05     0.00   0.07  -0.03
    47   1     0.02   0.02   0.15    -0.02   0.01  -0.05     0.04   0.04  -0.11
    48   1    -0.04   0.12   0.08     0.06   0.00  -0.03     0.10  -0.04  -0.05
    49   1     0.09   0.05  -0.01    -0.08  -0.05   0.05    -0.06  -0.05   0.05
    50   1     0.02   0.01  -0.05     0.00   0.00   0.11     0.05  -0.02   0.10
    51   1     0.12  -0.19  -0.04    -0.11   0.10   0.03    -0.04   0.05   0.05
    52   1    -0.31  -0.16  -0.02     0.07   0.08   0.02     0.13   0.03   0.06
    53   1    -0.06   0.20   0.03    -0.03  -0.06   0.03     0.03  -0.11   0.03
    54   1     0.03  -0.01  -0.02    -0.22  -0.10  -0.05     0.38   0.28  -0.11
    55   1     0.08  -0.01  -0.03     0.23  -0.14  -0.11    -0.30   0.35   0.04
    56   1     0.05   0.04  -0.05     0.04   0.27  -0.10    -0.02  -0.28  -0.03
    57   1    -0.06  -0.00  -0.02    -0.03  -0.00  -0.01    -0.23  -0.03  -0.03
    58   1     0.03  -0.02  -0.05    -0.02  -0.02  -0.02    -0.06  -0.06  -0.08
    59   1     0.01  -0.00   0.05    -0.02  -0.01  -0.01    -0.10   0.03   0.09
                     10                     11                     12
                      A                      A                      A
 Frequencies --    191.7320               199.1233               219.9580
 Red. masses --      2.0175                 2.2149                 2.7982
 Frc consts  --      0.0437                 0.0517                 0.0798
 IR Inten    --      0.0143                 0.1932                 0.0279
  Atom  AN      X      Y      Z        X      Y      Z        X      Y      Z
     1   6     0.02  -0.01   0.05    -0.11  -0.06   0.01     0.03   0.03   0.02
     2   6     0.05   0.02   0.01    -0.05   0.01  -0.02     0.05   0.03  -0.01
     3   6     0.03   0.03   0.00    -0.06   0.04  -0.03     0.03   0.02  -0.04
     4   6     0.05   0.04  -0.10    -0.05   0.03   0.08     0.05   0.01   0.06
     5   6     0.04   0.00   0.03    -0.01   0.02  -0.02     0.07  -0.01  -0.08
     6   6     0.01  -0.02   0.04    -0.02   0.01  -0.01     0.03  -0.04  -0.01
     7   6    -0.00  -0.05   0.03    -0.00  -0.02   0.01    -0.01  -0.01   0.06
     8   6    -0.04  -0.03   0.04     0.02  -0.02   0.03    -0.06  -0.01   0.02
     9   6    -0.05  -0.02  -0.01     0.03  -0.04  -0.01    -0.06   0.02  -0.02
    10   6    -0.04  -0.01  -0.03     0.03  -0.03  -0.02    -0.04   0.03  -0.04
    11   6    -0.05   0.02   0.00     0.04   0.01   0.01    -0.05   0.01  -0.03
    12   6    -0.00   0.04   0.02     0.09   0.04   0.01    -0.02  -0.04   0.10
    13   6     0.01   0.02   0.01     0.09   0.01  -0.03    -0.10  -0.05  -0.01
    14   6     0.01  -0.02  -0.00     0.07  -0.01   0.01    -0.08   0.03  -0.06
    15   6    -0.02  -0.02  -0.03     0.04  -0.02  -0.00    -0.01   0.03  -0.00
    16   6    -0.02  -0.03  -0.03     0.01  -0.02   0.01    -0.01   0.00   0.08
    17   6    -0.02  -0.04  -0.05    -0.03   0.01   0.04     0.00  -0.01   0.09
    18   6    -0.04  -0.01   0.04    -0.02   0.02  -0.02     0.05  -0.02  -0.06
    19   6    -0.01   0.01   0.04    -0.05   0.02  -0.04     0.02  -0.04  -0.06
    20   6    -0.01   0.04   0.04    -0.11   0.03  -0.05    -0.01  -0.11  -0.06
    21   6    -0.04   0.03  -0.03     0.07   0.03  -0.01     0.12   0.05  -0.02
    22   8    -0.05  -0.02  -0.01     0.05  -0.05  -0.01    -0.08   0.02   0.01
    23   6     0.14   0.02  -0.04    -0.01   0.00   0.01     0.07   0.03   0.04
    24   1    -0.04  -0.05   0.05    -0.21  -0.19   0.03    -0.02  -0.02   0.02
    25   1     0.03   0.00   0.11    -0.08  -0.02   0.15     0.04   0.07   0.08
    26   1     0.03  -0.01   0.01    -0.09  -0.05  -0.10     0.07   0.04  -0.02
    27   1     0.05  -0.01   0.02    -0.04   0.02  -0.02     0.08   0.06  -0.01
    28   1     0.04  -0.03   0.02    -0.08   0.10  -0.05     0.01   0.07  -0.05
    29   1    -0.03   0.14  -0.20     0.04  -0.04   0.17     0.15  -0.07   0.17
    30   1     0.18  -0.01  -0.19    -0.14   0.10   0.16    -0.08   0.07   0.15
    31   1     0.12   0.02   0.08    -0.05  -0.01  -0.08     0.05  -0.09  -0.19
    32   1    -0.02  -0.04   0.05     0.04   0.07  -0.05     0.15   0.11  -0.13
    33   1     0.00  -0.02   0.04     0.00   0.01  -0.01     0.09  -0.06  -0.00
    34   1     0.02  -0.09   0.03    -0.01  -0.04   0.01    -0.04   0.02   0.06
    35   1    -0.09   0.00   0.04     0.01   0.01   0.04    -0.10  -0.03   0.03
    36   1    -0.04  -0.05   0.08     0.04  -0.02   0.06    -0.06  -0.01   0.02
    37   1    -0.02  -0.00  -0.04     0.05  -0.03  -0.03    -0.06   0.02  -0.04
    38   1    -0.08   0.03   0.01    -0.00  -0.00   0.03    -0.07   0.12  -0.03
    39   1    -0.05   0.03   0.02     0.02   0.03   0.05    -0.02  -0.05  -0.11
    40   1    -0.00   0.06   0.06     0.08   0.05   0.05    -0.04  -0.05   0.24
    41   1     0.03   0.03   0.02     0.13   0.05   0.00     0.13  -0.06   0.08
    42   1     0.01   0.02   0.01     0.11  -0.02  -0.04    -0.16  -0.16  -0.00
    43   1     0.04   0.03   0.01     0.09   0.03  -0.06    -0.12  -0.03  -0.07
    44   1     0.01  -0.05  -0.00     0.05  -0.04   0.01    -0.06   0.12  -0.08
    45   1     0.02  -0.02   0.02     0.11  -0.02   0.03    -0.15   0.02  -0.13
    46   1    -0.03  -0.00  -0.03     0.00  -0.04   0.01    -0.04  -0.01   0.08
    47   1    -0.05  -0.03  -0.12    -0.03  -0.02   0.10     0.05  -0.02   0.15
    48   1     0.04  -0.10  -0.06    -0.07   0.07   0.05    -0.08   0.03   0.09
    49   1    -0.11  -0.03   0.05     0.02   0.02  -0.02     0.16   0.02  -0.07
    50   1    -0.03   0.01   0.09    -0.03   0.01  -0.04     0.01  -0.04  -0.15
    51   1    -0.12   0.12   0.05    -0.09   0.00  -0.06    -0.06  -0.09  -0.11
    52   1     0.10   0.10   0.04    -0.17   0.01  -0.08     0.03  -0.10  -0.03
    53   1    -0.02  -0.09   0.04    -0.13   0.08   0.00    -0.03  -0.18  -0.04
    54   1     0.26   0.17  -0.10     0.40   0.19  -0.07     0.21   0.08  -0.01
    55   1    -0.30   0.23   0.02    -0.22   0.25   0.06     0.11   0.10   0.05
    56   1    -0.07  -0.29  -0.01     0.04  -0.32  -0.02     0.14  -0.00  -0.10
    57   1     0.36   0.07  -0.01    -0.01  -0.02   0.02     0.09   0.00   0.05
    58   1     0.04   0.04   0.08    -0.00   0.04   0.03     0.06   0.07   0.07
    59   1     0.12  -0.05  -0.24    -0.00  -0.02   0.02     0.07   0.03   0.03
                     13                     14                     15
                      A                      A                      A
 Frequencies --    227.9383               237.3763               254.2313
 Red. masses --      1.2978                 1.2553                 1.3787
 Frc consts  --      0.0397                 0.0417                 0.0525
 IR Inten    --      0.5716                 0.0422                 0.0345
  Atom  AN      X      Y      Z        X      Y      Z        X      Y      Z
     1   6     0.05   0.03  -0.01     0.02  -0.00  -0.01    -0.01   0.04  -0.00
     2   6     0.02  -0.01   0.01     0.00  -0.00   0.01    -0.05   0.00   0.03
     3   6     0.02  -0.01   0.00    -0.01   0.01   0.00    -0.03  -0.01   0.04
     4   6     0.01  -0.01   0.03    -0.02   0.01  -0.03    -0.03  -0.01  -0.04
     5   6     0.02  -0.01  -0.01    -0.03   0.03  -0.02    -0.04   0.01  -0.06
     6   6     0.01  -0.01  -0.03    -0.01   0.02   0.02    -0.02   0.00   0.01
     7   6    -0.00  -0.02  -0.03    -0.01   0.01   0.03    -0.01   0.02   0.02
     8   6    -0.01   0.02   0.05    -0.01  -0.01  -0.01     0.01  -0.00  -0.01
     9   6    -0.01  -0.00   0.01    -0.01  -0.02  -0.02     0.01  -0.01  -0.00
    10   6    -0.03  -0.00  -0.01    -0.01  -0.02  -0.01     0.02  -0.01   0.00
    11   6    -0.03   0.01   0.00    -0.01   0.01  -0.02     0.02   0.00  -0.01
    12   6    -0.01   0.02   0.01     0.02   0.02   0.01     0.03  -0.00   0.00
    13   6    -0.00   0.01   0.01     0.02   0.01   0.01     0.01  -0.00  -0.01
    14   6    -0.00  -0.01  -0.01     0.02  -0.01   0.00     0.01   0.01   0.01
    15   6    -0.02  -0.01  -0.02     0.01  -0.02   0.02     0.02   0.00   0.02
    16   6    -0.01  -0.02  -0.03    -0.00   0.00   0.03     0.00   0.01   0.03
    17   6    -0.01  -0.00   0.03    -0.02   0.00  -0.00    -0.01  -0.00  -0.03
    18   6     0.00  -0.01   0.00    -0.00   0.04  -0.04    -0.01   0.02  -0.03
    19   6     0.02  -0.00  -0.02    -0.01   0.02   0.00    -0.02  -0.00   0.03
    20   6     0.02   0.03  -0.01    -0.01  -0.01   0.00     0.03  -0.06   0.03
    21   6    -0.05   0.00  -0.02     0.04  -0.04   0.01     0.06  -0.00   0.02
    22   8     0.02  -0.01  -0.01    -0.01  -0.03  -0.01     0.01  -0.01   0.00
    23   6     0.01  -0.01   0.02     0.03  -0.00   0.03    -0.00   0.00  -0.00
    24   1     0.15   0.17  -0.03     0.27   0.42  -0.07     0.05   0.12  -0.01
    25   1     0.05  -0.06  -0.14     0.05  -0.35  -0.35    -0.03   0.00  -0.09
    26   1    -0.00   0.01   0.12    -0.25  -0.06   0.38    -0.03   0.03   0.07
    27   1     0.02  -0.01   0.01    -0.01  -0.00   0.01    -0.08  -0.01   0.03
    28   1     0.00   0.00  -0.00    -0.01  -0.01   0.01    -0.04  -0.05   0.05
    29   1     0.04  -0.03   0.05    -0.03   0.03  -0.05    -0.03   0.04  -0.06
    30   1    -0.02   0.00   0.05    -0.02  -0.01  -0.05    -0.04  -0.06  -0.07
    31   1     0.00  -0.01  -0.01    -0.02   0.01  -0.03    -0.04  -0.03  -0.11
    32   1     0.05  -0.03  -0.01    -0.05   0.06  -0.02    -0.05   0.07  -0.08
    33   1     0.00  -0.01  -0.03     0.01   0.02   0.02    -0.00  -0.04   0.02
    34   1    -0.02  -0.05  -0.03     0.00   0.03   0.03    -0.00   0.04   0.02
    35   1    -0.02   0.11   0.06    -0.02  -0.05  -0.01     0.01  -0.03  -0.01
    36   1    -0.01  -0.02   0.13     0.01   0.01  -0.03     0.02   0.02  -0.04
    37   1    -0.03   0.02  -0.01    -0.02  -0.04  -0.00     0.01  -0.02   0.01
    38   1    -0.05   0.01   0.01    -0.01   0.05  -0.02     0.03   0.02  -0.01
    39   1    -0.03   0.02   0.01    -0.04   0.01  -0.04     0.01  -0.00  -0.03
    40   1    -0.01   0.03   0.02     0.02   0.03   0.04     0.02  -0.01   0.02
    41   1    -0.00   0.01   0.01     0.05   0.00   0.01     0.05  -0.00   0.00
    42   1    -0.02   0.03   0.02     0.02   0.01   0.01     0.02  -0.03  -0.01
    43   1     0.02   0.01   0.03     0.04   0.02   0.01     0.00  -0.00  -0.03
    44   1     0.01  -0.01  -0.01     0.02  -0.01   0.00     0.00   0.02   0.01
    45   1    -0.00  -0.01  -0.01     0.03  -0.02  -0.00     0.01   0.00   0.00
    46   1    -0.03  -0.05  -0.03    -0.00   0.02   0.03     0.02   0.04   0.03
    47   1    -0.00  -0.03   0.10    -0.02   0.01  -0.02    -0.01   0.02  -0.07
    48   1    -0.04   0.07   0.04    -0.04  -0.03  -0.01    -0.02  -0.06  -0.03
    49   1     0.02  -0.03   0.00     0.03   0.09  -0.04    -0.00   0.08  -0.04
    50   1    -0.01  -0.00   0.01    -0.01   0.02  -0.10    -0.03   0.00  -0.09
    51   1     0.42  -0.24   0.05    -0.10   0.05  -0.02     0.17  -0.17   0.03
    52   1    -0.41  -0.16  -0.08     0.08   0.03   0.02    -0.12  -0.14   0.06
    53   1     0.07   0.53   0.00    -0.02  -0.12  -0.00     0.05   0.09   0.00
    54   1     0.06   0.06  -0.05     0.09  -0.02   0.03     0.04  -0.02   0.03
    55   1    -0.18   0.09  -0.01    -0.00  -0.02   0.01     0.09  -0.02   0.02
    56   1    -0.08  -0.13   0.01     0.03  -0.10  -0.01     0.07   0.03  -0.01
    57   1    -0.02  -0.02   0.02    -0.16  -0.01  -0.01     0.49   0.02   0.11
    58   1     0.01  -0.00   0.01     0.17   0.03  -0.11    -0.31   0.01   0.33
    59   1     0.01   0.01   0.04     0.09  -0.03   0.23    -0.12  -0.02  -0.48
                     16                     17                     18
                      A                      A                      A
 Frequencies --    257.8317               268.2919               277.5348
 Red. masses --      2.0319                 2.0240                 1.9289
 Frc consts  --      0.0796                 0.0858                 0.0875
 IR Inten    --      0.3868                 2.0352                 0.4255
  Atom  AN      X      Y      Z        X      Y      Z        X      Y      Z
     1   6     0.03  -0.01  -0.02     0.05   0.05   0.02    -0.02  -0.03  -0.02
     2   6     0.02  -0.03  -0.00     0.02  -0.02   0.01    -0.01   0.01  -0.00
     3   6     0.02  -0.02   0.02     0.01  -0.03  -0.02    -0.01   0.02   0.01
     4   6    -0.02  -0.02  -0.02    -0.01  -0.03   0.01    -0.00   0.02  -0.02
     5   6    -0.03   0.03  -0.02    -0.03  -0.02   0.05     0.00   0.01   0.01
     6   6     0.01   0.05   0.02    -0.00   0.02  -0.05    -0.01   0.00  -0.01
     7   6    -0.00   0.04   0.04    -0.01   0.02  -0.04    -0.02  -0.02   0.02
     8   6    -0.01   0.02  -0.01     0.02   0.03   0.00    -0.03  -0.02   0.04
     9   6    -0.03  -0.02  -0.02     0.02  -0.03  -0.02    -0.02  -0.05  -0.03
    10   6    -0.06  -0.03  -0.01    -0.03  -0.03  -0.03    -0.02  -0.03  -0.03
    11   6    -0.06   0.04  -0.06    -0.04   0.02   0.04    -0.04   0.01   0.07
    12   6    -0.00   0.03   0.03     0.01   0.06   0.01     0.02   0.05   0.04
    13   6     0.01   0.03   0.04     0.00   0.04  -0.04     0.00  -0.02  -0.10
    14   6     0.00  -0.01  -0.01    -0.01   0.01  -0.00    -0.02  -0.02   0.04
    15   6    -0.01  -0.03   0.03    -0.03  -0.00  -0.00    -0.00  -0.00   0.02
    16   6    -0.01   0.01   0.06    -0.03  -0.01   0.01    -0.01  -0.02   0.02
    17   6    -0.02  -0.00   0.00    -0.02   0.02   0.11    -0.01  -0.04  -0.03
    18   6     0.01   0.05  -0.04     0.02  -0.02  -0.01    -0.02   0.01  -0.02
    19   6     0.03   0.03   0.01     0.02  -0.01  -0.06     0.00   0.01   0.00
    20   6     0.14   0.03   0.02     0.04  -0.01  -0.06     0.09   0.05   0.01
    21   6     0.03  -0.12   0.03    -0.08   0.03  -0.00     0.07   0.13   0.01
    22   8     0.01  -0.05  -0.02     0.09  -0.09  -0.01     0.01  -0.08  -0.02
    23   6    -0.07  -0.03  -0.04    -0.02  -0.02   0.03     0.00   0.01  -0.03
    24   1    -0.10  -0.30   0.03     0.07   0.14   0.00    -0.02  -0.08  -0.01
    25   1    -0.01   0.23   0.18     0.03   0.05  -0.04    -0.01  -0.02   0.01
    26   1     0.22   0.03  -0.28     0.07   0.05   0.10    -0.03  -0.02  -0.07
    27   1     0.02  -0.04   0.00     0.03  -0.00   0.01    -0.02  -0.00   0.00
    28   1     0.04  -0.03   0.02    -0.02  -0.01  -0.03    -0.00   0.01   0.02
    29   1    -0.03  -0.02  -0.03    -0.04  -0.06   0.01    -0.02   0.05  -0.04
    30   1    -0.03  -0.05  -0.03     0.00  -0.01   0.02     0.03   0.00  -0.04
    31   1    -0.06   0.02  -0.05    -0.05   0.05   0.13     0.01   0.02   0.03
    32   1    -0.06   0.08  -0.03    -0.03  -0.10   0.09    -0.01  -0.02   0.02
    33   1     0.04   0.05   0.02    -0.02   0.07  -0.05     0.00   0.01  -0.01
    34   1     0.01   0.08   0.04    -0.04   0.03  -0.04    -0.04  -0.03   0.02
    35   1    -0.03  -0.01  -0.01     0.01   0.09   0.01    -0.07   0.03   0.05
    36   1     0.01   0.04  -0.03     0.04   0.02   0.05     0.01  -0.03   0.10
    37   1    -0.10  -0.07   0.00    -0.01  -0.05  -0.03     0.02  -0.06  -0.03
    38   1    -0.04   0.14  -0.07    -0.10  -0.02   0.05    -0.11  -0.02   0.09
    39   1    -0.11   0.02  -0.14    -0.05   0.06   0.10    -0.02   0.04   0.14
    40   1    -0.01   0.07   0.08     0.00   0.07   0.06     0.01   0.04   0.14
    41   1     0.05  -0.02   0.02     0.06   0.10   0.01     0.13   0.13   0.03
    42   1    -0.02   0.06   0.05     0.01   0.00  -0.04     0.07  -0.19  -0.13
    43   1     0.05   0.03   0.07     0.01   0.06  -0.07    -0.05   0.05  -0.26
    44   1     0.04   0.02  -0.02    -0.03  -0.01   0.01    -0.12  -0.07   0.07
    45   1     0.01  -0.04  -0.05     0.04  -0.01   0.01     0.05  -0.00   0.12
    46   1    -0.02   0.02   0.06    -0.06  -0.08   0.01     0.01   0.00   0.02
    47   1    -0.01   0.02  -0.03     0.03  -0.02   0.26    -0.03  -0.01  -0.11
    48   1    -0.05  -0.06  -0.00    -0.09   0.16   0.13     0.01  -0.11  -0.04
    49   1     0.05   0.12  -0.05     0.12  -0.04  -0.02    -0.02   0.03  -0.02
    50   1    -0.03   0.04  -0.12    -0.02  -0.01  -0.03    -0.03   0.01  -0.03
    51   1     0.17   0.03   0.07    -0.23   0.17  -0.09     0.21  -0.01   0.09
    52   1     0.16   0.03   0.05     0.33   0.12  -0.02     0.02   0.01   0.01
    53   1     0.18   0.04  -0.06     0.00  -0.34  -0.07     0.14   0.17  -0.05
    54   1     0.24  -0.06   0.08    -0.11   0.04  -0.04    -0.19   0.04  -0.03
    55   1    -0.14  -0.02   0.00    -0.08   0.04  -0.00     0.34  -0.01   0.09
    56   1     0.02  -0.36  -0.00    -0.09   0.05   0.04     0.11   0.46  -0.04
    57   1    -0.20  -0.01  -0.07     0.23  -0.06   0.10    -0.15   0.04  -0.07
    58   1    -0.04  -0.10  -0.12    -0.20  -0.03   0.23     0.11   0.00  -0.15
    59   1    -0.08   0.03   0.04    -0.09   0.02  -0.21     0.04  -0.01   0.11
                     19                     20                     21
                      A                      A                      A
 Frequencies --    280.6617               301.4005               324.5340
 Red. masses --      2.6005                 2.5745                 2.4054
 Frc consts  --      0.1207                 0.1378                 0.1493
 IR Inten    --      0.7521                 0.0057                 0.3064
  Atom  AN      X      Y      Z        X      Y      Z        X      Y      Z
     1   6    -0.04   0.00  -0.00    -0.15  -0.07  -0.04    -0.06  -0.01   0.01
     2   6    -0.04  -0.01  -0.01    -0.10   0.07   0.01    -0.01   0.01  -0.04
     3   6    -0.03  -0.01  -0.03    -0.06   0.04   0.05     0.00  -0.00  -0.04
     4   6    -0.02  -0.01   0.02     0.02   0.05  -0.04     0.04  -0.01   0.02
     5   6    -0.02  -0.03   0.12     0.03  -0.02  -0.01     0.04  -0.05   0.03
     6   6    -0.01   0.01  -0.07    -0.00  -0.03  -0.04     0.03  -0.04  -0.01
     7   6    -0.02  -0.04  -0.03     0.00  -0.01  -0.05     0.01   0.02   0.01
     8   6    -0.02  -0.02   0.05     0.02   0.01   0.00     0.05  -0.01  -0.06
     9   6    -0.02   0.03   0.05     0.02   0.02   0.02     0.04  -0.01  -0.01
    10   6     0.01   0.03   0.03     0.00   0.02   0.01    -0.01  -0.01   0.03
    11   6     0.02  -0.01  -0.03     0.01  -0.00  -0.01    -0.00   0.06  -0.09
    12   6    -0.01  -0.06   0.01    -0.00  -0.01  -0.01     0.03   0.03   0.03
    13   6    -0.00  -0.05   0.02    -0.01   0.01   0.02    -0.07   0.04  -0.05
    14   6     0.01  -0.01  -0.00    -0.00   0.02  -0.03    -0.06   0.09  -0.02
    15   6     0.03  -0.01   0.01    -0.01   0.01  -0.01    -0.02   0.03   0.10
    16   6     0.02  -0.04   0.00    -0.00  -0.02   0.00    -0.00   0.02   0.05
    17   6     0.00  -0.04   0.01    -0.01   0.02   0.11     0.02  -0.05  -0.08
    18   6    -0.00  -0.02  -0.01     0.01  -0.03   0.02    -0.03  -0.07   0.05
    19   6     0.01   0.01  -0.08    -0.01  -0.03   0.01    -0.00  -0.03  -0.02
    20   6     0.11   0.17  -0.08     0.17  -0.12   0.03    -0.02   0.04  -0.02
    21   6     0.13  -0.01   0.00    -0.04   0.00  -0.01    -0.05  -0.01   0.11
    22   8    -0.08   0.10   0.01     0.04   0.02   0.01     0.09  -0.04   0.00
    23   6    -0.04  -0.02   0.01     0.03   0.08  -0.05     0.00   0.01   0.01
    24   1     0.03   0.16  -0.03    -0.09  -0.07  -0.04    -0.07   0.07  -0.01
    25   1    -0.02  -0.11  -0.11    -0.09  -0.22  -0.07    -0.02  -0.11  -0.01
    26   1    -0.12  -0.02   0.14    -0.32  -0.09  -0.05    -0.14  -0.03   0.09
    27   1    -0.03  -0.01  -0.01    -0.14   0.05   0.01     0.01   0.03  -0.04
    28   1    -0.06   0.01  -0.03    -0.06   0.01   0.06     0.00   0.02  -0.04
    29   1    -0.07  -0.01  -0.03    -0.01   0.16  -0.10     0.05  -0.03   0.04
    30   1     0.06   0.02  -0.01     0.09   0.00  -0.10     0.04   0.04   0.05
    31   1    -0.03   0.10   0.27     0.08   0.00   0.03     0.06  -0.02   0.08
    32   1    -0.04  -0.22   0.18     0.04  -0.08   0.01     0.06  -0.11   0.05
    33   1    -0.01   0.11  -0.09    -0.03  -0.05  -0.03     0.04  -0.03  -0.01
    34   1    -0.05  -0.06  -0.03    -0.01  -0.00  -0.05     0.00   0.09   0.01
    35   1    -0.00   0.04   0.05     0.05   0.06   0.00     0.09  -0.12  -0.08
    36   1    -0.06  -0.05   0.09     0.00  -0.00   0.03     0.02   0.04  -0.17
    37   1    -0.02   0.07   0.03    -0.01   0.04   0.01    -0.09  -0.08   0.05
    38   1     0.07   0.05  -0.05     0.02  -0.01  -0.01     0.07   0.23  -0.12
    39   1     0.02  -0.06  -0.11     0.01  -0.01  -0.02    -0.09   0.02  -0.24
    40   1    -0.00  -0.05   0.01    -0.00  -0.01  -0.02     0.01   0.00   0.20
    41   1    -0.01  -0.09   0.01    -0.02  -0.02  -0.01     0.20   0.00   0.01
    42   1    -0.01  -0.07   0.02    -0.04   0.05   0.03    -0.09  -0.05  -0.05
    43   1    -0.01  -0.05   0.01    -0.00  -0.01   0.06    -0.11   0.06  -0.10
    44   1     0.02   0.01  -0.01     0.04   0.07  -0.05    -0.08   0.23  -0.03
    45   1    -0.03  -0.00  -0.02    -0.03   0.01  -0.09    -0.07   0.03  -0.13
    46   1     0.04  -0.07   0.00    -0.03  -0.09   0.00     0.06   0.07   0.05
    47   1    -0.01  -0.04   0.02     0.01  -0.03   0.24     0.02   0.03  -0.26
    48   1    -0.01  -0.03   0.01    -0.06   0.15   0.12     0.09  -0.23  -0.10
    49   1     0.01  -0.07  -0.01     0.07  -0.05   0.02    -0.15  -0.19   0.06
    50   1    -0.03   0.01   0.02     0.02  -0.04   0.01     0.01  -0.04   0.20
    51   1     0.05   0.27   0.06     0.21  -0.14   0.05     0.03   0.01   0.02
    52   1     0.23   0.25  -0.14     0.23  -0.14   0.17    -0.09   0.02  -0.07
    53   1     0.14   0.13  -0.14     0.23  -0.17  -0.10    -0.01   0.13  -0.02
    54   1     0.25   0.03   0.02     0.02   0.04  -0.03    -0.01  -0.01   0.12
    55   1     0.09   0.04   0.05    -0.13   0.06  -0.01    -0.10   0.00   0.08
    56   1     0.14  -0.11  -0.08    -0.06  -0.09   0.03    -0.05  -0.07   0.13
    57   1     0.14  -0.05   0.06    -0.03   0.17  -0.10     0.04  -0.03   0.04
    58   1    -0.16  -0.00   0.15     0.16   0.12  -0.16    -0.01   0.05   0.06
    59   1    -0.08  -0.00  -0.15     0.10  -0.05   0.03    -0.00   0.01  -0.00
                     22                     23                     24
                      A                      A                      A
 Frequencies --    328.5746               344.7549               354.2370
 Red. masses --      2.8198                 2.1898                 2.4915
 Frc consts  --      0.1794                 0.1533                 0.1842
 IR Inten    --      1.0194                 0.9066                 0.1420
  Atom  AN      X      Y      Z        X      Y      Z        X      Y      Z
     1   6    -0.06   0.01  -0.00     0.03   0.05  -0.01     0.00   0.12  -0.01
     2   6    -0.02   0.03  -0.03    -0.00   0.02   0.01     0.00   0.05  -0.06
     3   6    -0.01  -0.00  -0.02    -0.02  -0.01   0.01    -0.01  -0.02  -0.06
     4   6     0.01  -0.01   0.01    -0.05  -0.02   0.00    -0.11  -0.06   0.01
     5   6     0.01  -0.03   0.01    -0.06  -0.01  -0.00    -0.14  -0.01   0.00
     6   6     0.00  -0.02  -0.02    -0.04   0.00  -0.03    -0.06   0.01   0.01
     7   6     0.02   0.06  -0.05    -0.02   0.02  -0.06    -0.06   0.01   0.06
     8   6    -0.02   0.11  -0.03    -0.04   0.06   0.03    -0.01  -0.05   0.01
     9   6    -0.02   0.02  -0.04    -0.03   0.02   0.00     0.00  -0.05  -0.01
    10   6    -0.05   0.00  -0.02    -0.00  -0.01  -0.00     0.03  -0.02   0.00
    11   6    -0.09   0.03   0.08     0.01   0.01  -0.09     0.04  -0.04   0.04
    12   6    -0.12   0.05   0.03     0.10  -0.04   0.04     0.01  -0.02  -0.05
    13   6    -0.03   0.01   0.06     0.05  -0.08  -0.09     0.02   0.04   0.04
    14   6    -0.03  -0.07   0.08     0.02  -0.05   0.08     0.02   0.04  -0.05
    15   6     0.01  -0.01  -0.02     0.02  -0.00   0.03     0.00   0.01  -0.00
    16   6     0.03   0.06  -0.05     0.02   0.03  -0.04    -0.02   0.02   0.04
    17   6     0.07   0.05  -0.06     0.04   0.06  -0.00     0.03  -0.04  -0.00
    18   6     0.03  -0.05   0.07     0.03  -0.01   0.03     0.01  -0.05   0.05
    19   6     0.00  -0.03  -0.01    -0.01  -0.01   0.00    -0.01  -0.03  -0.02
    20   6    -0.02  -0.03  -0.01    -0.01  -0.03   0.01     0.07   0.01  -0.02
    21   6     0.16  -0.11  -0.04    -0.07  -0.06   0.04     0.01   0.02  -0.00
    22   8     0.06  -0.07  -0.01    -0.06   0.03   0.01    -0.01  -0.04  -0.02
    23   6     0.02   0.03   0.01     0.07   0.04   0.00     0.14   0.07   0.02
    24   1    -0.08   0.05  -0.01     0.01  -0.02   0.00    -0.10   0.07  -0.01
    25   1    -0.03  -0.05   0.01    -0.01   0.14   0.01    -0.02   0.23   0.07
    26   1    -0.11  -0.00   0.04     0.10   0.06  -0.08     0.12   0.13  -0.04
    27   1    -0.02   0.05  -0.03    -0.01   0.03   0.01     0.04   0.08  -0.06
    28   1    -0.00   0.01  -0.03    -0.02  -0.02   0.01     0.01  -0.01  -0.06
    29   1     0.02  -0.04   0.03    -0.05  -0.03   0.00    -0.09  -0.17   0.06
    30   1    -0.01   0.02   0.04    -0.05  -0.03   0.00    -0.18  -0.03   0.07
    31   1     0.00  -0.00   0.04    -0.07   0.01   0.02    -0.17  -0.00  -0.01
    32   1     0.02  -0.07   0.02    -0.05  -0.04   0.01    -0.16   0.02  -0.00
    33   1    -0.01  -0.02  -0.03    -0.07  -0.00  -0.03    -0.01   0.04   0.01
    34   1     0.04   0.05  -0.05    -0.04  -0.01  -0.05    -0.07   0.04   0.05
    35   1    -0.04   0.20  -0.02    -0.06   0.19   0.04    -0.02  -0.10   0.01
    36   1     0.01   0.08   0.06    -0.00   0.02   0.15     0.02  -0.01  -0.04
    37   1    -0.00  -0.02  -0.03    -0.06  -0.03   0.01     0.06  -0.03  -0.00
    38   1    -0.15  -0.02   0.10     0.06   0.16  -0.11     0.03  -0.15   0.05
    39   1    -0.04   0.05   0.14    -0.02  -0.05  -0.22     0.06   0.00   0.12
    40   1    -0.10   0.06  -0.09     0.07  -0.01   0.24     0.02  -0.03  -0.15
    41   1    -0.24   0.07   0.05     0.31  -0.04   0.01    -0.10  -0.02  -0.03
    42   1     0.01   0.02   0.05     0.14  -0.28  -0.13    -0.04   0.17   0.07
    43   1     0.03   0.03   0.05    -0.05  -0.02  -0.28     0.04  -0.02   0.17
    44   1    -0.06  -0.23   0.10    -0.11  -0.17   0.13     0.10   0.14  -0.08
    45   1     0.01  -0.01   0.22     0.09  -0.00   0.22    -0.02  -0.00  -0.16
    46   1     0.07   0.07  -0.05     0.06   0.01  -0.04    -0.05   0.06   0.04
    47   1     0.08   0.08  -0.10     0.05   0.04   0.05     0.04   0.01  -0.09
    48   1     0.16   0.03  -0.06     0.06   0.12   0.00     0.08  -0.13  -0.01
    49   1    -0.09  -0.19   0.08    -0.01  -0.07   0.04    -0.03  -0.15   0.05
    50   1     0.11  -0.03   0.24     0.08  -0.01   0.10     0.04  -0.03   0.13
    51   1     0.00  -0.06  -0.03    -0.01  -0.04  -0.02     0.14  -0.02   0.06
    52   1    -0.05  -0.06   0.00     0.00  -0.04   0.03     0.05  -0.01  -0.00
    53   1    -0.02  -0.02  -0.00    -0.01  -0.06   0.00     0.11   0.07  -0.10
    54   1     0.24  -0.13   0.09    -0.07  -0.08   0.08     0.02   0.03  -0.02
    55   1     0.21  -0.14  -0.04    -0.11  -0.08  -0.03    -0.01   0.03   0.01
    56   1     0.20  -0.16  -0.18    -0.08  -0.11   0.08     0.00   0.01   0.01
    57   1     0.08   0.01   0.03     0.03   0.07  -0.02     0.08   0.03   0.02
    58   1     0.03   0.09   0.05     0.16   0.09  -0.06     0.29   0.23  -0.02
    59   1     0.04  -0.01  -0.01     0.12  -0.05   0.06     0.23  -0.07   0.17
                     25                     26                     27
                      A                      A                      A
 Frequencies --    359.3891               383.0899               400.3764
 Red. masses --      2.7626                 2.4142                 2.4327
 Frc consts  --      0.2102                 0.2088                 0.2298
 IR Inten    --      0.4132                 0.2397                 0.3518
  Atom  AN      X      Y      Z        X      Y      Z        X      Y      Z
     1   6     0.14   0.03  -0.01    -0.01   0.02  -0.03    -0.06   0.06  -0.01
     2   6     0.01  -0.02   0.11    -0.08   0.02   0.08    -0.03   0.01  -0.08
     3   6    -0.04   0.01   0.08    -0.05  -0.04   0.09     0.01  -0.04  -0.02
     4   6    -0.04   0.02  -0.01     0.02  -0.04   0.01    -0.02  -0.07   0.00
     5   6    -0.03  -0.02  -0.00     0.03  -0.08   0.01    -0.03  -0.02   0.00
     6   6    -0.05  -0.02  -0.09    -0.01  -0.08  -0.01     0.00  -0.02   0.07
     7   6    -0.02  -0.02  -0.12    -0.00  -0.02  -0.01     0.04  -0.04   0.00
     8   6     0.05  -0.00  -0.03    -0.04   0.01   0.01     0.07  -0.05  -0.04
     9   6     0.05   0.02   0.07    -0.02  -0.03  -0.05     0.06   0.04   0.07
    10   6    -0.01   0.01   0.06     0.01  -0.01  -0.01    -0.00   0.04   0.01
    11   6    -0.00   0.03  -0.01     0.01  -0.00   0.02    -0.02   0.07  -0.02
    12   6    -0.02   0.02   0.01    -0.02  -0.00  -0.01    -0.04   0.04   0.05
    13   6    -0.02   0.02   0.01    -0.04   0.02   0.01    -0.04   0.00  -0.02
    14   6    -0.02   0.02  -0.01    -0.02   0.05  -0.03    -0.05  -0.07   0.05
    15   6    -0.01  -0.01   0.03     0.02   0.03   0.03    -0.02  -0.02  -0.06
    16   6    -0.03  -0.05  -0.02     0.06   0.03  -0.00    -0.01  -0.06  -0.03
    17   6    -0.10  -0.03  -0.01     0.07   0.05  -0.01    -0.03  -0.04   0.02
    18   6    -0.11  -0.02  -0.01     0.10   0.03  -0.11     0.02   0.02  -0.07
    19   6    -0.05   0.00  -0.01    -0.01  -0.06   0.03    -0.00  -0.03   0.06
    20   6    -0.05  -0.04  -0.01    -0.06   0.12   0.03     0.01   0.05   0.07
    21   6     0.13   0.02   0.02    -0.01  -0.01   0.04    -0.01  -0.00  -0.08
    22   8     0.10   0.02   0.01    -0.00  -0.07  -0.02     0.08   0.06   0.03
    23   6     0.07  -0.00  -0.02     0.04   0.04  -0.02     0.06   0.01   0.02
    24   1     0.23  -0.12   0.03     0.06  -0.06  -0.00    -0.17   0.10  -0.03
    25   1     0.04   0.21  -0.06    -0.06   0.09  -0.07    -0.05   0.09   0.06
    26   1     0.29   0.06  -0.17     0.04   0.04  -0.12    -0.01   0.06   0.04
    27   1    -0.03  -0.06   0.11    -0.14  -0.01   0.08    -0.01   0.03  -0.08
    28   1    -0.11  -0.02   0.08    -0.10  -0.08   0.09     0.08  -0.05  -0.01
    29   1    -0.07   0.12  -0.07     0.01   0.05  -0.03    -0.01  -0.13   0.03
    30   1     0.03  -0.04  -0.07     0.08  -0.08  -0.03    -0.06  -0.05   0.03
    31   1    -0.03   0.04   0.07     0.04  -0.08   0.02    -0.05  -0.06  -0.06
    32   1    -0.01  -0.13   0.03     0.05  -0.11   0.01    -0.06   0.06  -0.03
    33   1    -0.12  -0.03  -0.09    -0.03  -0.10  -0.01    -0.01  -0.03   0.07
    34   1    -0.06  -0.02  -0.12    -0.02  -0.03  -0.01     0.10  -0.04   0.00
    35   1     0.18   0.01  -0.05    -0.09   0.08   0.02     0.20  -0.21  -0.06
    36   1    -0.02  -0.01  -0.07     0.01  -0.01   0.09    -0.05  -0.01  -0.21
    37   1    -0.03   0.05   0.06     0.02  -0.08  -0.01    -0.01   0.13   0.00
    38   1     0.06   0.09  -0.03    -0.01  -0.04   0.02     0.02   0.19  -0.04
    39   1    -0.05   0.01  -0.08     0.02   0.01   0.04    -0.05   0.03  -0.13
    40   1    -0.02   0.01  -0.00    -0.02  -0.03  -0.05    -0.05   0.02   0.10
    41   1    -0.03   0.01   0.01    -0.07   0.00  -0.00     0.02   0.05   0.04
    42   1    -0.03   0.01   0.01    -0.06   0.05   0.02    -0.02  -0.07  -0.03
    43   1    -0.01   0.02   0.01    -0.04  -0.00   0.05    -0.01   0.05  -0.09
    44   1     0.01   0.09  -0.02     0.01   0.15  -0.04    -0.14  -0.26   0.09
    45   1    -0.04  -0.00  -0.07    -0.06   0.02  -0.11     0.02   0.01   0.24
    46   1     0.03  -0.12  -0.02     0.09   0.03  -0.00    -0.06  -0.08  -0.03
    47   1    -0.11  -0.05   0.02     0.10   0.03   0.06    -0.03  -0.07   0.08
    48   1    -0.11  -0.00  -0.00    -0.01   0.10  -0.00    -0.08   0.01   0.03
    49   1    -0.14  -0.06  -0.00     0.22   0.27  -0.13     0.12   0.24  -0.08
    50   1    -0.10  -0.00   0.04     0.13  -0.09  -0.36    -0.03  -0.04  -0.29
    51   1    -0.09  -0.04  -0.07    -0.14   0.22   0.12    -0.02   0.10   0.16
    52   1    -0.04  -0.05   0.03    -0.04   0.20  -0.16     0.04   0.10  -0.01
    53   1    -0.07  -0.10   0.02    -0.10   0.15   0.11     0.01   0.07   0.06
    54   1     0.22   0.06   0.03    -0.02  -0.02   0.06    -0.01  -0.01  -0.08
    55   1     0.15   0.06   0.13    -0.04  -0.02  -0.00     0.01  -0.01  -0.07
    56   1     0.16  -0.00  -0.11    -0.03  -0.04   0.08    -0.00   0.02  -0.10
    57   1    -0.09   0.13  -0.10     0.06   0.17  -0.07     0.06  -0.06   0.04
    58   1     0.20  -0.05  -0.20     0.13   0.07  -0.10     0.13   0.15   0.04
    59   1     0.13  -0.08   0.09     0.10  -0.12  -0.04     0.11  -0.06   0.09
                     28                     29                     30
                      A                      A                      A
 Frequencies --    419.5903               428.1726               435.4315
 Red. masses --      2.7322                 3.4676                 2.8323
 Frc consts  --      0.2834                 0.3746                 0.3164
 IR Inten    --      0.7201                 0.1060                 1.0299
  Atom  AN      X      Y      Z        X      Y      Z        X      Y      Z
     1   6     0.05  -0.03   0.00     0.00  -0.05   0.00     0.03  -0.06  -0.00
     2   6    -0.00   0.01   0.09     0.01   0.04   0.05    -0.01   0.07   0.13
[...]
 .00013348,0.00004792,-0.00016916,-0.00026752,-0.00334004,0.00341943,-0
 .00256076,0.00002676,-0.00037756,-0.00108675,0.00022777,-0.00024667,-0
 .00004277,-0.00001880,-0.00003564,-0.00007007,0.00000064,-0.00002903,-
 0.00001325,0.00003617,0.00000032,-0.00000029,-0.00000875,-0.00001107,-
 0.00007640,0.00002641,0.00000608,-0.00001314,-0.00000367,0.00000079,-0
 .00000556,0.00001041,-0.00000270,0.00000618,-0.00000157,-0.00000066,-0
 .00000497,0.00000050,0.00000129,-0.00000207,0.00000374,0.00000369,0.00
 000316,0.00000331,0.00000309,0.00000195,-0.00000053,-0.00000111,-0.000
 00067,0.00000425,0.00000217,-0.00000148,-0.00000041,0.00000277,0.00000
 124,0.00000157,-0.00000229,-0.00000718,0.00000167,-0.00000728,0.000007
 70,-0.00000080,-0.00000808,-0.00000977,-0.00001024,-0.00001425,0.00000
 086,0.00007041,0.00007166,-0.00003784,-0.00005990,-0.00017633,-0.00034
 120,-0.00006819,-0.00002658,0.00032243,0.00004630,0.00011522,-0.000235
 13,0.00006699,-0.00008498,-0.00007076,-0.00004982,-0.00005731,-0.00008
 621,0.00000532,-0.00000367,0.00000156,-0.00000507,-0.00000204,0.000008
 27,0.00000759,0.00000258,-0.00000186,0.12987482,0.00028835,0.00078404,
 -0.00150175,0.00994369,-0.00827318,-0.01496224,-0.00110501,0.00044896,
 -0.00056929,-0.00013985,-0.00010922,0.00013875,-0.00003751,0.00003228,
 0.00004529,0.00007739,0.00002189,-0.00003526,-0.00000021,0.00000105,0.
 00001632,0.00001257,0.00001106,-0.00000676,-0.00002317,-0.00001026,0.0
 0000579,0.00000829,0.00000854,-0.00000587,0.00000011,-0.00000362,0.000
 00447,0.00000225,0.00000048,-0.00000333,-0.00000272,-0.00000372,0.0000
 0140,0.00000459,0.00000126,-0.00000266,0.00000149,-0.00001500,0.000015
 80,0.00001398,0.00003909,-0.00003893,0.00005132,-0.00005205,0.00009237
 ,-0.00000503,0.00012422,-0.00020284,-0.00002091,0.00010054,0.00022930,
 0.00005558,-0.00000731,0.00019298,0.00000196,0.00000523,0.00000155,0.0
 0002258,0.00000532,-0.00000127,0.05400560,-0.09121247,-0.07757876,-0.0
 0025217,-0.00020828,0.00079385,0.00007678,-0.00003755,-0.00000057,-0.0
 0026250,0.00022967,0.00036992,0.00274804,-0.00177897,0.00190164,0.0001
 1045,0.00036846,0.00066183,-0.00013631,0.00010190,-0.00003886,0.000035
 21,0.00001011,0.00006436,0.00001603,0.00000622,0.00001065,-0.00000375,
 -0.00001005,-0.00001358,-0.00000619,0.00000420,-0.00002151,0.00000896,
 0.00000298,-0.00000366,-0.00000355,-0.00000006,-0.00000032,0.00000171,
 -0.00000134,0.00000210,-0.00000148,-0.00000040,-0.00000162,-0.00000015
 ,0.00000050,-0.00000068,0.00000279,0.00000213,0.00000194,0.00000186,0.
 00000291,0.00000127,-0.00000123,-0.00000069,0.00000078,0.00000211,0.00
 000059,-0.00000023,-0.00000052,0.00000328,0.00000070,-0.00000031,-0.00
 000103,-0.00000246,0.00000025,-0.00000337,0.00000432,-0.00000280,-0.00
 000099,0.00000025,-0.00000720,-0.00000613,-0.00000089,0.00002456,0.000
 01582,-0.00001225,-0.00012452,-0.00005037,-0.00007774,-0.00003177,0.00
 006108,0.00035175,0.00009394,-0.00005324,-0.00014855,-0.00012946,-0.00
 000065,-0.00008388,-0.00005731,0.00005098,-0.00001303,-0.00000054,-0.0
 0000113,0.00000078,-0.00000227,-0.00000195,0.00000378,0.00000393,0.000
 00280,-0.00000149,-0.06253493,0.09573449,-0.00031101,-0.00029293,0.000
 82268,-0.00608234,0.00503619,0.00961888,-0.00020782,0.00008875,0.00131
 428,-0.00006415,0.00032338,0.00015416,0.00002192,-0.00004726,0.0000068
 7,-0.00004726,0.00005472,0.00001245,0.00001768,-0.00003014,-0.00001098
 ,0.00000564,0.00003321,0.00000212,-0.00000035,-0.00004866,0.00000384,-
 0.00001023,0.00000100,-0.00000214,-0.00000459,0.00000134,-0.00000557,0
 .00000337,-0.00000108,-0.00000023,-0.00000076,0.00000295,-0.00000113,0
 .00000892,0.00000143,-0.00000169,-0.00001194,0.00001520,-0.00001961,0.
 00000069,-0.00006367,0.00004197,-0.00011399,0.00011648,-0.00005742,-0.
 00002907,-0.00029975,0.00019344,0.00006495,-0.00020024,-0.00017667,-0.
 00013443,0.00005166,-0.00019203,0.00000169,-0.00000317,-0.00000144,0.0
 0000355,0.00002238,0.00000156,0.10191856,-0.07707549,-0.19487358,0.000
 08600,-0.00036682,0.00013033,0.00006554,0.00008286,-0.00007274,-0.0000
 2474,-0.00022124,0.00015187,-0.00220145,0.00170398,0.00025622,0.000491
 97,0.00008361,0.00020823,-0.00004602,-0.00006546,-0.00016268,0.0000139
 0,-0.00003993,-0.00002590,0.00001516,0.00001601,0.00001198,0.00000158,
 0.00001056,0.00000024,0.00001314,-0.00000305,0.00002725,-0.00001380,0.
 00000069,0.00000614,-0.00000089,-0.00000180,0.00000315,-0.00000898,0.0
 0000266,-0.00000450,0.00000135,-0.00000068,0.00000304,-0.00000075,-0.0
 0000035,0.00000135,-0.00000127,-0.00000127,-0.00000100,-0.00000134,0.0
 0000133,-0.00000081,-0.00000103,0.00000005,0.00000174,-0.00000235,-0.0
 0000237,0.00000143,-0.00000080,0.00000414,0.00000029,-0.00000159,0.000
 00032,0.00000748,-0.00000055,0.00000340,-0.00000654,0.00000044,0.00000
 366,0.00000769,0.00001374,0.00004010,0.00000297,-0.00004333,-0.0000481
 9,0.00002492,0.00002970,0.00001688,0.00024631,-0.00000850,-0.00004776,
 -0.00038227,-0.00003691,-0.00002305,0.00014804,0.00004825,0.00001073,0
 .00004815,0.00009420,-0.00001094,0.00002927,-0.00000902,0.00000336,0.0
 0000012,0.00000391,-0.00000228,-0.00000325,-0.00000142,0.00000189,0.00
 000056,-0.11156085,0.08529474,0.21005125,-0.00409178,0.00222528,-0.001
 57861,0.01126970,0.01926286,-0.01491743,0.00103321,-0.00016709,0.00030
 892,0.00002046,0.00002806,0.00017845,0.00003704,-0.00000354,0.00005060
 ,-0.00011405,-0.00000865,0.00001446,0.00001677,-0.00003725,-0.00000480
 ,0.00000671,0.00004517,0.00000728,-0.00002273,-0.00005744,0.00000849,-
 0.00000651,0.00000448,-0.00000296,-0.00000469,-0.00000141,-0.00000275,
 0.00000345,-0.00000078,-0.00000045,-0.00000372,0.00000002,-0.00000005,
 0.00001077,0.00000296,0.00000372,-0.00002002,0.00000252,-0.00001668,-0
 .00002367,-0.00006633,0.00002632,-0.00012134,0.00003458,-0.00021122,-0
 .00054314,-0.00110802,-0.00006861,-0.00000304,-0.00020154,-0.00033169,
 -0.00066594,0.00004266,-0.00040408,0.00000680,0.00000376,-0.00000026,0
 .00002737,0.00002534,-0.00000139,-0.08151991,-0.06862908,0.05403754,-0
 .00004359,-0.00007142,-0.00028155,0.00000281,0.00019798,0.00029115,0.0
 0069064,0.00149074,-0.00073588,0.00121509,-0.00071036,0.00057047,-0.00
 005335,-0.00002160,-0.00002324,0.00003929,0.00002647,-0.00000810,0.000
 06697,-0.00003874,0.00009898,0.00001112,-0.00000476,0.00001540,-0.0000
 2314,-0.00000292,-0.00000868,0.00002673,0.00000594,0.00006498,-0.00002
 066,-0.00000410,0.00001056,-0.00000101,0.00000025,0.00000231,-0.000003
 28,0.00000073,-0.00000276,0.00000159,-0.00000098,-0.00000061,0.0000001
 4,0.00000034,-0.00000008,0.00000010,0.00000020,0.00000043,0.00000030,0
 .00000366,0.00000017,-0.00000107,-0.00000035,0.00000011,0.00000152,-0.
 00000104,-0.00000023,-0.00000124,0.00000592,0.00000174,-0.00000023,-0.
 00000023,0.00000119,-0.00000102,0.00000024,-0.00000351,0.00000025,0.00
 000155,0.00000506,0.00000964,0.00004905,0.00001739,-0.00001065,-0.0000
 2533,0.00002358,0.00012515,0.00007061,0.00011437,-0.00039090,-0.001068
 11,-0.00089838,-0.00082587,-0.00001478,0.00049721,0.00012466,-0.000017
 15,0.00007204,0.00014206,-0.00001063,0.00007811,-0.00001067,0.00000124
 ,0.00000009,0.00000072,-0.00000684,0.00000115,0.00000286,0.00000556,0.
 00000119,-0.00651064,-0.01335716,0.00852205,0.08758721,0.00457263,-0.0
 0178983,0.00114247,-0.00777586,-0.01336409,0.00899827,-0.00028352,0.00
 006196,-0.00051669,0.00011441,0.00010004,-0.00006140,-0.00003192,-0.00
 002920,0.00002194,0.00016117,-0.00001674,-0.00010108,-0.00001255,-0.00
 000502,0.00005236,0.00002133,0.00001748,-0.00000750,0.00000615,-0.0000
 2557,0.00000586,-0.00000763,-0.00000521,0.00000241,-0.00000484,0.00000
 385,-0.00000472,-0.00000011,0.00000032,0.00000333,0.00000019,0.0000029
 0,0.00000121,0.00000009,0.00000421,0.00000205,-0.00002414,0.00001988,-
 0.00001466,-0.00003190,-0.00007613,0.00000999,-0.00012896,0.00007916,-
 0.00023508,-0.00079400,-0.00132145,-0.00052746,0.00018801,0.00021452,0
 .00076707,0.00011564,0.00000967,0.00059385,0.00000486,-0.00000329,0.00
 000345,-0.00000511,0.00001150,-0.00000524,-0.06811874,-0.19406784,0.11
 460805,-0.00014621,0.00014671,0.00014344,0.00024130,0.00056775,-0.0001
 0790,-0.00051019,-0.00099179,0.00099623,-0.00030447,0.00031506,-0.0005
 4291,0.00003207,0.00002936,-0.00001567,-0.00005439,-0.00001674,0.00004
 359,-0.00004980,0.00002970,-0.00010553,0.00003609,0.00001446,-0.000003
 01,0.00006740,0.00001482,-0.00000552,-0.00003198,-0.00001108,-0.000072
 45,0.00003550,0.00001290,-0.00001505,-0.00000318,-0.00000504,-0.000008
 21,-0.00001182,0.00000199,-0.00000070,0.00000213,0.00000024,-0.0000016
 7,0.00000210,0.00000026,0.00000026,-0.00000296,-0.00000271,-0.00000303
 ,-0.00000176,-0.00000124,-0.00000089,0.00000121,0.00000054,-0.00000197
 ,0.00000053,0.00000086,-0.00000138,0.00000015,-0.00000183,-0.00000060,
 0.00000180,-0.00000016,-0.00000198,-0.00000323,0.00000367,-0.00000296,
 0.00000347,-0.00000550,-0.00000708,0.00001285,0.00000495,-0.00002022,0
 .00001672,0.00003807,-0.00001242,0.00012105,-0.00004245,-0.00005794,-0
 .00150237,-0.00114006,-0.00128548,-0.00000005,0.00014717,-0.00049250,-
 0.00015887,-0.00002058,-0.00009693,-0.00016545,0.00001163,-0.00016698,
 0.00000346,0.00000078,0.00000351,-0.00000374,0.00000684,-0.00000703,-0
 .00000310,-0.00000265,-0.00000088,0.00467437,0.01140041,-0.00819800,0.
 07608259,0.21310954,-0.00284686,0.00080300,-0.00024530,0.00517615,0.00
 654855,-0.00675724,0.00071635,0.00054551,-0.00007709,-0.00015046,-0.00
 009890,0.00011376,0.00007422,0.00006762,0.00006779,-0.00001131,-0.0002
 1370,-0.00007993,-0.00003575,0.00002831,0.00001406,0.00001860,0.000001
 65,-0.00001014,-0.00009109,0.00000976,0.00001218,0.00004119,0.00003988
 ,-0.00001977,0.00000833,-0.00001930,0.00002426,0.00000633,0.00000184,-
 0.00001317,-0.00000986,-0.00001737,0.00000652,0.00001498,0.00000100,-0
 .00001411,0.00003386,-0.00009804,0.00008380,0.00003417,0.00023694,-0.0
 0018111,0.00027753,-0.00033268,0.00053761,-0.00079510,0.00044160,-0.00
 118491,-0.00045815,0.00039785,-0.00023044,0.00007631,-0.00018668,-0.00
 009936,0.00000051,0.00003118,-0.00000170,0.00008623,-0.00000306,-0.000
 00363,0.05296341,0.11352256,-0.13818975,-0.00015186,-0.00037661,0.0003
 5292,0.00023393,0.00015068,0.00019135,0.00041125,0.00084588,0.00007992
 ,-0.00025222,-0.00036608,0.00077921,-0.00005950,0.00005692,0.00005906,
 0.00004004,-0.00003846,-0.00003825,0.00005684,-0.00006915,0.00007363,-
 0.00000539,-0.00006667,0.00001172,-0.00003487,-0.00003141,-0.00000751,
 0.00000148,0.00001631,0.00001644,-0.00000268,-0.00001029,-0.00000173,-
 0.00000664,0.00000637,0.00000159,0.00002551,-0.00000706,0.00001326,-0.
 00000621,-0.00000182,-0.00000710,-0.00000145,0.00000244,-0.00000393,0.
 00001251,0.00001172,0.00000969,0.00000829,0.00001076,0.00000566,-0.000
 00413,-0.00000286,0.00000287,0.00000794,0.00000192,-0.00000104,-0.0000
 0163,0.00001355,0.00000346,-0.00000079,-0.00000443,-0.00000696,0.00000
 491,-0.00001824,0.00001867,-0.00000985,-0.00000229,0.00001015,-0.00002
 827,-0.00000465,-0.00000025,0.00003194,0.00001732,-0.00003974,0.000045
 66,0.00004651,0.00017909,0.00012862,-0.00134098,0.00072602,0.00005436,
 0.00011234,0.00038725,0.00020701,-0.00003940,0.00000156,0.00006650,-0.
 00001680,0.00006675,-0.00000075,-0.00000726,0.00000111,-0.00000766,-0.
 00001467,0.00002317,0.00002054,0.00001212,-0.00000402,0.00843212,0.019
 09806,-0.01403486,-0.05811023,-0.12544019,0.14518008,0.00078648,-0.001
 75756,0.00056157,-0.01616851,-0.01470157,-0.01514889,-0.00248689,0.004
 91612,0.00020457,-0.00032135,-0.00119439,-0.00088245,-0.00018533,0.000
 25948,-0.00024407,-0.00007878,0.00002273,0.00009027,0.00002269,0.00002
 378,-0.00003846,-0.00004597,-0.00007903,0.00000663,0.00008510,0.000101
 21,-0.00001988,-0.00000925,-0.00002244,0.00001327,0.00000897,0.0000063
 7,-0.00000458,-0.00000862,0.00000053,0.00000585,0.00001076,0.00000452,
 -0.00000375,-0.00002338,-0.00000704,0.00000521,0.00002453,0.00001604,-
 0.00001385,-0.00003890,-0.00001406,0.00002856,0.00006763,-0.00001063,-
 0.00009857,0.00003518,0.00000506,0.00022202,0.00035589,0.00035371,0.00
 007059,0.00002144,-0.00005179,0.00003476,-0.00001022,-0.00001092,-0.00
 000233,-0.00008146,-0.00004619,0.00000634,-0.14755966,-0.09063844,-0.0
 8765883,0.00008403,0.00016475,0.00003095,0.00072097,0.00092392,0.00002
 233,0.00010652,-0.00002539,0.00056540,0.00036125,-0.00033426,0.0006873
 1,0.00019713,-0.00008479,-0.00025621,0.00001261,-0.00000156,0.00010066
 ,-0.00015977,0.00014938,-0.00016474,-0.00013297,-0.00008390,-0.0000356
 5,-0.00007398,-0.00003432,0.00000441,0.00001052,0.00000284,-0.00000750
 ,-0.00000297,-0.00000180,0.00000492,0.00000802,0.00000483,0.00000244,0
 .00001524,-0.00000079,0.00000027,-0.00000029,0.00000214,0.00000395,-0.
 00000074,-0.00000156,0.00000183,-0.00000448,-0.00000311,-0.00000343,-0
 .00000307,-0.00001006,-0.00000221,0.00000289,0.00000161,-0.00000121,-0
 .00000473,0.00000035,0.00000125,0.00000197,-0.00001218,-0.00000249,0.0
 0000003,0.00000206,0.00000074,0.00000173,0.00000311,-0.00000194,0.0000
 0365,-0.00000169,-0.00000318,-0.00000665,-0.00005036,0.00000121,0.0000
 0059,0.00002098,0.00000475,-0.00003687,-0.00003882,-0.00015687,-0.0001
 6469,-0.00000163,-0.00004124,0.00003366,-0.00003094,-0.00012073,-0.000
 02817,0.00000980,-0.00006062,-0.00006524,-0.00002096,0.00004317,0.0000
 1208,0.00000107,-0.00000468,0.00000494,0.00000715,-0.00000377,-0.00000
 845,-0.00001116,0.00000253,0.01241597,0.01063414,0.00953564,-0.0074432
 9,-0.00634640,-0.00623493,0.15974221,0.00119663,0.00102327,0.00096078,
 0.01188594,0.01058861,0.01211714,0.00243625,-0.00257099,0.00112054,0.0
 0064339,0.00073723,0.00058871,0.00015780,-0.00019754,0.00009188,0.0000
 3362,0.00002786,0.00003030,0.00001683,-0.00001248,0.00000108,-0.000007
 37,-0.00000427,0.00000293,0.00006082,0.00000386,-0.00000696,-0.0000240
 2,-0.00002714,0.00001156,-0.00000526,0.00001348,-0.00001565,-0.0000043
 5,-0.00000070,0.00000756,0.00000706,0.00001200,-0.00000402,-0.00001146
 ,-0.00000046,0.00000534,-0.00001907,0.00006446,-0.00005280,-0.00001762
 ,-0.00015534,0.00010807,-0.00018294,0.00024069,-0.00030003,0.00025662,
 -0.00060203,0.00059286,0.00013933,-0.00035188,0.00007697,0.00005488,0.
 00009607,0.00013052,-0.00000152,-0.00002112,0.00000019,-0.00005884,-0.
 00000286,0.00000276,-0.09126968,-0.13131727,-0.08168371,-0.00013921,-0
 .00009869,-0.00000856,0.00011074,-0.00021918,0.00000583,0.00002893,0.0
 0032498,-0.00008681,-0.00073227,0.00061986,-0.00040004,-0.00005365,-0.
 00002708,0.00016553,-0.00005109,0.00005529,-0.00005865,-0.00003008,-0.
 00002609,0.00004540,0.00006338,0.00007986,0.00000533,0.00005150,0.0000
 3323,0.00001360,-0.00000936,-0.00000812,-0.00000130,0.00000161,0.00000
 530,0.00000163,0.00000435,-0.00000381,-0.00000057,-0.00001888,0.000004
 98,-0.00000801,0.00000327,0.00000151,0.00000565,0.00000049,-0.00000184
 ,0.00000288,-0.00000776,-0.00000789,-0.00000620,-0.00000570,-0.0000080
 3,-0.00000363,0.00000264,0.00000202,-0.00000110,-0.00000632,-0.0000012
 9,0.00000130,0.00000174,-0.00001052,-0.00000304,-0.00000005,0.00000305
 ,0.00000549,-0.00000256,0.00001233,-0.00001046,0.00000472,0.00000295,-
 0.00000379,0.00001792,-0.00000533,-0.00000745,-0.00003253,-0.00002102,
 0.00002697,0.00002799,0.00003121,0.00000930,-0.00042301,0.00023976,-0.
 00061778,-0.00000566,-0.00005345,-0.00017783,-0.00009064,0.00003229,0.
 00000760,-0.00002934,-0.00000867,-0.00005605,0.00000198,0.00000443,-0.
 00000076,0.00000584,0.00001115,-0.00001488,-0.00001451,-0.00000903,0.0
 0000235,-0.00797045,-0.00773945,-0.00593406,-0.01398313,-0.01343699,-0
 .01425108,0.09799205,0.14267885,-0.00034411,-0.00123259,-0.00011009,-0
 .00629947,-0.00641919,-0.00764543,-0.00185665,0.00264505,0.00017081,-0
 .00033654,-0.00079788,-0.00010297,-0.00015109,0.00019133,-0.00011876,-
 0.00005048,0.00000710,0.00001757,0.00001393,0.00001489,-0.00002279,-0.
 00002765,-0.00004284,0.00000394,0.00004516,0.00005759,-0.00000995,-0.0
 0000039,-0.00000593,0.00000467,0.00000639,0.00000192,0.00000057,-0.000
 00408,0.00000016,0.00000268,0.00000489,0.00000255,-0.00000100,-0.00000
 948,-0.00000447,0.00000069,0.00002227,-0.00000317,0.00000801,-0.000002
 59,0.00003644,-0.00000683,0.00005771,-0.00000762,0.00015065,-0.0000850
 0,0.00021053,-0.00019164,0.00008612,0.00021754,-0.00018022,-0.00005853
 ,-0.00005327,-0.00013866,-0.00000576,-0.00000433,-0.00000081,-0.000043
 18,-0.00002632,0.00000217,-0.08728360,-0.08055139,-0.12855429,-0.00005
 352,0.00000148,-0.00015296,0.00016699,0.00096283,0.00019312,0.00037135
 ,0.00005059,0.00029006,0.00010483,0.00037941,0.00052215,0.00024556,0.0
 0014381,0.00047406,-0.00005561,0.00004917,0.00005322,-0.00002917,0.000
 03688,-0.00009912,-0.00008513,-0.00005402,-0.00001470,-0.00006869,-0.0
 0002961,-0.00000938,0.00001536,0.00000244,0.00002019,-0.00000982,-0.00
 000285,0.00000665,0.00000563,0.00000333,0.00000306,0.00001130,-0.00000
 166,0.00000135,-0.00000076,0.00000119,0.00000211,-0.00000041,-0.000000
 76,0.00000088,-0.00000180,-0.00000046,-0.00000176,-0.00000195,-0.00000
 552,-0.00000104,0.00000153,0.00000101,-0.00000046,-0.00000262,-0.00000
 003,0.00000063,0.00000125,-0.00000577,-0.00000131,-0.00000038,0.000001
 05,0.00000166,0.00000064,0.00000111,-0.00000115,0.00000011,0.00000211,
 0.00000142,-0.00000260,-0.00001722,-0.00000125,-0.00002912,-0.00002450
 ,0.00000608,0.00002631,0.00006348,0.00018795,0.00018217,-0.00014690,0.
 00010368,-0.00000713,0.00003431,0.00013762,0.00005550,-0.00000664,0.00
 001407,-0.00000021,-0.00001404,0.00006678,0.00000593,0.00000017,-0.000
 00246,0.00000189,0.00000276,-0.00000191,-0.00000374,-0.00000553,0.0000
 0095,-0.01606391,-0.01397646,-0.01350523,0.01258873,0.01075156,0.01219
 843,0.09895365,0.08756719,0.13622830\\-0.00000120,0.00002352,-0.000012
 13,0.00002675,0.00003695,-0.00000405,-0.00004495,-0.00002518,0.0000163
 5,-0.00000912,-0.00001048,0.00000431,0.00001733,-0.00001876,-0.0000323
 2,-0.00002197,0.00000313,0.00001656,-0.00001823,-0.00006516,-0.0000124
 8,-0.00000100,0.00000039,-0.00002757,0.00001002,0.00000722,0.00000818,
 -0.00004710,-0.00002783,-0.00001813,0.00001350,0.00002249,-0.00000651,
 0.00000194,0.00001222,0.00001479,-0.00001214,-0.00001371,-0.00001276,-
 0.00000616,-0.00001266,0.00001847,0.00000382,0.00000775,0.00002493,0.0
 0000028,0.00007203,0.00002278,0.00001007,0.00000844,-0.00003110,-0.000
 00686,-0.00002120,0.00002760,0.00004534,0.00005437,-0.00000845,0.00000
 960,0.00000828,0.00000072,-0.00000289,0.00000251,0.00001232,-0.0000006
 8,-0.00005900,0.00000292,-0.00000114,-0.00000158,-0.00000738,0.0000069
 1,-0.00000086,-0.00000425,-0.00000476,-0.00000441,0.00000747,-0.000015
 56,-0.00000342,-0.00000253,-0.00001542,-0.00000929,0.00000360,0.000009
 48,-0.00000556,0.00000876,0.00000354,0.00000374,-0.00000387,-0.0000033
 2,0.00000118,-0.00000749,-0.00000042,0.00000988,-0.00000132,0.00000167
 ,-0.00001441,-0.00001028,0.00000749,0.00000098,-0.00001160,0.00001124,
 0.00000656,0.00000313,-0.00000018,0.00000869,-0.00000303,0.00000577,0.
 00001231,0.00001107,0.00000806,0.00001464,0.00000399,-0.00000798,-0.00
 000080,0.00001046,-0.00000543,-0.00000336,-0.00000832,-0.00000225,-0.0
 0000156,-0.00000717,0.00000409,-0.00000161,-0.00000474,0.00000644,0.00
 000033,-0.00000503,-0.00000047,-0.00000580,-0.00000719,-0.00000221,-0.
 00000012,0.00000370,0.00001174,0.00001884,0.00000686,0.00000686,0.0000
 1603,0.00000490,-0.00000624,-0.00002428,-0.00000685,0.00000394,-0.0000
 0384,0.00000920,0.00000906,-0.00001353,-0.00000518,0.00002014,0.000018
 09,0.00001234,-0.00000086,-0.00000273,-0.00000908,0.00001088,0.0000034
 8,0.00001763,-0.00001963,-0.00000364,-0.00001075,-0.00000919,-0.000000
 78,-0.00000301,-0.00000895,0.00000831,-0.00000517,-0.00001440,0.000000
 24,-0.00000163,0.00002040,0.00000491,0.00000189,0.00000062,-0.00002948
 ,0.00000762,0.00000372,-0.00000246,0.00000883\\\@


 IF YOU'RE NOT PART OF THE SOLUTION,
 THEN YOU'RE PART OF THE PRECIPITATE.
 Job cpu time:       0 days  0 hours 18 minutes 49.0 seconds.
 Elapsed time:       0 days  0 hours 20 minutes 46.4 seconds.
 File lengths (MBytes):  RWF=   1168 Int=      0 D2E=      0 Chk=     16 Scr=      1
 Normal termination of Gaussian 16 at Fri Feb 23 18:41:36 2024.
