 Entering Gaussian System, Link 0=g16
 Input=/Volumes/SSD-PMU3/b3lyp_6-31gd_freq/FDMAFOTXGNYBFG-SSDOTTSWSA-N_calculating/gaussianinput0.gjf
 Output=/Volumes/SSD-PMU3/b3lyp_6-31gd_freq/FDMAFOTXGNYBFG-SSDOTTSWSA-N_calculating/gaussianinput0.log
 Initial command:
 /Applications/g16/l1.exe "/Users/macmini_m1_2022/PycharmProjects/sphere_model/sphere_model_lib/Gau-51020.inp" -scrdir="/Users/macmini_m1_2022/PycharmProjects/sphere_model/sphere_model_lib/"
 Entering Link 1 = /Applications/g16/l1.exe PID=     51021.
  
 Copyright (c) 1988,1990,1992,1993,1995,1998,2003,2009,2016,
            Gaussian, Inc.  All Rights Reserved.
  
 This is part of the Gaussian(R) 16 program.  It is based on
 the Gaussian(R) 09 system (copyright 2009, Gaussian, Inc.),
 the Gaussian(R) 03 system (copyright 2003, Gaussian, Inc.),
 the Gaussian(R) 98 system (copyright 1998, Gaussian, Inc.),
 the Gaussian(R) 94 system (copyright 1995, Gaussian, Inc.),
 the Gaussian 92(TM) system (copyright 1992, Gaussian, Inc.),
 the Gaussian 90(TM) system (copyright 1990, Gaussian, Inc.),
 the Gaussian 88(TM) system (copyright 1988, Gaussian, Inc.),
 the Gaussian 86(TM) system (copyright 1986, Carnegie Mellon
 University), and the Gaussian 82(TM) system (copyright 1983,
 Carnegie Mellon University). Gaussian is a federally registered
 trademark of Gaussian, Inc.
  
 This software contains proprietary and confidential information,
 including trade secrets, belonging to Gaussian, Inc.
  
 This software is provided under written license and may be
 used, copied, transmitted, or stored only in accord with that
 written license.
  
 The following legend is applicable only to US Government
 contracts under FAR:
  
                    RESTRICTED RIGHTS LEGEND
  
 Use, reproduction and disclosure by the US Government is
 subject to restrictions as set forth in subparagraphs (a)
 and (c) of the Commercial Computer Software - Restricted
 Rights clause in FAR 52.227-19.
  
 Gaussian, Inc.
 340 Quinnipiac St., Bldg. 40, Wallingford CT 06492
  
  
 ---------------------------------------------------------------
 Warning -- This program may not be used in any manner that
 competes with the business of Gaussian, Inc. or will provide
 assistance to any competitor of Gaussian, Inc.  The licensee
 of this program is prohibited from giving any competitor of
 Gaussian, Inc. access to this program.  By using this program,
 the user acknowledges that Gaussian, Inc. is engaged in the
 business of creating and licensing software in the field of
 computational chemistry and represents and warrants to the
 licensee that it is not a competitor of Gaussian, Inc. and that
 it will not use this program in any manner prohibited above.
 ---------------------------------------------------------------
  

 Cite this work as:
 Gaussian 16, Revision A.03,
 M. J. Frisch, G. W. Trucks, H. B. Schlegel, G. E. Scuseria, 
 M. A. Robb, J. R. Cheeseman, G. Scalmani, V. Barone, 
 G. A. Petersson, H. Nakatsuji, X. Li, M. Caricato, A. V. Marenich, 
 J. Bloino, B. G. Janesko, R. Gomperts, B. Mennucci, H. P. Hratchian, 
 J. V. Ortiz, A. F. Izmaylov, J. L. Sonnenberg, D. Williams-Young, 
 F. Ding, F. Lipparini, F. Egidi, J. Goings, B. Peng, A. Petrone, 
 T. Henderson, D. Ranasinghe, V. G. Zakrzewski, J. Gao, N. Rega, 
 G. Zheng, W. Liang, M. Hada, M. Ehara, K. Toyota, R. Fukuda, 
 J. Hasegawa, M. Ishida, T. Nakajima, Y. Honda, O. Kitao, H. Nakai, 
 T. Vreven, K. Throssell, J. A. Montgomery, Jr., J. E. Peralta, 
 F. Ogliaro, M. J. Bearpark, J. J. Heyd, E. N. Brothers, K. N. Kudin, 
 V. N. Staroverov, T. A. Keith, R. Kobayashi, J. Normand, 
 K. Raghavachari, A. P. Rendell, J. C. Burant, S. S. Iyengar, 
 J. Tomasi, M. Cossi, J. M. Millam, M. Klene, C. Adamo, R. Cammi, 
 J. W. Ochterski, R. L. Martin, K. Morokuma, O. Farkas, 
 J. B. Foresman, and D. J. Fox, Gaussian, Inc., Wallingford CT, 2016.
 
 ******************************************
 Gaussian 16:  EM64M-G16RevA.03 25-Dec-2016
                21-Feb-2024 
 ******************************************
 %nprocshared=8
 Will use up to    8 processors via shared memory.
 %mem=4GB
 %chk= 0.chk
 ---------------------
 # freq b3lyp/6-31g(d)
 ---------------------
 1/10=4,30=1,38=1/1,3;
 2/12=2,17=6,18=5,40=1/2;
 3/5=1,6=6,7=1,11=2,25=1,30=1,71=2,74=-5,140=1/1,2,3;
 4//1;
 5/5=2,38=5,98=1/2;
 8/6=4,10=90,11=11/1;
 11/6=1,8=1,9=11,15=111,16=1/1,2,10;
 10/6=1/2;
 6/7=2,8=2,9=2,10=2,28=1/1;
 7/8=1,10=1,25=1/1,2,3,16;
 1/10=4,30=1/3;
 99//99;
 ---------
 good luck
 ---------
 Symbolic Z-matrix:
 Charge =  0 Multiplicity = 1
 O                     1.2186    0.        0. 
 C                     0.        0.        0. 
 C                    -0.79861  -1.30971  -0.01301 
 C                     0.08795  -2.48922  -0.43216 
 C                    -2.10892  -1.22647  -0.83705 
 C                    -1.99634  -0.54075  -2.21558 
 C                    -2.16249   0.98917  -2.17595 
 C                    -1.04682   1.7694   -1.46626 
 C                    -0.75983   1.32108  -0.01301 
 H                    -1.09151  -1.46488   1.03959 
 H                    -0.43866  -3.43725  -0.27717 
 H                     1.01665  -2.50091   0.14246 
 H                     0.36092  -2.42127  -1.4916 
 H                    -2.88882  -0.71649  -0.25586 
 H                    -2.4671   -2.25438  -0.97233 
 H                    -2.77738  -0.94608  -2.8712 
 H                    -1.04003  -0.80249  -2.69143 
 H                    -2.24412   1.36553  -3.2043 
 H                    -3.12292   1.21935  -1.69088 
 H                    -1.31584   2.83303  -1.45265 
 H                    -0.11244   1.69525  -2.03856 
 H                    -0.11858   2.06195   0.47426 
 H                    -1.69948   1.2499    0.55005 
 

 GradGradGradGradGradGradGradGradGradGradGradGradGradGradGradGradGradGrad
 Berny optimization.
 Initialization pass.
 Trust Radius=3.00D-01 FncErr=1.00D-07 GrdErr=1.00D-07 EigMax=2.50D+02 EigMin=1.00D-04
 Number of steps in this run=      2 maximum allowed number of steps=      2.
 GradGradGradGradGradGradGradGradGradGradGradGradGradGradGradGradGradGrad

                          Input orientation:                          
 ---------------------------------------------------------------------
 Center     Atomic      Atomic             Coordinates (Angstroms)
 Number     Number       Type             X           Y           Z
 ---------------------------------------------------------------------
      1          8           0        1.218597    0.000000    0.000000
      2          6           0        0.000000    0.000000    0.000000
      3          6           0       -0.798607   -1.309710   -0.013012
      4          6           0        0.087953   -2.489215   -0.432160
      5          6           0       -2.108923   -1.226466   -0.837054
      6          6           0       -1.996341   -0.540753   -2.215577
      7          6           0       -2.162495    0.989165   -2.175953
      8          6           0       -1.046816    1.769399   -1.466262
      9          6           0       -0.759826    1.321084   -0.013012
     10          1           0       -1.091512   -1.464875    1.039593
     11          1           0       -0.438659   -3.437245   -0.277165
     12          1           0        1.016649   -2.500908    0.142457
     13          1           0        0.360916   -2.421272   -1.491601
     14          1           0       -2.888821   -0.716493   -0.255857
     15          1           0       -2.467102   -2.254380   -0.972333
     16          1           0       -2.777379   -0.946079   -2.871202
     17          1           0       -1.040028   -0.802485   -2.691431
     18          1           0       -2.244117    1.365534   -3.204304
     19          1           0       -3.122921    1.219347   -1.690882
     20          1           0       -1.315839    2.833032   -1.452652
     21          1           0       -0.112438    1.695253   -2.038562
     22          1           0       -0.118582    2.061945    0.474257
     23          1           0       -1.699479    1.249902    0.550053
 ---------------------------------------------------------------------
                    Distance matrix (angstroms):
                    1          2          3          4          5
     1  O    0.000000
     2  C    1.218597   0.000000
     3  C    2.405124   1.534041   0.000000
     4  C    2.767907   2.527981   1.533918   0.000000
     5  C    3.643799   2.579231   1.550130   2.566075   0.000000
     6  C    3.941703   3.030936   2.622433   3.364723   1.543763
     7  C    4.140652   3.223291   3.438507   4.494937   2.589313
     8  C    3.226886   2.525177   3.413862   4.526904   3.240244
     9  C    2.378989   1.524063   2.631080   3.925913   2.998186
    10  H    2.926297   2.101906   1.103561   2.146268   2.147968
    11  H    3.825960   3.476190   2.173878   1.095493   2.826801
    12  H    2.513089   2.703407   2.176759   1.092153   3.514661
    13  H    2.970362   2.866652   2.183183   1.096148   2.820656
    14  H    4.177285   2.987325   2.186292   3.469122   1.098227
    15  H    4.428548   3.480554   2.143962   2.622068   1.096905
    16  H    5.010658   4.105204   3.495285   4.066979   2.159446
    17  H    3.604049   2.994903   2.736693   3.036726   2.181974
    18  H    4.911480   4.143466   4.408035   5.289841   3.512921
    19  H    4.816084   3.754800   3.822802   5.064339   2.781945
    20  H    4.069353   3.444953   4.416153   5.598067   4.181802
    21  H    2.966694   2.653726   3.688290   4.486698   3.737113
    22  H    2.502915   2.119103   3.473892   4.645138   4.061359
    23  H    3.221798   2.180147   2.771322   4.259184   2.867771
                    6          7          8          9         10
     6  C    0.000000
     7  C    1.539424   0.000000
     8  C    2.607657   1.535306   0.000000
     9  C    3.137945   2.599224   1.547671   0.000000
    10  H    3.502692   4.184382   4.091679   2.996591   0.000000
    11  H    3.817523   5.115673   5.375216   4.776465   2.459738
    12  H    4.298912   5.259524   5.008132   4.217542   2.514470
    13  H    3.101154   4.297327   4.420868   4.177022   3.071024
    14  H    2.160534   2.669005   3.322307   2.956909   2.338501
    15  H    2.168822   3.473049   4.295576   4.076645   2.561916
    16  H    1.097339   2.146304   3.513193   4.168909   4.290176
    17  H    1.099761   2.176157   2.848802   3.429575   3.789717
    18  H    2.161690   1.098099   2.148820   3.519864   5.229759
    19  H    2.154632   1.100316   2.159450   2.899968   4.334416
    20  H    3.525275   2.154028   1.097212   2.160486   4.973290
    21  H    2.929189   2.172595   1.098220   2.159159   4.518853
    22  H    4.187508   3.514548   2.170902   1.094303   3.701980
    23  H    3.308063   2.777315   2.182057   1.097751   2.824763
                   11         12         13         14         15
    11  H    0.000000
    12  H    1.780655   0.000000
    13  H    1.773803   1.762519   0.000000
    14  H    3.661453   4.312248   3.872225   0.000000
    15  H    2.448879   3.666068   2.880135   1.748222   0.000000
    16  H    4.290052   5.088642   3.732076   2.627767   2.326720
    17  H    3.623850   3.891720   2.454121   3.058995   2.664552
    18  H    5.907157   6.064881   4.905043   3.666581   4.258544
    19  H    5.557671   5.859818   5.042910   2.421069   3.607380
    20  H    6.439533   6.036207   5.515500   4.062723   5.238117
    21  H    5.436127   4.862042   4.179594   4.086913   4.720264
    22  H    5.559512   4.713647   4.918714   3.990866   5.122385
    23  H    4.923749   4.648877   4.678792   2.435310   3.897037
                   16         17         18         19         20
    16  H    0.000000
    17  H    1.752520   0.000000
    18  H    2.395596   2.532425   0.000000
    19  H    2.490306   3.070398   1.756164   0.000000
    20  H    4.293025   3.850666   2.466482   2.434395   0.000000
    21  H    3.843414   2.743238   2.451882   3.067634   1.756703
    22  H    5.225850   4.367563   4.305194   3.797875   2.396034
    23  H    4.205851   3.892864   3.795418   2.654978   2.581532
                   21         22         23
    21  H    0.000000
    22  H    2.539441   0.000000
    23  H    3.068870   1.778874   0.000000
 Stoichiometry    C8H14O
 Framework group  C1[X(C8H14O)]
 Deg. of freedom    63
 Full point group                 C1      NOp   1
 Largest Abelian subgroup         C1      NOp   1
 Largest concise Abelian subgroup C1      NOp   1
                         Standard orientation:                         
 ---------------------------------------------------------------------
 Center     Atomic      Atomic             Coordinates (Angstroms)
 Number     Number       Type             X           Y           Z
 ---------------------------------------------------------------------
      1          8           0        1.215528    1.813797   -0.555037
      2          6           0        0.624399    1.026454    0.163042
      3          6           0        1.236657   -0.330046    0.534968
      4          6           0        2.396190   -0.685131   -0.404343
      5          6           0        0.191701   -1.469306    0.649241
      6          6           0       -0.857821   -1.537731   -0.480814
      7          6           0       -2.095912   -0.653000   -0.247985
      8          6           0       -1.855967    0.863070   -0.281489
      9          6           0       -0.763476    1.372376    0.689262
     10          1           0        1.654919   -0.176598    1.544601
     11          1           0        2.933257   -1.564802   -0.033073
     12          1           0        3.096553    0.148534   -0.489740
     13          1           0        2.032325   -0.909943   -1.413601
     14          1           0       -0.334340   -1.404204    1.611086
     15          1           0        0.750091   -2.412871    0.682172
     16          1           0       -1.200484   -2.575867   -0.575729
     17          1           0       -0.392549   -1.286377   -1.445085
     18          1           0       -2.855443   -0.897219   -1.002499
     19          1           0       -2.535103   -0.923261    0.724006
     20          1           0       -2.797024    1.373124   -0.040384
     21          1           0       -1.585726    1.179390   -1.297854
     22          1           0       -0.816702    2.463489    0.753598
     23          1           0       -0.928619    0.956113    1.691514
 ---------------------------------------------------------------------
 Rotational constants (GHZ):           2.1367139           1.5628671           1.0651087
 Standard basis: 6-31G(d) (6D, 7F)
 There are   163 symmetry adapted cartesian basis functions of A   symmetry.
 There are   163 symmetry adapted basis functions of A   symmetry.
   163 basis functions,   308 primitive gaussians,   163 cartesian basis functions
    35 alpha electrons       35 beta electrons
       nuclear repulsion energy       478.8606259937 Hartrees.
 NAtoms=   23 NActive=   23 NUniq=   23 SFac= 1.00D+00 NAtFMM=   60 NAOKFM=F Big=F
 Integral buffers will be    131072 words long.
 Raffenetti 2 integral format.
 Two-electron integral symmetry is turned on.
 One-electron integrals computed using PRISM.
 NBasis=   163 RedAO= T EigKep=  2.95D-03  NBF=   163
 NBsUse=   163 1.00D-06 EigRej= -1.00D+00 NBFU=   163
 ExpMin= 1.61D-01 ExpMax= 5.48D+03 ExpMxC= 8.25D+02 IAcc=3 IRadAn=         5 AccDes= 0.00D+00
 Harris functional with IExCor=  402 and IRadAn=       5 diagonalized for initial guess.
 HarFok:  IExCor=  402 AccDes= 0.00D+00 IRadAn=         5 IDoV= 1 UseB2=F ITyADJ=14
 ICtDFT=  3500011 ScaDFX=  1.000000  1.000000  1.000000  1.000000
 FoFCou: FMM=F IPFlag=           0 FMFlag=      100000 FMFlg1=           0
         NFxFlg=           0 DoJE=T BraDBF=F KetDBF=T FulRan=T
         wScrn=  0.000000 ICntrl=       500 IOpCl=  0 I1Cent=   200000004 NGrid=           0
         NMat0=    1 NMatS0=      1 NMatT0=    0 NMatD0=    1 NMtDS0=    0 NMtDT0=    0
 Petite list used in FoFCou.
 Requested convergence on RMS density matrix=1.00D-08 within 128 cycles.
 Requested convergence on MAX density matrix=1.00D-06.
 Requested convergence on             energy=1.00D-06.
 No special actions if energy rises.
 Integral accuracy reduced to 1.0D-05 until final iterations.
 Initial convergence to 1.0D-05 achieved.  Increase integral accuracy.
 SCF Done:  E(RB3LYP) =  -388.513007190     A.U. after   13 cycles
            NFock= 13  Conv=0.57D-08     -V/T= 2.0098
 DoSCS=F DFT=T ScalE2(SS,OS)=  1.000000  1.000000
 Range of M.O.s used for correlation:     1   163
 NBasis=   163 NAE=    35 NBE=    35 NFC=     0 NFV=     0
 NROrb=    163 NOA=    35 NOB=    35 NVA=   128 NVB=   128
 Symmetrizing basis deriv contribution to polar:
 IMax=3 JMax=2 DiffMx= 0.00D+00
 G2DrvN: will do    24 centers at a time, making    1 passes.
 Calling FoFCou, ICntrl=  3107 FMM=F I1Cent=   0 AccDes= 0.00D+00.
 End of G2Drv F.D. properties file   721 does not exist.
 End of G2Drv F.D. properties file   722 does not exist.
 End of G2Drv F.D. properties file   788 does not exist.
          IDoAtm=11111111111111111111111
          Differentiating once with respect to electric field.
                with respect to dipole field.
          Differentiating once with respect to nuclear coordinates.
 Keep R1 ints in memory in canonical form, NReq=97235269.
          There are    72 degrees of freedom in the 1st order CPHF.  IDoFFX=6 NUNeed=     3.
     69 vectors produced by pass  0 Test12= 6.22D-15 1.39D-09 XBig12= 5.41D+01 1.49D+00.
 AX will form    69 AO Fock derivatives at one time.
     69 vectors produced by pass  1 Test12= 6.22D-15 1.39D-09 XBig12= 3.96D+00 4.37D-01.
     69 vectors produced by pass  2 Test12= 6.22D-15 1.39D-09 XBig12= 2.36D-02 2.07D-02.
     69 vectors produced by pass  3 Test12= 6.22D-15 1.39D-09 XBig12= 4.58D-05 8.87D-04.
     69 vectors produced by pass  4 Test12= 6.22D-15 1.39D-09 XBig12= 3.99D-08 1.90D-05.
     31 vectors produced by pass  5 Test12= 6.22D-15 1.39D-09 XBig12= 2.82D-11 5.60D-07.
      3 vectors produced by pass  6 Test12= 6.22D-15 1.39D-09 XBig12= 2.00D-14 1.94D-08.
 InvSVY:  IOpt=1 It=  1 EMax= 1.78D-15
 Solved reduced A of dimension   379 with    72 vectors.
 Isotropic polarizability for W=    0.000000       82.00 Bohr**3.
 End of Minotr F.D. properties file   721 does not exist.
 End of Minotr F.D. properties file   722 does not exist.
 End of Minotr F.D. properties file   788 does not exist.

 **********************************************************************

            Population analysis using the SCF density.

 **********************************************************************

 Orbital symmetries:
       Occupied  (A) (A) (A) (A) (A) (A) (A) (A) (A) (A) (A) (A)
                 (A) (A) (A) (A) (A) (A) (A) (A) (A) (A) (A) (A)
                 (A) (A) (A) (A) (A) (A) (A) (A) (A) (A) (A)
       Virtual   (A) (A) (A) (A) (A) (A) (A) (A) (A) (A) (A) (A)
                 (A) (A) (A) (A) (A) (A) (A) (A) (A) (A) (A) (A)
                 (A) (A) (A) (A) (A) (A) (A) (A) (A) (A) (A) (A)
                 (A) (A) (A) (A) (A) (A) (A) (A) (A) (A) (A) (A)
                 (A) (A) (A) (A) (A) (A) (A) (A) (A) (A) (A) (A)
                 (A) (A) (A) (A) (A) (A) (A) (A) (A) (A) (A) (A)
                 (A) (A) (A) (A) (A) (A) (A) (A) (A) (A) (A) (A)
                 (A) (A) (A) (A) (A) (A) (A) (A) (A) (A) (A) (A)
                 (A) (A) (A) (A) (A) (A) (A) (A) (A) (A) (A) (A)
                 (A) (A) (A) (A) (A) (A) (A) (A) (A) (A) (A) (A)
                 (A) (A) (A) (A) (A) (A) (A) (A)
 The electronic state is 1-A.
 Alpha  occ. eigenvalues --  -19.13098 -10.26577 -10.19609 -10.19144 -10.18902
 Alpha  occ. eigenvalues --  -10.18819 -10.18649 -10.18623 -10.17099  -1.03080
 Alpha  occ. eigenvalues --   -0.82587  -0.78236  -0.74929  -0.69455  -0.63019
 Alpha  occ. eigenvalues --   -0.62647  -0.56483  -0.50993  -0.48368  -0.46958
 Alpha  occ. eigenvalues --   -0.45620  -0.43086  -0.42268  -0.41144  -0.40654
 Alpha  occ. eigenvalues --   -0.39004  -0.37385  -0.36829  -0.35186  -0.33549
 Alpha  occ. eigenvalues --   -0.33179  -0.32457  -0.31985  -0.31238  -0.23527
 Alpha virt. eigenvalues --   -0.01104   0.08251   0.09848   0.10967   0.12557
 Alpha virt. eigenvalues --    0.13792   0.14907   0.15412   0.15867   0.17172
 Alpha virt. eigenvalues --    0.17604   0.18394   0.19351   0.19634   0.20007
 Alpha virt. eigenvalues --    0.20530   0.23157   0.23693   0.24911   0.27036
 Alpha virt. eigenvalues --    0.28114   0.30658   0.34618   0.36539   0.49938
 Alpha virt. eigenvalues --    0.50444   0.52198   0.52976   0.54701   0.55522
 Alpha virt. eigenvalues --    0.58219   0.60008   0.61299   0.62987   0.65087
 Alpha virt. eigenvalues --    0.67232   0.68400   0.69562   0.71480   0.73420
 Alpha virt. eigenvalues --    0.74380   0.76275   0.78281   0.79888   0.81789
 Alpha virt. eigenvalues --    0.84234   0.84731   0.85964   0.87099   0.87989
 Alpha virt. eigenvalues --    0.88538   0.90399   0.92633   0.93222   0.94240
 Alpha virt. eigenvalues --    0.95186   0.96639   0.97317   0.98019   0.99439
 Alpha virt. eigenvalues --    1.02183   1.04148   1.09151   1.10266   1.13746
 Alpha virt. eigenvalues --    1.15212   1.17018   1.21557   1.35922   1.40707
 Alpha virt. eigenvalues --    1.43893   1.49900   1.54354   1.56489   1.58438
 Alpha virt. eigenvalues --    1.61392   1.67752   1.69308   1.74578   1.75626
 Alpha virt. eigenvalues --    1.76637   1.80374   1.81971   1.85956   1.89259
 Alpha virt. eigenvalues --    1.90451   1.90899   1.92013   1.93837   1.95050
 Alpha virt. eigenvalues --    1.98788   2.02064   2.04066   2.05389   2.09378
 Alpha virt. eigenvalues --    2.10641   2.14523   2.19675   2.23135   2.28084
 Alpha virt. eigenvalues --    2.29981   2.32377   2.33426   2.35870   2.37901
 Alpha virt. eigenvalues --    2.41187   2.41944   2.48046   2.50110   2.57200
 Alpha virt. eigenvalues --    2.57984   2.61590   2.64398   2.67452   2.72812
 Alpha virt. eigenvalues --    2.73707   2.81541   2.98647   3.02562   4.05171
 Alpha virt. eigenvalues --    4.08361   4.18976   4.26404   4.31446   4.46364
 Alpha virt. eigenvalues --    4.56088   4.59353   4.65927
          Condensed to atoms (all electrons):
               1          2          3          4          5          6
     1  O    8.031522   0.567585  -0.089738   0.000947   0.002504   0.000004
     2  C    0.567585   4.526759   0.300519  -0.033440  -0.033211   0.000207
     3  C   -0.089738   0.300519   5.231641   0.354432   0.338115  -0.040055
     4  C    0.000947  -0.033440   0.354432   5.091345  -0.049248  -0.004326
     5  C    0.002504  -0.033211   0.338115  -0.049248   5.070516   0.370508
     6  C    0.000004   0.000207  -0.040055  -0.004326   0.370508   5.014727
     7  C    0.000079  -0.002653  -0.000472  -0.000055  -0.039547   0.381084
     8  C   -0.003881  -0.025411   0.001924  -0.000200  -0.003468  -0.043349
     9  C   -0.079180   0.340419  -0.125748   0.006184   0.008263  -0.006076
    10  H    0.000178  -0.031781   0.353269  -0.036803  -0.036819   0.004705
    11  H    0.000552   0.004844  -0.029517   0.362054  -0.004080   0.000012
    12  H    0.010307  -0.005115  -0.030037   0.372511   0.004693   0.000040
    13  H    0.001385  -0.004853  -0.037736   0.380322  -0.004345   0.002183
    14  H   -0.000060  -0.003773  -0.028604   0.004995   0.361857  -0.044706
    15  H   -0.000063   0.003714  -0.036073  -0.006931   0.371370  -0.033223
    16  H   -0.000001  -0.000051   0.004668   0.000009  -0.032730   0.368953
    17  H   -0.000095   0.000357  -0.005509   0.001815  -0.045549   0.374204
    18  H   -0.000001  -0.000100  -0.000100   0.000001   0.004869  -0.034208
    19  H   -0.000005  -0.000470   0.000240  -0.000000  -0.008363  -0.042305
    20  H   -0.000022   0.003832  -0.000332   0.000006  -0.000084   0.004894
    21  H    0.004064  -0.003828   0.001583  -0.000064  -0.000702  -0.003983
    22  H    0.003743  -0.024135   0.006460  -0.000152  -0.000043  -0.000031
    23  H    0.003248  -0.030321   0.005456   0.000030  -0.002884  -0.001275
               7          8          9         10         11         12
     1  O    0.000079  -0.003881  -0.079180   0.000178   0.000552   0.010307
     2  C   -0.002653  -0.025411   0.340419  -0.031781   0.004844  -0.005115
     3  C   -0.000472   0.001924  -0.125748   0.353269  -0.029517  -0.030037
     4  C   -0.000055  -0.000200   0.006184  -0.036803   0.362054   0.372511
     5  C   -0.039547  -0.003468   0.008263  -0.036819  -0.004080   0.004693
     6  C    0.381084  -0.043349  -0.006076   0.004705   0.000012   0.000040
     7  C    4.992920   0.379973  -0.046842  -0.000069   0.000001  -0.000005
     8  C    0.379973   5.001132   0.355813   0.000070  -0.000001   0.000003
     9  C   -0.046842   0.355813   5.272547   0.001650  -0.000095   0.000403
    10  H   -0.000069   0.000070   0.001650   0.602405  -0.004098  -0.002148
    11  H    0.000001  -0.000001  -0.000095  -0.004098   0.591141  -0.028690
    12  H   -0.000005   0.000003   0.000403  -0.002148  -0.028690   0.535232
    13  H    0.000003   0.000018   0.000052   0.005236  -0.032038  -0.027179
    14  H   -0.007702  -0.000862   0.001546  -0.006071  -0.000002  -0.000179
    15  H    0.004128   0.000044  -0.000353  -0.001171   0.004559   0.000077
    16  H   -0.033283   0.004829   0.000026  -0.000179  -0.000015   0.000003
    17  H   -0.040151  -0.004556  -0.000726   0.000164   0.000018  -0.000163
    18  H    0.368765  -0.034095   0.005149   0.000005  -0.000000  -0.000000
    19  H    0.371753  -0.040480  -0.004997  -0.000023   0.000000   0.000000
    20  H   -0.033035   0.370076  -0.033280   0.000003  -0.000000   0.000000
    21  H   -0.036349   0.372405  -0.049212  -0.000003   0.000000  -0.000005
    22  H    0.004343  -0.022803   0.345960  -0.000406   0.000002  -0.000007
    23  H   -0.004273  -0.036031   0.342229   0.000425  -0.000006  -0.000024
              13         14         15         16         17         18
     1  O    0.001385  -0.000060  -0.000063  -0.000001  -0.000095  -0.000001
     2  C   -0.004853  -0.003773   0.003714  -0.000051   0.000357  -0.000100
     3  C   -0.037736  -0.028604  -0.036073   0.004668  -0.005509  -0.000100
     4  C    0.380322   0.004995  -0.006931   0.000009   0.001815   0.000001
     5  C   -0.004345   0.361857   0.371370  -0.032730  -0.045549   0.004869
     6  C    0.002183  -0.044706  -0.033223   0.368953   0.374204  -0.034208
     7  C    0.000003  -0.007702   0.004128  -0.033283  -0.040151   0.368765
     8  C    0.000018  -0.000862   0.000044   0.004829  -0.004556  -0.034095
     9  C    0.000052   0.001546  -0.000353   0.000026  -0.000726   0.005149
    10  H    0.005236  -0.006071  -0.001171  -0.000179   0.000164   0.000005
    11  H   -0.032038  -0.000002   0.004559  -0.000015   0.000018  -0.000000
    12  H   -0.027179  -0.000179   0.000077   0.000003  -0.000163  -0.000000
    13  H    0.563581   0.000030  -0.000104  -0.000224   0.004193   0.000003
    14  H    0.000030   0.610487  -0.034961   0.000171   0.005524   0.000141
    15  H   -0.000104  -0.034961   0.593753  -0.007378   0.000503  -0.000187
    16  H   -0.000224   0.000171  -0.007378   0.601696  -0.035871  -0.004647
    17  H    0.004193   0.005524   0.000503  -0.035871   0.596792  -0.002393
    18  H    0.000003   0.000141  -0.000187  -0.004647  -0.002393   0.604246
    19  H    0.000000   0.007032   0.000118  -0.002841   0.005767  -0.036436
    20  H    0.000000  -0.000042   0.000002  -0.000185  -0.000006  -0.002161
    21  H   -0.000007   0.000086   0.000010  -0.000053   0.003970  -0.004886
    22  H   -0.000006   0.000005   0.000001   0.000005  -0.000011  -0.000156
    23  H   -0.000004   0.002706   0.000048  -0.000034   0.000184   0.000041
              19         20         21         22         23
     1  O   -0.000005  -0.000022   0.004064   0.003743   0.003248
     2  C   -0.000470   0.003832  -0.003828  -0.024135  -0.030321
     3  C    0.000240  -0.000332   0.001583   0.006460   0.005456
     4  C   -0.000000   0.000006  -0.000064  -0.000152   0.000030
     5  C   -0.008363  -0.000084  -0.000702  -0.000043  -0.002884
     6  C   -0.042305   0.004894  -0.003983  -0.000031  -0.001275
     7  C    0.371753  -0.033035  -0.036349   0.004343  -0.004273
     8  C   -0.040480   0.370076   0.372405  -0.022803  -0.036031
     9  C   -0.004997  -0.033280  -0.049212   0.345960   0.342229
    10  H   -0.000023   0.000003  -0.000003  -0.000406   0.000425
    11  H    0.000000  -0.000000   0.000000   0.000002  -0.000006
    12  H    0.000000   0.000000  -0.000005  -0.000007  -0.000024
    13  H    0.000000   0.000000  -0.000007  -0.000006  -0.000004
    14  H    0.007032  -0.000042   0.000086   0.000005   0.002706
    15  H    0.000118   0.000002   0.000010   0.000001   0.000048
    16  H   -0.002841  -0.000185  -0.000053   0.000005  -0.000034
    17  H    0.005767  -0.000006   0.003970  -0.000011   0.000184
    18  H   -0.036436  -0.002161  -0.004886  -0.000156   0.000041
    19  H    0.615871  -0.005148   0.005656  -0.000016   0.004459
    20  H   -0.005148   0.596442  -0.034621  -0.006962  -0.002492
    21  H    0.005656  -0.034621   0.587085  -0.000585   0.006023
    22  H   -0.000016  -0.006962  -0.000585   0.563905  -0.031288
    23  H    0.004459  -0.002492   0.006023  -0.031288   0.605519
 Mulliken charges:
               1
     1  O   -0.453071
     2  C    0.450904
     3  C   -0.174383
     4  C   -0.443431
     5  C   -0.271618
     6  C   -0.267986
     7  C   -0.258611
     8  C   -0.271148
     9  C   -0.333731
    10  H    0.151460
    11  H    0.135359
    12  H    0.170284
    13  H    0.149489
    14  H    0.132382
    15  H    0.142119
    16  H    0.137132
    17  H    0.141537
    18  H    0.136151
    19  H    0.130189
    20  H    0.143117
    21  H    0.153416
    22  H    0.162179
    23  H    0.138263
 Sum of Mulliken charges =  -0.00000
 Mulliken charges with hydrogens summed into heavy atoms:
               1
     1  O   -0.453071
     2  C    0.450904
     3  C   -0.022923
     4  C    0.011701
     5  C    0.002883
     6  C    0.010683
     7  C    0.007729
     8  C    0.025384
     9  C   -0.033289
 APT charges:
               1
     1  O   -0.630045
     2  C    0.689727
     3  C   -0.007956
     4  C    0.054983
     5  C    0.101217
     6  C    0.097555
     7  C    0.127840
     8  C    0.146132
     9  C   -0.073905
    10  H   -0.048409
    11  H   -0.029952
    12  H    0.012567
    13  H   -0.012697
    14  H   -0.046322
    15  H   -0.045139
    16  H   -0.057660
    17  H   -0.033201
    18  H   -0.058677
    19  H   -0.054509
    20  H   -0.056363
    21  H   -0.031528
    22  H   -0.024468
    23  H   -0.019190
 Sum of APT charges =   0.00000
 APT charges with hydrogens summed into heavy atoms:
               1
     1  O   -0.630045
     2  C    0.689727
     3  C   -0.056365
     4  C    0.024901
     5  C    0.009755
     6  C    0.006694
     7  C    0.014655
     8  C    0.058240
     9  C   -0.117563
 Electronic spatial extent (au):  <R**2>=           1232.6334
 Charge=              0.0000 electrons
 Dipole moment (field-independent basis, Debye):
    X=             -1.5181    Y=             -1.8752    Z=              1.3755  Tot=              2.7773
 Quadrupole moment (field-independent basis, Debye-Ang):
   XX=            -56.7180   YY=            -59.7853   ZZ=            -55.7256
   XY=             -3.7654   XZ=              1.9966   YZ=              2.4459
 Traceless Quadrupole moment (field-independent basis, Debye-Ang):
   XX=              0.6916   YY=             -2.3756   ZZ=              1.6840
   XY=             -3.7654   XZ=              1.9966   YZ=              2.4459
 Octapole moment (field-independent basis, Debye-Ang**2):
  XXX=              1.6618  YYY=             -2.3613  ZZZ=             -1.3843  XYY=             -6.2374
  XXY=             -0.7853  XXZ=              1.9366  XZZ=              0.6305  YZZ=              1.5216
  YYZ=              4.3495  XYZ=              2.3174
 Hexadecapole moment (field-independent basis, Debye-Ang**3):
 XXXX=           -859.3742 YYYY=           -591.7414 ZZZZ=           -191.2089 XXXY=              2.7112
 XXXZ=              3.7943 YYYX=             -8.5519 YYYZ=              6.3194 ZZZX=             -0.9364
 ZZZY=             -3.2999 XXYY=           -245.8740 XXZZ=           -175.9578 YYZZ=           -133.5659
 XXYZ=              1.9157 YYXZ=              5.4579 ZZXY=              2.1778
 N-N= 4.788606259937D+02 E-N=-1.859109003945D+03  KE= 3.847476835201D+02
  Exact polarizability:  89.993  -0.685  84.106  -1.339  -1.859  71.886
 Approx polarizability: 116.080   4.238 117.221  -5.884  -8.436 113.410
 Calling FoFJK, ICntrl=    100127 FMM=F ISym2X=0 I1Cent= 0 IOpClX= 0 NMat=1 NMatS=1 NMatT=0.
 Full mass-weighted force constant matrix:
 Low frequencies ---   -5.7335   -0.0009   -0.0004   -0.0002    4.7909    7.7891
 Low frequencies ---   46.7358  146.0609  193.5185
 Diagonal vibrational polarizability:
        9.4091236       8.7035567      18.1594884
 Harmonic frequencies (cm**-1), IR intensities (KM/Mole), Raman scattering
 activities (A**4/AMU), depolarization ratios for plane and unpolarized
 incident light, reduced masses (AMU), force constants (mDyne/A),
 and normal coordinates:
                      1                      2                      3
                      A                      A                      A
 Frequencies --     46.7131               146.0604               193.5183
 Red. masses --      4.1661                 2.8737                 1.4874
 Frc consts  --      0.0054                 0.0361                 0.0328
 IR Inten    --      2.0434                 1.4102                 0.2206
  Atom  AN      X      Y      Z        X      Y      Z        X      Y      Z
     1   8     0.14   0.15   0.25     0.14   0.05   0.08    -0.04  -0.04  -0.02
     2   6     0.03   0.06   0.04     0.02   0.01  -0.06    -0.01  -0.01   0.04
     3   6    -0.01   0.00  -0.06    -0.03  -0.01  -0.04    -0.00  -0.01   0.01
     4   6    -0.14  -0.03  -0.21     0.11   0.05   0.11     0.02   0.10  -0.01
     5   6    -0.01   0.03   0.09     0.01  -0.06  -0.14     0.02  -0.04  -0.02
     6   6    -0.03  -0.11   0.11    -0.10  -0.01  -0.03    -0.06  -0.05   0.05
     7   6    -0.00  -0.05   0.00    -0.08  -0.04   0.17    -0.00   0.04   0.02
     8   6     0.04  -0.07  -0.14    -0.08  -0.05   0.00     0.07   0.02  -0.07
     9   6    -0.03   0.01  -0.09    -0.01   0.05  -0.13    -0.00   0.00   0.02
    10   1     0.14  -0.01  -0.12    -0.15  -0.00   0.00    -0.01  -0.06   0.02
    11   1    -0.11  -0.04  -0.28     0.10   0.07   0.18    -0.20  -0.15  -0.29
    12   1    -0.13  -0.05  -0.30     0.08   0.08   0.20     0.20  -0.01   0.38
    13   1    -0.27  -0.03  -0.17     0.25   0.03   0.06     0.08   0.58  -0.14
    14   1     0.01   0.14   0.09     0.09  -0.21  -0.08     0.07  -0.10   0.01
    15   1    -0.01   0.03   0.19     0.06  -0.04  -0.30     0.04  -0.03  -0.09
    16   1    -0.05  -0.12   0.26    -0.09  -0.01  -0.04    -0.13  -0.04   0.18
    17   1    -0.03  -0.25   0.07    -0.22   0.05  -0.07    -0.10  -0.19  -0.00
    18   1     0.01  -0.10   0.01    -0.23  -0.10   0.35    -0.02   0.03   0.04
    19   1    -0.03   0.05   0.02     0.12   0.03   0.28    -0.01   0.13   0.04
    20   1     0.04  -0.02  -0.27    -0.05  -0.01   0.04     0.07   0.09  -0.21
    21   1     0.13  -0.18  -0.15    -0.18  -0.16  -0.06     0.21  -0.06  -0.06
    22   1    -0.07   0.01  -0.13     0.00   0.05  -0.24     0.01  -0.00   0.05
    23   1    -0.09   0.05  -0.08     0.03   0.15  -0.08    -0.06  -0.04  -0.00
                      4                      5                      6
                      A                      A                      A
 Frequencies --    210.6190               264.4204               302.8570
 Red. masses --      1.3897                 2.4271                 2.7309
 Frc consts  --      0.0363                 0.1000                 0.1476
 IR Inten    --      0.1390                 2.1663                 2.1319
  Atom  AN      X      Y      Z        X      Y      Z        X      Y      Z
     1   8     0.06  -0.02  -0.00     0.00   0.13  -0.01    -0.07   0.02   0.04
     2   6     0.01   0.01  -0.01     0.04   0.03  -0.08     0.01  -0.06   0.00
     3   6    -0.00   0.01   0.02     0.03   0.03  -0.10     0.12  -0.01   0.01
     4   6    -0.04  -0.02  -0.01     0.12  -0.05   0.05     0.08  -0.08  -0.03
     5   6    -0.03   0.05   0.04    -0.05   0.09   0.00     0.04   0.07   0.04
     6   6     0.06   0.04  -0.04    -0.10  -0.08   0.05     0.01   0.19   0.03
     7   6     0.00  -0.06  -0.00    -0.08  -0.02  -0.09    -0.09   0.04   0.08
     8   6    -0.07  -0.04   0.06    -0.02  -0.02   0.06    -0.05   0.00  -0.13
     9   6    -0.00   0.03  -0.04     0.05  -0.11   0.05    -0.06  -0.17  -0.04
    10   1     0.03   0.00   0.01    -0.03   0.07  -0.07     0.16   0.01  -0.01
    11   1    -0.33  -0.31  -0.27    -0.03  -0.12   0.11    -0.01  -0.15  -0.06
    12   1     0.23  -0.21   0.32     0.23  -0.12   0.22     0.17  -0.15   0.01
    13   1    -0.02   0.43  -0.12     0.28   0.03  -0.02     0.06  -0.01  -0.03
    14   1    -0.09   0.14  -0.01    -0.02   0.24   0.01     0.08   0.10   0.05
    15   1    -0.06   0.03   0.15    -0.09   0.07   0.13    -0.06   0.02  -0.00
    16   1     0.14   0.02  -0.16    -0.13  -0.09   0.28     0.14   0.17  -0.17
    17   1     0.10   0.16   0.01    -0.12  -0.29  -0.01    -0.00   0.42   0.08
    18   1     0.02  -0.05  -0.02     0.02   0.07  -0.23    -0.14  -0.12   0.18
    19   1     0.02  -0.14  -0.02    -0.25  -0.06  -0.18     0.04   0.14   0.17
    20   1    -0.07  -0.10   0.19     0.01  -0.02   0.17    -0.00   0.15  -0.26
    21   1    -0.20   0.02   0.05    -0.07   0.09   0.08     0.09  -0.14  -0.14
    22   1    -0.01   0.03  -0.14    -0.01  -0.13   0.21    -0.03  -0.18   0.16
    23   1     0.04   0.12   0.01     0.16  -0.26   0.00    -0.13  -0.33  -0.12
                      7                      8                      9
                      A                      A                      A
 Frequencies --    321.1888               359.1750               429.1134
 Red. masses --      2.8104                 2.5330                 2.1545
 Frc consts  --      0.1708                 0.1925                 0.2337
 IR Inten    --      1.6406                 0.9532                 2.4355
  Atom  AN      X      Y      Z        X      Y      Z        X      Y      Z
     1   8     0.10  -0.13   0.04    -0.05   0.06   0.05    -0.11  -0.01   0.06
     2   6     0.01  -0.10  -0.00    -0.07  -0.01  -0.05    -0.05  -0.07   0.04
     3   6     0.06  -0.05   0.03     0.01  -0.01  -0.03     0.04  -0.10  -0.10
     4   6     0.07   0.18  -0.07     0.01  -0.13   0.01     0.15  -0.03  -0.05
     5   6     0.02  -0.01   0.08     0.14  -0.12   0.01    -0.06   0.02   0.02
     6   6    -0.03   0.04   0.09     0.06  -0.01   0.09     0.01  -0.03  -0.03
     7   6    -0.08   0.04  -0.09     0.08   0.09  -0.04     0.05   0.01   0.02
     8   6    -0.14   0.05   0.02    -0.11   0.12  -0.01     0.01   0.02   0.01
     9   6    -0.02  -0.04  -0.08    -0.08   0.06  -0.05    -0.04   0.11   0.00
    10   1     0.10  -0.04   0.01     0.03   0.08  -0.05     0.06  -0.12  -0.11
    11   1     0.31   0.30  -0.15    -0.17  -0.23   0.03     0.19   0.03   0.03
    12   1    -0.16   0.36  -0.10     0.18  -0.26   0.07     0.09   0.04   0.07
    13   1     0.04   0.14  -0.05     0.04  -0.06  -0.02     0.32  -0.05  -0.10
    14   1     0.07   0.05   0.10     0.26  -0.34   0.08    -0.15   0.39  -0.05
    15   1    -0.05  -0.05   0.06     0.23  -0.08  -0.25    -0.21  -0.06   0.37
    16   1    -0.05   0.04   0.13    -0.08   0.03   0.19    -0.03  -0.02  -0.02
    17   1     0.02  -0.04   0.09     0.09  -0.18   0.06     0.03  -0.06  -0.03
    18   1     0.08   0.03  -0.25     0.16   0.00  -0.10    -0.02   0.02   0.09
    19   1    -0.26  -0.01  -0.19    -0.00   0.09  -0.08     0.12   0.01   0.05
    20   1    -0.12   0.00   0.23    -0.15  -0.03   0.17    -0.02  -0.01  -0.04
    21   1    -0.30   0.18   0.02    -0.26   0.27   0.00     0.03   0.01   0.01
    22   1     0.07  -0.04  -0.08     0.02   0.06  -0.02     0.10   0.14  -0.29
    23   1    -0.02  -0.01  -0.06    -0.09   0.04  -0.06    -0.16   0.39   0.10
                     10                     11                     12
                      A                      A                      A
 Frequencies --    456.8221               504.8865               558.5729
 Red. masses --      2.3394                 1.7769                 3.4897
 Frc consts  --      0.2876                 0.2669                 0.6415
 IR Inten    --      0.7649                 0.7198                 5.4303
  Atom  AN      X      Y      Z        X      Y      Z        X      Y      Z
     1   8    -0.05  -0.02  -0.02    -0.02   0.07  -0.00    -0.16   0.19  -0.02
     2   6     0.06   0.04   0.14    -0.02  -0.00  -0.07     0.12  -0.02   0.00
     3   6     0.13   0.04   0.09    -0.06  -0.05  -0.06     0.08  -0.09   0.18
     4   6     0.04  -0.07  -0.02     0.01   0.01  -0.00    -0.04   0.02   0.03
     5   6     0.07   0.06  -0.09    -0.01  -0.12   0.08    -0.07  -0.09   0.04
     6   6    -0.07   0.02   0.01     0.00   0.07   0.08    -0.03  -0.03  -0.04
     7   6    -0.13  -0.05  -0.06    -0.07  -0.03  -0.01     0.01   0.03  -0.01
     8   6    -0.01  -0.07   0.02     0.07  -0.05   0.03     0.02   0.02  -0.01
     9   6    -0.02   0.09   0.00     0.05   0.04   0.01     0.16  -0.07  -0.17
    10   1     0.16  -0.13   0.10    -0.04   0.06  -0.08     0.05  -0.17   0.20
    11   1    -0.02  -0.11  -0.03     0.04   0.03   0.00     0.14   0.01  -0.25
    12   1     0.13  -0.16  -0.17    -0.04   0.06   0.11    -0.15   0.11  -0.03
    13   1    -0.12  -0.10   0.05     0.13   0.05  -0.05    -0.26   0.16   0.08
    14   1     0.15  -0.11  -0.03     0.11  -0.21   0.15    -0.14  -0.10   0.00
    15   1     0.08   0.06  -0.28     0.02  -0.11  -0.09    -0.11  -0.12   0.04
    16   1     0.00  -0.02   0.13     0.11   0.07  -0.32    -0.09  -0.02  -0.04
    17   1    -0.18  -0.04  -0.06     0.11   0.41   0.21     0.01  -0.07  -0.03
    18   1     0.02   0.04  -0.23     0.14   0.08  -0.26    -0.09   0.01   0.10
    19   1    -0.32  -0.14  -0.17    -0.35  -0.11  -0.16     0.12   0.07   0.05
    20   1     0.01   0.01  -0.07     0.09   0.08  -0.15     0.08  -0.03   0.35
    21   1     0.06  -0.13   0.02     0.21  -0.18   0.03    -0.28   0.15  -0.05
    22   1    -0.03   0.11  -0.34     0.05   0.05  -0.14     0.24  -0.06  -0.28
    23   1    -0.10   0.40   0.12     0.11   0.16   0.07     0.10   0.05  -0.13
                     13                     14                     15
                      A                      A                      A
 Frequencies --    641.8167               760.0752               793.4262
 Red. masses --      3.3313                 2.2114                 2.2609
 Frc consts  --      0.8085                 0.7527                 0.8386
 IR Inten    --      1.7062                 1.2354                 0.5881
  Atom  AN      X      Y      Z        X      Y      Z        X      Y      Z
     1   8     0.08   0.06  -0.13    -0.03  -0.03  -0.02     0.03   0.05  -0.03
     2   6     0.10   0.22   0.09     0.07   0.06   0.16    -0.00   0.01  -0.08
     3   6     0.05  -0.08   0.04    -0.10  -0.01  -0.11     0.01  -0.11   0.06
     4   6     0.10  -0.03  -0.06    -0.02  -0.00  -0.02     0.01  -0.03   0.01
     5   6    -0.07  -0.15   0.08    -0.07   0.06  -0.02    -0.07   0.02  -0.06
     6   6    -0.01  -0.06  -0.01    -0.01   0.08   0.10     0.01   0.15   0.05
     7   6    -0.02  -0.03  -0.01     0.08  -0.00  -0.02     0.14   0.05   0.03
     8   6    -0.10   0.04  -0.06     0.05  -0.07  -0.05    -0.01  -0.10   0.07
     9   6    -0.11   0.09   0.08     0.04  -0.04  -0.05    -0.11  -0.02   0.00
    10   1     0.13  -0.26   0.03     0.03  -0.24  -0.12    -0.05  -0.13   0.08
    11   1     0.20   0.01  -0.11    -0.05   0.07   0.21     0.19  -0.00  -0.19
    12   1     0.02   0.04  -0.01    -0.05   0.04   0.18    -0.13   0.10   0.04
    13   1     0.13  -0.00  -0.08     0.30  -0.08  -0.12    -0.06   0.09   0.00
    14   1    -0.09  -0.10   0.07     0.12  -0.17   0.11    -0.10  -0.02  -0.08
    15   1    -0.09  -0.17   0.13     0.02   0.11  -0.32    -0.21  -0.07  -0.15
    16   1    -0.02  -0.04  -0.26     0.01   0.08   0.06    -0.22   0.20   0.40
    17   1     0.11   0.12   0.10     0.07   0.09   0.14    -0.07  -0.23  -0.09
    18   1    -0.08  -0.09   0.07     0.07  -0.09   0.02     0.30   0.07  -0.13
    19   1     0.04   0.03   0.04     0.09   0.10   0.02     0.02  -0.13  -0.08
    20   1    -0.14  -0.05  -0.06     0.06  -0.24   0.38    -0.09  -0.13  -0.21
    21   1    -0.11   0.06  -0.05    -0.31   0.16  -0.06     0.16  -0.24   0.07
    22   1    -0.35   0.06   0.43    -0.09  -0.05  -0.09    -0.21  -0.02  -0.05
    23   1    -0.12  -0.24  -0.05    -0.13  -0.03  -0.07     0.04   0.02   0.05
                     16                     17                     18
                      A                      A                      A
 Frequencies --    834.0287               854.1130               896.1330
 Red. masses --      2.3407                 1.5180                 2.2386
 Frc consts  --      0.9593                 0.6524                 1.0592
 IR Inten    --      0.4458                 4.3925                 1.1461
  Atom  AN      X      Y      Z        X      Y      Z        X      Y      Z
     1   8     0.02  -0.03   0.02     0.01   0.03  -0.01    -0.03  -0.01   0.04
     2   6    -0.08   0.00  -0.05     0.04  -0.02  -0.03    -0.06  -0.05  -0.06
     3   6     0.03   0.13   0.06    -0.02  -0.03  -0.01    -0.01  -0.01   0.07
     4   6     0.12   0.00  -0.07    -0.02  -0.02   0.00     0.09  -0.04  -0.03
     5   6    -0.09  -0.03   0.11    -0.02   0.03   0.05    -0.11   0.11  -0.04
     6   6    -0.10  -0.00  -0.05     0.04   0.04  -0.01    -0.01  -0.01   0.05
     7   6     0.05   0.06  -0.07    -0.06  -0.03  -0.10     0.03  -0.14   0.02
     8   6     0.10  -0.09   0.04    -0.07   0.01  -0.01     0.01   0.05  -0.06
     9   6    -0.06  -0.04  -0.00     0.03  -0.01   0.10     0.08   0.15   0.02
    10   1     0.02   0.33   0.04     0.05   0.03  -0.05    -0.15   0.04   0.11
    11   1     0.01  -0.07  -0.08     0.08   0.03  -0.02     0.20  -0.06  -0.24
    12   1     0.26  -0.13  -0.25    -0.12   0.08   0.12     0.01   0.02  -0.11
    13   1    -0.05  -0.04   0.00     0.09   0.04  -0.05    -0.09   0.07   0.00
    14   1    -0.00  -0.31   0.18     0.07  -0.22   0.12    -0.01  -0.24   0.04
    15   1    -0.01   0.01  -0.20     0.04   0.06  -0.25    -0.05   0.13  -0.37
    16   1    -0.14   0.02  -0.15     0.04   0.02   0.22     0.21  -0.08   0.04
    17   1     0.08   0.03   0.05     0.19  -0.23  -0.01    -0.02   0.09   0.08
    18   1    -0.20   0.15   0.15    -0.32  -0.26   0.24     0.10  -0.16  -0.05
    19   1     0.25   0.16   0.06     0.37   0.02   0.11    -0.04  -0.12  -0.01
    20   1     0.06  -0.23   0.18    -0.06   0.11  -0.18    -0.05  -0.09   0.02
    21   1     0.00   0.15   0.09     0.18   0.05   0.06    -0.14   0.03  -0.11
    22   1    -0.18  -0.04  -0.19     0.11   0.01  -0.16     0.21   0.13   0.44
    23   1     0.00   0.09   0.06     0.11   0.24   0.21     0.09  -0.25  -0.14
                     19                     20                     21
                      A                      A                      A
 Frequencies --    926.3505               952.4396               969.1706
 Red. masses --      1.8423                 1.9984                 1.9546
 Frc consts  --      0.9314                 1.0681                 1.0817
 IR Inten    --      3.8332                 9.3428                 6.5876
  Atom  AN      X      Y      Z        X      Y      Z        X      Y      Z
     1   8     0.02   0.02  -0.01     0.02   0.02  -0.02     0.01   0.01  -0.01
     2   6    -0.02  -0.02  -0.07     0.11  -0.05   0.00     0.01  -0.01  -0.02
     3   6     0.05  -0.09  -0.02    -0.00   0.06  -0.04    -0.01  -0.05   0.03
     4   6    -0.05  -0.01   0.07     0.03   0.04   0.02    -0.01  -0.08  -0.00
     5   6     0.09   0.02  -0.05    -0.10   0.00  -0.07    -0.00   0.13   0.01
     6   6    -0.06   0.01   0.06    -0.01  -0.08   0.09     0.03  -0.13  -0.03
     7   6    -0.01  -0.02  -0.06     0.09  -0.00   0.03    -0.02   0.04   0.04
     8   6     0.08  -0.05  -0.06    -0.09   0.07  -0.02     0.06   0.07   0.08
     9   6    -0.05   0.04   0.09    -0.04  -0.10   0.07    -0.12  -0.05  -0.06
    10   1    -0.08   0.01   0.02    -0.28  -0.02   0.09     0.07  -0.14   0.01
    11   1     0.09  -0.02  -0.14    -0.07  -0.06  -0.07     0.27   0.04  -0.14
    12   1    -0.17   0.08   0.04     0.13  -0.08  -0.22    -0.28   0.18   0.23
    13   1    -0.20   0.11   0.10    -0.24   0.01   0.12     0.14   0.11  -0.10
    14   1     0.17   0.28  -0.03    -0.00   0.01  -0.02     0.11  -0.19   0.09
    15   1    -0.08  -0.07   0.09     0.02   0.07  -0.06     0.24   0.27  -0.21
    16   1     0.12  -0.03  -0.11     0.04  -0.06  -0.28     0.26  -0.19  -0.16
    17   1    -0.16   0.24   0.07     0.05   0.24   0.20     0.10   0.08   0.06
    18   1    -0.13  -0.12   0.09     0.23  -0.15  -0.06    -0.07   0.30  -0.00
    19   1     0.04   0.34   0.07    -0.07   0.10  -0.02    -0.10   0.03   0.00
    20   1     0.01  -0.34   0.26    -0.16   0.01  -0.19     0.06   0.11   0.01
    21   1    -0.13   0.38   0.02     0.13   0.12   0.05     0.11   0.05   0.09
    22   1    -0.14   0.04  -0.04     0.21  -0.07  -0.29    -0.12  -0.05  -0.10
    23   1    -0.09   0.10   0.11    -0.15   0.29   0.21    -0.18   0.00  -0.05
                     22                     23                     24
                      A                      A                      A
 Frequencies --   1005.1544              1049.4995              1059.3932
 Red. masses --      1.9756                 1.5377                 1.3863
 Frc consts  --      1.1760                 0.9979                 0.9167
 IR Inten    --      9.3744                 1.9718                 3.4975
  Atom  AN      X      Y      Z        X      Y      Z        X      Y      Z
     1   8     0.01  -0.01  -0.01    -0.00   0.00  -0.01    -0.02  -0.01   0.00
     2   6    -0.06   0.08   0.03     0.07  -0.03   0.03     0.04  -0.02   0.03
     3   6    -0.12  -0.01   0.02    -0.07   0.03  -0.05     0.02  -0.04  -0.09
     4   6     0.10  -0.02  -0.03     0.04  -0.06   0.02     0.01   0.04   0.07
     5   6     0.00  -0.04  -0.07     0.04  -0.01   0.07     0.00   0.02   0.01
     6   6     0.14   0.03   0.07    -0.00   0.03  -0.08    -0.01  -0.01   0.01
     7   6    -0.11   0.01  -0.00    -0.01   0.03   0.05    -0.01   0.03  -0.05
     8   6     0.05   0.02   0.02    -0.02  -0.04  -0.06    -0.00  -0.03   0.06
     9   6     0.01  -0.05  -0.03     0.02   0.00   0.06    -0.01   0.05  -0.05
    10   1    -0.44  -0.05   0.16    -0.23   0.42  -0.03    -0.25  -0.10   0.03
    11   1     0.14  -0.10  -0.26     0.27  -0.05  -0.29    -0.06  -0.08  -0.11
    12   1     0.10  -0.05  -0.24    -0.18   0.11  -0.01     0.07  -0.05  -0.21
    13   1    -0.17   0.04   0.05    -0.12   0.17   0.02    -0.33   0.04   0.19
    14   1    -0.16   0.06  -0.16    -0.05  -0.09   0.02     0.34   0.16   0.18
    15   1    -0.02  -0.04   0.14     0.21   0.10   0.09    -0.04  -0.01  -0.09
    16   1     0.18   0.00   0.21    -0.15   0.06   0.06    -0.06   0.02  -0.08
    17   1     0.11  -0.11   0.02    -0.12  -0.08  -0.16     0.35  -0.09   0.16
    18   1    -0.11  -0.14   0.04     0.08   0.12  -0.07    -0.20   0.20   0.08
    19   1    -0.04   0.11   0.06    -0.12  -0.09  -0.04     0.21  -0.18  -0.00
    20   1     0.23   0.24   0.21     0.00  -0.08   0.10    -0.00   0.04  -0.07
    21   1     0.03   0.14   0.05    -0.24  -0.15  -0.15    -0.01  -0.26  -0.02
    22   1    -0.21  -0.06  -0.17     0.12   0.01   0.00    -0.04   0.03   0.18
    23   1     0.04   0.04   0.01    -0.38   0.06   0.02    -0.10  -0.14  -0.14
                     25                     26                     27
                      A                      A                      A
 Frequencies --   1067.7606              1110.6506              1153.1581
 Red. masses --      1.8176                 2.0059                 2.0171
 Frc consts  --      1.2210                 1.4579                 1.5804
 IR Inten    --      7.1475                 4.3415                11.8117
  Atom  AN      X      Y      Z        X      Y      Z        X      Y      Z
     1   8    -0.02  -0.03   0.02     0.00   0.02  -0.00    -0.01  -0.04   0.02
     2   6    -0.06   0.06   0.04     0.04  -0.07  -0.06    -0.07   0.06   0.04
     3   6    -0.06   0.00   0.03     0.01  -0.02   0.04     0.15   0.09  -0.09
     4   6     0.03  -0.06  -0.01    -0.01   0.05  -0.03    -0.04  -0.07   0.08
     5   6     0.07   0.04  -0.01    -0.05   0.01  -0.04    -0.09  -0.04  -0.07
     6   6    -0.04  -0.05   0.01     0.13  -0.05   0.01     0.06  -0.04   0.04
     7   6     0.04   0.10  -0.03    -0.08   0.14   0.04    -0.01   0.04   0.02
     8   6    -0.11  -0.09  -0.02    -0.02  -0.12  -0.05    -0.02  -0.02  -0.02
     9   6     0.10  -0.00  -0.01     0.01   0.05   0.08     0.03  -0.01  -0.00
    10   1    -0.13  -0.17   0.08     0.04  -0.11   0.04     0.30   0.40  -0.20
    11   1     0.19  -0.02  -0.16    -0.20   0.03   0.19     0.23   0.00  -0.16
    12   1    -0.10   0.06   0.03     0.16  -0.09  -0.03    -0.31   0.16   0.14
    13   1     0.02   0.06  -0.04     0.08  -0.12  -0.02    -0.10   0.22   0.04
    14   1     0.10   0.09   0.01    -0.16  -0.13  -0.09    -0.12  -0.02  -0.09
    15   1     0.22   0.14   0.13    -0.01   0.03  -0.06    -0.32  -0.18  -0.16
    16   1    -0.11  -0.00  -0.23     0.26  -0.10   0.11     0.05  -0.03  -0.05
    17   1    -0.01   0.15   0.07     0.23  -0.10   0.05     0.25  -0.06   0.13
    18   1    -0.00   0.08   0.02    -0.13   0.39   0.00     0.02   0.03  -0.01
    19   1     0.02   0.26  -0.00    -0.21   0.31   0.02    -0.05   0.06   0.01
    20   1    -0.20  -0.15  -0.22    -0.12  -0.32   0.02     0.07   0.11   0.06
    21   1     0.08  -0.11   0.03    -0.25  -0.17  -0.13    -0.05  -0.08  -0.04
    22   1     0.00  -0.01   0.00     0.05   0.05   0.08    -0.07  -0.01  -0.05
    23   1     0.62  -0.01   0.07    -0.08   0.01   0.05     0.16   0.01   0.02
                     28                     29                     30
                      A                      A                      A
 Frequencies --   1185.6607              1193.8072              1232.7453
 Red. masses --      1.9485                 1.5150                 1.2554
 Frc consts  --      1.6139                 1.2721                 1.1241
 IR Inten    --     31.8969                 1.8891                 7.7822
  Atom  AN      X      Y      Z        X      Y      Z        X      Y      Z
     1   8    -0.03  -0.00   0.01    -0.02  -0.01   0.01     0.02   0.00  -0.02
     2   6     0.14  -0.08   0.04     0.03   0.01   0.04    -0.04   0.07   0.04
     3   6    -0.03   0.07  -0.00     0.01  -0.07  -0.10    -0.04  -0.02   0.02
     4   6    -0.01  -0.03  -0.03     0.02   0.05   0.06     0.01  -0.01  -0.01
     5   6     0.01  -0.06  -0.05    -0.03   0.02   0.09     0.04  -0.01   0.00
     6   6     0.00   0.02   0.07     0.04   0.01  -0.08    -0.02   0.01   0.00
     7   6    -0.01  -0.01  -0.08    -0.00  -0.01   0.05     0.02  -0.04   0.00
     8   6     0.01  -0.02   0.11    -0.01   0.01  -0.01    -0.00   0.04  -0.01
     9   6    -0.05   0.06  -0.09    -0.02   0.00  -0.04    -0.00  -0.06  -0.01
    10   1    -0.08   0.38  -0.02     0.10   0.03  -0.15    -0.03   0.15  -0.00
    11   1     0.08   0.03  -0.00    -0.10  -0.08  -0.05     0.02  -0.00  -0.02
    12   1    -0.09   0.05   0.10     0.09  -0.04  -0.17     0.01  -0.01  -0.01
    13   1     0.10   0.04  -0.08    -0.27   0.01   0.18     0.04  -0.01  -0.02
    14   1    -0.29  -0.04  -0.21    -0.06  -0.21   0.09     0.11   0.11   0.03
    15   1     0.04  -0.02   0.16    -0.01   0.02  -0.13    -0.35  -0.24  -0.11
    16   1     0.17  -0.03   0.07     0.23  -0.08   0.19     0.35  -0.12   0.15
    17   1    -0.17   0.12   0.02    -0.30  -0.01  -0.24    -0.03   0.01  -0.00
    18   1    -0.16  -0.05   0.09     0.08   0.02  -0.05    -0.17   0.44   0.03
    19   1     0.10   0.26   0.05    -0.22   0.23   0.02     0.03  -0.09  -0.01
    20   1    -0.20  -0.23  -0.24    -0.12  -0.15  -0.09    -0.19  -0.24  -0.13
    21   1     0.24   0.06   0.19     0.15   0.27   0.11     0.00  -0.00  -0.02
    22   1     0.01   0.05   0.24    -0.19  -0.01  -0.00     0.47  -0.03  -0.04
    23   1    -0.02  -0.16  -0.17     0.39  -0.01   0.02    -0.03   0.05   0.03
                     31                     32                     33
                      A                      A                      A
 Frequencies --   1253.7552              1279.4078              1315.9798
 Red. masses --      1.3460                 1.3500                 1.1939
 Frc consts  --      1.2466                 1.3020                 1.2182
 IR Inten    --      0.8966                 4.9895                 0.9064
  Atom  AN      X      Y      Z        X      Y      Z        X      Y      Z
     1   8    -0.01   0.00   0.00    -0.02  -0.00   0.01     0.01   0.00  -0.01
     2   6     0.05  -0.02   0.01     0.06  -0.04   0.01    -0.03   0.03   0.01
     3   6    -0.04  -0.09   0.06     0.01   0.04   0.02     0.01  -0.01   0.01
     4   6    -0.00   0.02  -0.04    -0.03  -0.02  -0.03    -0.01  -0.00  -0.02
     5   6     0.03   0.05  -0.01    -0.01  -0.02  -0.02    -0.01   0.02   0.02
     6   6    -0.02  -0.05  -0.01     0.01   0.03  -0.04     0.05  -0.02  -0.05
     7   6     0.04   0.03  -0.00    -0.04  -0.03   0.09    -0.02   0.01   0.01
     8   6    -0.05  -0.00  -0.00     0.04   0.03  -0.06    -0.01  -0.06   0.05
     9   6     0.05   0.01   0.01    -0.04   0.01  -0.01    -0.01   0.01  -0.03
    10   1    -0.12   0.57   0.00    -0.28   0.12   0.14    -0.16   0.05   0.08
    11   1    -0.09   0.02   0.09     0.04   0.05   0.05     0.00   0.02   0.03
    12   1     0.08  -0.04   0.03    -0.05   0.01   0.08    -0.00  -0.01   0.03
    13   1     0.09  -0.09  -0.05     0.15   0.00  -0.10     0.06  -0.01  -0.04
    14   1     0.14   0.08   0.05     0.25   0.20   0.11     0.24   0.11   0.15
    15   1    -0.30  -0.15  -0.17    -0.04  -0.04  -0.01    -0.20  -0.10  -0.16
    16   1     0.17  -0.11  -0.04    -0.19   0.09  -0.02    -0.19   0.06  -0.08
    17   1    -0.04   0.06   0.01     0.38  -0.22   0.08     0.02  -0.10  -0.09
    18   1     0.08  -0.05  -0.02     0.04   0.08  -0.04     0.15  -0.37  -0.04
    19   1     0.02   0.03  -0.01    -0.14  -0.18  -0.00    -0.21   0.47   0.05
    20   1     0.10   0.26   0.04    -0.12  -0.26  -0.04     0.04   0.03   0.03
    21   1    -0.02  -0.11  -0.03     0.07   0.37   0.06     0.15   0.04   0.13
    22   1    -0.51  -0.02  -0.06    -0.16   0.00   0.01     0.41   0.02   0.11
    23   1    -0.01   0.00   0.00     0.36   0.03   0.07    -0.22  -0.05  -0.09
                     34                     35                     36
                      A                      A                      A
 Frequencies --   1332.6428              1355.2650              1369.6435
 Red. masses --      1.3730                 1.4222                 1.4017
 Frc consts  --      1.4366                 1.5390                 1.5492
 IR Inten    --      0.2414                 2.9222                 5.3469
  Atom  AN      X      Y      Z        X      Y      Z        X      Y      Z
     1   8     0.00   0.01  -0.01    -0.00  -0.00  -0.01    -0.01   0.00   0.00
     2   6     0.01   0.01   0.02     0.01   0.03   0.03     0.06  -0.05  -0.01
     3   6    -0.11  -0.08   0.05     0.06  -0.08  -0.02    -0.07   0.08   0.02
     4   6     0.04   0.03   0.03    -0.02   0.02  -0.03     0.01  -0.02   0.01
     5   6     0.02   0.04  -0.06     0.01   0.04   0.01    -0.02  -0.05  -0.01
     6   6    -0.02  -0.01   0.01     0.01  -0.02   0.03    -0.03   0.01  -0.03
     7   6    -0.03   0.01   0.02    -0.01   0.01  -0.02     0.01   0.02  -0.01
     8   6     0.02  -0.01  -0.00     0.04  -0.00  -0.02     0.04   0.02   0.01
     9   6    -0.02  -0.00  -0.01    -0.12  -0.01  -0.01    -0.09   0.00   0.01
    10   1     0.60   0.31  -0.30    -0.31   0.28   0.09     0.23  -0.15  -0.07
    11   1    -0.03  -0.08  -0.11    -0.11   0.02   0.10     0.09  -0.01  -0.07
    12   1     0.09  -0.04  -0.14     0.02  -0.01   0.09    -0.01  -0.00  -0.07
    13   1    -0.10  -0.04   0.09     0.00  -0.08  -0.01     0.02   0.07  -0.01
    14   1    -0.06   0.04  -0.11    -0.23  -0.20  -0.11     0.30   0.24   0.15
    15   1     0.08   0.08   0.03     0.05   0.06   0.01    -0.04  -0.06  -0.01
    16   1    -0.23   0.07  -0.13    -0.17   0.05  -0.09     0.34  -0.12   0.11
    17   1     0.33  -0.08   0.16    -0.08   0.09   0.01    -0.03  -0.05  -0.06
    18   1     0.05  -0.15  -0.01    -0.02  -0.03   0.00     0.14  -0.22  -0.06
    19   1    -0.03  -0.06   0.00     0.10  -0.10  -0.00     0.03   0.16   0.02
    20   1    -0.05  -0.13  -0.01     0.15   0.12   0.14     0.13   0.14   0.11
    21   1     0.05   0.10   0.04    -0.20  -0.17  -0.13    -0.26  -0.33  -0.18
    22   1     0.19   0.00   0.03     0.39   0.01   0.13     0.08   0.01   0.11
    23   1     0.02  -0.01  -0.01     0.46   0.10   0.14     0.36   0.10   0.13
                     37                     38                     39
                      A                      A                      A
 Frequencies --   1391.9100              1400.7725              1404.8119
 Red. masses --      1.4593                 1.3870                 1.4475
 Frc consts  --      1.6658                 1.6035                 1.6831
 IR Inten    --     10.4291                 7.4361                 0.3655
  Atom  AN      X      Y      Z        X      Y      Z        X      Y      Z
     1   8    -0.01   0.01  -0.00     0.01   0.00  -0.01    -0.00   0.00   0.00
     2   6     0.05  -0.06  -0.01    -0.01   0.01   0.01     0.01  -0.01  -0.00
     3   6    -0.07   0.06   0.01     0.03  -0.04   0.01    -0.00   0.02  -0.03
     4   6     0.03  -0.01   0.00    -0.02   0.01   0.01     0.01  -0.00   0.00
     5   6     0.04   0.02   0.02    -0.06  -0.05  -0.04     0.10   0.03   0.04
     6   6     0.06  -0.03   0.03    -0.05   0.04  -0.01    -0.13   0.04  -0.04
     7   6     0.02  -0.04   0.00     0.04  -0.00   0.02     0.05  -0.05   0.02
     8   6    -0.05  -0.07  -0.05    -0.07  -0.10  -0.04    -0.02  -0.00   0.00
     9   6    -0.04   0.03   0.00    -0.02   0.02  -0.01    -0.01   0.01  -0.00
    10   1     0.15  -0.20  -0.05    -0.00   0.18  -0.01    -0.12  -0.18   0.05
    11   1     0.00  -0.03  -0.01     0.03   0.02  -0.04    -0.05  -0.02   0.03
    12   1    -0.05   0.04  -0.04     0.07  -0.06  -0.01    -0.05   0.04  -0.02
    13   1    -0.05   0.06   0.01     0.07  -0.05  -0.02    -0.03   0.03   0.00
    14   1    -0.06   0.04  -0.04     0.16   0.08   0.07    -0.43  -0.20  -0.24
    15   1    -0.33  -0.20  -0.21     0.37   0.21   0.22    -0.13  -0.11  -0.01
    16   1    -0.31   0.11  -0.13     0.31  -0.10   0.20     0.20  -0.07   0.03
    17   1    -0.20   0.10  -0.06     0.08   0.01   0.05     0.54  -0.20   0.21
    18   1    -0.15   0.39   0.04     0.01   0.22  -0.01     0.06  -0.02   0.00
    19   1    -0.00  -0.04  -0.01     0.02  -0.02  -0.01    -0.20   0.29   0.01
    20   1     0.23   0.35   0.15     0.24   0.35   0.18     0.08   0.15   0.08
    21   1     0.13   0.27   0.10     0.25   0.29   0.16     0.04  -0.05   0.01
    22   1     0.07   0.03   0.12     0.21   0.03   0.09    -0.01   0.01   0.03
    23   1     0.10   0.02   0.03    -0.02  -0.03  -0.03     0.01   0.01   0.01
                     40                     41                     42
                      A                      A                      A
 Frequencies --   1412.6008              1437.6080              1506.5531
 Red. masses --      1.4423                 1.2356                 1.1069
 Frc consts  --      1.6957                 1.5045                 1.4802
 IR Inten    --      0.8079                 8.9027                 6.0801
  Atom  AN      X      Y      Z        X      Y      Z        X      Y      Z
     1   8    -0.00  -0.00   0.00    -0.00  -0.01   0.01     0.00  -0.00   0.00
     2   6    -0.00   0.01  -0.00     0.01   0.00  -0.01    -0.02   0.01  -0.01
     3   6     0.01  -0.03   0.01     0.01   0.00  -0.02     0.00  -0.01  -0.00
     4   6    -0.02   0.01   0.01    -0.11   0.03   0.08    -0.00  -0.00  -0.01
     5   6    -0.04  -0.02  -0.02     0.02   0.01   0.02     0.00  -0.02   0.02
     6   6     0.04   0.04   0.01     0.00  -0.01   0.00    -0.00   0.00   0.01
     7   6     0.05  -0.16  -0.03    -0.00   0.01  -0.00    -0.01   0.01   0.00
     8   6    -0.01   0.06   0.02     0.00  -0.00  -0.00    -0.01  -0.00  -0.01
     9   6     0.01  -0.02   0.00    -0.00   0.00  -0.00     0.04  -0.04  -0.06
    10   1     0.05   0.14  -0.03    -0.04  -0.04   0.01     0.00  -0.01   0.00
    11   1     0.04   0.01  -0.06     0.37   0.09  -0.42     0.07   0.07   0.05
    12   1     0.06  -0.06  -0.03     0.32  -0.35  -0.32     0.06  -0.05   0.07
    13   1     0.07  -0.04  -0.01     0.50  -0.08  -0.13    -0.09   0.02   0.02
    14   1     0.09   0.11   0.03    -0.12  -0.03  -0.06    -0.13   0.21  -0.07
    15   1     0.21   0.13   0.04    -0.07  -0.04  -0.08     0.11   0.05  -0.24
    16   1    -0.29   0.15  -0.05    -0.03  -0.00  -0.01     0.05  -0.01  -0.09
    17   1     0.03  -0.07  -0.02    -0.02   0.04   0.01    -0.02  -0.08  -0.02
    18   1    -0.20   0.40   0.04     0.00  -0.04   0.01     0.05   0.00  -0.05
    19   1    -0.22   0.57   0.06     0.01  -0.06  -0.01     0.07  -0.04   0.03
    20   1    -0.00   0.09  -0.02    -0.01  -0.02  -0.01    -0.02  -0.07   0.06
    21   1    -0.14  -0.26  -0.12    -0.00   0.01   0.00     0.09  -0.00   0.02
    22   1    -0.14  -0.03  -0.00    -0.01   0.00   0.01    -0.12  -0.07   0.60
    23   1     0.03   0.08   0.06     0.01   0.00   0.00    -0.13   0.59   0.19
                     43                     44                     45
                      A                      A                      A
 Frequencies --   1513.3855              1515.9196              1520.7348
 Red. masses --      1.0840                 1.0854                 1.0597
 Frc consts  --      1.4628                 1.4695                 1.4439
 IR Inten    --      0.9031                 5.3629                 4.1332
  Atom  AN      X      Y      Z        X      Y      Z        X      Y      Z
     1   8    -0.00  -0.00   0.00     0.00  -0.00   0.00    -0.00  -0.00  -0.00
     2   6    -0.00   0.00  -0.00    -0.01   0.00  -0.00     0.00   0.01   0.00
     3   6     0.00   0.01  -0.00     0.01   0.00   0.00    -0.01  -0.01  -0.01
     4   6     0.01   0.01   0.01     0.01   0.00   0.01    -0.02  -0.02  -0.03
     5   6     0.01   0.02  -0.02    -0.00  -0.02   0.01     0.01  -0.01   0.02
     6   6    -0.00  -0.01  -0.01     0.00  -0.04  -0.06    -0.01  -0.00  -0.01
     7   6    -0.06  -0.03   0.01     0.02   0.01  -0.01    -0.01  -0.01   0.01
     8   6     0.01  -0.02   0.02     0.02  -0.01   0.02     0.02  -0.03   0.02
     9   6     0.02  -0.01  -0.01     0.01  -0.01  -0.01    -0.00   0.01   0.02
    10   1    -0.00  -0.02   0.01    -0.01  -0.00   0.01     0.02   0.00  -0.02
    11   1    -0.11  -0.11  -0.09    -0.12  -0.10  -0.05     0.34   0.33   0.28
    12   1    -0.09   0.08  -0.08    -0.11   0.09  -0.06     0.28  -0.24   0.14
    13   1     0.11  -0.06  -0.02     0.07  -0.03  -0.01    -0.29   0.24   0.03
    14   1     0.10  -0.26   0.06    -0.04   0.14  -0.03    -0.10   0.14  -0.06
    15   1    -0.13  -0.06   0.25     0.05   0.01  -0.12     0.07   0.03  -0.16
    16   1    -0.06   0.00   0.07    -0.19  -0.01   0.54    -0.01  -0.01   0.04
    17   1     0.05   0.07   0.04     0.15   0.54   0.18     0.05   0.03   0.03
    18   1     0.31   0.18  -0.40    -0.12  -0.10   0.16     0.09   0.04  -0.10
    19   1     0.43   0.17   0.27    -0.19  -0.04  -0.11     0.10   0.06   0.07
    20   1    -0.01   0.09  -0.24     0.01   0.08  -0.21     0.02   0.15  -0.31
    21   1    -0.20   0.16   0.01    -0.21   0.11  -0.01    -0.29   0.19  -0.00
    22   1    -0.03  -0.02   0.13    -0.02  -0.02   0.10     0.04   0.01  -0.13
    23   1    -0.06   0.13   0.04    -0.02   0.11   0.04     0.01  -0.13  -0.04
                     46                     47                     48
                      A                      A                      A
 Frequencies --   1527.7755              1530.3492              1532.7886
 Red. masses --      1.0663                 1.0834                 1.0661
 Frc consts  --      1.4664                 1.4949                 1.4757
 IR Inten    --      4.5037                 3.6732                13.6344
  Atom  AN      X      Y      Z        X      Y      Z        X      Y      Z
     1   8     0.00   0.00  -0.00    -0.00   0.00  -0.00    -0.00  -0.00   0.00
     2   6    -0.00  -0.00   0.00     0.01  -0.01   0.00     0.01  -0.00  -0.01
     3   6    -0.01  -0.02   0.00    -0.00   0.02  -0.00    -0.01   0.02  -0.01
     4   6    -0.01  -0.04   0.00    -0.00   0.02  -0.02    -0.01   0.02  -0.03
     5   6     0.00   0.02  -0.02     0.01  -0.02   0.02     0.00   0.03  -0.04
     6   6     0.01  -0.02  -0.02     0.00  -0.02  -0.02     0.00  -0.00  -0.01
     7   6    -0.01  -0.01  -0.00    -0.04  -0.02   0.00     0.02   0.00  -0.00
     8   6    -0.02   0.03  -0.02    -0.02   0.03  -0.02     0.00  -0.00   0.00
     9   6    -0.00  -0.00  -0.01    -0.01   0.01   0.01     0.00  -0.01  -0.01
    10   1     0.02   0.01  -0.01    -0.00  -0.03  -0.00     0.04  -0.05  -0.03
    11   1     0.09   0.19   0.36     0.10   0.01  -0.16     0.25   0.12  -0.13
    12   1     0.05  -0.10  -0.30     0.09  -0.03   0.32     0.20  -0.12   0.41
    13   1    -0.02   0.49  -0.11    -0.14  -0.29   0.11    -0.24  -0.27   0.13
    14   1     0.10  -0.22   0.06    -0.09   0.18  -0.06     0.19  -0.37   0.11
    15   1    -0.09  -0.03   0.22     0.04   0.01  -0.19    -0.20  -0.09   0.38
    16   1    -0.12   0.01   0.21    -0.11  -0.01   0.24    -0.03   0.01   0.07
    17   1     0.05   0.22   0.07     0.07   0.25   0.09     0.03   0.05   0.02
    18   1     0.01   0.01  -0.03     0.17   0.09  -0.23    -0.12  -0.06   0.15
    19   1     0.03   0.02   0.02     0.25   0.09   0.15    -0.18  -0.03  -0.10
    20   1    -0.02  -0.15   0.29    -0.03  -0.16   0.33     0.01   0.01  -0.02
    21   1     0.28  -0.19  -0.00     0.31  -0.21   0.00    -0.02   0.01  -0.00
    22   1    -0.02  -0.01   0.06     0.01   0.02  -0.14    -0.03  -0.02   0.15
    23   1    -0.00   0.07   0.02     0.03  -0.14  -0.05    -0.02   0.15   0.05
                     49                     50                     51
                      A                      A                      A
 Frequencies --   1796.7866              2985.8797              3019.0995
 Red. masses --     11.2549                 1.0811                 1.0667
 Frc consts  --     21.4084                 5.6790                 5.7286
 IR Inten    --    134.4507                15.3852                18.8839
  Atom  AN      X      Y      Z        X      Y      Z        X      Y      Z
     1   8    -0.24  -0.32   0.30    -0.00  -0.00   0.00     0.00   0.00  -0.00
     2   6     0.37   0.49  -0.45    -0.00   0.00  -0.00    -0.00  -0.00   0.00
     3   6    -0.02  -0.03   0.03    -0.03  -0.01  -0.07     0.00   0.00   0.00
     4   6     0.01   0.01  -0.01     0.00  -0.00   0.00    -0.00  -0.00  -0.00
     5   6     0.00  -0.01   0.00    -0.00  -0.00   0.01    -0.00  -0.00   0.00
     6   6    -0.00   0.00  -0.00     0.00   0.00  -0.00    -0.01  -0.01   0.01
     7   6     0.00   0.00   0.00     0.00   0.00  -0.00     0.05   0.02  -0.04
     8   6    -0.02  -0.01  -0.01    -0.00  -0.00   0.00    -0.01   0.00   0.01
     9   6    -0.02  -0.02   0.03    -0.00   0.00   0.00    -0.00  -0.00   0.00
    10   1     0.03  -0.07  -0.00     0.38   0.12   0.90    -0.00  -0.00  -0.01
    11   1    -0.10  -0.02   0.09    -0.01   0.03  -0.01    -0.00  -0.00  -0.00
    12   1    -0.04   0.06  -0.02    -0.01  -0.01   0.00    -0.00  -0.00  -0.00
    13   1    -0.03   0.04  -0.01    -0.02  -0.01  -0.05     0.00   0.00   0.01
    14   1     0.01   0.02   0.00     0.06  -0.01  -0.11     0.03  -0.00  -0.04
    15   1     0.02  -0.01  -0.00    -0.03   0.04   0.00    -0.01   0.02   0.00
    16   1     0.01  -0.01   0.03    -0.00   0.00  -0.00     0.02   0.06   0.01
    17   1     0.00   0.01  -0.00    -0.01  -0.00   0.02     0.08   0.04  -0.17
    18   1     0.00   0.02  -0.01     0.00   0.00   0.00    -0.26  -0.08  -0.28
    19   1     0.00  -0.01   0.00    -0.00  -0.00   0.01    -0.34  -0.21   0.79
    20   1     0.02   0.02   0.08    -0.00   0.00   0.00     0.10  -0.05  -0.02
    21   1     0.09   0.02   0.02     0.00   0.00  -0.00     0.02   0.02  -0.07
    22   1     0.22   0.02  -0.08    -0.00  -0.01  -0.00     0.00  -0.00   0.00
    23   1    -0.22   0.02   0.00     0.00   0.01  -0.02     0.00   0.00  -0.01
                     52                     53                     54
                      A                      A                      A
 Frequencies --   3029.3223              3037.1810              3040.5490
 Red. masses --      1.0640                 1.0645                 1.0627
 Frc consts  --      5.7528                 5.7856                 5.7888
 IR Inten    --     11.5897                20.5697                13.8808
  Atom  AN      X      Y      Z        X      Y      Z        X      Y      Z
     1   8     0.00  -0.00   0.00    -0.00   0.00   0.00    -0.00  -0.00   0.00
     2   6    -0.00   0.00  -0.00     0.00  -0.00  -0.00     0.00  -0.00  -0.00
     3   6     0.00   0.00   0.00    -0.00  -0.00  -0.01     0.00   0.00   0.00
     4   6    -0.00   0.00   0.00     0.00  -0.00  -0.00    -0.00   0.00   0.00
     5   6    -0.01   0.01   0.01     0.01   0.03  -0.05    -0.00  -0.01   0.02
     6   6     0.02  -0.02  -0.06    -0.01  -0.02   0.00     0.00   0.01   0.00
     7   6     0.01   0.01   0.01     0.01   0.00   0.01     0.01   0.00   0.02
     8   6    -0.00   0.00   0.00    -0.01   0.01  -0.02    -0.02   0.04  -0.04
     9   6     0.00  -0.00  -0.00    -0.00  -0.00   0.02    -0.00  -0.01   0.00
    10   1    -0.01  -0.01  -0.03     0.04   0.02   0.10    -0.01  -0.01  -0.03
    11   1     0.01  -0.02   0.01    -0.03   0.05  -0.02     0.01  -0.02   0.01
    12   1     0.01   0.01   0.00    -0.02  -0.02   0.00     0.01   0.01  -0.00
    13   1    -0.02  -0.01  -0.04     0.01   0.01   0.03    -0.01  -0.00  -0.01
    14   1     0.08  -0.01  -0.14    -0.36   0.06   0.64     0.11  -0.02  -0.20
    15   1     0.03  -0.06   0.00     0.25  -0.41  -0.01    -0.10   0.16   0.00
    16   1     0.16   0.46   0.02     0.07   0.20   0.01    -0.04  -0.11  -0.01
    17   1    -0.35  -0.20   0.70     0.02   0.01  -0.04     0.02   0.01  -0.04
    18   1    -0.16  -0.06  -0.17    -0.09  -0.03  -0.09    -0.14  -0.04  -0.14
    19   1    -0.01  -0.01   0.03     0.01   0.01  -0.03     0.05   0.03  -0.10
    20   1     0.03  -0.02  -0.01     0.12  -0.06  -0.04     0.48  -0.25  -0.14
    21   1    -0.00  -0.00   0.00    -0.06  -0.07   0.22    -0.19  -0.20   0.66
    22   1    -0.00   0.01   0.00     0.00  -0.07   0.00    -0.01   0.06   0.00
    23   1    -0.00  -0.01   0.02     0.04   0.09  -0.21     0.01   0.02  -0.04
                     55                     56                     57
                      A                      A                      A
 Frequencies --   3050.2542              3057.4163              3065.2615
 Red. masses --      1.0640                 1.0395                 1.0940
 Frc consts  --      5.8329                 5.7249                 6.0561
 IR Inten    --     21.1196                15.8874                57.0638
  Atom  AN      X      Y      Z        X      Y      Z        X      Y      Z
     1   8    -0.00  -0.00  -0.00    -0.00  -0.00   0.00    -0.00  -0.00   0.00
     2   6    -0.00   0.00   0.00    -0.00   0.00  -0.00     0.00  -0.00  -0.00
     3   6    -0.00  -0.00  -0.00    -0.00  -0.00   0.00     0.00   0.00   0.00
     4   6     0.00  -0.00  -0.00     0.03  -0.03  -0.03    -0.00  -0.00   0.00
     5   6    -0.00   0.01  -0.01    -0.01   0.00   0.01    -0.01   0.02   0.01
     6   6    -0.00  -0.01   0.00     0.00  -0.00  -0.00    -0.00  -0.01  -0.01
     7   6    -0.00  -0.00   0.00     0.00   0.00   0.00    -0.04  -0.01  -0.07
     8   6    -0.02   0.01   0.01     0.00  -0.00  -0.00    -0.02   0.01  -0.00
     9   6     0.01  -0.01  -0.06    -0.00   0.00   0.01    -0.00  -0.00   0.01
    10   1     0.02   0.01   0.04    -0.00  -0.00  -0.01    -0.01  -0.00  -0.01
    11   1    -0.03   0.06  -0.03    -0.30   0.50  -0.23     0.00  -0.00   0.00
    12   1    -0.02  -0.03   0.00    -0.24  -0.29   0.02     0.01   0.01  -0.00
    13   1     0.02   0.01   0.06     0.23   0.13   0.60    -0.01  -0.00  -0.02
    14   1    -0.06   0.01   0.10     0.07  -0.01  -0.13     0.07  -0.01  -0.13
    15   1     0.10  -0.16   0.00     0.02  -0.03   0.00     0.11  -0.19   0.01
    16   1     0.02   0.06   0.01     0.00   0.01   0.00     0.06   0.18   0.01
    17   1     0.03   0.01  -0.06    -0.01  -0.01   0.02    -0.03  -0.02   0.05
    18   1    -0.00  -0.00  -0.00    -0.01  -0.00  -0.01     0.56   0.18   0.56
    19   1     0.01   0.01  -0.03     0.00   0.00  -0.01    -0.13  -0.08   0.27
    20   1     0.20  -0.11  -0.05    -0.02   0.01   0.01     0.27  -0.15  -0.07
    21   1     0.01   0.02  -0.06    -0.00  -0.01   0.02    -0.03  -0.02   0.08
    22   1    -0.02   0.42   0.01     0.00  -0.04  -0.00    -0.00  -0.01  -0.00
    23   1    -0.13  -0.33   0.75     0.01   0.03  -0.07     0.02   0.04  -0.08
                     58                     59                     60
                      A                      A                      A
 Frequencies --   3070.6763              3076.3043              3083.3654
 Red. masses --      1.1022                 1.0968                 1.1021
 Frc consts  --      6.1234                 6.1157                 6.1732
 IR Inten    --     36.5831                47.1272                65.6442
  Atom  AN      X      Y      Z        X      Y      Z        X      Y      Z
     1   8     0.00  -0.00  -0.00    -0.00  -0.00   0.00    -0.00  -0.00   0.00
     2   6    -0.00   0.00   0.00     0.00   0.00  -0.00    -0.00   0.00  -0.00
     3   6     0.00   0.00   0.00     0.00  -0.00  -0.00    -0.00  -0.00  -0.00
     4   6    -0.00   0.00   0.00     0.00  -0.00  -0.01     0.00  -0.00   0.00
     5   6    -0.02   0.01   0.02     0.05  -0.06  -0.03     0.01  -0.01  -0.01
     6   6    -0.04  -0.07   0.03    -0.01  -0.03  -0.00     0.01   0.01  -0.01
     7   6    -0.00  -0.00   0.02    -0.01  -0.00  -0.01    -0.00   0.00  -0.03
     8   6     0.02  -0.01  -0.02    -0.01   0.00   0.01     0.06  -0.01  -0.06
     9   6     0.00   0.00  -0.00     0.00  -0.00  -0.00     0.00  -0.01  -0.02
    10   1    -0.01  -0.00  -0.02     0.01   0.00   0.02     0.00   0.00   0.01
    11   1     0.03  -0.05   0.02    -0.02   0.03  -0.01    -0.01   0.02  -0.01
    12   1     0.02   0.03  -0.00    -0.03  -0.04   0.00    -0.01  -0.01   0.00
    13   1    -0.01  -0.00  -0.02     0.03   0.02   0.08    -0.00  -0.00  -0.00
    14   1     0.16  -0.02  -0.29    -0.19   0.02   0.36    -0.06   0.01   0.11
    15   1     0.06  -0.10   0.01    -0.40   0.67  -0.02    -0.04   0.07  -0.00
    16   1     0.22   0.67   0.06     0.12   0.37   0.03    -0.03  -0.08  -0.01
    17   1     0.21   0.11  -0.45     0.01   0.00  -0.03    -0.06  -0.03   0.13
[...]
 9,0.00015502,0.00010425,-0.00008374,0.00006668,-0.00011324,0.00040340,
 -0.00043904,-0.00096888,0.00047348,0.00109809,0.00032509,0.00098682,0.
 08366983,-0.10614158,-0.06508825,-0.01125318,0.00611746,0.00977493,-0.
 00152808,0.00098995,0.00093587,-0.00007919,-0.00003954,0.00002778,-0.0
 0034561,-0.00051273,-0.00053843,0.00049356,0.00045106,0.00044284,-0.00
 011172,0.00046644,-0.00008382,0.00038980,-0.00007164,-0.00011643,-0.00
 021526,0.00002288,-0.00003437,-0.09360425,0.11552605,-0.00008791,-0.00
 009722,-0.00009867,0.00029401,-0.00002478,0.00024655,-0.01367080,0.010
 61945,0.00825798,-0.00299007,-0.00070256,-0.00153899,0.09518040,-0.065
 10281,-0.11996657,0.02261841,-0.01171630,-0.01792723,0.00128453,-0.002
 08967,0.00135674,-0.00008089,0.00044001,-0.00001087,-0.00003868,-0.000
 39581,-0.00039332,-0.00024127,0.00053993,0.00144275,0.00013201,-0.0000
 4063,-0.00009527,-0.00076664,0.00082221,0.00025352,-0.00019508,0.00002
 580,0.00014009,-0.10161931,0.06762420,0.13527440,-0.00240224,-0.002081
 19,0.00114605,-0.00236600,0.00486969,-0.00436889,-0.01488171,-0.028299
 86,-0.00729610,0.00076511,-0.00181899,0.00035420,-0.07320997,-0.077768
 84,-0.00771931,-0.00126652,-0.00268913,-0.00114079,0.00011854,0.000730
 29,0.00035923,-0.00000394,-0.00009537,-0.00021511,-0.00000316,0.000115
 48,0.00104251,0.00076229,0.00042875,0.00026135,-0.00023624,0.00105933,
 -0.00032384,0.00051757,-0.00000893,0.00004394,-0.00021132,0.00006034,0
 .00021933,0.00848854,0.02259059,0.00321761,0.08205791,-0.00002452,0.00
 049821,-0.00011476,0.00107239,0.00036127,0.00008677,0.00063142,0.00086
 965,0.00015211,0.00189881,0.00060519,0.00079863,-0.07805870,-0.2767540
 7,-0.03311602,-0.00267553,-0.01267811,-0.00167272,-0.00045363,0.000344
 76,0.00340068,0.00027324,0.00045192,0.00012153,0.00018763,0.00014759,-
 0.00029166,-0.00035154,-0.00001427,-0.00043692,-0.00015079,0.00076409,
 0.00011963,0.00016995,0.00020298,-0.00004687,-0.00025024,0.00001712,0.
 00001341,-0.00448740,-0.01496653,-0.00267126,0.08239989,0.29999636,-0.
 00164419,-0.00112619,0.00050556,-0.00092020,0.00282314,-0.00189330,-0.
 00774784,-0.01648711,-0.00292836,0.00069526,-0.00072061,0.00088306,-0.
 00868608,-0.03379411,-0.05225475,0.00715055,0.03117734,0.00207798,0.00
 159639,0.00061823,-0.00539292,-0.00034845,-0.00011311,-0.00062117,0.00
 036605,-0.00024098,-0.00002832,0.00068921,-0.00010806,0.00018221,-0.00
 013052,0.00055420,0.00008675,0.00022447,-0.00010609,-0.00015834,-0.000
 01299,0.00027454,0.00007131,-0.00618013,-0.01741339,-0.00280988,0.0153
 8704,0.03289340,0.06001653,0.00012273,-0.00000471,-0.00022035,0.000051
 22,0.00025498,0.00064829,0.00070464,0.00008190,0.00004032,0.00016072,-
 0.00015588,0.00003864,0.00259502,0.00085366,0.00293910,-0.18359696,-0.
 06743952,-0.10849567,0.00332592,0.00274814,0.00321965,0.00088249,0.000
 37570,0.00015822,0.00003255,0.00014844,0.00017249,-0.00006957,0.000135
 91,-0.00004692,0.00003922,0.00008167,-0.00011541,0.00000989,-0.0000230
 0,-0.00002430,0.00010369,-0.00026736,0.00001701,-0.00007668,0.00021506
 ,-0.00039136,0.00102140,0.00063694,-0.00011591,0.19505857,-0.00002606,
 0.00047255,-0.00003562,-0.00002158,-0.00135778,0.00002899,-0.00079039,
 -0.00014605,0.00308105,-0.00011183,0.00026299,0.00005817,0.01176550,0.
 00317646,0.01040586,-0.06769791,-0.08111942,-0.05784190,-0.02663256,-0
 .01577529,-0.01984366,0.00367507,-0.00630728,0.00106335,0.00014661,0.0
 0036846,0.00030185,0.00074774,-0.00010745,0.00075676,-0.00003232,-0.00
 003001,0.00005970,0.00003378,-0.00007129,-0.00002872,-0.00002308,0.000
 09618,-0.00009857,-0.00024999,0.00001190,-0.00018199,0.00089729,0.0009
 9974,0.00046429,0.07416822,0.09508388,-0.00053948,-0.00027645,0.000205
 69,0.00128746,0.00108038,-0.00012814,0.00272556,0.00133657,-0.00434824
 ,0.00005260,-0.00026308,-0.00024144,-0.02288074,-0.00793429,-0.0184647
 2,-0.10826435,-0.05748608,-0.13848698,-0.00083243,-0.00030405,-0.00098
 911,0.00052042,-0.00003756,0.00097911,0.00009498,0.00012280,0.00012588
 ,-0.00146502,0.00021274,-0.00104139,-0.00002343,0.00005800,0.00001258,
 -0.00008912,0.00013418,0.00009527,-0.00008833,0.00010830,0.00014556,0.
 00044495,-0.00026368,-0.00013071,-0.00038576,0.00021864,0.00151587,0.1
 1927320,0.05737515,0.15074620,0.00037694,0.00006542,-0.00035834,-0.000
 28306,-0.00008357,0.00061141,0.00008710,0.00018890,-0.00055790,-0.0000
 3211,0.00031934,0.00016302,-0.00044320,0.00018923,0.00079568,-0.241827
 64,0.04997761,0.09262818,-0.00279361,0.00096247,0.00098887,0.00085255,
 -0.00039118,-0.00041277,0.00008858,0.00010623,0.00006214,0.00009599,-0
 .00001078,0.00006930,0.00003893,0.00001295,-0.00011689,0.00012009,-0.0
 0014491,-0.00013772,0.00014763,0.00018600,-0.00055136,0.00089280,-0.00
 063798,-0.00050602,-0.00017718,-0.00022959,0.00038908,-0.02174462,0.00
 564346,0.01014108,0.26255781,-0.00009063,0.00012823,0.00011769,0.00039
 286,-0.00020595,-0.00035769,0.00039219,0.00079650,-0.00057755,-0.00022
 129,-0.00004892,0.00044172,-0.01311320,0.00396707,0.00579311,0.0497966
 6,-0.06292510,-0.02462138,0.03103744,-0.00907841,-0.01485509,0.0009967
 0,0.00233165,0.00003446,-0.00024140,-0.00002847,-0.00019356,-0.0002023
 8,-0.00004438,-0.00024981,-0.00003415,-0.00002455,0.00000586,0.0000727
 7,0.00009478,-0.00021649,0.00053716,-0.00031877,0.00012449,-0.00009431
 ,-0.00103477,0.00251202,-0.00008396,-0.00010553,-0.00033866,-0.0110165
 6,0.00297879,0.00598979,-0.05757810,0.06930808,-0.00063942,0.00000474,
 0.00024198,0.00022349,-0.00035495,-0.00077820,0.00079299,-0.00099321,0
 .00171222,-0.00002138,0.00013493,-0.00063261,0.02639536,-0.00736619,-0
 .01512306,0.09190357,-0.02523615,-0.09472074,0.00093829,-0.00059027,-0
 .00063803,0.00045065,0.00020911,-0.00002311,0.00014565,-0.00002690,-0.
 00029326,0.00012132,-0.00017038,0.00051553,-0.00000630,-0.00013549,0.0
 0021409,-0.00015613,-0.00001790,0.00029675,-0.00064213,0.00063464,0.00
 030891,0.00098696,0.00328117,-0.00512351,-0.00000129,0.00034698,0.0000
 1549,-0.01734074,0.00525087,0.00915463,-0.10252891,0.02541812,0.103498
 77,-0.00030982,0.00031605,0.00013142,0.00063114,-0.00121956,0.00015282
 ,-0.00004282,-0.00016464,-0.00008874,0.00015889,0.00005061,0.00003339,
 0.00050644,0.00048686,0.00103385,-0.00093286,0.00209446,-0.00440323,-0
 .05135955,0.00670521,-0.01441038,-0.00343895,0.00846354,-0.02571832,-0
 .00358462,-0.00327555,-0.00151127,0.00000588,0.00003328,0.00003435,-0.
 00001303,0.00003635,0.00001310,0.00003104,-0.00004945,0.00000282,-0.00
 001919,0.00000974,0.00001646,0.00029275,-0.00003550,-0.00047774,0.0002
 4542,-0.00010152,-0.00028052,0.00028179,-0.00046174,0.00050352,-0.0000
 2038,-0.00029520,-0.00032626,0.05347441,-0.00006864,0.00063832,0.00010
 095,-0.00003242,-0.00157316,-0.00031676,-0.00051081,0.00001759,0.00000
 070,0.00012447,0.00010702,0.00017002,0.00098003,-0.00619239,-0.0024775
 9,0.00076093,-0.01311719,0.03264873,0.00671665,-0.07722841,0.08086020,
 -0.00118768,0.00552358,-0.01668909,-0.00280770,-0.00080341,-0.00148628
 ,0.00017508,0.00002032,0.00019106,-0.00002304,0.00008487,-0.00000392,0
 .00008451,-0.00006946,-0.00000889,-0.00004037,0.00000953,-0.00003329,0
 .00000363,0.00022931,-0.00038622,0.00000228,-0.00107009,0.00171212,-0.
 00059487,0.00121191,0.00011946,0.00042492,0.00109727,-0.00032394,-0.00
 380315,0.08772205,-0.00042974,0.00033334,0.00008985,0.00049022,-0.0008
 2958,0.00007971,-0.00005476,0.00006394,0.00019128,-0.00000482,0.000009
 89,-0.00006960,0.00039938,-0.00015227,0.00095997,0.00025175,-0.0015977
 0,0.00198902,-0.01463720,0.08127153,-0.27466111,-0.00067875,0.00510611
 ,-0.01483503,-0.00259255,-0.00260058,0.00014151,0.00006543,0.00000984,
 0.00003277,0.00000355,0.00003423,0.00001269,-0.00002422,-0.00000778,0.
 00000343,0.00000231,-0.00000190,0.00001038,-0.00029701,-0.00011146,0.0
 0030793,-0.00022959,0.00007310,-0.00006620,0.00038419,0.00044074,0.000
 89678,-0.00033059,0.00045752,0.00026474,0.01836240,-0.08730776,0.29791
 668,0.00029554,0.00005388,-0.00014867,-0.00011270,-0.00026953,0.000197
 56,0.00008401,-0.00017765,-0.00021345,0.00011741,0.00003723,0.00019631
 ,0.00017292,-0.00055478,0.00060254,-0.00426980,0.00179977,0.00241716,-
 0.23691679,0.04489093,0.09615831,-0.02406006,0.00351700,0.01159049,0.0
 0040964,0.00020520,0.00128985,-0.00003831,0.00004960,-0.00002370,0.000
 00015,0.00002364,-0.00002024,0.00004516,-0.00005587,-0.00000866,0.0000
 0942,-0.00001762,-0.00004309,0.00032784,0.00031856,-0.00102258,0.00026
 568,-0.00016461,-0.00024310,0.00064010,0.00048679,-0.00000343,0.001341
 49,0.00086432,0.00021944,0.00244440,-0.00104838,-0.00043248,0.25999135
 ,-0.00003209,0.00018948,-0.00002232,-0.00003082,-0.00044074,-0.0001309
 0,-0.00004564,0.00013729,0.00013287,0.00011306,-0.00006578,-0.00020002
 ,0.00129124,0.00153738,-0.00225435,0.03072907,-0.01116188,-0.01498859,
 0.04503224,-0.05833194,-0.02192463,-0.01681022,0.00212478,0.00790732,0
 .00058565,0.00016729,0.00049586,0.00005320,-0.00000144,0.00010308,-0.0
 0000796,-0.00001693,0.00004385,-0.00004967,-0.00001786,0.00011598,-0.0
 0016369,0.00007508,0.00015729,-0.00080126,0.00023367,0.00122118,-0.000
 25339,0.00033876,-0.00012487,-0.00050504,0.00125439,-0.00004925,0.0005
 2573,-0.00697043,-0.00002668,-0.01019051,0.00217130,0.00461308,-0.0469
 7199,0.06909025,0.00019701,0.00010033,-0.00009561,-0.00034009,0.000007
 12,-0.00000692,-0.00002564,0.00011030,0.00007439,-0.00001081,0.0000128
 2,-0.00009248,-0.00130573,0.00078575,0.00060143,0.00121098,-0.00004330
 ,-0.00102524,0.09679205,-0.02229225,-0.10160188,-0.01536868,0.00289242
 ,0.00661279,-0.00045826,0.00013639,0.00172347,0.00003090,0.00000122,0.
 00000365,-0.00000365,-0.00000087,0.00001269,-0.00000506,-0.00000039,-0
 .00000342,-0.00000772,-0.00000745,0.00001192,-0.00003194,-0.00001176,0
 .00040641,-0.00012069,-0.00006080,0.00009416,0.00004588,-0.00023367,-0
 .00021180,-0.00060896,-0.00019414,0.00087346,0.02758902,-0.00684943,-0
 .01407577,-0.10608515,0.02662222,0.10662112,0.00025259,0.00031534,-0.0
 0027325,0.00010339,-0.00059934,-0.00112869,-0.00029238,0.00022304,0.00
 020824,0.00015599,0.00006581,0.00003415,0.00000725,0.00029667,-0.00035
 092,-0.00396689,-0.00108595,-0.00278739,0.00516167,-0.02732773,-0.0008
 7106,-0.06601895,0.06393312,0.00372554,-0.00206360,0.00519470,-0.00111
 933,0.00004452,-0.00004533,0.00004561,-0.00000684,0.00007403,0.0000058
 9,0.00001986,-0.00005871,0.00001727,-0.00004152,-0.00000957,0.00000011
 ,-0.00001482,0.00003092,0.00009346,0.00006105,-0.00000364,0.00012647,0
 .00014240,-0.00161080,-0.00025176,0.00019605,-0.00008534,-0.00019624,0
 .00080100,0.00071838,0.00034203,0.00115458,0.00015443,0.00073153,0.070
 85288,0.00023840,-0.00033557,-0.00023073,-0.00034908,0.00180100,0.0019
 9924,-0.00008165,0.00001126,-0.00024007,-0.00001389,0.00002106,-0.0000
 0490,0.00013011,0.00030057,-0.00027110,-0.00372568,0.00050788,-0.00239
 667,0.00427850,-0.01705812,-0.00062865,0.06360223,-0.29069090,-0.00538
 792,0.00297475,-0.00878596,0.00104401,0.00004040,0.00003685,0.00003413
 ,-0.00001864,-0.00002481,-0.00000923,0.00001755,0.00001661,0.00000283,
 -0.00001510,0.00000905,0.00001007,-0.00003189,0.00001109,0.00009338,-0
 .00002496,-0.00004750,0.00003977,0.00005984,-0.00132854,0.00004742,0.0
 0006587,0.00036442,0.00008519,0.00009554,0.00053531,-0.00045758,-0.000
 24113,0.00073381,0.00068443,-0.06798397,0.31456588,-0.00236021,0.00088
 345,0.00116582,0.00273032,-0.00230663,-0.00682030,-0.00050909,0.000692
 55,0.00110745,0.00040930,0.00017641,0.00001908,-0.00020011,0.00008347,
 -0.00031656,-0.00278462,-0.00037861,-0.00113716,0.00447285,-0.01552837
 ,-0.00050775,0.00363485,-0.00500117,-0.04646251,-0.01186132,0.03378291
 ,-0.00569115,-0.00008878,-0.00022169,0.00007784,-0.00004255,0.00015149
 ,0.00005393,0.00001100,-0.00010235,0.00003705,-0.00007570,0.00005397,0
 .00005151,-0.00000557,0.00000049,0.00010776,0.00011466,-0.00004927,0.0
 0029187,-0.00018586,-0.00106623,0.00012243,-0.00006095,0.00046407,0.00
 002803,0.00061146,0.00005883,0.00012205,0.00001515,0.00061257,0.000592
 21,0.00165032,0.00611400,0.05477453,0.00102639,-0.00046039,-0.00009131
 ,-0.00011897,0.00094830,-0.00039193,-0.00001498,-0.00011808,-0.0001335
 4,0.00000972,-0.00001159,0.00008861,0.00003223,-0.00001423,-0.00007472
 ,0.00061379,0.00105260,0.00044900,-0.02231215,0.00230466,0.01172727,-0
 .23369632,0.01661543,0.11380157,0.00586505,-0.00084124,-0.00291734,0.0
 0002867,0.00004423,0.00002793,0.00000522,0.00000021,-0.00002062,0.0000
 0800,-0.00000692,-0.00000660,-0.00000355,-0.00002073,-0.00002501,0.000
 05399,0.00010079,-0.00017620,0.00003287,-0.00004851,-0.00001078,0.0003
 2256,0.00006874,-0.00020427,0.00052049,-0.00099410,-0.00018467,0.00081
 124,0.00045326,-0.00029556,-0.00263548,-0.00304198,-0.00293727,-0.0068
 5271,0.00116780,0.00391490,0.25522506,0.00017134,0.00011901,-0.0004823
 2,-0.00188268,0.00009933,0.00141454,-0.00004082,-0.00011727,0.00000403
 ,0.00003666,-0.00000942,0.00005012,0.00000147,-0.00006437,0.00019977,-
 0.00056846,0.00145464,0.00101380,-0.01581822,0.00109654,0.00938495,0.0
 1735372,-0.05395784,-0.01197790,-0.00859339,-0.00043609,0.00729543,0.0
 0003461,0.00004026,-0.00002878,0.00001904,0.00002535,-0.00001396,0.000
 01213,-0.00003925,0.00000121,0.00000238,-0.00004461,-0.00001991,0.0001
 3099,0.00000005,-0.00013545,0.00003023,-0.00001070,0.00001420,0.000310
 50,0.00016619,-0.00012282,0.00045405,-0.00026138,-0.00025708,0.0009319
 3,0.00056234,0.00021898,-0.00301670,-0.00108381,-0.00155032,0.02788180
 ,-0.00186551,-0.01756990,-0.01795700,0.05425264,-0.00217158,-0.0005689
 3,0.00116303,0.00478896,-0.00137408,-0.00018558,-0.00012378,0.00014590
 ,-0.00041000,0.00005470,0.00004683,0.00002013,-0.00000198,-0.00009951,
 -0.00003933,0.00012723,0.00085770,0.00026374,-0.01510189,0.00132525,0.
 00827835,0.11296471,-0.01124602,-0.11710714,0.02515239,0.00091312,-0.0
 1947345,-0.00002657,0.00001133,0.00011529,-0.00003759,0.00001203,0.000
 02196,-0.00001609,0.00002672,-0.00000583,-0.00002362,0.00006440,0.0000
 4353,-0.00010648,-0.00004985,-0.00005959,-0.00003281,0.00001335,0.0000
 3799,0.00001994,0.00022789,-0.00002071,0.00035541,0.00012288,0.0000062
 0,0.00033382,0.00047414,0.00102084,-0.00313542,-0.00228180,-0.00064381
 ,0.00036351,-0.00055768,-0.00041362,-0.12142243,0.01040263,0.13236150,
 0.00116801,0.00002227,-0.00058034,0.00877051,0.01256503,0.00833419,-0.
 00135150,0.00155226,-0.00089043,0.00039715,0.00053878,-0.00013433,-0.0
 0071435,-0.00017051,0.00013280,0.00004168,0.00016877,0.00018216,0.0009
 2336,0.00089676,-0.00145163,-0.00355518,-0.00320026,-0.00234344,-0.144
 17711,-0.10903394,-0.06618255,0.00002625,0.00032515,-0.00000233,-0.000
 08967,0.00022558,0.00008232,0.00005115,-0.00006176,-0.00001725,0.00000
 123,-0.00004316,0.00000156,0.00040890,-0.00011128,-0.00015271,0.000166
 50,-0.00011310,-0.00010510,-0.00001644,-0.00003784,0.00002380,0.000016
 50,-0.00004196,-0.00009027,-0.00020108,-0.00040158,-0.00037369,0.00040
 040,0.00007321,0.00021785,0.00009992,0.00018222,0.00002695,0.00036961,
 0.00029028,-0.00013907,0.15185883,-0.00064795,0.00539432,0.00224007,-0
 .02021950,-0.02667611,-0.01346590,0.00431498,-0.00262580,-0.00002667,-
 0.00110771,-0.00118112,0.00041586,0.00073560,0.00061608,0.00030594,0.0
 0009210,-0.00011829,0.00026223,-0.00000813,-0.00020210,0.00226414,0.00
 802846,0.00763345,0.00598815,-0.10636954,-0.17004614,-0.08231207,-0.00
 016800,-0.00026798,0.00016551,0.00037786,-0.00047129,-0.00016852,0.000
 06368,-0.00001003,0.00005217,0.00001161,0.00002152,-0.00007763,-0.0000
 4225,0.00006094,-0.00001178,0.00000140,0.00002925,-0.00000225,-0.00003
 624,0.00011391,-0.00011822,-0.00001084,0.00002996,0.00001409,0.0004112
 1,0.00032756,0.00048030,-0.00008160,-0.00009057,-0.00006744,0.00037402
 ,0.00120286,-0.00022339,-0.00018760,0.00003946,-0.00051527,0.11468798,
 0.18692796,0.00141829,0.00070479,-0.00018090,-0.00174720,0.00212225,0.
 00008831,-0.00024985,0.00040936,0.00108698,0.00011557,0.00019879,-0.00
 000022,0.00050478,0.00025090,-0.00024500,0.00015130,0.00046533,0.00015
 681,0.00124841,0.00345051,-0.00528190,-0.02042094,-0.02066842,-0.01554
 207,-0.06475541,-0.08267263,-0.09794725,0.00001359,-0.00035801,0.00004
 522,-0.00003056,0.00007738,0.00000433,0.00000746,-0.00001145,0.0000097
 7,-0.00001759,0.00000830,0.00000550,-0.00028517,0.00007692,0.00011648,
 -0.00009630,0.00004221,0.00015864,0.00001031,-0.00010351,0.00003701,0.
 00003448,-0.00007128,0.00004099,-0.00154595,-0.00080723,-0.00094393,-0
 .00011871,0.00013163,0.00016533,-0.00010174,-0.00003285,0.00169792,0.0
 0062316,-0.00041563,0.00075380,0.07597736,0.08436915,0.10732192,-0.002
 27177,0.00614421,0.00011451,-0.01411689,-0.00651682,0.00614687,0.00020
 036,0.00014240,-0.00079448,-0.00000919,0.00008645,-0.00022231,-0.00053
 200,-0.00061403,0.00017988,-0.00003202,-0.00007574,0.00023280,0.001093
 15,-0.00026728,-0.00036453,0.00615694,0.00015430,-0.00377721,-0.238355
 02,-0.01524871,0.11283420,0.00018431,0.00057144,-0.00031153,0.00007622
 ,0.00003893,0.00001376,0.00003477,-0.00017763,0.00005524,0.00003570,-0
 .00011826,-0.00005408,0.00042930,-0.00076780,-0.00040318,0.00025539,-0
 .00015694,-0.00019869,0.00000933,0.00006291,-0.00003942,-0.00001116,0.
 00000247,-0.00004398,0.00023787,0.00007449,0.00007969,0.00033304,0.000
 34642,0.00049444,0.00020453,-0.00036721,0.00058301,0.00070927,0.000216
 15,-0.00182133,-0.01459468,-0.00021953,0.00926473,0.25996254,0.0057836
 5,-0.00642981,0.00269860,0.02379031,0.01016169,-0.01733481,-0.00129652
 ,0.00010708,0.00201306,0.00018483,0.00039200,0.00006617,0.00021373,-0.
 00076977,-0.00051101,0.00005913,0.00008954,-0.00003012,0.00012423,0.00
 047522,-0.00077032,-0.00957293,0.00024023,0.00555612,-0.01719841,-0.05
 583080,0.00447105,-0.00023290,-0.00085452,0.00000393,-0.00011309,0.000
 06646,0.00002263,-0.00008724,0.00021008,-0.00003527,-0.00000610,0.0000
 6072,0.00003247,-0.00071109,-0.00070124,-0.00034170,-0.00006092,0.0000
 1991,0.00000419,-0.00002779,0.00004577,0.00005207,-0.00003523,-0.00005
 009,0.00011933,-0.00003796,-0.00020417,-0.00004603,0.00035294,0.000127
 92,-0.00004118,-0.00045188,0.00001927,-0.00062662,0.00094634,0.0000344
 4,0.00204898,-0.01831288,-0.00070785,0.01283348,0.01668978,0.05349793,
 -0.00014785,0.00086258,0.00043849,-0.00253870,0.00138151,-0.00051197,0
 .00016125,-0.00020634,0.00014831,-0.00012865,-0.00007560,-0.00006031,0
 .00063507,-0.00024766,-0.00029626,-0.00020676,-0.00011485,-0.00040768,
 0.00162784,-0.00044903,0.00186092,0.02789970,0.00146607,-0.01938578,0.
 11140145,0.00422345,-0.10998836,0.00002051,-0.00006694,0.00004899,0.00
 000557,-0.00002371,0.00000894,-0.00002810,0.00007831,-0.00001466,0.000
 01088,0.00002747,0.00002182,-0.00066547,-0.00023272,0.00024401,-0.0002
 1543,0.00017983,0.00021581,-0.00003075,-0.00008080,0.00002624,-0.00006
 824,0.00019392,0.00016071,-0.00005601,0.00035420,0.00061199,-0.0011881
 4,-0.00015351,-0.00003612,-0.00026373,0.00006290,0.00109958,-0.0017401
 8,0.00257441,-0.00572729,-0.01251587,0.00043152,0.00845224,-0.12196839
 ,-0.01018503,0.12309039\\0.00007797,-0.00001345,0.00011525,-0.00003458
 ,0.00002823,-0.00001923,0.00000097,-0.00002252,-0.00006530,0.00002165,
 -0.00000006,-0.00001637,-0.00003909,-0.00001141,0.00004990,0.00003145,
 -0.00000455,-0.00007743,-0.00002079,0.00001877,0.00003761,-0.00001200,
 -0.00000872,-0.00001365,-0.00002734,0.00001493,-0.00002004,0.00002359,
 -0.00006051,0.00000266,0.00000739,0.00000576,0.00001308,-0.00000423,0.
 00001570,-0.00001449,-0.00002120,0.00000275,0.00000134,0.00000720,0.00
 002421,-0.00001987,-0.00001833,0.00000753,0.00002498,-0.00000630,0.000
 00286,0.00000851,-0.00000260,0.00000692,0.00000168,0.00000355,0.000009
 88,0.00000507,0.00000432,-0.00000275,0.00000088,0.00001774,0.00000412,
 -0.00000891,-0.00001416,-0.00001678,0.00000575,-0.00000965,0.00001770,
 -0.00003000,0.00001442,-0.00001863,0.00001858\\\@


 THOSE WHO ARE UNABLE TO LEARN FROM PAST MEETINGS
 ARE CONDEMNED TO REPEAT THEM.
 Job cpu time:       0 days  0 hours  1 minutes 36.1 seconds.
 Elapsed time:       0 days  0 hours  1 minutes 36.6 seconds.
 File lengths (MBytes):  RWF=     78 Int=      0 D2E=      0 Chk=      5 Scr=      1
 Normal termination of Gaussian 16 at Wed Feb 21 18:53:05 2024.
