 Entering Gaussian System, Link 0=g16
 Input=/Volumes/SSD-PMU3/b3lyp_6-31gd_freq/FDMAFOTXGNYBFG-SSDOTTSWSA-N_calculating/gaussianinput2.gjf
 Output=/Volumes/SSD-PMU3/b3lyp_6-31gd_freq/FDMAFOTXGNYBFG-SSDOTTSWSA-N_calculating/gaussianinput2.log
 Initial command:
 /Applications/g16/l1.exe "/Users/macmini_m1_2022/PycharmProjects/sphere_model/sphere_model_lib/Gau-51300.inp" -scrdir="/Users/macmini_m1_2022/PycharmProjects/sphere_model/sphere_model_lib/"
 Entering Link 1 = /Applications/g16/l1.exe PID=     51301.
  
 Copyright (c) 1988,1990,1992,1993,1995,1998,2003,2009,2016,
            Gaussian, Inc.  All Rights Reserved.
  
 This is part of the Gaussian(R) 16 program.  It is based on
 the Gaussian(R) 09 system (copyright 2009, Gaussian, Inc.),
 the Gaussian(R) 03 system (copyright 2003, Gaussian, Inc.),
 the Gaussian(R) 98 system (copyright 1998, Gaussian, Inc.),
 the Gaussian(R) 94 system (copyright 1995, Gaussian, Inc.),
 the Gaussian 92(TM) system (copyright 1992, Gaussian, Inc.),
 the Gaussian 90(TM) system (copyright 1990, Gaussian, Inc.),
 the Gaussian 88(TM) system (copyright 1988, Gaussian, Inc.),
 the Gaussian 86(TM) system (copyright 1986, Carnegie Mellon
 University), and the Gaussian 82(TM) system (copyright 1983,
 Carnegie Mellon University). Gaussian is a federally registered
 trademark of Gaussian, Inc.
  
 This software contains proprietary and confidential information,
 including trade secrets, belonging to Gaussian, Inc.
  
 This software is provided under written license and may be
 used, copied, transmitted, or stored only in accord with that
 written license.
  
 The following legend is applicable only to US Government
 contracts under FAR:
  
                    RESTRICTED RIGHTS LEGEND
  
 Use, reproduction and disclosure by the US Government is
 subject to restrictions as set forth in subparagraphs (a)
 and (c) of the Commercial Computer Software - Restricted
 Rights clause in FAR 52.227-19.
  
 Gaussian, Inc.
 340 Quinnipiac St., Bldg. 40, Wallingford CT 06492
  
  
 ---------------------------------------------------------------
 Warning -- This program may not be used in any manner that
 competes with the business of Gaussian, Inc. or will provide
 assistance to any competitor of Gaussian, Inc.  The licensee
 of this program is prohibited from giving any competitor of
 Gaussian, Inc. access to this program.  By using this program,
 the user acknowledges that Gaussian, Inc. is engaged in the
 business of creating and licensing software in the field of
 computational chemistry and represents and warrants to the
 licensee that it is not a competitor of Gaussian, Inc. and that
 it will not use this program in any manner prohibited above.
 ---------------------------------------------------------------
  

 Cite this work as:
 Gaussian 16, Revision A.03,
 M. J. Frisch, G. W. Trucks, H. B. Schlegel, G. E. Scuseria, 
 M. A. Robb, J. R. Cheeseman, G. Scalmani, V. Barone, 
 G. A. Petersson, H. Nakatsuji, X. Li, M. Caricato, A. V. Marenich, 
 J. Bloino, B. G. Janesko, R. Gomperts, B. Mennucci, H. P. Hratchian, 
 J. V. Ortiz, A. F. Izmaylov, J. L. Sonnenberg, D. Williams-Young, 
 F. Ding, F. Lipparini, F. Egidi, J. Goings, B. Peng, A. Petrone, 
 T. Henderson, D. Ranasinghe, V. G. Zakrzewski, J. Gao, N. Rega, 
 G. Zheng, W. Liang, M. Hada, M. Ehara, K. Toyota, R. Fukuda, 
 J. Hasegawa, M. Ishida, T. Nakajima, Y. Honda, O. Kitao, H. Nakai, 
 T. Vreven, K. Throssell, J. A. Montgomery, Jr., J. E. Peralta, 
 F. Ogliaro, M. J. Bearpark, J. J. Heyd, E. N. Brothers, K. N. Kudin, 
 V. N. Staroverov, T. A. Keith, R. Kobayashi, J. Normand, 
 K. Raghavachari, A. P. Rendell, J. C. Burant, S. S. Iyengar, 
 J. Tomasi, M. Cossi, J. M. Millam, M. Klene, C. Adamo, R. Cammi, 
 J. W. Ochterski, R. L. Martin, K. Morokuma, O. Farkas, 
 J. B. Foresman, and D. J. Fox, Gaussian, Inc., Wallingford CT, 2016.
 
 ******************************************
 Gaussian 16:  EM64M-G16RevA.03 25-Dec-2016
                21-Feb-2024 
 ******************************************
 %nprocshared=8
 Will use up to    8 processors via shared memory.
 %mem=4GB
 %chk= 2.chk
 ---------------------
 # freq b3lyp/6-31g(d)
 ---------------------
 1/10=4,30=1,38=1/1,3;
 2/12=2,17=6,18=5,40=1/2;
 3/5=1,6=6,7=1,11=2,25=1,30=1,71=2,74=-5,140=1/1,2,3;
 4//1;
 5/5=2,38=5,98=1/2;
 8/6=4,10=90,11=11/1;
 11/6=1,8=1,9=11,15=111,16=1/1,2,10;
 10/6=1/2;
 6/7=2,8=2,9=2,10=2,28=1/1;
 7/8=1,10=1,25=1/1,2,3,16;
 1/10=4,30=1/3;
 99//99;
 ---------
 good luck
 ---------
 Symbolic Z-matrix:
 Charge =  0 Multiplicity = 1
 O                     1.21847   0.        0. 
 C                     0.        0.        0. 
 C                    -0.79014  -1.31257  -0.00701 
 C                     0.15943  -2.51122  -0.11253 
 C                    -1.88757  -1.34457  -1.10533 
 C                    -3.22359  -0.68767  -0.72695 
 C                    -3.20879   0.83991  -0.58667 
 C                    -2.20577   1.39976   0.43431 
 C                    -0.7347    1.34372  -0.00701 
 H                    -1.30487  -1.36253   0.96736 
 H                     0.66135  -2.52637  -1.0862 
 H                     0.93853  -2.46761   0.65242 
 H                    -0.39723  -3.44787   0.00239 
 H                    -2.08489  -2.39907  -1.33513 
 H                    -1.49821  -0.9058   -2.03575 
 H                    -3.57422  -1.13132   0.21702 
 H                    -3.97169  -0.95855  -1.48401 
 H                    -4.21852   1.16837  -0.30685 
 H                    -3.00285   1.29446  -1.56745 
 H                    -2.33359   0.89483   1.4024 
 H                    -2.45096   2.45407   0.61444 
 H                    -0.65374   1.73179  -1.03442 
 H                    -0.12071   2.01531   0.60363 
 

 GradGradGradGradGradGradGradGradGradGradGradGradGradGradGradGradGradGrad
 Berny optimization.
 Initialization pass.
 Trust Radius=3.00D-01 FncErr=1.00D-07 GrdErr=1.00D-07 EigMax=2.50D+02 EigMin=1.00D-04
 Number of steps in this run=      2 maximum allowed number of steps=      2.
 GradGradGradGradGradGradGradGradGradGradGradGradGradGradGradGradGradGrad

                          Input orientation:                          
 ---------------------------------------------------------------------
 Center     Atomic      Atomic             Coordinates (Angstroms)
 Number     Number       Type             X           Y           Z
 ---------------------------------------------------------------------
      1          8           0        1.218472    0.000000    0.000000
      2          6           0        0.000000    0.000000    0.000000
      3          6           0       -0.790135   -1.312571   -0.007007
      4          6           0        0.159425   -2.511223   -0.112531
      5          6           0       -1.887567   -1.344568   -1.105330
      6          6           0       -3.223594   -0.687674   -0.726953
      7          6           0       -3.208787    0.839908   -0.586667
      8          6           0       -2.205769    1.399756    0.434306
      9          6           0       -0.734704    1.343718   -0.007007
     10          1           0       -1.304865   -1.362532    0.967359
     11          1           0        0.661345   -2.526366   -1.086199
     12          1           0        0.938534   -2.467609    0.652418
     13          1           0       -0.397233   -3.447874    0.002393
     14          1           0       -2.084889   -2.399074   -1.335127
     15          1           0       -1.498210   -0.905799   -2.035746
     16          1           0       -3.574218   -1.131322    0.217021
     17          1           0       -3.971691   -0.958547   -1.484012
     18          1           0       -4.218515    1.168374   -0.306847
     19          1           0       -3.002852    1.294461   -1.567449
     20          1           0       -2.333593    0.894830    1.402403
     21          1           0       -2.450957    2.454069    0.614436
     22          1           0       -0.653743    1.731789   -1.034420
     23          1           0       -0.120706    2.015311    0.603633
 ---------------------------------------------------------------------
                    Distance matrix (angstroms):
                    1          2          3          4          5
     1  O    0.000000
     2  C    1.218472   0.000000
     3  C    2.399457   1.532059   0.000000
     4  C    2.727725   2.518793   1.532829   0.000000
     5  C    3.560491   2.567592   1.552963   2.556738   0.000000
     6  C    4.553384   3.375339   2.613530   3.892000   1.536114
     7  C    4.544254   3.368373   3.289232   4.774907   2.605104
     8  C    3.724697   2.648274   3.091196   4.603144   3.162759
     9  C    2.370764   1.531475   2.656867   3.958683   3.124466
    10  H    3.026468   2.120130   1.103101   2.151697   2.153115
    11  H    2.805841   2.828380   2.178244   1.095528   2.809620
    12  H    2.567705   2.719483   2.181112   1.092731   3.512513
    13  H    3.807669   3.470682   2.171170   1.095623   2.805716
    14  H    4.295383   3.447446   2.149600   2.558176   1.097144
    15  H    3.513559   2.685026   2.186919   3.003980   1.099905
    16  H    4.929185   3.755266   2.798957   3.994098   2.153805
    17  H    5.482599   4.346888   3.525504   4.621459   2.153134
    18  H    5.569567   4.388066   4.242497   5.722198   3.519342
    19  H    4.685307   3.626244   3.758685   5.157520   2.902049
    20  H    3.922323   2.865853   3.039954   4.484569   3.391544
    21  H    4.456983   3.522382   4.163184   5.656563   4.207689
    22  H    2.752146   2.120495   3.215946   4.417496   3.315316
    23  H    2.493842   2.107231   3.449031   4.591391   4.163068
                    6          7          8          9         10
     6  C    0.000000
     7  C    1.534082   0.000000
     8  C    2.596508   1.536835   0.000000
     9  C    3.292332   2.590544   1.536857   0.000000
    10  H    2.647196   3.300100   2.953982   2.932279   0.000000
    11  H    4.313073   5.153567   5.093792   4.253370   3.072066
    12  H    4.732245   5.447501   4.989061   4.214354   2.520560
    13  H    4.017333   5.161095   5.192000   4.803471   2.470548
    14  H    2.143692   3.509180   4.192447   4.194686   2.642782
    15  H    2.176572   2.841372   3.452156   3.123948   3.043785
    16  H    1.100385   2.159908   2.885519   3.773440   2.401339
    17  H    1.098253   2.149812   3.515682   4.237930   3.644775
    18  H    2.147387   1.098062   2.157311   3.501084   4.064289
    19  H    2.164260   1.100437   2.157186   2.753525   4.045741
    20  H    2.798317   2.173794   1.099318   2.178160   2.518577
    21  H    3.502405   2.149993   1.097333   2.136491   4.000566
    22  H    3.542947   2.743025   2.162449   1.101241   3.742446
    23  H    4.324870   3.512069   2.180612   1.095861   3.597826
                   11         12         13         14         15
    11  H    0.000000
    12  H    1.761555   0.000000
    13  H    1.776175   1.779811   0.000000
    14  H    2.760429   3.618856   2.395229   0.000000
    15  H    2.862089   3.950088   3.439230   1.750694   0.000000
    16  H    4.645915   4.726538   3.937729   2.496890   3.071747
    17  H    4.907274   5.563444   4.602488   2.378509   2.534818
    18  H    6.170213   6.382454   6.000631   4.282103   3.832929
    19  H    5.315699   5.883494   5.634128   3.812982   2.706362
    20  H    5.183375   4.751346   4.956672   4.290190   3.970012
    21  H    6.114190   5.976036   6.278958   5.242881   4.384051
    22  H    4.456907   4.797469   5.288638   4.382081   2.944936
    23  H    4.908560   4.606619   5.503122   5.206112   4.170938
                   16         17         18         19         20
    16  H    0.000000
    17  H    1.755377   0.000000
    18  H    2.445027   2.443447   0.000000
    19  H    3.065162   2.453906   1.755805   0.000000
    20  H    2.655103   3.801284   2.559159   3.070445   0.000000
    21  H    3.778185   4.285098   2.371926   2.531778   1.750969
    22  H    4.276995   4.295209   3.681630   2.448201   3.075793
    23  H    4.688018   5.294542   4.282326   3.679672   2.605836
                   21         22         23
    21  H    0.000000
    22  H    2.543697   0.000000
    23  H    2.371222   1.745775   0.000000
 Stoichiometry    C8H14O
 Framework group  C1[X(C8H14O)]
 Deg. of freedom    63
 Full point group                 C1      NOp   1
 Largest Abelian subgroup         C1      NOp   1
 Largest concise Abelian subgroup C1      NOp   1
                         Standard orientation:                         
 ---------------------------------------------------------------------
 Center     Atomic      Atomic             Coordinates (Angstroms)
 Number     Number       Type             X           Y           Z
 ---------------------------------------------------------------------
      1          8           0        1.923952    1.518994   -0.295135
      2          6           0        0.898120    0.906147   -0.056884
      3          6           0        0.935511   -0.573212    0.339729
      4          6           0        2.370073   -1.109871    0.279783
      5          6           0       -0.043264   -1.441858   -0.496423
      6          6           0       -1.495124   -1.473254    0.004342
      7          6           0       -2.291695   -0.171692   -0.153194
      8          6           0       -1.680215    1.063380    0.526914
      9          6           0       -0.440634    1.640495   -0.174731
     10          1           0        0.592782   -0.615636    1.387378
     11          1           0        2.736935   -1.127279   -0.752346
     12          1           0        3.052780   -0.479900    0.855204
     13          1           0        2.410662   -2.130227    0.676793
     14          1           0        0.340384   -2.469592   -0.479020
     15          1           0       -0.011467   -1.130929   -1.550986
     16          1           0       -1.490809   -1.765133    1.065302
     17          1           0       -2.029475   -2.272550   -0.526463
     18          1           0       -3.299384   -0.335286    0.251207
     19          1           0       -2.426077    0.046656   -1.223346
     20          1           0       -1.453921    0.839514    1.579139
     21          1           0       -2.439564    1.855260    0.548283
     22          1           0       -0.647677    1.728952   -1.252711
     23          1           0       -0.243418    2.663385    0.165436
 ---------------------------------------------------------------------
 Rotational constants (GHZ):           2.2672537           1.4313345           0.9588626
 Standard basis: 6-31G(d) (6D, 7F)
 There are   163 symmetry adapted cartesian basis functions of A   symmetry.
 There are   163 symmetry adapted basis functions of A   symmetry.
   163 basis functions,   308 primitive gaussians,   163 cartesian basis functions
    35 alpha electrons       35 beta electrons
       nuclear repulsion energy       473.9471016237 Hartrees.
 NAtoms=   23 NActive=   23 NUniq=   23 SFac= 1.00D+00 NAtFMM=   60 NAOKFM=F Big=F
 Integral buffers will be    131072 words long.
 Raffenetti 2 integral format.
 Two-electron integral symmetry is turned on.
 One-electron integrals computed using PRISM.
 NBasis=   163 RedAO= T EigKep=  2.98D-03  NBF=   163
 NBsUse=   163 1.00D-06 EigRej= -1.00D+00 NBFU=   163
 ExpMin= 1.61D-01 ExpMax= 5.48D+03 ExpMxC= 8.25D+02 IAcc=3 IRadAn=         5 AccDes= 0.00D+00
 Harris functional with IExCor=  402 and IRadAn=       5 diagonalized for initial guess.
 HarFok:  IExCor=  402 AccDes= 0.00D+00 IRadAn=         5 IDoV= 1 UseB2=F ITyADJ=14
 ICtDFT=  3500011 ScaDFX=  1.000000  1.000000  1.000000  1.000000
 FoFCou: FMM=F IPFlag=           0 FMFlag=      100000 FMFlg1=           0
         NFxFlg=           0 DoJE=T BraDBF=F KetDBF=T FulRan=T
         wScrn=  0.000000 ICntrl=       500 IOpCl=  0 I1Cent=   200000004 NGrid=           0
         NMat0=    1 NMatS0=      1 NMatT0=    0 NMatD0=    1 NMtDS0=    0 NMtDT0=    0
 Petite list used in FoFCou.
 Requested convergence on RMS density matrix=1.00D-08 within 128 cycles.
 Requested convergence on MAX density matrix=1.00D-06.
 Requested convergence on             energy=1.00D-06.
 No special actions if energy rises.
 Integral accuracy reduced to 1.0D-05 until final iterations.
 Initial convergence to 1.0D-05 achieved.  Increase integral accuracy.
 SCF Done:  E(RB3LYP) =  -388.513387724     A.U. after   13 cycles
            NFock= 13  Conv=0.67D-08     -V/T= 2.0098
 DoSCS=F DFT=T ScalE2(SS,OS)=  1.000000  1.000000
 Range of M.O.s used for correlation:     1   163
 NBasis=   163 NAE=    35 NBE=    35 NFC=     0 NFV=     0
 NROrb=    163 NOA=    35 NOB=    35 NVA=   128 NVB=   128
 Symmetrizing basis deriv contribution to polar:
 IMax=3 JMax=2 DiffMx= 0.00D+00
 G2DrvN: will do    24 centers at a time, making    1 passes.
 Calling FoFCou, ICntrl=  3107 FMM=F I1Cent=   0 AccDes= 0.00D+00.
 End of G2Drv F.D. properties file   721 does not exist.
 End of G2Drv F.D. properties file   722 does not exist.
 End of G2Drv F.D. properties file   788 does not exist.
          IDoAtm=11111111111111111111111
          Differentiating once with respect to electric field.
                with respect to dipole field.
          Differentiating once with respect to nuclear coordinates.
 Keep R1 ints in memory in canonical form, NReq=97235269.
          There are    72 degrees of freedom in the 1st order CPHF.  IDoFFX=6 NUNeed=     3.
     69 vectors produced by pass  0 Test12= 6.22D-15 1.39D-09 XBig12= 5.81D+01 2.59D+00.
 AX will form    69 AO Fock derivatives at one time.
     69 vectors produced by pass  1 Test12= 6.22D-15 1.39D-09 XBig12= 1.04D+01 1.01D+00.
     69 vectors produced by pass  2 Test12= 6.22D-15 1.39D-09 XBig12= 6.83D-02 3.63D-02.
     69 vectors produced by pass  3 Test12= 6.22D-15 1.39D-09 XBig12= 1.37D-04 1.28D-03.
     69 vectors produced by pass  4 Test12= 6.22D-15 1.39D-09 XBig12= 1.37D-07 5.09D-05.
     29 vectors produced by pass  5 Test12= 6.22D-15 1.39D-09 XBig12= 1.11D-10 1.23D-06.
      3 vectors produced by pass  6 Test12= 6.22D-15 1.39D-09 XBig12= 7.60D-14 4.06D-08.
 InvSVY:  IOpt=1 It=  1 EMax= 5.33D-15
 Solved reduced A of dimension   377 with    72 vectors.
 Isotropic polarizability for W=    0.000000       82.49 Bohr**3.
 End of Minotr F.D. properties file   721 does not exist.
 End of Minotr F.D. properties file   722 does not exist.
 End of Minotr F.D. properties file   788 does not exist.

 **********************************************************************

            Population analysis using the SCF density.

 **********************************************************************

 Orbital symmetries:
       Occupied  (A) (A) (A) (A) (A) (A) (A) (A) (A) (A) (A) (A)
                 (A) (A) (A) (A) (A) (A) (A) (A) (A) (A) (A) (A)
                 (A) (A) (A) (A) (A) (A) (A) (A) (A) (A) (A)
       Virtual   (A) (A) (A) (A) (A) (A) (A) (A) (A) (A) (A) (A)
                 (A) (A) (A) (A) (A) (A) (A) (A) (A) (A) (A) (A)
                 (A) (A) (A) (A) (A) (A) (A) (A) (A) (A) (A) (A)
                 (A) (A) (A) (A) (A) (A) (A) (A) (A) (A) (A) (A)
                 (A) (A) (A) (A) (A) (A) (A) (A) (A) (A) (A) (A)
                 (A) (A) (A) (A) (A) (A) (A) (A) (A) (A) (A) (A)
                 (A) (A) (A) (A) (A) (A) (A) (A) (A) (A) (A) (A)
                 (A) (A) (A) (A) (A) (A) (A) (A) (A) (A) (A) (A)
                 (A) (A) (A) (A) (A) (A) (A) (A) (A) (A) (A) (A)
                 (A) (A) (A) (A) (A) (A) (A) (A) (A) (A) (A) (A)
                 (A) (A) (A) (A) (A) (A) (A) (A)
 The electronic state is 1-A.
 Alpha  occ. eigenvalues --  -19.12919 -10.26641 -10.19580 -10.19069 -10.19039
 Alpha  occ. eigenvalues --  -10.18952 -10.18723 -10.18690 -10.17014  -1.03003
 Alpha  occ. eigenvalues --   -0.82642  -0.78199  -0.75164  -0.69468  -0.62918
 Alpha  occ. eigenvalues --   -0.62611  -0.57157  -0.51189  -0.48098  -0.46956
 Alpha  occ. eigenvalues --   -0.45244  -0.43970  -0.41366  -0.41197  -0.40338
 Alpha  occ. eigenvalues --   -0.39955  -0.37292  -0.36055  -0.35352  -0.34347
 Alpha  occ. eigenvalues --   -0.33037  -0.32459  -0.31980  -0.31401  -0.23460
 Alpha virt. eigenvalues --   -0.00855   0.07697   0.09762   0.11079   0.12089
 Alpha virt. eigenvalues --    0.13364   0.15084   0.15604   0.16359   0.17065
 Alpha virt. eigenvalues --    0.17428   0.17741   0.18279   0.18858   0.20564
 Alpha virt. eigenvalues --    0.21632   0.23452   0.24528   0.24696   0.26176
 Alpha virt. eigenvalues --    0.27585   0.30238   0.34834   0.36353   0.49428
 Alpha virt. eigenvalues --    0.50271   0.51032   0.52722   0.55285   0.56967
 Alpha virt. eigenvalues --    0.57250   0.61304   0.62555   0.63531   0.64441
 Alpha virt. eigenvalues --    0.65922   0.67829   0.69982   0.71989   0.73442
 Alpha virt. eigenvalues --    0.74301   0.76647   0.77487   0.80565   0.83505
 Alpha virt. eigenvalues --    0.84774   0.85322   0.86383   0.87148   0.88246
 Alpha virt. eigenvalues --    0.89308   0.90670   0.91530   0.92647   0.94030
 Alpha virt. eigenvalues --    0.94884   0.95632   0.96749   0.97529   0.98467
 Alpha virt. eigenvalues --    0.99155   1.02436   1.06111   1.09845   1.11631
 Alpha virt. eigenvalues --    1.14687   1.20326   1.29801   1.34006   1.39501
 Alpha virt. eigenvalues --    1.42067   1.48863   1.54167   1.55676   1.58319
 Alpha virt. eigenvalues --    1.61862   1.66174   1.70005   1.73091   1.77701
 Alpha virt. eigenvalues --    1.77904   1.82211   1.83711   1.86062   1.87410
 Alpha virt. eigenvalues --    1.88143   1.90265   1.91412   1.94343   1.96216
 Alpha virt. eigenvalues --    1.97592   1.99524   2.02485   2.04376   2.07863
 Alpha virt. eigenvalues --    2.12455   2.14725   2.23022   2.23991   2.26696
 Alpha virt. eigenvalues --    2.29865   2.33343   2.34621   2.35460   2.36154
 Alpha virt. eigenvalues --    2.38796   2.40905   2.44515   2.51544   2.53173
 Alpha virt. eigenvalues --    2.60281   2.62633   2.65618   2.68348   2.70041
 Alpha virt. eigenvalues --    2.75584   2.83208   2.99484   3.04037   3.99949
 Alpha virt. eigenvalues --    4.07862   4.20324   4.23112   4.33788   4.48189
 Alpha virt. eigenvalues --    4.55013   4.55683   4.66395
          Condensed to atoms (all electrons):
               1          2          3          4          5          6
     1  O    8.038804   0.559799  -0.086890   0.003035   0.000415   0.000007
     2  C    0.559799   4.506865   0.317036  -0.032326  -0.027436  -0.000047
     3  C   -0.086890   0.317036   5.211076   0.349594   0.346346  -0.031807
     4  C    0.003035  -0.032326   0.349594   5.088062  -0.043244   0.003519
     5  C    0.000415  -0.027436   0.346346  -0.043244   5.055854   0.368606
     6  C    0.000007  -0.000047  -0.031807   0.003519   0.368606   4.994563
     7  C   -0.000039  -0.001224  -0.003192   0.000054  -0.042658   0.385022
     8  C    0.003127  -0.025047   0.013103  -0.000195  -0.007058  -0.044987
     9  C   -0.077053   0.339971  -0.132173   0.006788   0.007315  -0.001311
    10  H    0.001084  -0.033818   0.359435  -0.039392  -0.048787  -0.004751
    11  H    0.002824  -0.005256  -0.034930   0.379783  -0.004044   0.000086
    12  H    0.006786  -0.004520  -0.027484   0.372055   0.004502  -0.000141
    13  H    0.000706   0.004820  -0.030050   0.360142  -0.004858  -0.000041
    14  H   -0.000070   0.003389  -0.039555  -0.006280   0.374259  -0.032034
    15  H    0.000401  -0.005570  -0.043533   0.000020   0.367614  -0.038486
    16  H   -0.000003  -0.000143  -0.008097   0.000160  -0.043543   0.373014
    17  H    0.000001  -0.000091   0.004595  -0.000179  -0.033612   0.366564
    18  H    0.000001  -0.000038  -0.000066   0.000002   0.004986  -0.033551
    19  H   -0.000008  -0.000238  -0.000369  -0.000004  -0.004859  -0.040259
    20  H    0.000084  -0.005168   0.000452  -0.000058  -0.000714  -0.005542
    21  H   -0.000081   0.003459  -0.000236   0.000001   0.000022   0.004754
    22  H   -0.000899  -0.025000   0.002768  -0.000167   0.000011  -0.000435
    23  H    0.002552  -0.024084   0.005541  -0.000151  -0.000046  -0.000055
               7          8          9         10         11         12
     1  O   -0.000039   0.003127  -0.077053   0.001084   0.002824   0.006786
     2  C   -0.001224  -0.025047   0.339971  -0.033818  -0.005256  -0.004520
     3  C   -0.003192   0.013103  -0.132173   0.359435  -0.034930  -0.027484
     4  C    0.000054  -0.000195   0.006788  -0.039392   0.379783   0.372055
     5  C   -0.042658  -0.007058   0.007315  -0.048787  -0.004044   0.004502
     6  C    0.385022  -0.044987  -0.001311  -0.004751   0.000086  -0.000141
     7  C    4.992177   0.376524  -0.039163  -0.001350  -0.000010   0.000002
     8  C    0.376524   5.045608   0.314047   0.000140  -0.000002  -0.000011
     9  C   -0.039163   0.314047   5.302999   0.000580   0.000031   0.000218
    10  H   -0.001350   0.000140   0.000580   0.607292   0.005225  -0.002458
    11  H   -0.000010  -0.000002   0.000031   0.005225   0.560510  -0.027630
    12  H    0.000002  -0.000011   0.000218  -0.002458  -0.027630   0.545702
    13  H    0.000002  -0.000005  -0.000083  -0.003210  -0.031812  -0.029548
    14  H    0.004614   0.000058  -0.000410  -0.001192  -0.000139   0.000192
    15  H   -0.004964  -0.000974   0.001127   0.005952   0.002632  -0.000156
    16  H   -0.039881  -0.005974   0.000020   0.007134   0.000010  -0.000009
    17  H   -0.034206   0.005203  -0.000121   0.000202   0.000005   0.000002
    18  H    0.367938  -0.033839   0.004594  -0.000048  -0.000000  -0.000000
    19  H    0.372309  -0.044044  -0.007162   0.000095  -0.000001  -0.000000
    20  H   -0.040339   0.373007  -0.043340   0.002611   0.000000  -0.000004
    21  H   -0.032505   0.366459  -0.028521   0.000025   0.000000   0.000000
    22  H   -0.006779  -0.038457   0.352847   0.000144   0.000003  -0.000003
    23  H    0.004022  -0.030254   0.350939  -0.000323  -0.000005  -0.000005
              13         14         15         16         17         18
     1  O    0.000706  -0.000070   0.000401  -0.000003   0.000001   0.000001
     2  C    0.004820   0.003389  -0.005570  -0.000143  -0.000091  -0.000038
     3  C   -0.030050  -0.039555  -0.043533  -0.008097   0.004595  -0.000066
     4  C    0.360142  -0.006280   0.000020   0.000160  -0.000179   0.000002
     5  C   -0.004858   0.374259   0.367614  -0.043543  -0.033612   0.004986
     6  C   -0.000041  -0.032034  -0.038486   0.373014   0.366564  -0.033551
     7  C    0.000002   0.004614  -0.004964  -0.039881  -0.034206   0.367938
     8  C   -0.000005   0.000058  -0.000974  -0.005974   0.005203  -0.033839
     9  C   -0.000083  -0.000410   0.001127   0.000020  -0.000121   0.004594
    10  H   -0.003210  -0.001192   0.005952   0.007134   0.000202  -0.000048
    11  H   -0.031812  -0.000139   0.002632   0.000010   0.000005  -0.000000
    12  H   -0.029548   0.000192  -0.000156  -0.000009   0.000002  -0.000000
    13  H    0.595994   0.004747  -0.000015   0.000043  -0.000008  -0.000000
    14  H    0.004747   0.591341  -0.035769  -0.002556  -0.005163  -0.000185
    15  H   -0.000015  -0.035769   0.605823   0.005816  -0.002189  -0.000017
    16  H    0.000043  -0.002556   0.005816   0.613389  -0.036645  -0.004635
    17  H   -0.000008  -0.005163  -0.002189  -0.036645   0.608325  -0.002887
    18  H   -0.000000  -0.000185  -0.000017  -0.004635  -0.002887   0.606531
    19  H    0.000000  -0.000026   0.004357   0.005936  -0.004643  -0.036256
    20  H    0.000001  -0.000005   0.000138   0.004692  -0.000000  -0.001722
    21  H    0.000000   0.000003  -0.000001  -0.000017  -0.000180  -0.005803
    22  H    0.000001   0.000028   0.000699   0.000054  -0.000022   0.000063
    23  H    0.000002   0.000001  -0.000042  -0.000002   0.000003  -0.000175
              19         20         21         22         23
     1  O   -0.000008   0.000084  -0.000081  -0.000899   0.002552
     2  C   -0.000238  -0.005168   0.003459  -0.025000  -0.024084
     3  C   -0.000369   0.000452  -0.000236   0.002768   0.005541
     4  C   -0.000004  -0.000058   0.000001  -0.000167  -0.000151
     5  C   -0.004859  -0.000714   0.000022   0.000011  -0.000046
     6  C   -0.040259  -0.005542   0.004754  -0.000435  -0.000055
     7  C    0.372309  -0.040339  -0.032505  -0.006779   0.004022
     8  C   -0.044044   0.373007   0.366459  -0.038457  -0.030254
     9  C   -0.007162  -0.043340  -0.028521   0.352847   0.350939
    10  H    0.000095   0.002611   0.000025   0.000144  -0.000323
    11  H   -0.000001   0.000000   0.000000   0.000003  -0.000005
    12  H   -0.000000  -0.000004   0.000000  -0.000003  -0.000005
    13  H    0.000000   0.000001   0.000000   0.000001   0.000002
    14  H   -0.000026  -0.000005   0.000003   0.000028   0.000001
    15  H    0.004357   0.000138  -0.000001   0.000699  -0.000042
    16  H    0.005936   0.004692  -0.000017   0.000054  -0.000002
    17  H   -0.004643  -0.000000  -0.000180  -0.000022   0.000003
    18  H   -0.036256  -0.001722  -0.005803   0.000063  -0.000175
    19  H    0.613804   0.005881  -0.002056   0.007160   0.000094
    20  H    0.005881   0.605299  -0.036403   0.005351  -0.000311
    21  H   -0.002056  -0.036403   0.597822  -0.002301  -0.005670
    22  H    0.007160   0.005351  -0.002301   0.563520  -0.023875
    23  H    0.000094  -0.000311  -0.005670  -0.023875   0.552458
 Mulliken charges:
               1
     1  O   -0.454580
     2  C    0.454669
     3  C   -0.171564
     4  C   -0.441219
     5  C   -0.269072
     6  C   -0.262688
     7  C   -0.256355
     8  C   -0.266429
     9  C   -0.352139
    10  H    0.145409
    11  H    0.152720
    12  H    0.162511
    13  H    0.133174
    14  H    0.144751
    15  H    0.137138
    16  H    0.131238
    17  H    0.135046
    18  H    0.135107
    19  H    0.130290
    20  H    0.136090
    21  H    0.141229
    22  H    0.165288
    23  H    0.169385
 Sum of Mulliken charges =  -0.00000
 Mulliken charges with hydrogens summed into heavy atoms:
               1
     1  O   -0.454580
     2  C    0.454669
     3  C   -0.026155
     4  C    0.007187
     5  C    0.012818
     6  C    0.003595
     7  C    0.009042
     8  C    0.010890
     9  C   -0.017466
 APT charges:
               1
     1  O   -0.661247
     2  C    0.713986
     3  C   -0.035005
     4  C    0.073405
     5  C    0.106681
     6  C    0.131141
     7  C    0.124830
     8  C    0.109638
     9  C   -0.033730
    10  H   -0.034830
    11  H   -0.013744
    12  H   -0.003230
    13  H   -0.032091
    14  H   -0.047186
    15  H   -0.039201
    16  H   -0.052830
    17  H   -0.063884
    18  H   -0.061241
    19  H   -0.051532
    20  H   -0.040242
    21  H   -0.053335
    22  H   -0.013184
    23  H   -0.023169
 Sum of APT charges =   0.00000
 APT charges with hydrogens summed into heavy atoms:
               1
     1  O   -0.661247
     2  C    0.713986
     3  C   -0.069836
     4  C    0.024341
     5  C    0.020295
     6  C    0.014427
     7  C    0.012056
     8  C    0.016061
     9  C   -0.070083
 Electronic spatial extent (au):  <R**2>=           1300.6984
 Charge=             -0.0000 electrons
 Dipole moment (field-independent basis, Debye):
    X=             -2.5198    Y=             -1.4165    Z=              0.4586  Tot=              2.9268
 Quadrupole moment (field-independent basis, Debye-Ang):
   XX=            -61.2649   YY=            -57.7730   ZZ=            -55.0433
   XY=             -4.9943   XZ=              1.3174   YZ=              0.7905
 Traceless Quadrupole moment (field-independent basis, Debye-Ang):
   XX=             -3.2378   YY=              0.2540   ZZ=              2.9838
   XY=             -4.9943   XZ=              1.3174   YZ=              0.7905
 Octapole moment (field-independent basis, Debye-Ang**2):
  XXX=             -6.8534  YYY=              2.3567  ZZZ=             -1.8106  XYY=             -6.7463
  XXY=             -7.4412  XXZ=              2.4765  XZZ=              2.7475  YZZ=              2.3758
  YYZ=              1.2987  XYZ=              2.1666
 Hexadecapole moment (field-independent basis, Debye-Ang**3):
 XXXX=           -990.4945 YYYY=           -609.8616 ZZZZ=           -140.5421 XXXY=             -8.1430
 XXXZ=              1.6989 YYYX=             -5.4546 YYYZ=              2.7013 ZZZX=             -1.8644
 ZZZY=             -3.4679 XXYY=           -280.1895 XXZZ=           -183.9817 YYZZ=           -126.6928
 XXYZ=              4.7783 YYXZ=              4.2293 ZZXY=              3.8338
 N-N= 4.739471016237D+02 E-N=-1.849261779240D+03  KE= 3.847486561717D+02
  Exact polarizability:  93.177   0.425  85.477  -0.237  -0.738  68.805
 Approx polarizability: 122.259   7.085 115.895  -2.127  -3.313 107.894
 Calling FoFJK, ICntrl=    100127 FMM=F ISym2X=0 I1Cent= 0 IOpClX= 0 NMat=1 NMatS=1 NMatT=0.
 Full mass-weighted force constant matrix:
 Low frequencies ---   -5.7424   -0.0006    0.0004    0.0009    6.4152   11.6862
 Low frequencies ---   22.7208  115.4497  214.8754
 Diagonal vibrational polarizability:
        4.0265021      25.9500616     172.6387207
 Harmonic frequencies (cm**-1), IR intensities (KM/Mole), Raman scattering
 activities (A**4/AMU), depolarization ratios for plane and unpolarized
 incident light, reduced masses (AMU), force constants (mDyne/A),
 and normal coordinates:
                      1                      2                      3
                      A                      A                      A
 Frequencies --     21.6081               115.4407               214.8752
 Red. masses --      3.7650                 2.2754                 1.1572
 Frc consts  --      0.0010                 0.0179                 0.0315
 IR Inten    --      3.3423                 0.2168                 0.1251
  Atom  AN      X      Y      Z        X      Y      Z        X      Y      Z
     1   8     0.04   0.09   0.30     0.02   0.00  -0.02    -0.00  -0.04  -0.02
     2   6     0.02   0.01   0.03     0.01   0.01  -0.04    -0.01  -0.02   0.02
     3   6     0.02  -0.02  -0.06    -0.04   0.02  -0.02     0.00  -0.02   0.00
     4   6     0.01  -0.03  -0.16    -0.05  -0.01   0.17     0.02   0.03   0.00
     5   6    -0.04  -0.00  -0.00     0.00   0.08  -0.14    -0.00   0.02  -0.03
     6   6    -0.01   0.00   0.11     0.02  -0.03  -0.08     0.02   0.01   0.05
     7   6    -0.04  -0.02   0.08    -0.02  -0.02   0.15    -0.01  -0.01   0.01
     8   6     0.01   0.04  -0.09     0.07  -0.02   0.07    -0.04   0.03  -0.04
     9   6    -0.00  -0.07  -0.21    -0.01  -0.04  -0.10     0.00  -0.00   0.01
    10   1     0.10  -0.04  -0.04    -0.16   0.03  -0.06    -0.00  -0.07  -0.00
    11   1    -0.05  -0.02  -0.19     0.10  -0.01   0.22     0.23   0.55   0.07
    12   1     0.05  -0.04  -0.20    -0.12  -0.04   0.28    -0.10  -0.24   0.45
    13   1     0.04  -0.03  -0.18    -0.13  -0.02   0.16    -0.03  -0.16  -0.48
    14   1    -0.05  -0.00  -0.04     0.04   0.09  -0.28    -0.01   0.02  -0.10
    15   1    -0.12   0.01  -0.00    -0.04   0.23  -0.09    -0.05   0.07  -0.01
    16   1     0.07   0.06   0.12     0.09  -0.18  -0.12     0.08   0.06   0.06
    17   1    -0.03  -0.04   0.19     0.01   0.04  -0.16     0.00  -0.02   0.11
    18   1    -0.00  -0.00   0.19     0.06  -0.06   0.34    -0.00  -0.01   0.02
    19   1    -0.15  -0.12   0.07    -0.24   0.03   0.19    -0.02  -0.05   0.00
    20   1     0.04   0.17  -0.07     0.21   0.00   0.04    -0.10   0.10  -0.01
    21   1     0.02   0.06  -0.17     0.07  -0.02   0.15    -0.04   0.03  -0.13
    22   1     0.02  -0.37  -0.24    -0.08  -0.21  -0.11     0.04   0.02   0.01
    23   1    -0.05   0.02  -0.48    -0.03   0.02  -0.27     0.02  -0.01   0.03
                      4                      5                      6
                      A                      A                      A
 Frequencies --    235.1603               260.7517               297.6257
 Red. masses --      1.7908                 2.9030                 2.6369
 Frc consts  --      0.0583                 0.1163                 0.1376
 IR Inten    --      0.0388                 0.9970                 0.5952
  Atom  AN      X      Y      Z        X      Y      Z        X      Y      Z
     1   8    -0.02  -0.02   0.02    -0.03  -0.06  -0.09    -0.06  -0.10   0.05
     2   6    -0.03  -0.01  -0.01     0.02  -0.06   0.13    -0.08  -0.09  -0.01
     3   6    -0.00  -0.01   0.03     0.09  -0.03   0.17    -0.01  -0.10  -0.08
     4   6     0.04   0.10  -0.03     0.10  -0.03  -0.05     0.08   0.11   0.04
     5   6     0.01  -0.09   0.09     0.06   0.15   0.03     0.05  -0.13  -0.10
     6   6    -0.07   0.02  -0.10     0.01   0.08  -0.09     0.06   0.03  -0.04
     7   6    -0.00   0.08  -0.01    -0.11   0.03   0.02     0.03   0.06   0.09
     8   6     0.07  -0.02   0.08    -0.11   0.04  -0.02    -0.06   0.15  -0.00
     9   6    -0.01  -0.03  -0.07    -0.02  -0.12  -0.01    -0.01   0.04   0.02
    10   1     0.05  -0.00   0.05     0.15  -0.13   0.18    -0.06  -0.15  -0.10
    11   1     0.08   0.36  -0.01    -0.12  -0.10  -0.13     0.10  -0.08   0.05
    12   1    -0.04   0.03   0.14     0.21   0.02  -0.24    -0.05   0.39  -0.12
    13   1     0.11   0.02  -0.25     0.18   0.00   0.01     0.27   0.22   0.30
    14   1    -0.06  -0.11   0.32     0.01   0.13  -0.12    -0.02  -0.15   0.00
    15   1     0.16  -0.28   0.04     0.15   0.32   0.08     0.09  -0.21  -0.12
    16   1    -0.22  -0.10  -0.13    -0.06  -0.05  -0.13     0.12  -0.02  -0.05
    17   1    -0.05   0.11  -0.26     0.10   0.11  -0.22    -0.06   0.09  -0.02
    18   1    -0.01   0.08  -0.03    -0.05  -0.06   0.13     0.09  -0.02   0.19
    19   1     0.00   0.18   0.01    -0.25   0.05   0.04    -0.10   0.05   0.11
    20   1     0.23  -0.15   0.02    -0.19   0.11   0.01    -0.17   0.33   0.06
    21   1     0.10  -0.00   0.28    -0.05   0.09  -0.15    -0.09   0.14  -0.22
    22   1    -0.08  -0.21  -0.07     0.06  -0.32  -0.04    -0.01   0.09   0.03
    23   1    -0.01   0.02  -0.23    -0.05  -0.06  -0.20     0.11   0.01   0.05
                      7                      8                      9
                      A                      A                      A
 Frequencies --    331.5576               349.7471               371.2929
 Red. masses --      3.3446                 1.9118                 2.7684
 Frc consts  --      0.2166                 0.1378                 0.2249
 IR Inten    --      6.7485                 0.2419                 0.3762
  Atom  AN      X      Y      Z        X      Y      Z        X      Y      Z
     1   8    -0.11   0.17  -0.01     0.01  -0.07   0.01    -0.11  -0.06  -0.01
     2   6    -0.00  -0.03  -0.06     0.00  -0.05   0.00    -0.11  -0.01   0.06
     3   6     0.12  -0.06  -0.11     0.00  -0.03  -0.02    -0.07  -0.01   0.09
     4   6     0.10  -0.20   0.09     0.06   0.12   0.03    -0.11  -0.05  -0.05
     5   6     0.04  -0.05  -0.03    -0.07   0.07  -0.07     0.07   0.02  -0.03
     6   6     0.03   0.14   0.02    -0.04   0.06   0.09     0.14   0.01   0.03
     7   6    -0.02   0.10  -0.05    -0.03   0.03  -0.09     0.21   0.04  -0.04
     8   6    -0.07   0.02   0.08     0.03  -0.08   0.04     0.04   0.06   0.07
     9   6    -0.07  -0.09   0.01     0.00  -0.08  -0.01    -0.07   0.03  -0.07
    10   1     0.09  -0.01  -0.12    -0.01  -0.07  -0.03    -0.08  -0.11   0.08
    11   1     0.32  -0.23   0.17     0.08   0.04   0.04    -0.24  -0.03  -0.09
    12   1     0.06  -0.30   0.26    -0.05   0.32  -0.05     0.01  -0.14  -0.10
    13   1    -0.10  -0.21   0.08     0.22   0.18   0.18    -0.14  -0.08  -0.11
    14   1    -0.08  -0.09   0.12    -0.07   0.07  -0.27     0.12   0.04  -0.16
    15   1     0.07  -0.20  -0.07    -0.20   0.23  -0.02     0.05   0.16   0.01
    16   1     0.08   0.28   0.06     0.07   0.29   0.15     0.18   0.06   0.05
    17   1    -0.00   0.07   0.17    -0.05  -0.07   0.30     0.07   0.02   0.10
    18   1    -0.06   0.01  -0.16    -0.10   0.08  -0.25     0.11   0.02  -0.29
    19   1     0.09   0.15  -0.05     0.17   0.03  -0.11     0.46   0.07  -0.06
    20   1    -0.07  -0.07   0.06     0.12  -0.27  -0.02     0.12   0.05   0.05
    21   1    -0.02   0.07   0.13     0.08  -0.04   0.24    -0.04  -0.02   0.12
    22   1    -0.15  -0.20   0.02    -0.03  -0.13  -0.01    -0.11  -0.25  -0.08
    23   1    -0.02  -0.06  -0.11    -0.00  -0.06  -0.07    -0.04   0.11  -0.33
                     10                     11                     12
                      A                      A                      A
 Frequencies --    476.3880               499.9354               545.5597
 Red. masses --      2.1022                 2.2414                 2.6399
 Frc consts  --      0.2811                 0.3301                 0.4629
 IR Inten    --      2.6637                 4.9063                 2.5482
  Atom  AN      X      Y      Z        X      Y      Z        X      Y      Z
     1   8    -0.06   0.12  -0.05     0.15  -0.04  -0.02    -0.07   0.12  -0.07
     2   6     0.04  -0.00   0.05     0.09   0.06   0.02     0.04   0.01   0.15
     3   6     0.01  -0.05   0.00    -0.03   0.08  -0.08    -0.08  -0.04   0.03
     4   6     0.05   0.01   0.02    -0.08   0.05  -0.01    -0.12   0.05  -0.01
     5   6    -0.10  -0.02  -0.01     0.01  -0.02  -0.02     0.01  -0.08  -0.08
     6   6    -0.11  -0.13   0.02     0.02   0.00  -0.01     0.04   0.06  -0.02
     7   6     0.10   0.00   0.02     0.01  -0.01  -0.00    -0.02   0.01  -0.01
     8   6     0.03   0.06   0.01    -0.13   0.01   0.10     0.10  -0.04  -0.07
     9   6     0.07  -0.05   0.03    -0.02  -0.09   0.08     0.14  -0.10   0.07
    10   1     0.03  -0.06   0.01    -0.08   0.12  -0.10    -0.18  -0.15  -0.01
    11   1     0.08   0.03   0.03    -0.04   0.02   0.00    -0.20   0.11  -0.03
    12   1    -0.03   0.09   0.02    -0.08   0.04  -0.00    -0.13   0.10  -0.06
    13   1     0.14   0.02   0.04    -0.13   0.06   0.01    -0.00   0.04  -0.04
    14   1    -0.03   0.01  -0.25     0.03  -0.01   0.19    -0.03  -0.09   0.17
    15   1    -0.26   0.18   0.05     0.04  -0.22  -0.08     0.15  -0.25  -0.12
    16   1    -0.23  -0.35  -0.05     0.04   0.01  -0.01     0.22   0.31   0.05
    17   1    -0.13   0.04  -0.22     0.01  -0.00   0.01    -0.05  -0.08   0.28
    18   1    -0.02   0.15  -0.22    -0.06  -0.08  -0.21     0.09   0.00   0.26
    19   1     0.36   0.00  -0.01     0.19   0.06  -0.01    -0.29  -0.01   0.02
    20   1    -0.14   0.26   0.09    -0.36   0.14   0.18     0.01  -0.07  -0.06
    21   1     0.02   0.05  -0.28    -0.11   0.04  -0.19     0.16   0.03  -0.09
    22   1     0.09  -0.21   0.01    -0.09  -0.52   0.05     0.30  -0.23   0.02
    23   1     0.07   0.00  -0.13    -0.15   0.07  -0.34     0.05  -0.04  -0.04
                     13                     14                     15
                      A                      A                      A
 Frequencies --    599.7657               714.1241               807.1602
 Red. masses --      2.9953                 2.8978                 2.6358
 Frc consts  --      0.6348                 0.8707                 1.0118
 IR Inten    --      1.1159                 0.8079                 0.8167
  Atom  AN      X      Y      Z        X      Y      Z        X      Y      Z
     1   8     0.06  -0.03  -0.07     0.11   0.12  -0.01     0.06   0.02  -0.02
     2   6     0.00   0.17   0.21     0.12   0.01  -0.13     0.03   0.05   0.03
     3   6     0.03  -0.05  -0.01    -0.04  -0.14   0.19    -0.04  -0.09   0.01
     4   6     0.11  -0.06   0.01    -0.03  -0.01   0.03     0.01  -0.03   0.00
     5   6    -0.03  -0.09  -0.07     0.03  -0.13  -0.06    -0.11   0.05   0.02
     6   6    -0.05  -0.06   0.00     0.00  -0.03  -0.02     0.02   0.18  -0.01
     7   6    -0.04  -0.03  -0.03    -0.05   0.02  -0.01     0.17  -0.02   0.08
     8   6    -0.02   0.02  -0.01    -0.09   0.04   0.08     0.00  -0.15  -0.06
     9   6    -0.07   0.22  -0.02    -0.05   0.03  -0.06    -0.12  -0.02  -0.04
    10   1     0.05  -0.32  -0.01    -0.16  -0.01   0.15    -0.03  -0.19   0.01
    11   1     0.19  -0.12   0.04    -0.36   0.24  -0.10     0.04   0.06   0.01
    12   1     0.08  -0.04   0.03     0.03   0.09  -0.15    -0.14   0.13  -0.00
    13   1     0.09  -0.03   0.08     0.35  -0.06  -0.16     0.23  -0.01   0.02
    14   1    -0.03  -0.09  -0.03     0.00  -0.14  -0.33    -0.32  -0.03   0.19
    15   1    -0.06  -0.12  -0.07     0.08   0.18   0.03    -0.03  -0.12  -0.03
    16   1     0.02   0.06   0.04     0.11   0.14   0.03    -0.03  -0.01  -0.06
    17   1    -0.10  -0.11   0.13    -0.12  -0.08   0.19    -0.04   0.33  -0.17
    18   1    -0.01  -0.00   0.07    -0.07  -0.08  -0.09     0.19  -0.07   0.09
    19   1    -0.14  -0.06  -0.02     0.01   0.09  -0.00     0.13  -0.01   0.08
    20   1     0.18  -0.15  -0.09    -0.03   0.01   0.05    -0.06   0.07  -0.00
    21   1    -0.12  -0.09   0.27    -0.08   0.05   0.13    -0.12  -0.26  -0.27
    22   1     0.08  -0.21  -0.09    -0.21   0.21  -0.01    -0.11   0.17  -0.02
    23   1    -0.28   0.36  -0.33     0.02  -0.02   0.07    -0.31  -0.06   0.20
                     16                     17                     18
                      A                      A                      A
 Frequencies --    825.3825               833.6645               882.8078
 Red. masses --      1.6003                 1.5649                 2.1949
 Frc consts  --      0.6423                 0.6408                 1.0078
 IR Inten    --      4.4885                 0.5784                 2.5251
  Atom  AN      X      Y      Z        X      Y      Z        X      Y      Z
     1   8     0.01   0.03  -0.02     0.01   0.02   0.00    -0.03   0.02   0.01
     2   6     0.05  -0.02   0.07     0.01  -0.02  -0.04     0.00  -0.05  -0.06
     3   6    -0.00  -0.06  -0.05    -0.01  -0.08  -0.05    -0.05  -0.09  -0.00
     4   6    -0.07   0.01  -0.01    -0.06   0.00  -0.01     0.01  -0.05  -0.01
     5   6     0.03   0.02   0.00    -0.00  -0.03   0.11    -0.07   0.15   0.05
     6   6     0.07   0.02   0.07     0.07   0.03   0.02     0.02  -0.00  -0.07
     7   6    -0.07  -0.01   0.04     0.04   0.01  -0.08    -0.04  -0.14  -0.02
     8   6    -0.08   0.05  -0.02    -0.03   0.02  -0.02     0.03   0.03   0.09
     9   6     0.02  -0.02  -0.06     0.02   0.04   0.07     0.09   0.12   0.00
    10   1    -0.02  -0.18  -0.06     0.11   0.06  -0.00    -0.00  -0.06   0.01
    11   1     0.02   0.03   0.02     0.08   0.03   0.03     0.11   0.08   0.02
    12   1    -0.20   0.11   0.03    -0.22   0.12   0.05    -0.23   0.18   0.02
    13   1     0.01   0.03   0.04     0.03   0.03   0.05     0.30  -0.02   0.03
    14   1    -0.01   0.01   0.11     0.01  -0.03  -0.29    -0.20   0.11   0.38
    15   1    -0.01  -0.10  -0.03    -0.22   0.27   0.19     0.20  -0.14  -0.03
    16   1    -0.02  -0.36  -0.04    -0.22  -0.04  -0.00     0.21   0.14  -0.03
    17   1     0.16   0.17  -0.27     0.13   0.11  -0.17     0.21  -0.24   0.10
    18   1    -0.19  -0.06  -0.27     0.21  -0.13   0.29    -0.09  -0.15  -0.13
    19   1     0.26  -0.15  -0.03    -0.35  -0.09  -0.04     0.07  -0.05  -0.02
    20   1     0.25  -0.13  -0.12    -0.08  -0.24  -0.06    -0.06   0.16   0.13
    21   1    -0.01   0.11   0.37    -0.05  -0.00   0.14    -0.05  -0.04  -0.08
    22   1     0.23   0.17  -0.08    -0.03  -0.26   0.05    -0.05  -0.11   0.01
    23   1     0.07  -0.09   0.13     0.02   0.14  -0.23     0.22   0.17  -0.24
                     19                     20                     21
                      A                      A                      A
 Frequencies --    930.7828               952.0471               993.9756
 Red. masses --      1.5350                 2.1383                 1.9633
 Frc consts  --      0.7835                 1.1419                 1.1429
 IR Inten    --      9.0308                11.5865                 0.7016
  Atom  AN      X      Y      Z        X      Y      Z        X      Y      Z
     1   8    -0.02  -0.00   0.01     0.01   0.01  -0.01    -0.02  -0.00   0.00
     2   6     0.00  -0.05  -0.04     0.06  -0.05   0.08    -0.02  -0.00   0.01
     3   6    -0.02   0.07   0.03     0.02   0.05  -0.00     0.04   0.02   0.03
     4   6     0.08  -0.01   0.06    -0.01   0.02  -0.03    -0.00   0.08  -0.01
     5   6    -0.09   0.01  -0.07    -0.12   0.02   0.03    -0.05  -0.11   0.00
     6   6     0.02   0.03   0.03    -0.01  -0.07  -0.10     0.01   0.13  -0.04
     7   6     0.06  -0.03  -0.01     0.13  -0.02  -0.04    -0.03  -0.11   0.03
     8   6    -0.06   0.04  -0.03    -0.09   0.11   0.05    -0.03  -0.06   0.07
     9   6     0.04   0.01   0.04    -0.04  -0.08  -0.08     0.12   0.06  -0.06
    10   1    -0.29   0.23  -0.05     0.17   0.01   0.05     0.18   0.03   0.07
    11   1    -0.28   0.08  -0.08     0.16  -0.06   0.04     0.01  -0.16   0.01
    12   1     0.36  -0.12  -0.15    -0.09   0.02   0.07     0.18  -0.19   0.06
    13   1     0.13  -0.09  -0.16    -0.12   0.06   0.08    -0.42   0.07   0.02
    14   1    -0.12   0.00   0.16     0.03   0.08   0.11    -0.21  -0.18  -0.28
    15   1    -0.11  -0.20  -0.13    -0.10  -0.04   0.02    -0.12   0.15   0.07
    16   1     0.03  -0.17  -0.03     0.06   0.29   0.01    -0.07   0.13  -0.04
    17   1    -0.05   0.17  -0.11    -0.11  -0.21   0.22    -0.04   0.16  -0.03
    18   1     0.10  -0.10   0.07     0.26  -0.26   0.18    -0.08  -0.38  -0.20
    19   1    -0.03  -0.26  -0.04    -0.20   0.12   0.03     0.14   0.04   0.04
    20   1     0.02  -0.26  -0.10     0.20   0.02  -0.03    -0.01   0.14   0.10
    21   1    -0.08   0.00   0.26    -0.20   0.00   0.29    -0.08  -0.10  -0.08
    22   1     0.08  -0.14   0.02     0.11   0.24  -0.07     0.22   0.05  -0.08
    23   1     0.14   0.05  -0.13     0.18  -0.21   0.19     0.17   0.05  -0.06
                     22                     23                     24
                      A                      A                      A
 Frequencies --   1021.4087              1059.5585              1062.7482
 Red. masses --      1.7315                 1.4655                 1.8086
 Frc consts  --      1.0643                 0.9694                 1.2035
 IR Inten    --      6.4853                 0.6290                 9.2091
  Atom  AN      X      Y      Z        X      Y      Z        X      Y      Z
     1   8    -0.01   0.01   0.01    -0.03  -0.01  -0.00     0.01  -0.01   0.01
     2   6     0.03  -0.07  -0.05     0.01  -0.03   0.04    -0.05   0.08  -0.04
     3   6     0.08  -0.02   0.04     0.00   0.02  -0.09    -0.10   0.04   0.03
     4   6    -0.07   0.04  -0.03    -0.01  -0.06   0.04     0.06  -0.06  -0.04
     5   6     0.05   0.03  -0.05     0.07  -0.00   0.04    -0.07  -0.06   0.04
     6   6    -0.12   0.00  -0.00    -0.05   0.01  -0.02     0.07   0.00  -0.08
     7   6     0.06   0.00   0.07     0.02   0.01   0.06    -0.02   0.01   0.06
     8   6    -0.06  -0.02  -0.07    -0.05  -0.06  -0.01    -0.00   0.04  -0.07
     9   6     0.00   0.05   0.05     0.02   0.04  -0.02     0.00  -0.07   0.07
    10   1     0.30   0.04   0.12    -0.17   0.36  -0.13     0.16   0.37   0.14
    11   1     0.11  -0.06   0.04    -0.18   0.19  -0.03     0.28  -0.03   0.04
    12   1    -0.16   0.02   0.09    -0.05   0.13  -0.12    -0.13   0.06   0.06
    13   1    -0.21   0.08   0.09     0.34  -0.09  -0.09     0.17  -0.01   0.07
    14   1    -0.05  -0.01   0.06     0.19   0.04  -0.11    -0.12  -0.08  -0.13
    15   1     0.44   0.05  -0.03     0.02   0.12   0.08     0.15   0.19   0.12
    16   1     0.18  -0.04  -0.01    -0.14   0.21   0.03     0.37  -0.01  -0.08
    17   1    -0.35   0.08   0.12    -0.09  -0.03   0.09    -0.09  -0.00   0.09
    18   1     0.01   0.22   0.03    -0.02  -0.02  -0.05    -0.10  -0.06  -0.16
    19   1     0.14  -0.22   0.01     0.08   0.27   0.10     0.20  -0.05   0.02
    20   1    -0.02  -0.24  -0.12     0.13   0.09  -0.02     0.20  -0.03  -0.13
    21   1    -0.19  -0.16   0.14    -0.23  -0.23   0.03     0.16   0.18   0.15
    22   1     0.02  -0.16   0.02     0.39  -0.04  -0.10     0.23  -0.12   0.02
    23   1     0.05   0.10  -0.15    -0.04   0.04  -0.00    -0.21  -0.02   0.04
                     25                     26                     27
                      A                      A                      A
 Frequencies --   1093.2746              1121.1504              1145.2565
 Red. masses --      2.2402                 1.9626                 1.9090
 Frc consts  --      1.5776                 1.4535                 1.4752
 IR Inten    --      5.5420                 5.1039                 1.1383
  Atom  AN      X      Y      Z        X      Y      Z        X      Y      Z
     1   8    -0.00  -0.00   0.00    -0.01   0.02   0.00    -0.03  -0.03   0.00
     2   6     0.05  -0.07   0.02     0.03  -0.06  -0.01    -0.02   0.01   0.06
     3   6     0.17  -0.05  -0.05    -0.02  -0.03   0.01     0.15   0.10   0.04
     4   6    -0.08   0.06   0.07     0.02   0.05  -0.00    -0.08  -0.08   0.01
     5   6    -0.06  -0.01   0.02    -0.09   0.01   0.03    -0.07  -0.06  -0.06
     6   6     0.02   0.00  -0.05     0.12  -0.09  -0.03     0.06  -0.01   0.02
     7   6    -0.03  -0.05   0.00    -0.02   0.15   0.05    -0.03   0.04  -0.03
     8   6     0.10   0.08  -0.06    -0.06  -0.10  -0.04     0.01  -0.04   0.04
     9   6    -0.14   0.01   0.08     0.03   0.06  -0.02     0.02   0.03  -0.06
    10   1     0.11   0.24  -0.05     0.01  -0.02   0.02     0.33   0.36   0.11
    11   1    -0.40   0.11  -0.04    -0.01  -0.10  -0.01    -0.02   0.24   0.03
    12   1     0.13  -0.03  -0.09     0.15  -0.12   0.03    -0.34   0.25  -0.05
    13   1    -0.11  -0.01  -0.12    -0.21   0.04  -0.01     0.35  -0.04   0.05
    14   1    -0.33  -0.11  -0.06    -0.11  -0.00   0.06    -0.07  -0.05  -0.01
    15   1    -0.08  -0.00   0.02    -0.18  -0.07   0.01    -0.14  -0.11  -0.08
    16   1     0.11   0.06  -0.04     0.30  -0.11  -0.03     0.17  -0.18  -0.04
    17   1     0.23  -0.18   0.01     0.32  -0.23  -0.01    -0.03   0.09  -0.05
    18   1    -0.08   0.03  -0.08    -0.07   0.36   0.02    -0.01   0.06   0.03
    19   1     0.08  -0.01  -0.01     0.04   0.43   0.10    -0.05  -0.04  -0.04
    20   1     0.36   0.27  -0.07    -0.16  -0.15  -0.03    -0.27  -0.12   0.08
    21   1     0.05   0.03   0.02    -0.19  -0.22  -0.04     0.07   0.03  -0.12
    22   1    -0.06  -0.13   0.06     0.15  -0.04  -0.05    -0.14   0.11  -0.02
    23   1    -0.31   0.06   0.03    -0.03   0.08  -0.05     0.16  -0.01  -0.01
                     28                     29                     30
                      A                      A                      A
 Frequencies --   1193.0010              1195.8581              1235.0685
 Red. masses --      2.1885                 1.7571                 1.3522
 Frc consts  --      1.8352                 1.4805                 1.2153
 IR Inten    --     33.8453                11.2185                 4.0510
  Atom  AN      X      Y      Z        X      Y      Z        X      Y      Z
     1   8     0.01  -0.03  -0.00    -0.01   0.01  -0.02     0.01  -0.00   0.00
     2   6    -0.11   0.17  -0.01     0.08  -0.08   0.14    -0.02   0.04  -0.01
     3   6     0.07  -0.08  -0.11    -0.10  -0.01  -0.09    -0.03  -0.02   0.02
     4   6    -0.03   0.02   0.09     0.05   0.02  -0.00     0.01   0.00  -0.02
     5   6     0.00   0.04   0.08    -0.00  -0.03   0.06     0.02   0.00  -0.06
     6   6    -0.03  -0.04  -0.04    -0.01   0.03  -0.01    -0.02   0.00   0.09
     7   6     0.05   0.02   0.02    -0.02  -0.00  -0.01     0.01  -0.01  -0.09
     8   6    -0.06   0.00   0.03     0.04   0.00   0.03     0.00   0.01   0.07
     9   6     0.07  -0.06  -0.04    -0.04   0.03  -0.07    -0.02  -0.03  -0.01
    10   1     0.11  -0.24  -0.09    -0.14   0.42  -0.07     0.04   0.29   0.06
    11   1    -0.38   0.09  -0.04     0.03  -0.07  -0.01     0.08  -0.04   0.01
    12   1     0.19  -0.03  -0.12     0.13  -0.07  -0.00    -0.02  -0.01   0.03
    13   1     0.02  -0.08  -0.16    -0.07   0.00  -0.04    -0.02   0.02   0.02
    14   1    -0.35  -0.10  -0.07    -0.05  -0.05  -0.10    -0.37  -0.14  -0.04
    15   1     0.22   0.13   0.11     0.31   0.25   0.15     0.31   0.03  -0.04
    16   1     0.25  -0.01  -0.03     0.26  -0.11  -0.05    -0.04  -0.18   0.03
    17   1    -0.03  -0.12   0.09    -0.04   0.03   0.02     0.26  -0.05  -0.12
    18   1     0.05   0.14   0.07    -0.02   0.17   0.04     0.06   0.26   0.16
    19   1     0.02  -0.17  -0.02     0.01  -0.33  -0.08    -0.18   0.02  -0.06
    20   1    -0.23  -0.27   0.01    -0.25  -0.12   0.07     0.14   0.25   0.09
    21   1     0.10   0.15   0.05     0.01  -0.02  -0.06    -0.22  -0.20  -0.01
    22   1     0.11   0.11  -0.03    -0.38   0.14   0.02     0.41   0.00  -0.09
    23   1     0.16  -0.10   0.03     0.11  -0.03   0.04     0.01  -0.06   0.06
                     31                     32                     33
                      A                      A                      A
 Frequencies --   1248.6672              1303.0441              1313.7346
 Red. masses --      1.2773                 1.2131                 1.2319
 Frc consts  --      1.1734                 1.2136                 1.2526
 IR Inten    --      1.3854                 3.4483                 0.5269
  Atom  AN      X      Y      Z        X      Y      Z        X      Y      Z
     1   8     0.02   0.00  -0.00     0.02   0.01  -0.00     0.01  -0.00  -0.01
     2   6    -0.02   0.04   0.01    -0.01   0.01  -0.01    -0.01   0.03   0.04
     3   6    -0.00   0.06   0.02    -0.03   0.00  -0.04    -0.03  -0.03  -0.02
     4   6    -0.00  -0.03  -0.02     0.00   0.00   0.05     0.01   0.01   0.02
     5   6     0.03  -0.04   0.01    -0.04  -0.01   0.02    -0.00   0.02  -0.05
     6   6    -0.01   0.05  -0.04     0.04   0.01   0.02     0.00  -0.03   0.06
     7   6    -0.01  -0.05   0.05    -0.05   0.02  -0.05     0.01  -0.00   0.02
     8   6     0.01   0.03  -0.04     0.03  -0.02  -0.00    -0.02  -0.01  -0.07
     9   6    -0.02  -0.04   0.03    -0.04  -0.01   0.04     0.02  -0.01   0.02
    10   1    -0.13  -0.15  -0.03     0.30  -0.22   0.06     0.22   0.23   0.08
    11   1     0.08   0.03   0.01    -0.12   0.03  -0.00    -0.03  -0.02  -0.00
    12   1    -0.07   0.04   0.00     0.10  -0.02  -0.06     0.05  -0.02  -0.01
    13   1     0.08   0.00   0.04     0.05  -0.04  -0.07    -0.00  -0.01  -0.04
    14   1    -0.09  -0.09  -0.11     0.31   0.12   0.06    -0.18  -0.05   0.02
    15   1    -0.20  -0.00   0.01     0.07   0.07   0.05     0.28   0.01  -0.04
    16   1    -0.09   0.16  -0.01     0.28  -0.20  -0.05    -0.25   0.01   0.07
    17   1     0.29  -0.16  -0.03    -0.30   0.23   0.01     0.08  -0.02  -0.03
    18   1    -0.09   0.43   0.02    -0.03  -0.03  -0.03     0.02  -0.30  -0.08
    19   1     0.13  -0.08   0.02    -0.09   0.04  -0.04    -0.01   0.50   0.12
    20   1     0.08  -0.04  -0.07     0.24   0.25   0.00     0.10  -0.07  -0.12
    21   1    -0.27  -0.24   0.06    -0.22  -0.26  -0.08     0.05   0.05   0.01
    22   1    -0.23  -0.00   0.08     0.02  -0.05   0.02    -0.42   0.03   0.10
    23   1     0.51  -0.10  -0.10     0.36  -0.05  -0.08     0.28  -0.02  -0.09
                     34                     35                     36
                      A                      A                      A
 Frequencies --   1332.0291              1364.5524              1382.9995
 Red. masses --      1.1989                 1.4863                 1.4164
 Frc consts  --      1.2533                 1.6305                 1.5962
 IR Inten    --      0.9069                 2.5680                 5.0448
  Atom  AN      X      Y      Z        X      Y      Z        X      Y      Z
     1   8    -0.00   0.00  -0.00     0.02  -0.00  -0.01    -0.02  -0.01   0.00
     2   6     0.01  -0.01  -0.00    -0.03   0.06   0.02    -0.02   0.04   0.02
     3   6    -0.09  -0.03  -0.02     0.01  -0.14   0.03     0.00  -0.05   0.01
     4   6     0.01   0.01   0.05     0.01   0.03  -0.03     0.01   0.01  -0.01
     5   6    -0.00  -0.01  -0.05     0.05   0.06   0.00     0.06   0.03   0.01
     6   6    -0.01   0.03  -0.01     0.03  -0.02  -0.03    -0.01  -0.00  -0.01
     7   6     0.01  -0.02   0.03    -0.02  -0.01   0.01     0.00  -0.00  -0.03
     8   6    -0.00   0.02   0.02     0.03  -0.01   0.00    -0.04   0.01   0.00
     9   6     0.01  -0.01  -0.01    -0.09  -0.00   0.01     0.15  -0.04  -0.01
    10   1     0.66   0.10   0.23    -0.07   0.51   0.04    -0.00   0.23   0.02
    11   1    -0.12  -0.00  -0.00    -0.01  -0.12  -0.03    -0.03  -0.04  -0.02
    12   1     0.13  -0.04  -0.04    -0.03  -0.05   0.11    -0.04  -0.00   0.05
    13   1     0.05  -0.05  -0.08    -0.13   0.04   0.01    -0.05   0.01   0.01
    14   1     0.31   0.11   0.05     0.05   0.06   0.08    -0.05  -0.01   0.02
    15   1    -0.11  -0.11  -0.08    -0.41  -0.22  -0.10    -0.35  -0.13  -0.04
    16   1    -0.20   0.19   0.02    -0.03   0.10   0.00     0.21  -0.07  -0.03
    17   1     0.25  -0.10  -0.08    -0.29   0.14   0.04    -0.18   0.09   0.02
    18   1    -0.02   0.20   0.04    -0.03   0.05  -0.01    -0.02   0.13  -0.02
    19   1     0.08  -0.19  -0.02     0.04  -0.05  -0.01    -0.11  -0.03  -0.03
    20   1    -0.10  -0.09   0.02    -0.11  -0.05   0.02     0.28   0.21  -0.03
    21   1    -0.02   0.00   0.02     0.11   0.06  -0.03    -0.26  -0.20   0.07
    22   1     0.05   0.02  -0.02     0.24   0.00  -0.06    -0.49   0.05   0.12
    23   1    -0.17   0.01   0.05     0.42  -0.07  -0.07    -0.37   0.04   0.07
                     37                     38                     39
                      A                      A                      A
 Frequencies --   1397.2301              1402.4466              1412.0274
 Red. masses --      1.4151                 1.5273                 1.4752
 Frc consts  --      1.6277                 1.7699                 1.7329
 IR Inten    --      7.1939                 2.1115                 2.8323
  Atom  AN      X      Y      Z        X      Y      Z        X      Y      Z
     1   8    -0.00   0.01  -0.00     0.00   0.01  -0.00     0.00   0.00  -0.00
     2   6     0.03  -0.05   0.01     0.03  -0.05  -0.00    -0.00   0.00   0.01
     3   6    -0.04   0.04  -0.01    -0.09   0.07  -0.01    -0.01  -0.00   0.01
     4   6     0.01  -0.01   0.01     0.02  -0.02   0.02     0.00  -0.00  -0.00
     5   6     0.03   0.01   0.01     0.13   0.02   0.02     0.03   0.00  -0.00
     6   6     0.03  -0.01  -0.01    -0.07   0.01   0.01    -0.08  -0.00  -0.01
     7   6     0.03  -0.05  -0.02     0.01  -0.03  -0.01     0.02   0.16   0.02
     8   6    -0.11  -0.10   0.01     0.04   0.04  -0.00    -0.03  -0.08  -0.00
     9   6    -0.01   0.04   0.01    -0.05   0.01  -0.00    -0.01   0.02   0.01
    10   1     0.12  -0.11   0.03     0.28  -0.17   0.10     0.05   0.05   0.03
    11   1    -0.02   0.03   0.00    -0.04   0.04  -0.00     0.00  -0.00  -0.00
    12   1     0.01   0.03  -0.04    -0.00   0.05  -0.04    -0.01   0.00   0.01
    13   1     0.01  -0.02  -0.02     0.03  -0.03  -0.03     0.00   0.00   0.01
    14   1    -0.19  -0.07  -0.01    -0.44  -0.19  -0.05    -0.05  -0.03  -0.05
    15   1    -0.08   0.01   0.01    -0.44  -0.08  -0.03    -0.12  -0.08  -0.04
    16   1    -0.05   0.08   0.01     0.34  -0.22  -0.05     0.14   0.01  -0.00
    17   1    -0.15   0.10  -0.00    -0.07  -0.02   0.05     0.34  -0.26  -0.05
    18   1     0.01   0.45   0.14     0.01  -0.19  -0.06     0.09  -0.47  -0.07
    19   1    -0.03   0.01  -0.00    -0.07   0.27   0.06    -0.00  -0.52  -0.11
    20   1     0.30   0.33   0.01    -0.17  -0.21  -0.01     0.25   0.26   0.00
    21   1     0.44   0.44   0.03    -0.01  -0.01  -0.04     0.08   0.02  -0.07
    22   1    -0.05  -0.01   0.01     0.13  -0.01  -0.04    -0.06  -0.09   0.02
    23   1     0.12   0.05  -0.08    -0.01  -0.01   0.01     0.23  -0.02  -0.01
                     40                     41                     42
                      A                      A                      A
 Frequencies --   1417.6535              1439.8581              1478.8565
 Red. masses --      1.4405                 1.2274                 1.0813
 Frc consts  --      1.7057                 1.4992                 1.3933
 IR Inten    --      4.1148                 4.7030                 7.7743
  Atom  AN      X      Y      Z        X      Y      Z        X      Y      Z
     1   8     0.00  -0.00   0.00    -0.01  -0.00   0.00    -0.00  -0.00   0.00
     2   6    -0.01   0.02   0.00     0.01   0.00  -0.00     0.01  -0.01   0.00
     3   6     0.03  -0.04   0.01     0.01  -0.00  -0.00    -0.00   0.00  -0.00
     4   6    -0.01   0.01  -0.01    -0.13   0.05   0.00    -0.00  -0.00   0.00
     5   6    -0.02  -0.04   0.00     0.01   0.01   0.00     0.01  -0.00  -0.00
     6   6    -0.12   0.10   0.02     0.00  -0.01  -0.01     0.00  -0.00  -0.00
     7   6     0.05  -0.07  -0.02    -0.00   0.00   0.00    -0.01   0.02  -0.00
     8   6    -0.04  -0.01  -0.01     0.00  -0.00  -0.00     0.00  -0.01   0.00
     9   6    -0.01   0.00   0.01     0.00   0.00  -0.00    -0.01  -0.06   0.04
    10   1    -0.11   0.13  -0.02    -0.01   0.01  -0.01     0.00   0.00  -0.00
    11   1     0.03  -0.05   0.00     0.47  -0.23   0.20     0.01   0.00   0.00
    12   1     0.01  -0.07   0.04     0.40  -0.38  -0.13     0.01  -0.00  -0.01
    13   1     0.03   0.03   0.03     0.57   0.02  -0.10     0.01  -0.00  -0.00
    14   1     0.45   0.14   0.04    -0.07  -0.02   0.03    -0.03  -0.01   0.04
    15   1    -0.07   0.03   0.02    -0.06   0.01   0.00    -0.02   0.03   0.01
    16   1     0.48  -0.26  -0.08    -0.00   0.01   0.00    -0.02  -0.00  -0.00
    17   1     0.34  -0.14  -0.07    -0.06   0.02   0.02    -0.00  -0.02   0.01
    18   1     0.06   0.06   0.05    -0.00  -0.00  -0.01     0.04  -0.06   0.09
    19   1    -0.04   0.34   0.08    -0.01  -0.02  -0.00     0.11  -0.05  -0.03
    20   1     0.05  -0.04  -0.04    -0.00   0.01   0.00     0.01   0.02   0.01
    21   1     0.20   0.22  -0.01    -0.01  -0.01   0.01    -0.01  -0.03  -0.01
    22   1     0.00   0.05   0.00    -0.01  -0.02  -0.00     0.10   0.67   0.06
    23   1     0.06   0.02  -0.08    -0.00  -0.00   0.02    -0.12   0.21  -0.66
                     43                     44                     45
                      A                      A                      A
 Frequencies --   1513.4694              1514.3401              1520.8918
 Red. masses --      1.0863                 1.0840                 1.0653
 Frc consts  --      1.4660                 1.4646                 1.4518
 IR Inten    --      3.9210                 1.7535                 2.5079
  Atom  AN      X      Y      Z        X      Y      Z        X      Y      Z
     1   8    -0.00  -0.00  -0.00    -0.00  -0.00   0.00     0.00   0.00  -0.00
     2   6     0.00   0.00   0.00    -0.00   0.00  -0.00     0.00  -0.00   0.00
     3   6    -0.00  -0.00  -0.00     0.01   0.00  -0.00    -0.01  -0.01  -0.01
     4   6     0.00   0.01   0.00     0.01   0.01  -0.00    -0.01  -0.03  -0.03
     5   6     0.01   0.00  -0.00     0.01  -0.03  -0.05    -0.01   0.02   0.02
     6   6     0.03   0.05  -0.03     0.01   0.00  -0.01     0.01  -0.00  -0.00
     7   6    -0.03   0.01  -0.02     0.04   0.01   0.03     0.02  -0.00   0.01
     8   6    -0.02   0.01   0.03    -0.01   0.00   0.02    -0.02   0.02   0.04
     9   6     0.00   0.01  -0.00    -0.01  -0.00   0.00    -0.01  -0.00   0.00
    10   1     0.01   0.02   0.00    -0.01   0.00  -0.01     0.01   0.01   0.00
    11   1    -0.03  -0.07  -0.01    -0.13  -0.16  -0.05     0.03   0.45  -0.01
    12   1    -0.03   0.00   0.04    -0.10  -0.03   0.16     0.20  -0.21  -0.06
    13   1     0.03  -0.01  -0.05     0.09  -0.01  -0.05    -0.03   0.17   0.46
    14   1     0.00   0.01   0.03    -0.05  -0.03   0.47     0.02   0.02  -0.20
    15   1    -0.04   0.01  -0.00    -0.13   0.45   0.11     0.07  -0.20  -0.05
    16   1    -0.30  -0.46  -0.15    -0.09  -0.03  -0.01    -0.01   0.03   0.01
    17   1    -0.07  -0.26   0.50     0.01  -0.05   0.06    -0.01   0.02  -0.01
    18   1     0.10  -0.02   0.26    -0.15   0.08  -0.39    -0.08   0.06  -0.19
    19   1     0.28  -0.00  -0.05    -0.41  -0.10   0.05    -0.21  -0.04   0.03
    20   1     0.23  -0.17  -0.08     0.11  -0.12  -0.04     0.25  -0.26  -0.09
    21   1    -0.01   0.02  -0.28     0.01   0.01  -0.18    -0.00   0.02  -0.38
    22   1    -0.02  -0.06  -0.00     0.03   0.03  -0.00     0.02   0.04   0.00
    23   1    -0.00  -0.01   0.05    -0.00   0.01  -0.04    -0.01   0.02  -0.04
                     46                     47                     48
                      A                      A                      A
 Frequencies --   1521.9412              1526.7584              1530.3414
 Red. masses --      1.0513                 1.0837                 1.0761
 Frc consts  --      1.4347                 1.4883                 1.4848
 IR Inten    --     13.5129                 4.3376                 4.1030
  Atom  AN      X      Y      Z        X      Y      Z        X      Y      Z
     1   8    -0.00  -0.00   0.00     0.00   0.00  -0.00     0.00   0.00  -0.00
     2   6     0.00   0.00  -0.00    -0.01   0.01   0.00    -0.01   0.01  -0.00
     3   6    -0.00   0.01  -0.02    -0.00  -0.02   0.00     0.00  -0.03   0.00
     4   6     0.00   0.00  -0.04    -0.01  -0.02   0.01    -0.01  -0.03   0.01
     5   6     0.01  -0.01  -0.01     0.00   0.00  -0.01     0.02  -0.02  -0.04
     6   6    -0.00  -0.00  -0.00     0.01   0.04  -0.02    -0.01  -0.02   0.00
     7   6    -0.02   0.00  -0.01     0.03   0.00   0.01    -0.03   0.00  -0.02
     8   6     0.01  -0.01  -0.02     0.02  -0.02  -0.04    -0.01   0.01   0.01
     9   6     0.00   0.00  -0.00    -0.00  -0.01   0.00     0.00   0.00  -0.00
    10   1     0.06  -0.03  -0.01     0.02   0.03   0.01    -0.02   0.05   0.00
    11   1    -0.32   0.14  -0.14     0.17   0.31   0.06     0.23   0.32   0.08
    12   1     0.01  -0.38   0.38     0.16   0.05  -0.26     0.16   0.10  -0.33
    13   1     0.25   0.20   0.46    -0.18   0.03   0.13    -0.24   0.01   0.09
    14   1    -0.05  -0.02   0.16     0.03   0.02   0.06    -0.04  -0.02   0.43
    15   1    -0.04   0.17   0.04    -0.04   0.03   0.00    -0.16   0.38   0.09
    16   1    -0.01  -0.01  -0.00    -0.18  -0.30  -0.10     0.08   0.14   0.05
    17   1    -0.01  -0.01   0.01    -0.02  -0.17   0.32     0.01   0.07  -0.15
    18   1     0.07  -0.05   0.18    -0.07   0.03  -0.21     0.10  -0.06   0.26
    19   1     0.19   0.03  -0.03    -0.23  -0.03   0.03     0.28   0.03  -0.04
    20   1    -0.15   0.16   0.06    -0.28   0.29   0.10     0.07  -0.07  -0.03
    21   1     0.00  -0.01   0.23     0.03  -0.01   0.41    -0.02  -0.01  -0.10
    22   1    -0.02  -0.04  -0.00    -0.00   0.02   0.00    -0.01  -0.07  -0.01
    23   1     0.01  -0.01   0.04     0.02  -0.00  -0.03     0.01  -0.02   0.07
                     49                     50                     51
                      A                      A                      A
 Frequencies --   1792.2868              2990.6457              3016.9545
 Red. masses --     11.8930                 1.0807                 1.0701
 Frc consts  --     22.5091                 5.6949                 5.7387
 IR Inten    --    152.9227                10.1575                15.1440
  Atom  AN      X      Y      Z        X      Y      Z        X      Y      Z
     1   8    -0.44  -0.26   0.10    -0.00  -0.00  -0.00     0.00   0.00  -0.00
     2   6     0.66   0.40  -0.15     0.00   0.00  -0.00    -0.00  -0.00  -0.00
     3   6    -0.03  -0.02   0.01     0.03   0.00  -0.08     0.00  -0.00  -0.00
     4   6     0.01   0.00   0.00    -0.00  -0.00   0.01     0.00   0.00   0.00
     5   6    -0.01  -0.01  -0.00    -0.00  -0.00   0.01    -0.00  -0.01   0.02
     6   6     0.00   0.00   0.00    -0.00  -0.00   0.00     0.01   0.03  -0.05
     7   6     0.00  -0.00  -0.00    -0.00   0.00  -0.00     0.01  -0.01   0.04
     8   6    -0.01   0.00  -0.00     0.00  -0.00   0.01    -0.00   0.00   0.00
     9   6    -0.05  -0.02   0.01    -0.00   0.00  -0.00    -0.00   0.01  -0.02
    10   1    -0.00  -0.13  -0.01    -0.31  -0.05   0.93    -0.01  -0.00   0.03
    11   1    -0.01   0.05  -0.02     0.01  -0.00  -0.05    -0.00  -0.00   0.00
    12   1    -0.00   0.07  -0.03    -0.01  -0.02  -0.01    -0.00  -0.00  -0.00
    13   1    -0.14   0.01   0.01     0.00   0.03  -0.01    -0.00   0.00  -0.00
    14   1     0.03  -0.01   0.02     0.00  -0.01   0.00    -0.00   0.01   0.00
    15   1     0.04   0.03   0.01     0.00   0.04  -0.11     0.01   0.07  -0.22
    16   1    -0.00  -0.00   0.00    -0.00   0.02  -0.06     0.01  -0.18   0.70
    17   1     0.02  -0.00  -0.01     0.01   0.01   0.01    -0.11  -0.16  -0.12
    18   1    -0.00   0.00   0.00    -0.00   0.00   0.00    -0.10  -0.02   0.05
    19   1    -0.00  -0.00  -0.00     0.00  -0.01   0.03    -0.06   0.11  -0.51
    20   1     0.03   0.02  -0.01    -0.02   0.02  -0.08    -0.00   0.00  -0.01
    21   1    -0.00   0.01   0.00     0.01  -0.01   0.00     0.03  -0.03   0.00
    22   1     0.03  -0.03  -0.00     0.00  -0.00   0.01     0.05  -0.02   0.26
    23   1     0.23  -0.05   0.01    -0.00  -0.00  -0.00    -0.01  -0.06  -0.03
                     52                     53                     54
                      A                      A                      A
 Frequencies --   3019.4949              3021.1439              3028.1931
 Red. masses --      1.0633                 1.0696                 1.0640
 Frc consts  --      5.7119                 5.7519                 5.7483
 IR Inten    --     21.4828                 0.0691                21.8216
  Atom  AN      X      Y      Z        X      Y      Z        X      Y      Z
     1   8     0.00   0.00  -0.00     0.00   0.00   0.00    -0.00  -0.00   0.00
     2   6    -0.00  -0.00   0.00     0.00  -0.00  -0.00     0.00   0.00  -0.00
     3   6    -0.00  -0.00   0.00    -0.00  -0.00   0.00     0.00  -0.00  -0.01
     4   6     0.00   0.00  -0.00     0.00  -0.00  -0.00    -0.00   0.00   0.00
     5   6    -0.00  -0.00   0.01    -0.00   0.00   0.01     0.02  -0.02  -0.06
     6   6     0.01   0.03  -0.02    -0.01  -0.02   0.02     0.01   0.02   0.01
     7   6    -0.04   0.01  -0.04     0.00   0.00  -0.01    -0.00  -0.00   0.00
     8   6     0.01  -0.01   0.01     0.00  -0.00   0.02     0.00  -0.00   0.01
     9   6    -0.00   0.00  -0.01    -0.01   0.02  -0.06    -0.00   0.00  -0.01
    10   1     0.01   0.00  -0.03     0.02   0.00  -0.06    -0.03  -0.00   0.09
    11   1    -0.00  -0.00   0.01    -0.00   0.00   0.01     0.01   0.00  -0.05
    12   1    -0.00  -0.00  -0.00     0.00   0.00   0.00     0.01   0.01   0.01
    13   1    -0.00   0.00  -0.00    -0.00   0.00  -0.00    -0.00  -0.04   0.02
    14   1     0.00  -0.00   0.00     0.03  -0.09   0.01    -0.16   0.44  -0.03
    15   1     0.00   0.06  -0.18     0.00   0.03  -0.09    -0.02  -0.24   0.75
    16   1     0.01  -0.09   0.37    -0.00   0.07  -0.28     0.00  -0.01   0.07
    17   1    -0.16  -0.23  -0.17     0.08   0.12   0.09    -0.13  -0.20  -0.14
    18   1     0.38   0.07  -0.17    -0.05  -0.01   0.02     0.02   0.00  -0.01
    19   1     0.07  -0.14   0.67     0.01  -0.01   0.06    -0.00   0.00  -0.02
    20   1    -0.04   0.04  -0.18    -0.05   0.05  -0.23    -0.03   0.03  -0.12
    21   1    -0.04   0.04   0.00     0.00  -0.00   0.00     0.02  -0.02   0.00
    22   1     0.01  -0.01   0.08     0.17  -0.06   0.85     0.04  -0.01   0.17
    23   1    -0.01  -0.02  -0.01    -0.04  -0.20  -0.09    -0.01  -0.04  -0.02
                     55                     56                     57
                      A                      A                      A
 Frequencies --   3032.8551              3058.0184              3061.8905
 Red. masses --      1.0630                 1.0400                 1.0951
 Frc consts  --      5.7611                 5.7299                 6.0488
 IR Inten    --     26.6018                21.0427                44.8695
  Atom  AN      X      Y      Z        X      Y      Z        X      Y      Z
     1   8     0.00  -0.00   0.00    -0.00  -0.00   0.00    -0.00  -0.00   0.00
     2   6    -0.00   0.00  -0.00     0.00   0.00  -0.00     0.00   0.00  -0.00
     3   6     0.00   0.00  -0.01    -0.00  -0.00  -0.00     0.00   0.00  -0.00
     4   6    -0.00   0.00   0.00     0.04  -0.03  -0.01     0.00  -0.00  -0.00
     5   6     0.00  -0.00  -0.00    -0.00   0.01  -0.01    -0.00   0.01  -0.02
     6   6     0.00   0.00   0.00     0.01   0.01   0.01    -0.03  -0.04  -0.05
     7   6    -0.02  -0.00   0.01     0.00  -0.00   0.00    -0.04  -0.01   0.03
     8   6     0.02  -0.02  -0.06     0.00  -0.00  -0.00     0.01  -0.01   0.02
     9   6    -0.00   0.01  -0.01    -0.00   0.00  -0.00     0.00  -0.00   0.00
    10   1    -0.02  -0.00   0.07    -0.00  -0.00   0.01    -0.00   0.00   0.02
    11   1     0.00   0.00  -0.01    -0.19  -0.00   0.56    -0.02  -0.00   0.06
    12   1     0.00   0.00   0.00    -0.24  -0.24  -0.22    -0.03  -0.03  -0.02
    13   1     0.00  -0.00   0.00    -0.01   0.62  -0.25    -0.00   0.07  -0.03
    14   1    -0.01   0.03  -0.00     0.04  -0.10   0.00     0.01  -0.04  -0.00
    15   1    -0.00  -0.01   0.03    -0.00  -0.02   0.09    -0.01  -0.06   0.20
    16   1     0.00   0.01  -0.03     0.00   0.01  -0.04    -0.00  -0.07   0.25
    17   1    -0.02  -0.03  -0.02    -0.07  -0.11  -0.07     0.34   0.51   0.34
    18   1     0.24   0.04  -0.10    -0.02  -0.00   0.01     0.51   0.08  -0.20
    19   1    -0.01   0.00  -0.02    -0.00   0.00  -0.02    -0.02   0.03  -0.14
    20   1     0.17  -0.17   0.71     0.00  -0.00   0.00    -0.04   0.04  -0.19
    21   1    -0.37   0.39  -0.01    -0.00   0.00   0.00    -0.06   0.06   0.00
    22   1     0.04  -0.01   0.19     0.00  -0.00   0.01    -0.00   0.00  -0.03
    23   1    -0.03  -0.14  -0.06    -0.00  -0.00  -0.00     0.00   0.03   0.01
                     58                     59                     60
                      A                      A                      A
 Frequencies --   3066.3154              3071.2151              3072.6969
 Red. masses --      1.0971                 1.0970                 1.1028
 Frc consts  --      6.0775                 6.0964                 6.1344
 IR Inten    --     65.6316                13.5023                88.5835
  Atom  AN      X      Y      Z        X      Y      Z        X      Y      Z
     1   8     0.00   0.00   0.00    -0.00   0.00   0.00     0.00  -0.00   0.00
     2   6     0.00  -0.00  -0.00     0.00   0.00  -0.00     0.00  -0.00  -0.00
     3   6    -0.00   0.00  -0.00    -0.00  -0.00   0.00     0.00   0.00  -0.01
     4   6    -0.01   0.00   0.00     0.01  -0.00  -0.00    -0.00  -0.00   0.00
     5   6    -0.01   0.03  -0.00     0.02  -0.06   0.03    -0.01   0.04  -0.03
     6   6     0.02   0.02   0.04    -0.01  -0.01   0.00    -0.01  -0.00  -0.03
     7   6    -0.04  -0.01   0.05    -0.01  -0.00   0.00     0.01   0.01  -0.03
     8   6    -0.02   0.02   0.00    -0.03   0.04  -0.02    -0.04   0.04  -0.03
     9   6    -0.00  -0.00  -0.00    -0.00  -0.00  -0.01    -0.00   0.00  -0.01
    10   1    -0.00  -0.00  -0.00     0.00  -0.00  -0.02    -0.02  -0.00   0.06
    11   1     0.02  -0.00  -0.07    -0.03   0.00   0.10     0.01  -0.00  -0.04
    12   1     0.03   0.03   0.03    -0.05  -0.04  -0.04     0.01   0.01   0.01
    13   1     0.00  -0.06   0.03    -0.00   0.06  -0.03     0.00  -0.00   0.00
    14   1     0.12  -0.32   0.01    -0.24   0.63  -0.01     0.15  -0.41   0.01
    15   1    -0.00  -0.00   0.03     0.01   0.08  -0.30    -0.01  -0.08   0.30
    16   1    -0.00   0.08  -0.29     0.00   0.02  -0.07     0.00  -0.07   0.25
    17   1    -0.20  -0.29  -0.19     0.07   0.11   0.07     0.08   0.13   0.08
[...]
 5,-0.28794733,-0.04911453,-0.00191858,-0.01431366,-0.00199084,0.003660
 46,0.00102041,-0.00105371,0.00003283,0.00034811,0.00031573,0.00009454,
 0.00011918,0.00007152,-0.00011760,-0.00003301,-0.00032395,-0.00037669,
 0.00008536,-0.00004023,0.00028215,0.00023557,0.00008749,-0.00014982,0.
 00090470,0.00009375,0.04643089,0.31226695,-0.00186104,-0.00125769,0.00
 098140,-0.00069502,0.00348288,-0.00406752,-0.00935098,-0.02398931,-0.0
 0713311,0.00040562,-0.00148448,0.00130415,-0.00718677,-0.04921223,-0.0
 5954161,-0.00120718,-0.00978863,-0.00217679,0.00181736,0.00021009,0.00
 015252,-0.00007237,0.00019372,0.00008217,0.00034175,0.00005812,0.00029
 257,0.00044464,0.00001511,0.00021832,-0.00004868,0.00033601,0.00010455
 ,0.00045510,-0.00009093,-0.00003700,-0.00017245,0.00085989,-0.00020841
 ,0.01285258,0.05309031,0.06262368,-0.00014578,0.00022099,0.00017743,0.
 00186993,0.00045701,-0.00062336,0.00756741,0.00892841,-0.02048211,0.00
 081025,-0.00057387,-0.00025809,-0.08102826,-0.03625827,0.07447516,-0.0
 1125296,-0.01253898,0.02572330,0.00159684,-0.00146598,-0.00018894,-0.0
 0004466,0.00026163,-0.00007330,-0.00003248,-0.00006609,0.00004482,-0.0
 0288310,0.00017704,-0.00367971,-0.00018187,0.00008409,0.00045468,-0.00
 021730,-0.00000729,0.00033809,-0.00003439,-0.00004160,-0.00008528,-0.0
 0242315,-0.00262172,0.00496227,0.09052522,0.00086653,0.00022705,-0.000
 07689,-0.00071489,0.00026517,-0.00068843,0.00069872,0.00102510,-0.0038
 2760,-0.00025369,-0.00027860,0.00058321,-0.03646999,-0.09305891,0.0868
 2379,0.00569200,0.00613998,-0.01342520,-0.00041673,0.00141286,-0.00089
 588,0.00000187,-0.00004997,-0.00019541,0.00003085,-0.00015514,0.000273
 43,-0.00042770,0.00046128,-0.00130245,0.00039519,-0.00008679,-0.000027
 49,0.00032258,0.00007434,-0.00023344,0.00002588,0.00030882,-0.00001085
 ,-0.01204895,-0.01327503,0.02809036,0.04028872,0.09710023,-0.00124997,
 -0.00051113,0.00007770,0.00203525,0.00228129,-0.00026021,0.00621302,0.
 00693424,-0.02006970,0.00007909,-0.00065181,-0.00041312,0.07476430,0.0
 8642381,-0.22511141,0.00365577,0.00336410,-0.00729382,-0.00060658,0.00
 055205,0.00010815,0.00017782,-0.00018149,-0.00010388,0.00015407,-0.000
 02519,-0.00057959,-0.00338987,0.00001458,-0.00283115,-0.00040049,0.000
 44162,0.00037106,-0.00032983,0.00017353,0.00024381,0.00002743,-0.00004
 570,0.00009785,-0.00228438,-0.00199517,0.00606750,-0.08053015,-0.09446
 977,0.24716253,0.00024986,0.00007000,0.00002494,-0.00013107,-0.0001474
 0,-0.00001220,0.00151775,-0.00073696,0.00221543,0.00011768,0.00016816,
 -0.00012770,-0.01313825,-0.01110200,0.02688855,-0.07358849,-0.03210667
 ,0.06515067,-0.00053339,-0.00007534,0.00035055,-0.00004815,-0.00010982
 ,0.00085736,-0.00011730,-0.00001559,0.00004618,-0.00015558,0.00005337,
 -0.00136208,0.00019227,-0.00011507,-0.00013190,0.00002346,-0.00002004,
 -0.00006678,-0.00003637,0.00003298,0.00001528,0.00099702,0.00002288,-0
 .00053115,-0.00511762,0.00305035,0.00157463,0.08062459,-0.00004718,0.0
 0017506,0.00004821,0.00009362,-0.00047027,-0.00011159,-0.00055563,0.00
 049729,-0.00036987,-0.00001434,0.00001223,-0.00022353,0.00561750,0.005
 43010,-0.01232338,-0.03199465,-0.08834732,0.08479117,-0.01018128,-0.01
 685888,0.03065267,0.00073846,0.00142557,0.00175034,-0.00012386,0.00015
 361,-0.00020190,-0.00039020,0.00009430,0.00011571,-0.00001465,-0.00003
 325,0.00002891,-0.00004268,0.00000594,0.00003107,-0.00000307,-0.000048
 49,0.00001551,-0.00072013,0.00058525,-0.00006253,0.00304189,-0.0004428
 2,-0.00066079,0.03114566,0.09964434,0.00003604,-0.00007819,-0.00011115
 ,-0.00034197,0.00002346,0.00017826,-0.00121085,-0.00013857,0.00067890,
 0.00000389,0.00003101,0.00043404,0.00335483,0.00328017,-0.00869487,0.0
 6587039,0.08495087,-0.23468079,-0.00139280,-0.00141073,0.00236902,-0.0
 0008387,-0.00019142,0.00094257,-0.00008904,-0.00010561,0.00012567,0.00
 036886,0.00005265,0.00101575,-0.00016432,0.00011241,-0.00002922,0.0000
 5773,-0.00006475,0.00002053,0.00002195,-0.00005778,-0.00004839,-0.0000
 2893,-0.00043699,-0.00000690,0.00134095,-0.00149809,0.00079718,-0.0744
 9145,-0.09360444,0.25494269,-0.00048299,-0.00049802,0.00012480,0.00045
 105,0.00118354,-0.00018780,-0.00353524,0.00290378,0.00349915,-0.000876
 47,-0.00076735,-0.00126956,-0.02145336,-0.00562986,-0.02164973,-0.1652
 7843,-0.04259214,-0.11907059,-0.00059644,-0.00035349,-0.00020061,0.001
 34245,-0.00037638,0.00026152,0.00009812,0.00015995,0.00015240,0.000383
 21,0.00003597,0.00026067,-0.00002681,-0.00001481,0.00007422,-0.0003761
 6,0.00049006,-0.00000806,0.00006556,0.00008898,-0.00000639,0.00127129,
 0.00023880,-0.00024019,0.00060553,-0.00067022,0.00036722,0.00766203,0.
 00329049,0.00709689,0.18019557,0.00017324,0.00070191,-0.00010368,0.000
 19141,-0.00149749,0.00033307,0.00288626,-0.00014349,-0.00081244,0.0005
 0309,0.00035670,0.00030515,0.01007821,0.00202744,0.01057640,-0.0427722
 6,-0.06275574,-0.04220461,-0.02436049,-0.01057319,-0.02554977,0.002159
 75,-0.00668899,0.00113034,0.00042862,0.00020800,-0.00022175,-0.0001856
 4,-0.00012454,-0.00051338,0.00003783,-0.00002445,-0.00002748,0.0001611
 3,-0.00019555,0.00002082,-0.00005861,-0.00000911,0.00001419,0.00009760
 ,0.00058844,0.00074755,-0.00049414,0.00014699,-0.00020825,0.00955595,0
 .00321814,0.00901513,0.04291565,0.07276781,-0.00014592,0.00007461,-0.0
 0012996,-0.00001501,-0.00029640,0.00024436,0.00138485,-0.00039058,-0.0
 0024338,0.00013413,-0.00013183,0.00050888,0.00769791,0.00188207,0.0065
 0367,-0.11933564,-0.04211575,-0.17443795,-0.00091055,0.00051443,-0.001
 84377,0.00051066,-0.00079558,0.00094897,0.00007721,-0.00004772,-0.0001
 1983,-0.00003336,-0.00013664,0.00055863,-0.00007170,0.00007820,-0.0000
 0205,0.00007555,-0.00010615,-0.00000296,0.00000525,0.00000471,-0.00001
 835,-0.00037084,0.00064310,0.00058818,-0.00056400,0.00033175,0.0004464
 1,-0.01936552,-0.00709079,-0.02037865,0.13074249,0.04818247,0.18603861
 ,-0.00043518,0.00049988,0.00007044,0.00043678,-0.00096869,-0.00005726,
 0.00007161,-0.00009738,-0.00000862,0.00010236,0.00005073,0.00001628,0.
 00146204,0.00021601,0.00003117,0.00072010,-0.00068536,-0.00012986,-0.2
 6415579,0.06953753,0.06226625,-0.02056243,0.00502515,0.00644944,-0.000
 99966,-0.00208171,-0.00445012,-0.00002313,-0.00000090,0.00000541,-0.00
 001126,-0.00000009,0.00000189,-0.00000631,-0.00003146,0.00001300,-0.00
 000087,0.00005454,0.00001077,-0.00021192,-0.00000605,-0.00001418,0.000
 08926,-0.00014291,-0.00013469,0.00041700,0.00033692,-0.00043297,0.0006
 7018,0.00043887,0.00025084,0.28771715,-0.00011085,0.00065714,-0.000015
 76,-0.00024675,-0.00132660,0.00006846,-0.00029189,0.00017279,-0.000331
 98,0.00018911,0.00011548,0.00025162,-0.00298949,-0.00647080,-0.0002045
 9,0.03331002,-0.01267281,-0.00996719,0.06981085,-0.06988987,-0.0184455
 3,-0.01226084,0.00211497,0.00351498,-0.00181555,-0.00004052,-0.0021185
 2,-0.00000551,0.00005873,0.00012447,-0.00006233,0.00000290,-0.00000910
 ,0.00011123,-0.00007253,0.00005624,-0.00002505,0.00009015,-0.00003770,
 0.00188995,-0.00113276,-0.00053830,-0.00024551,0.00023536,-0.00007924,
 0.00004278,0.00137972,0.00066678,-0.00029517,0.00126313,-0.00028970,-0
 .07358933,0.08048095,-0.00015556,0.00046092,-0.00002122,-0.00002694,-0
 .00079744,0.00005278,0.00003702,-0.00010619,-0.00015082,0.00012788,0.0
 0006936,0.00011335,-0.00034590,-0.00064563,0.00067998,0.00192059,0.000
 25795,-0.00125523,0.06275369,-0.01861986,-0.06882578,-0.02343263,0.005
 69511,0.00596099,-0.00159414,-0.00138195,-0.00340173,0.00000802,-0.000
 01900,0.00005565,-0.00001861,0.00000548,-0.00001082,0.00003870,-0.0000
 4616,0.00001034,-0.00000970,0.00004589,-0.00000002,0.00020485,-0.00023
 180,0.00029767,-0.00043500,0.00020045,0.00030971,-0.00056912,-0.000127
 76,0.00052257,0.00024721,-0.00007492,-0.00019755,-0.06630645,0.0240995
 0,0.07129182,0.00011884,-0.00003684,0.00001523,-0.00021865,0.00015990,
 -0.00004569,0.00001821,0.00004641,-0.00020929,-0.00001248,-0.00001787,
 0.00004265,0.00046025,0.00018811,-0.00097676,-0.00074166,-0.00027836,0
 .00010122,-0.06003339,-0.01839241,0.04440521,0.00194224,0.00879828,-0.
 02163498,0.00167433,0.00096897,-0.00141819,-0.00007956,-0.00006975,0.0
 0009480,-0.00001280,0.00001746,0.00000702,0.00001793,-0.00000324,0.000
 00655,-0.00000267,-0.00000351,-0.00000181,0.00000288,-0.00012570,0.000
 04818,0.00022217,-0.00008474,0.00009600,0.00106838,-0.00022761,-0.0004
 0277,-0.00003081,-0.00026458,0.00024288,-0.00566672,-0.01292333,0.0276
 4526,0.06334660,0.00002762,0.00019357,0.00000943,-0.00004317,-0.000494
 44,-0.00000510,0.00020074,0.00016010,-0.00005904,0.00001522,0.00003621
 ,0.00001642,-0.00126626,0.00161482,0.00112266,-0.00792097,-0.01655712,
 0.03131068,-0.01842961,-0.09043826,0.08997924,0.00161923,0.00490459,-0
 .01094229,0.00052835,0.00051657,-0.00013866,-0.00016155,-0.00001518,-0
 .00020999,0.00002060,-0.00000876,-0.00001604,0.00001529,-0.00002492,0.
 00001094,-0.00001054,0.00002172,0.00000759,-0.00012679,0.00036151,-0.0
 0037791,0.00092150,0.00012428,-0.00082670,0.00019990,-0.00704312,-0.00
 089346,-0.00013422,0.00140011,-0.00030663,0.00129718,0.00416887,-0.009
 36237,0.02417181,0.10072913,-0.00011989,0.00002263,-0.00007409,-0.0000
 1608,0.00018270,0.00012698,0.00003250,-0.00005657,-0.00002865,-0.00000
 823,-0.00003511,0.00003444,-0.00024240,-0.00004752,0.00034189,-0.00044
 634,-0.00157840,0.00291046,0.04379012,0.09027346,-0.24646885,0.0030121
 2,0.00934383,-0.02277453,0.00203661,0.00052161,0.00098123,0.00006982,-
 0.00012720,0.00006748,-0.00002440,0.00002383,0.00001476,-0.00000032,0.
 00000373,-0.00000769,-0.00000130,0.00000107,-0.00000042,-0.00020296,0.
 00002885,0.00018093,-0.00050760,0.00039917,0.00016236,0.00008664,-0.00
 109667,0.00140777,0.00016639,0.00057337,0.00089682,0.00222555,0.003080
 59,-0.00795508,-0.04583414,-0.09802605,0.27060133,-0.00018182,0.000191
 98,-0.00029745,0.00183454,-0.00137691,0.00036744,-0.00027816,0.0001934
 7,0.00057310,0.00013220,0.00015362,-0.00019991,-0.00000256,-0.00013437
 ,0.00003314,0.00112674,0.00100345,0.00046528,0.00267624,0.01047603,-0.
 02005888,-0.05302857,-0.01302347,0.02444824,-0.00435013,-0.01464554,0.
 02912528,0.00020791,0.00048216,-0.00016432,0.00004125,-0.00008521,-0.0
 0003317,-0.00001808,-0.00001429,0.00001868,-0.00002083,0.00003643,0.00
 000323,0.00007686,-0.00002363,-0.00003284,-0.00010667,0.00000116,-0.00
 008270,-0.00007329,-0.00041383,0.00048230,-0.00009719,0.00026622,0.000
 21897,0.00038745,0.00047193,0.00061872,-0.00262921,-0.00197929,-0.0032
 5261,0.05947946,-0.00047037,0.00022459,0.00002049,0.00024243,-0.000059
 99,-0.00056833,0.00012135,-0.00017810,0.00014223,0.00008515,0.00007963
 ,0.00003586,0.00004616,-0.00003392,-0.00014484,0.00067729,0.00124508,-
 0.00070800,0.00146349,0.00584267,-0.01206660,-0.01333045,-0.10586846,0
 .10332381,0.00047504,0.00162136,-0.00309464,0.00046659,-0.00068775,-0.
 00035784,-0.00000153,0.00002065,-0.00000752,-0.00001578,-0.00000862,-0
 .00000053,-0.00001104,0.00004103,0.00000965,0.00001141,0.00000237,0.00
 002481,-0.00005203,-0.00003975,0.00010273,-0.00012382,0.00021431,0.000
 31504,0.00006065,0.00021684,0.00019527,0.00035076,0.00003197,0.0005277
 6,-0.00169265,-0.00010232,-0.00257752,0.01511746,0.11230439,0.00019308
 ,-0.00061283,0.00006104,-0.00031758,0.00165666,0.00004727,0.00030910,0
 .00004702,-0.00089165,-0.00011474,-0.00022590,0.00036895,-0.00018624,-
 0.00033986,-0.00011465,0.00115953,0.00135015,0.00085439,0.00211626,0.0
 1046645,-0.02129581,0.02482125,0.10254390,-0.24160222,0.00203315,0.003
 32322,-0.00772416,-0.00019840,-0.00054781,0.00072132,-0.00011395,0.000
 13344,0.00005005,0.00002047,0.00002247,-0.00002266,0.00001913,-0.00001
 256,-0.00002410,0.00007972,-0.00007331,0.00003820,-0.00006525,0.000143
 20,0.00020280,-0.00029220,-0.00121845,0.00036820,-0.00008652,0.0000709
 5,0.00052741,-0.00034439,0.00002170,0.00047155,-0.00367352,-0.00173441
 ,-0.00216946,-0.02670974,-0.11347503,0.26445298,-0.00288825,0.00243591
 ,-0.00084832,-0.00305532,-0.00507292,0.00339963,0.00029390,0.00008571,
 -0.00047445,0.00017568,0.00007761,0.00002594,-0.00053806,0.00013763,-0
 .00012701,-0.00258725,-0.00026583,-0.00377934,0.00270241,-0.02363813,-
 0.00358667,-0.05806192,0.05586785,0.00960301,-0.01255783,0.03366701,0.
 00514290,0.00003093,0.00024901,0.00003649,-0.00003753,-0.00003044,-0.0
 0000874,0.00002575,-0.00009873,0.00004797,-0.00000243,0.00010218,0.000
 00311,0.00023609,-0.00001372,0.00007524,0.00007569,-0.00003555,-0.0000
 4140,0.00001398,0.00030176,0.00010024,-0.00009044,-0.00144040,-0.00040
 553,0.00087537,-0.00055412,0.00049071,0.00042938,0.00061549,0.00028420
 ,0.00061057,-0.00374260,-0.00099209,0.07239288,0.00022041,-0.00023016,
 -0.00004739,-0.00032280,0.00157233,0.00013404,-0.00023898,0.00016279,0
 .00019670,0.00005639,0.00013081,-0.00008278,-0.00015320,0.00036660,0.0
 0025007,-0.00231753,0.00118984,-0.00245781,0.00177631,-0.01190504,-0.0
 0123929,0.05603448,-0.28804359,-0.03730221,-0.00024798,-0.00049531,0.0
 0019265,0.00007295,0.00009525,-0.00022746,0.00003968,-0.00004420,-0.00
 002057,0.00002295,-0.00002372,0.00001001,-0.00002457,-0.00000820,-0.00
 000090,0.00000759,-0.00004829,-0.00001496,0.00004057,-0.00000848,-0.00
 005363,0.00013262,0.00033746,0.00007957,0.00007449,-0.00101586,-0.0002
 0788,-0.00055671,0.00071369,0.00043480,0.00008103,0.00039666,-0.000413
 08,0.00331470,-0.01542246,-0.00164079,-0.05856990,0.31109872,0.0008226
 6,-0.00079468,0.00011139,0.00125271,0.00183055,-0.00010911,-0.00001774
 ,0.00021795,-0.00067633,-0.00003035,-0.00010282,0.00023316,-0.00024051
 ,0.00025434,0.00008303,-0.00323611,0.00034907,-0.00310366,0.00380389,-
 0.02439583,-0.00406148,0.00975643,-0.03728135,-0.05682313,0.00357186,-
 0.01083549,-0.00155211,-0.00018711,-0.00012761,0.00036327,-0.00005795,
 0.00006593,0.00001994,0.00002841,0.00000478,-0.00000909,-0.00000172,0.
 00000302,-0.00001723,0.00005291,-0.00002558,0.00001979,0.00005866,0.00
 000898,0.00004577,-0.00015757,-0.00022069,0.00021375,-0.00023196,-0.00
 141787,0.00007713,0.00039278,0.00051131,0.00119163,0.00076506,0.000318
 92,0.00031807,-0.00697582,0.02898699,0.00508895,-0.00828732,0.04246363
 ,0.05787263,-0.00102018,0.00118288,0.00286368,-0.00091693,0.00358492,-
 0.01477927,-0.00019198,0.00029988,0.00093507,0.00009555,0.00005625,0.0
 0001794,0.00003727,0.00023123,-0.00006785,-0.00018558,-0.00013266,-0.0
 0015432,0.00201164,-0.00076070,0.00212233,-0.00571498,-0.01297491,0.03
 132909,-0.04410321,-0.00347042,0.01248035,-0.00009179,-0.00013379,-0.0
 0008990,0.00000640,-0.00000527,-0.00001614,0.00001658,-0.00004692,0.00
 002902,0.00001508,0.00006067,0.00003678,0.00007992,0.00003057,0.000028
 38,0.00008188,-0.00009065,-0.00002922,0.00004597,0.00024184,-0.0001104
 3,0.00000787,-0.00008867,-0.00004896,0.00048525,0.00036769,-0.00004632
 ,-0.00019970,0.00024907,-0.00122217,-0.00639007,0.00061809,0.00184885,
 0.00110403,0.00024847,-0.00051570,0.05369438,-0.00000441,0.00070563,-0
 .00358144,-0.00068631,-0.01264759,0.03162280,0.00172295,-0.00124383,-0
 .00335885,-0.00049690,-0.00033934,-0.00046432,-0.00042521,-0.00097270,
 0.00056362,-0.00013663,-0.00006469,-0.00013857,-0.00001864,0.00004061,
 0.00063345,-0.00078035,0.00085333,-0.00078769,-0.00433496,-0.07769475,
 0.08876771,0.00039754,0.00096276,-0.00002964,0.00006408,-0.00010225,0.
 00001112,-0.00004873,0.00009264,-0.00001127,0.00004356,-0.00022580,-0.
 00006342,-0.00018300,0.00011080,-0.00029835,-0.00002791,-0.00025562,-0
 .00048102,0.00007643,0.00004946,-0.00005220,-0.00002828,0.00003986,-0.
 00000148,0.00010816,0.00001528,-0.00027809,-0.00029235,0.00009042,-0.0
 0028753,0.00026684,0.00075707,0.00005603,-0.00040909,0.00012610,-0.000
 30626,0.00379078,0.08166090,0.00026342,0.00009950,0.00135594,-0.000489
 37,0.00083833,-0.00011248,-0.00052705,0.00032638,-0.00082564,0.0001205
 8,0.00007796,-0.00002887,-0.00002677,-0.00028978,-0.00052204,0.0001225
 2,-0.00007056,0.00016527,-0.00166888,-0.00049992,0.00092903,0.00193124
 ,0.00409866,-0.01000785,0.01506938,0.08160696,-0.26400603,0.00002731,-
 0.00009466,0.00001467,-0.00002154,0.00002916,0.00001962,-0.00000704,-0
 .00000653,-0.00000912,-0.00005908,0.00003229,0.00001073,-0.00015666,-0
 .00004865,0.00012560,-0.00007731,-0.00023013,0.00033928,-0.00007728,-0
 .00009997,-0.00007860,-0.00000338,0.00008073,0.00002077,-0.00013729,-0
 .00027010,0.00029407,0.00059608,0.00028078,0.00095381,0.00198112,-0.00
 091640,0.00050993,0.00001325,-0.00037322,-0.00002095,-0.01788721,-0.09
 144298,0.28946501,-0.00002946,0.00131072,-0.00048098,0.00676795,0.0083
 8968,0.00903444,-0.00081938,0.00092490,-0.00055068,0.00038148,0.000452
 34,-0.00005152,-0.00024877,0.00001725,0.00004278,-0.00015025,0.0005179
 3,-0.00002047,-0.00462711,0.00119670,0.00425407,-0.01750351,-0.0171233
 1,-0.01899591,-0.12844625,-0.09025250,-0.08279023,-0.00000913,0.000168
 14,-0.00006238,0.00002780,-0.00004813,-0.00001743,0.00003362,-0.000091
 77,0.00000939,-0.00009534,0.00020530,-0.00000762,0.00012458,-0.0000323
 6,-0.00001828,0.00002407,-0.00001782,-0.00006530,0.00000954,-0.0000790
 0,0.00001533,0.00009147,-0.00022904,-0.00007371,-0.00136127,-0.0007778
 4,-0.00115229,0.00032643,0.00019040,0.00017452,0.00060335,-0.00029559,
 0.00049407,0.00085237,0.00030905,-0.00056551,0.00113259,0.00140246,0.0
 0101397,0.14291519,-0.00116809,0.00466672,0.00284943,-0.01714745,-0.02
 642462,-0.01939303,0.00402900,-0.00285189,0.00097148,-0.00115089,-0.00
 112642,0.00039182,0.00052955,0.00086962,0.00049455,0.00029635,-0.00006
 784,0.00002797,0.00086560,0.00086580,0.00022726,0.00239420,0.00086823,
 0.00189491,-0.08974751,-0.14418644,-0.09519267,-0.00021125,-0.00022809
 ,0.00012625,-0.00000543,0.00004499,-0.00006650,0.00006286,-0.00002278,
 0.00005529,0.00038598,-0.00045854,-0.00000830,0.00009387,0.00000422,0.
 00000647,-0.00002845,0.00012966,-0.00009808,0.00000164,0.00002137,0.00
 000512,-0.00008239,0.00009304,0.00001052,0.00024487,0.00010477,-0.0001
 0607,-0.00001902,-0.00003444,-0.00020921,-0.00027890,-0.00020056,0.000
 04576,0.00033128,0.00105507,0.00049268,0.00674166,0.00804172,0.0068721
 7,0.09386250,0.15883643,0.00198233,0.00036151,0.00055196,-0.00152064,0
 .00422289,0.00076436,-0.00025101,0.00074481,0.00000699,0.00002081,0.00
 011136,-0.00003952,0.00011553,-0.00008003,-0.00026269,0.00013797,-0.00
 002774,0.00008602,0.00124985,-0.00011020,-0.00098177,0.00715858,0.0077
 2950,0.00728823,-0.08109236,-0.09378621,-0.13105792,0.00003170,-0.0000
 9511,0.00001627,0.00000355,-0.00000195,-0.00000163,0.00000783,0.000000
 53,0.00000361,0.00000645,0.00005409,-0.00000076,-0.00008477,-0.0000512
 1,0.00009412,-0.00000526,0.00002730,0.00023076,-0.00002529,-0.00002124
 ,0.00001168,-0.00003815,0.00008400,0.00001461,0.00028203,-0.00008794,0
 .00056615,0.00013100,-0.00015803,0.00048045,-0.00052807,0.00023259,0.0
 0008168,-0.00067181,0.00032052,0.00073460,-0.01672400,-0.02007163,-0.0
 1859214,0.08981374,0.10060218,0.14000494\\0.00002810,0.00000985,0.0002
 1192,-0.00001146,0.00001868,0.00004816,-0.00002086,0.00001694,-0.00012
 411,0.00000607,-0.00003559,-0.00003393,-0.00001598,0.00004627,0.000028
 90,0.00001810,-0.00002628,-0.00001606,-0.00006296,0.00007378,-0.000046
 98,0.00005708,-0.00001000,0.00006043,0.00000872,-0.00000947,-0.0000641
 3,0.00004900,-0.00002778,0.00003392,-0.00000229,-0.00000590,0.00000275
 ,-0.00000327,0.00000337,-0.00000662,0.00000623,0.00000385,0.00000171,-
 0.00000203,0.00000116,-0.00001996,0.00001372,0.00002257,0.00001977,0.0
 0000203,0.00002103,0.00000213,0.00000793,-0.00002025,0.00000008,0.0000
 0485,-0.00002753,0.00003300,-0.00003182,0.00001992,0.00001129,-0.00003
 483,-0.00003197,-0.00002132,0.00003690,-0.00000238,0.00003146,-0.00008
 795,-0.00010270,-0.00004271,0.00003471,0.00006242,-0.00010970\\\@


 ALL PAPERS THAT YOU SAVE WILL NEVER BE NEEDED UNTIL
 SUCH TIME AS THEY ARE DISPOSED OF, WHEN THEY BECOME
 ESSENTIAL.

           -- JOHN CORCORAN IN
              PAUL DICKSON'S "THE OFFICIAL RULES"
 Job cpu time:       0 days  0 hours  1 minutes 33.8 seconds.
 Elapsed time:       0 days  0 hours  1 minutes 34.2 seconds.
 File lengths (MBytes):  RWF=     78 Int=      0 D2E=      0 Chk=      3 Scr=      1
 Normal termination of Gaussian 16 at Wed Feb 21 18:56:23 2024.
