 Entering Gaussian System, Link 0=g16
 Input=/Volumes/SSD-PMU3/b3lyp_6-31gd_freq/VTGCARYDRSRJMW-PHIMTYICSA-N_calculating/gaussianinput0.gjf
 Output=/Volumes/SSD-PMU3/b3lyp_6-31gd_freq/VTGCARYDRSRJMW-PHIMTYICSA-N_calculating/gaussianinput0.log
 Initial command:
 /Applications/g16/l1.exe "/Users/macmini_m1_2022/PycharmProjects/sphere_model/sphere_model_lib/Gau-81335.inp" -scrdir="/Users/macmini_m1_2022/PycharmProjects/sphere_model/sphere_model_lib/"
 Entering Link 1 = /Applications/g16/l1.exe PID=     81336.
  
 Copyright (c) 1988,1990,1992,1993,1995,1998,2003,2009,2016,
            Gaussian, Inc.  All Rights Reserved.
  
 This is part of the Gaussian(R) 16 program.  It is based on
 the Gaussian(R) 09 system (copyright 2009, Gaussian, Inc.),
 the Gaussian(R) 03 system (copyright 2003, Gaussian, Inc.),
 the Gaussian(R) 98 system (copyright 1998, Gaussian, Inc.),
 the Gaussian(R) 94 system (copyright 1995, Gaussian, Inc.),
 the Gaussian 92(TM) system (copyright 1992, Gaussian, Inc.),
 the Gaussian 90(TM) system (copyright 1990, Gaussian, Inc.),
 the Gaussian 88(TM) system (copyright 1988, Gaussian, Inc.),
 the Gaussian 86(TM) system (copyright 1986, Carnegie Mellon
 University), and the Gaussian 82(TM) system (copyright 1983,
 Carnegie Mellon University). Gaussian is a federally registered
 trademark of Gaussian, Inc.
  
 This software contains proprietary and confidential information,
 including trade secrets, belonging to Gaussian, Inc.
  
 This software is provided under written license and may be
 used, copied, transmitted, or stored only in accord with that
 written license.
  
 The following legend is applicable only to US Government
 contracts under FAR:
  
                    RESTRICTED RIGHTS LEGEND
  
 Use, reproduction and disclosure by the US Government is
 subject to restrictions as set forth in subparagraphs (a)
 and (c) of the Commercial Computer Software - Restricted
 Rights clause in FAR 52.227-19.
  
 Gaussian, Inc.
 340 Quinnipiac St., Bldg. 40, Wallingford CT 06492
  
  
 ---------------------------------------------------------------
 Warning -- This program may not be used in any manner that
 competes with the business of Gaussian, Inc. or will provide
 assistance to any competitor of Gaussian, Inc.  The licensee
 of this program is prohibited from giving any competitor of
 Gaussian, Inc. access to this program.  By using this program,
 the user acknowledges that Gaussian, Inc. is engaged in the
 business of creating and licensing software in the field of
 computational chemistry and represents and warrants to the
 licensee that it is not a competitor of Gaussian, Inc. and that
 it will not use this program in any manner prohibited above.
 ---------------------------------------------------------------
  

 Cite this work as:
 Gaussian 16, Revision A.03,
 M. J. Frisch, G. W. Trucks, H. B. Schlegel, G. E. Scuseria, 
 M. A. Robb, J. R. Cheeseman, G. Scalmani, V. Barone, 
 G. A. Petersson, H. Nakatsuji, X. Li, M. Caricato, A. V. Marenich, 
 J. Bloino, B. G. Janesko, R. Gomperts, B. Mennucci, H. P. Hratchian, 
 J. V. Ortiz, A. F. Izmaylov, J. L. Sonnenberg, D. Williams-Young, 
 F. Ding, F. Lipparini, F. Egidi, J. Goings, B. Peng, A. Petrone, 
 T. Henderson, D. Ranasinghe, V. G. Zakrzewski, J. Gao, N. Rega, 
 G. Zheng, W. Liang, M. Hada, M. Ehara, K. Toyota, R. Fukuda, 
 J. Hasegawa, M. Ishida, T. Nakajima, Y. Honda, O. Kitao, H. Nakai, 
 T. Vreven, K. Throssell, J. A. Montgomery, Jr., J. E. Peralta, 
 F. Ogliaro, M. J. Bearpark, J. J. Heyd, E. N. Brothers, K. N. Kudin, 
 V. N. Staroverov, T. A. Keith, R. Kobayashi, J. Normand, 
 K. Raghavachari, A. P. Rendell, J. C. Burant, S. S. Iyengar, 
 J. Tomasi, M. Cossi, J. M. Millam, M. Klene, C. Adamo, R. Cammi, 
 J. W. Ochterski, R. L. Martin, K. Morokuma, O. Farkas, 
 J. B. Foresman, and D. J. Fox, Gaussian, Inc., Wallingford CT, 2016.
 
 ******************************************
 Gaussian 16:  EM64M-G16RevA.03 25-Dec-2016
                24-Feb-2024 
 ******************************************
 %nprocshared=10
 Will use up to   10 processors via shared memory.
 %mem=12GB
 %chk= 0.chk
 ---------------------
 # freq b3lyp/6-31g(d)
 ---------------------
 1/10=4,30=1,38=1/1,3;
 2/12=2,17=6,18=5,40=1/2;
 3/5=1,6=6,7=1,11=2,25=1,30=1,71=2,74=-5,140=1/1,2,3;
 4//1;
 5/5=2,38=5,98=1/2;
 8/6=4,10=90,11=11/1;
 11/6=1,8=1,9=11,15=111,16=1/1,2,10;
 10/6=1/2;
 6/7=2,8=2,9=2,10=2,28=1/1;
 7/8=1,10=1,25=1/1,2,3,16;
 1/10=4,30=1/3;
 99//99;
 ---------
 good luck
 ---------
 Symbolic Z-matrix:
 Charge =  0 Multiplicity = 1
 O                     1.21745   0.        0. 
 C                     0.        0.        0. 
 C                    -0.80797  -1.28842  -0.00579 
 C                    -1.87795  -1.28581  -1.12595 
 C                    -2.71556  -2.61191  -1.19943 
 C                    -3.61246  -2.80896   0.03951 
 C                    -1.76614  -3.82387  -1.32348 
 C                    -3.60702  -2.59203  -2.46092 
 C                    -2.72716   0.       -1.01215 
 C                    -1.87795   1.28581  -1.12595 
 C                    -2.71556   2.61191  -1.19943 
 C                    -3.60702   2.59202  -2.46092 
 C                    -3.61246   2.80896   0.03951 
 C                    -1.76614   3.82387  -1.32349 
 C                    -0.80797   1.28842  -0.00579 
 H                    -0.10268  -2.11651  -0.10004 
 H                    -1.30403  -1.37683   0.97276 
 H                    -1.33364  -1.22933  -2.08253 
 H                    -4.359    -2.01294   0.13672 
 H                    -3.03011  -2.84178   0.9676 
 H                    -4.1558   -3.75856  -0.03567 
 H                    -2.34116  -4.73756  -1.51489 
 H                    -1.06099  -3.69503  -2.15428 
 H                    -1.18433  -3.99192  -0.41157 
 H                    -4.11975  -3.55402  -2.57861 
 H                    -3.01086  -2.42135  -3.36617 
 H                    -4.37997  -1.81794  -2.41542 
 H                    -3.25699   0.       -0.04989 
 H                    -3.49327   0.       -1.79096 
 H                    -1.33364   1.22933  -2.08253 
 H                    -3.01087   2.42135  -3.36617 
 H                    -4.11976   3.55402  -2.57861 
 H                    -4.37997   1.81794  -2.41542 
 H                    -3.03011   2.84178   0.9676 
 H                    -4.359     2.01294   0.13672 
 H                    -4.1558    3.75856  -0.03567 
 H                    -1.18433   3.99192  -0.41157 
 H                    -2.34116   4.73756  -1.51489 
 H                    -1.06099   3.69503  -2.15429 
 H                    -0.10268   2.11651  -0.10004 
 H                    -1.30403   1.37683   0.97276 
 

 GradGradGradGradGradGradGradGradGradGradGradGradGradGradGradGradGradGrad
 Berny optimization.
 Initialization pass.
 Trust Radius=3.00D-01 FncErr=1.00D-07 GrdErr=1.00D-07 EigMax=2.50D+02 EigMin=1.00D-04
 Number of steps in this run=      2 maximum allowed number of steps=      2.
 GradGradGradGradGradGradGradGradGradGradGradGradGradGradGradGradGradGrad

                          Input orientation:                          
 ---------------------------------------------------------------------
 Center     Atomic      Atomic             Coordinates (Angstroms)
 Number     Number       Type             X           Y           Z
 ---------------------------------------------------------------------
      1          8           0        1.217448    0.000000    0.000000
      2          6           0        0.000000    0.000000    0.000000
      3          6           0       -0.807973   -1.288416   -0.005792
      4          6           0       -1.877948   -1.285812   -1.125947
      5          6           0       -2.715556   -2.611913   -1.199432
      6          6           0       -3.612457   -2.808955    0.039511
      7          6           0       -1.766142   -3.823866   -1.323483
      8          6           0       -3.607016   -2.592026   -2.460922
      9          6           0       -2.727158    0.000000   -1.012148
     10          6           0       -1.877949    1.285812   -1.125947
     11          6           0       -2.715557    2.611913   -1.199431
     12          6           0       -3.607018    2.592023   -2.460920
     13          6           0       -3.612456    2.808955    0.039512
     14          6           0       -1.766144    3.823866   -1.323486
     15          6           0       -0.807973    1.288416   -0.005792
     16          1           0       -0.102681   -2.116511   -0.100044
     17          1           0       -1.304032   -1.376829    0.972756
     18          1           0       -1.333635   -1.229330   -2.082528
     19          1           0       -4.359003   -2.012944    0.136721
     20          1           0       -3.030115   -2.841778    0.967596
     21          1           0       -4.155798   -3.758563   -0.035665
     22          1           0       -2.341155   -4.737561   -1.514888
     23          1           0       -1.060985   -3.695026   -2.154284
     24          1           0       -1.184333   -3.991916   -0.411565
     25          1           0       -4.119754   -3.554021   -2.578613
     26          1           0       -3.010862   -2.421351   -3.366173
     27          1           0       -4.379968   -1.817939   -2.415423
     28          1           0       -3.256994    0.000000   -0.049887
     29          1           0       -3.493269    0.000000   -1.790959
     30          1           0       -1.333635    1.229330   -2.082528
     31          1           0       -3.010866    2.421349   -3.366173
     32          1           0       -4.119759    3.554018   -2.578611
     33          1           0       -4.379969    1.817935   -2.415420
     34          1           0       -3.030114    2.841780    0.967597
     35          1           0       -4.359002    2.012944    0.136724
     36          1           0       -4.155798    3.758562   -0.035665
     37          1           0       -1.184334    3.991918   -0.411568
     38          1           0       -2.341158    4.737561   -1.514891
     39          1           0       -1.060987    3.695026   -2.154287
     40          1           0       -0.102681    2.116511   -0.100044
     41          1           0       -1.304031    1.376829    0.972757
 ---------------------------------------------------------------------
                    Distance matrix (angstroms):
                    1          2          3          4          5
     1  O    0.000000
     2  C    1.217448   0.000000
     3  C    2.400496   1.520812   0.000000
     4  C    3.535894   2.539244   1.549064   0.000000
     5  C    4.871268   3.954108   2.610612   1.570201   0.000000
     6  C    5.587466   4.576203   3.190489   2.585881   1.542153
     7  C    5.027461   4.415067   3.013786   2.548184   1.544541
     8  C    6.004181   5.077923   3.944833   2.545197   1.544815
     9  C    4.072390   2.908923   2.521119   1.545128   2.618645
    10  C    3.535895   2.539244   3.004371   2.571624   3.987386
    11  C    4.871268   3.954109   4.502912   3.987386   5.223826
    12  C    6.004180   5.077922   5.377742   4.450780   5.428352
    13  C    5.587465   4.576202   4.965443   4.597165   5.632515
    14  C    5.027463   4.415069   5.365616   5.114717   6.506614
    15  C    2.400496   1.520812   2.576832   3.004371   4.502912
    16  H    2.496471   2.121361   1.091816   2.212264   2.877706
    17  H    3.033113   2.131293   1.100658   2.177663   2.869884
    18  H    3.515139   2.761658   2.143046   1.102050   2.145017
    19  H    5.930214   4.803285   3.626991   2.877270   2.201133
    20  H    5.201321   4.265389   2.880683   2.851568   2.201771
    21  H    6.557426   5.603457   4.160583   3.534376   2.177948
    22  H    6.115801   5.497306   4.065048   3.504341   2.181300
    23  H    4.846175   4.406795   3.236017   2.743942   2.196015
    24  H    4.676893   4.184187   2.759567   2.883477   2.206759
    25  H    6.911298   6.021020   4.766578   3.504384   2.182082
    26  H    5.922218   5.124388   4.174736   2.755278   2.195059
    27  H    6.361622   5.321963   4.341182   2.864614   2.208913
    28  H    4.474720   3.257376   2.767610   2.170941   2.904600
    29  H    5.039681   3.925616   3.472413   2.169059   2.788697
    30  H    3.515139   2.761658   3.305782   2.745408   4.176687
    31  H    5.922220   5.124389   5.468753   4.477182   5.487777
    32  H    6.911299   6.021021   6.405973   5.528101   6.472451
    33  H    6.361621   5.321961   5.311768   4.189999   4.885944
    34  H    5.201321   4.265390   4.789981   4.769426   5.876881
    35  H    5.930213   4.803284   4.850680   4.316452   5.086800
    36  H    6.557426   5.603456   6.056469   5.641190   6.634124
    37  H    4.676896   4.184190   5.309259   5.370835   6.824658
    38  H    6.115804   5.497308   6.398471   6.053665   7.365762
    39  H    4.846177   4.406797   5.432747   5.151083   6.589903
    40  H    2.496471   2.121361   3.478484   3.972386   5.513054
    41  H    3.033112   2.131293   2.882215   3.438546   4.756140
                    6          7          8          9         10
     6  C    0.000000
     7  C    2.509318   0.000000
     8  C    2.509831   2.489983   0.000000
     9  C    3.127294   3.955052   3.097046   0.000000
    10  C    4.597165   5.114717   4.450782   1.545127   0.000000
    11  C    5.632514   6.506614   5.428355   2.618645   1.570201
    12  C    5.951701   6.770984   5.184049   3.097043   2.545195
    13  C    5.617910   7.018614   5.951705   3.127294   2.585880
    14  C    7.018614   7.647732   6.770985   3.955051   2.548184
    15  C    4.965444   5.365615   5.377744   2.521119   1.549065
    16  H    3.580151   2.679359   4.252085   3.492769   3.972387
    17  H    2.872413   3.387366   4.309360   2.803710   3.438545
    18  H    3.491603   2.737668   2.677384   2.144498   2.745408
    19  H    1.095634   3.483470   2.765605   2.834566   4.316451
    20  H    1.096148   2.794847   3.485674   3.476618   4.769424
    21  H    1.096643   2.715363   2.746605   4.137793   5.641190
    22  H    2.784221   1.096410   2.664715   4.779773   6.053665
    23  H    3.479636   1.097304   2.791578   4.211155   5.151083
    24  H    2.738367   1.094686   3.468278   4.321620   5.370834
    25  H    2.768943   2.680981   1.096442   4.126039   5.528102
    26  H    3.480063   2.772897   1.097273   3.388932   4.477182
    27  H    2.756426   3.471046   1.094868   2.829464   4.190002
    28  H    2.832768   4.297283   3.557275   1.098486   2.170941
    29  H    3.354855   4.221783   2.679625   1.092462   2.169058
    30  H    5.099395   5.128158   4.462533   2.144498   1.102050
    31  H    6.270301   6.687648   5.129211   3.388931   2.755278
    32  H    6.899228   7.845255   6.168518   4.126038   3.504383
    33  H    5.293758   6.313029   4.477419   2.829460   2.864612
    34  H    5.755977   7.160832   6.450876   3.476620   2.851569
    35  H    4.880317   6.551601   5.340318   2.834566   2.877270
    36  H    6.590383   8.053704   6.820044   4.137792   3.534375
    37  H    7.235408   7.890283   7.308732   4.321621   2.883479
    38  H    7.809115   8.582850   7.498014   4.779773   3.504342
    39  H    7.322876   7.597448   6.789942   4.211155   2.743943
    40  H    6.049646   6.289037   6.326486   3.492769   2.212265
    41  H    4.870376   5.703814   5.731117   2.803711   2.177665
                   11         12         13         14         15
    11  C    0.000000
    12  C    1.544815   0.000000
    13  C    1.542152   2.509831   0.000000
    14  C    1.544540   2.489982   2.509318   0.000000
    15  C    2.610612   3.944832   3.190488   3.013788   0.000000
    16  H    5.513054   6.326484   6.049646   6.289038   3.478484
    17  H    4.756139   5.731113   4.870375   5.703815   2.882215
    18  H    4.176687   4.462532   5.099395   5.128157   3.305782
    19  H    5.086799   5.340313   4.880317   6.551601   4.850681
    20  H    5.876878   6.450871   5.755975   7.160830   4.789979
    21  H    6.634125   6.820041   6.590384   8.053705   6.056469
    22  H    7.365763   7.498012   7.809115   8.582849   6.398470
    23  H    6.589904   6.789941   7.322876   7.597448   5.432746
    24  H    6.824657   7.308728   7.235406   7.890282   5.309257
    25  H    6.472453   6.168517   6.899231   7.845256   6.405974
    26  H    5.487779   5.129211   6.270304   6.687647   5.468752
    27  H    4.885948   4.477420   5.293763   6.313031   5.311771
    28  H    2.904599   3.557271   2.832768   4.297283   2.767610
    29  H    2.788697   2.679621   3.354856   4.221782   3.472413
    30  H    2.145019   2.677384   3.491603   2.737668   2.143046
    31  H    2.195061   1.097274   3.480063   2.772897   4.174738
    32  H    2.182082   1.096444   2.768943   2.680981   4.766579
    33  H    2.208913   1.094868   2.756427   3.471046   4.341181
    34  H    2.201771   3.485674   1.096148   2.794848   2.880683
    35  H    2.201133   2.765604   1.095634   3.483470   3.626990
    36  H    2.177946   2.746604   1.096643   2.715363   4.160582
    37  H    2.206759   3.468277   2.738366   1.094687   2.759570
    38  H    2.181300   2.664715   2.784221   1.096410   4.065051
    39  H    2.196016   2.791579   3.479636   1.097304   3.236019
    40  H    2.877707   4.252085   3.580150   2.679362   1.091816
    41  H    2.869885   4.309360   2.872413   3.387369   1.100658
                   16         17         18         19         20
    16  H    0.000000
    17  H    1.772364   0.000000
    18  H    2.496514   3.058986   0.000000
    19  H    4.264160   3.230549   3.833010   0.000000
    20  H    3.199334   2.263949   3.844644   1.772925   0.000000
    21  H    4.373584   3.849953   4.307119   1.765841   1.764707
    22  H    3.725916   4.307960   3.693913   3.771347   3.198654
    23  H    2.762238   3.900191   2.481762   4.353737   3.788356
    24  H    2.187272   2.961309   3.232072   3.780936   2.575231
    25  H    4.934229   5.027989   3.662342   3.131325   3.777592
    26  H    4.383839   4.778138   2.425232   3.775519   4.354157
    27  H    4.872916   4.597360   3.120485   2.559669   3.783539
    28  H    3.798924   2.599138   3.056500   2.302431   3.026954
    29  H    4.339919   3.785041   2.502056   2.918457   3.987460
    30  H    4.079233   4.015931   2.458660   4.958857   5.362390
    31  H    6.302167   6.013796   4.217618   5.809535   6.817802
    32  H    7.378015   6.697296   5.557788   6.198494   7.393857
    33  H    6.255879   5.581007   4.321665   4.603205   5.914375
    34  H    5.856140   4.558075   5.362391   5.101436   5.683558
    35  H    5.935042   4.639219   4.958857   4.025888   5.101433
    36  H    7.137814   5.960010   6.085501   5.777654   6.770390
    37  H    6.211274   5.545640   5.484143   6.814507   7.211685
    38  H    7.347848   6.682049   6.077919   7.236632   8.005235
    39  H    6.237967   5.963320   4.932420   6.979008   7.506892
    40  H    4.233022   3.846761   4.079233   5.935043   5.856138
    41  H    3.846761   2.753658   4.015932   4.639221   4.558074
                   21         22         23         24         25
    21  H    0.000000
    22  H    2.537610   0.000000
    23  H    3.751060   1.770464   0.000000
    24  H    3.004223   1.763957   1.772125   0.000000
    25  H    2.551416   2.386565   3.091279   3.674853   0.000000
    26  H    3.767134   3.039834   2.625442   3.812164   1.769981
    27  H    3.078883   3.673134   3.821949   4.353585   1.763044
    28  H    3.864563   5.042764   4.785829   4.512441   4.446333
    29  H    4.200809   4.883448   4.438606   4.813451   3.693771
    30  H    6.085502   6.077919   4.932420   5.484142   5.557788
    31  H    7.112979   7.424672   6.533051   7.293552   6.128208
    32  H    7.742203   8.546650   7.879390   8.381762   7.108039
    33  H    6.067192   6.924034   6.440232   6.926896   5.380730
    34  H    6.770393   8.005236   7.506893   7.211685   7.393862
    35  H    5.777655   7.236632   6.979008   6.814506   6.198499
    36  H    7.517125   8.812783   8.344003   8.309080   7.742206
    37  H    8.309083   8.874647   7.882981   7.983834   8.381764
    38  H    8.812783   9.475122   8.553139   8.874646   8.546651
    39  H    8.344004   8.553139   7.390052   7.882980   7.879390
    40  H    7.137815   7.347847   6.237965   6.211272   7.378016
    41  H    5.960012   6.682048   5.963319   5.545638   6.697298
                   26         27         28         29         30
    26  H    0.000000
    27  H    1.772705   0.000000
    28  H    4.113548   3.187747   0.000000
    29  H    2.928644   2.116859   1.757031   0.000000
    30  H    4.217619   4.321668   3.056500   2.502056   0.000000
    31  H    4.842700   4.555209   4.113546   2.928642   2.425234
    32  H    6.128209   5.380731   4.446330   3.693769   3.662343
    33  H    4.555209   3.635874   3.187743   2.116855   3.120485
    34  H    6.817806   5.914382   3.026956   3.987463   3.844645
    35  H    5.809539   4.603212   2.302431   2.918458   3.833011
    36  H    7.112980   6.067196   3.864562   4.200808   4.307118
    37  H    7.293553   6.926900   4.512443   4.813451   3.232072
    38  H    7.424673   6.924037   5.042765   4.883447   3.693914
    39  H    6.533050   6.440234   4.785829   4.438606   2.481762
    40  H    6.302167   6.255882   3.798924   4.339919   2.496514
    41  H    6.013797   5.581012   2.599139   3.785043   3.058987
                   31         32         33         34         35
    31  H    0.000000
    32  H    1.769982   0.000000
    33  H    1.772705   1.763044   0.000000
    34  H    4.354158   3.777592   3.783539   0.000000
    35  H    3.775520   3.131324   2.559669   1.772925   0.000000
    36  H    3.767133   2.551414   3.078883   1.764706   1.765840
    37  H    3.812164   3.674854   4.353586   2.575232   3.780936
    38  H    3.039834   2.386566   3.673135   3.198655   3.771348
    39  H    2.625443   3.091281   3.821950   3.788357   4.353738
    40  H    4.383841   4.934231   4.872916   3.199334   4.264159
    41  H    4.778140   5.027991   4.597359   2.263950   3.230548
                   36         37         38         39         40
    36  H    0.000000
    37  H    3.004223   0.000000
    38  H    2.537610   1.763958   0.000000
    39  H    3.751060   1.772126   1.770464   0.000000
    40  H    4.373584   2.187275   3.725919   2.762241   0.000000
    41  H    3.849954   2.961313   4.307963   3.900194   1.772364
                   41
    41  H    0.000000
 Stoichiometry    C14H26O
 Framework group  C1[X(C14H26O)]
 Deg. of freedom   117
 Full point group                 C1      NOp   1
 Largest Abelian subgroup         C1      NOp   1
 Largest concise Abelian subgroup C1      NOp   1
                         Standard orientation:                         
 ---------------------------------------------------------------------
 Center     Atomic      Atomic             Coordinates (Angstroms)
 Number     Number       Type             X           Y           Z
 ---------------------------------------------------------------------
      1          8           0        0.000000    3.401533   -0.429835
      2          6           0        0.000000    2.275863    0.033896
      3          6           0        1.288416    1.526593    0.336301
      4          6           0        1.285812    0.110607   -0.291853
      5          6           0        2.611913   -0.691849   -0.040749
      6          6           0        2.808954   -1.049218    1.446429
      7          6           0        3.823866    0.138742   -0.517084
      8          6           0        2.592026   -1.996612   -0.867580
      9          6           0       -0.000000   -0.631238    0.136835
     10          6           0       -1.285812    0.110606   -0.291852
     11          6           0       -2.611913   -0.691848   -0.040748
     12          6           0       -2.592023   -1.996613   -0.867578
     13          6           0       -2.808956   -1.049215    1.446429
     14          6           0       -3.823866    0.138740   -0.517087
     15          6           0       -1.288416    1.526594    0.336301
     16          1           0        2.116511    2.142815   -0.019494
     17          1           0        1.376829    1.440663    1.430032
     18          1           0        1.229330    0.249521   -1.383652
     19          1           0        2.012943   -1.702457    1.820673
     20          1           0        2.841778   -0.157264    2.082733
     21          1           0        3.758562   -1.580234    1.583881
     22          1           0        4.737561   -0.465831   -0.475035
     23          1           0        3.695026    0.474284   -1.553852
     24          1           0        3.991916    1.024044    0.104475
     25          1           0        3.554020   -2.515526   -0.781095
     26          1           0        2.421351   -1.790214   -1.931666
     27          1           0        1.817938   -2.693964   -0.531091
     28          1           0       -0.000000   -0.754603    1.228372
     29          1           0       -0.000000   -1.636248   -0.291450
     30          1           0       -1.229330    0.249521   -1.383653
     31          1           0       -2.421349   -1.790216   -1.931665
     32          1           0       -3.554019   -2.515529   -0.781092
     33          1           0       -1.817936   -2.693963   -0.531088
     34          1           0       -2.841780   -0.157262    2.082733
     35          1           0       -2.012945   -1.702454    1.820675
     36          1           0       -3.758563   -1.580232    1.583880
     37          1           0       -3.991918    1.024043    0.104472
     38          1           0       -4.737561   -0.465833   -0.475038
     39          1           0       -3.695026    0.474283   -1.553855
     40          1           0       -2.116511    2.142816   -0.019495
     41          1           0       -1.376829    1.440665    1.430032
 ---------------------------------------------------------------------
 Rotational constants (GHZ):           0.7978406           0.3918298           0.3028961
 Standard basis: 6-31G(d) (6D, 7F)
 There are   277 symmetry adapted cartesian basis functions of A   symmetry.
 There are   277 symmetry adapted basis functions of A   symmetry.
   277 basis functions,   524 primitive gaussians,   277 cartesian basis functions
    59 alpha electrons       59 beta electrons
       nuclear repulsion energy      1103.5363413335 Hartrees.
 NAtoms=   41 NActive=   41 NUniq=   41 SFac= 1.00D+00 NAtFMM=   60 NAOKFM=F Big=F
 Integral buffers will be    131072 words long.
 Raffenetti 2 integral format.
 Two-electron integral symmetry is turned on.
 One-electron integrals computed using PRISM.
 NBasis=   277 RedAO= T EigKep=  2.47D-03  NBF=   277
 NBsUse=   277 1.00D-06 EigRej= -1.00D+00 NBFU=   277
 ExpMin= 1.61D-01 ExpMax= 5.48D+03 ExpMxC= 8.25D+02 IAcc=3 IRadAn=         5 AccDes= 0.00D+00
 Harris functional with IExCor=  402 and IRadAn=       5 diagonalized for initial guess.
 HarFok:  IExCor=  402 AccDes= 0.00D+00 IRadAn=         5 IDoV= 1 UseB2=F ITyADJ=14
 ICtDFT=  3500011 ScaDFX=  1.000000  1.000000  1.000000  1.000000
 FoFCou: FMM=F IPFlag=           0 FMFlag=      100000 FMFlg1=           0
         NFxFlg=           0 DoJE=T BraDBF=F KetDBF=T FulRan=T
         wScrn=  0.000000 ICntrl=       500 IOpCl=  0 I1Cent=   200000004 NGrid=           0
         NMat0=    1 NMatS0=      1 NMatT0=    0 NMatD0=    1 NMtDS0=    0 NMtDT0=    0
 Petite list used in FoFCou.
 Requested convergence on RMS density matrix=1.00D-08 within 128 cycles.
 Requested convergence on MAX density matrix=1.00D-06.
 Requested convergence on             energy=1.00D-06.
 No special actions if energy rises.
 Integral accuracy reduced to 1.0D-05 until final iterations.
 Initial convergence to 1.0D-05 achieved.  Increase integral accuracy.
 SCF Done:  E(RB3LYP) =  -624.390130544     A.U. after   13 cycles
            NFock= 13  Conv=0.95D-08     -V/T= 2.0099
 DoSCS=F DFT=T ScalE2(SS,OS)=  1.000000  1.000000
 Range of M.O.s used for correlation:     1   277
 NBasis=   277 NAE=    59 NBE=    59 NFC=     0 NFV=     0
 NROrb=    277 NOA=    59 NOB=    59 NVA=   218 NVB=   218
 Symmetrizing basis deriv contribution to polar:
 IMax=3 JMax=2 DiffMx= 0.00D+00
 G2DrvN: will do    42 centers at a time, making    1 passes.
 Calling FoFCou, ICntrl=  3107 FMM=F I1Cent=   0 AccDes= 0.00D+00.
 End of G2Drv F.D. properties file   721 does not exist.
 End of G2Drv F.D. properties file   722 does not exist.
 End of G2Drv F.D. properties file   788 does not exist.
          IDoAtm=11111111111111111111111111111111111111111
          Differentiating once with respect to electric field.
                with respect to dipole field.
          Differentiating once with respect to nuclear coordinates.
 Keep R1 ints in memory in canonical form, NReq=752373211.
          There are   126 degrees of freedom in the 1st order CPHF.  IDoFFX=6 NUNeed=     3.
    123 vectors produced by pass  0 Test12= 1.29D-14 1.00D-09 XBig12= 1.04D+02 3.13D+00.
 AX will form   123 AO Fock derivatives at one time.
    123 vectors produced by pass  1 Test12= 1.29D-14 1.00D-09 XBig12= 1.12D+01 7.84D-01.
    123 vectors produced by pass  2 Test12= 1.29D-14 1.00D-09 XBig12= 7.92D-02 3.20D-02.
    123 vectors produced by pass  3 Test12= 1.29D-14 1.00D-09 XBig12= 1.91D-04 1.59D-03.
    123 vectors produced by pass  4 Test12= 1.29D-14 1.00D-09 XBig12= 1.72D-07 4.34D-05.
     51 vectors produced by pass  5 Test12= 1.29D-14 1.00D-09 XBig12= 1.03D-10 9.98D-07.
      5 vectors produced by pass  6 Test12= 1.29D-14 1.00D-09 XBig12= 5.51D-14 2.95D-08.
 InvSVY:  IOpt=1 It=  1 EMax= 1.42D-14
 Solved reduced A of dimension   671 with   126 vectors.
 Isotropic polarizability for W=    0.000000      146.27 Bohr**3.
 End of Minotr F.D. properties file   721 does not exist.
 End of Minotr F.D. properties file   722 does not exist.
 End of Minotr F.D. properties file   788 does not exist.

 **********************************************************************

            Population analysis using the SCF density.

 **********************************************************************

 Orbital symmetries:
       Occupied  (A) (A) (A) (A) (A) (A) (A) (A) (A) (A) (A) (A)
                 (A) (A) (A) (A) (A) (A) (A) (A) (A) (A) (A) (A)
                 (A) (A) (A) (A) (A) (A) (A) (A) (A) (A) (A) (A)
                 (A) (A) (A) (A) (A) (A) (A) (A) (A) (A) (A) (A)
                 (A) (A) (A) (A) (A) (A) (A) (A) (A) (A) (A)
       Virtual   (A) (A) (A) (A) (A) (A) (A) (A) (A) (A) (A) (A)
                 (A) (A) (A) (A) (A) (A) (A) (A) (A) (A) (A) (A)
                 (A) (A) (A) (A) (A) (A) (A) (A) (A) (A) (A) (A)
                 (A) (A) (A) (A) (A) (A) (A) (A) (A) (A) (A) (A)
                 (A) (A) (A) (A) (A) (A) (A) (A) (A) (A) (A) (A)
                 (A) (A) (A) (A) (A) (A) (A) (A) (A) (A) (A) (A)
                 (A) (A) (A) (A) (A) (A) (A) (A) (A) (A) (A) (A)
                 (A) (A) (A) (A) (A) (A) (A) (A) (A) (A) (A) (A)
                 (A) (A) (A) (A) (A) (A) (A) (A) (A) (A) (A) (A)
                 (A) (A) (A) (A) (A) (A) (A) (A) (A) (A) (A) (A)
                 (A) (A) (A) (A) (A) (A) (A) (A) (A) (A) (A) (A)
                 (A) (A) (A) (A) (A) (A) (A) (A) (A) (A) (A) (A)
                 (A) (A) (A) (A) (A) (A) (A) (A) (A) (A) (A) (A)
                 (A) (A) (A) (A) (A) (A) (A) (A) (A) (A) (A) (A)
                 (A) (A) (A) (A) (A) (A) (A) (A) (A) (A) (A) (A)
                 (A) (A) (A) (A) (A) (A) (A) (A) (A) (A) (A) (A)
                 (A) (A) (A) (A) (A) (A) (A) (A) (A) (A) (A) (A)
                 (A) (A) (A) (A) (A) (A) (A) (A) (A) (A) (A) (A)
                 (A) (A)
 The electronic state is 1-A.
 Alpha  occ. eigenvalues --  -19.12867 -10.26490 -10.20216 -10.20216 -10.19659
 Alpha  occ. eigenvalues --  -10.19658 -10.18434 -10.18433 -10.18315 -10.17588
 Alpha  occ. eigenvalues --  -10.17588 -10.17517 -10.17517 -10.17366 -10.17366
 Alpha  occ. eigenvalues --   -1.02757  -0.84936  -0.82383  -0.78602  -0.73550
 Alpha  occ. eigenvalues --   -0.72146  -0.68719  -0.68652  -0.68361  -0.68118
 Alpha  occ. eigenvalues --   -0.62940  -0.60261  -0.53820  -0.52611  -0.52359
 Alpha  occ. eigenvalues --   -0.48030  -0.46834  -0.45113  -0.44825  -0.44582
 Alpha  occ. eigenvalues --   -0.44202  -0.43122  -0.42992  -0.42851  -0.40960
 Alpha  occ. eigenvalues --   -0.40814  -0.38960  -0.38355  -0.37810  -0.37168
 Alpha  occ. eigenvalues --   -0.37093  -0.36577  -0.35961  -0.35809  -0.34696
 Alpha  occ. eigenvalues --   -0.34601  -0.33696  -0.33246  -0.32433  -0.31732
 Alpha  occ. eigenvalues --   -0.31420  -0.30028  -0.29707  -0.23117
 Alpha virt. eigenvalues --   -0.00772   0.06879   0.08072   0.09562   0.11165
 Alpha virt. eigenvalues --    0.11788   0.12320   0.12748   0.12980   0.13609
 Alpha virt. eigenvalues --    0.13864   0.14147   0.15197   0.15512   0.15834
 Alpha virt. eigenvalues --    0.16107   0.17785   0.17827   0.18576   0.18875
 Alpha virt. eigenvalues --    0.19547   0.19868   0.19919   0.21114   0.21272
 Alpha virt. eigenvalues --    0.21643   0.23010   0.23565   0.23997   0.24248
 Alpha virt. eigenvalues --    0.24283   0.24575   0.25395   0.26088   0.26293
 Alpha virt. eigenvalues --    0.27494   0.27956   0.29159   0.31131   0.31504
 Alpha virt. eigenvalues --    0.36568   0.37245   0.48628   0.49445   0.50777
 Alpha virt. eigenvalues --    0.50785   0.51445   0.51677   0.52110   0.52607
 Alpha virt. eigenvalues --    0.54832   0.56069   0.58470   0.59854   0.60770
 Alpha virt. eigenvalues --    0.60908   0.61463   0.63882   0.66127   0.67559
 Alpha virt. eigenvalues --    0.67864   0.68574   0.69067   0.69631   0.70743
 Alpha virt. eigenvalues --    0.70868   0.72016   0.72280   0.73434   0.75099
 Alpha virt. eigenvalues --    0.78458   0.80604   0.82415   0.83324   0.84114
 Alpha virt. eigenvalues --    0.85007   0.86095   0.86542   0.86647   0.87227
 Alpha virt. eigenvalues --    0.88085   0.88600   0.88723   0.89675   0.90501
 Alpha virt. eigenvalues --    0.90761   0.91119   0.91670   0.91811   0.92011
 Alpha virt. eigenvalues --    0.92677   0.93015   0.93660   0.93822   0.94515
 Alpha virt. eigenvalues --    0.94552   0.95940   0.96107   0.96955   0.98393
 Alpha virt. eigenvalues --    0.99092   0.99951   1.00872   1.00926   1.02183
 Alpha virt. eigenvalues --    1.04058   1.05140   1.08268   1.09748   1.10585
 Alpha virt. eigenvalues --    1.12683   1.14317   1.16593   1.18704   1.20495
 Alpha virt. eigenvalues --    1.25475   1.27960   1.36861   1.39981   1.41637
 Alpha virt. eigenvalues --    1.45708   1.48265   1.48882   1.50929   1.53540
 Alpha virt. eigenvalues --    1.54476   1.55968   1.59092   1.59525   1.62345
 Alpha virt. eigenvalues --    1.65670   1.68922   1.69057   1.72022   1.72438
 Alpha virt. eigenvalues --    1.75351   1.75465   1.76974   1.79803   1.80087
 Alpha virt. eigenvalues --    1.82787   1.83993   1.86060   1.86258   1.86520
 Alpha virt. eigenvalues --    1.88073   1.88545   1.89031   1.89432   1.94727
 Alpha virt. eigenvalues --    1.96303   1.96326   1.98902   2.00278   2.03896
 Alpha virt. eigenvalues --    2.04644   2.04941   2.06252   2.07102   2.08229
 Alpha virt. eigenvalues --    2.09030   2.09125   2.10316   2.10555   2.12039
 Alpha virt. eigenvalues --    2.14625   2.17933   2.18498   2.19637   2.24464
 Alpha virt. eigenvalues --    2.25724   2.26493   2.26786   2.26788   2.27307
 Alpha virt. eigenvalues --    2.27312   2.28476   2.28978   2.29817   2.39124
 Alpha virt. eigenvalues --    2.41620   2.44186   2.44464   2.48560   2.49570
 Alpha virt. eigenvalues --    2.51836   2.56315   2.56448   2.57038   2.60950
 Alpha virt. eigenvalues --    2.63429   2.64073   2.69469   2.72246   2.72368
 Alpha virt. eigenvalues --    2.73715   2.76410   2.81690   2.84068   2.86237
 Alpha virt. eigenvalues --    2.89551   2.99082   3.03535   4.00999   4.11394
 Alpha virt. eigenvalues --    4.18135   4.24904   4.29345   4.31122   4.31171
 Alpha virt. eigenvalues --    4.32388   4.33414   4.35458   4.58541   4.59031
 Alpha virt. eigenvalues --    4.60875   4.69516   4.74792
          Condensed to atoms (all electrons):
               1          2          3          4          5          6
     1  O    8.001226   0.594043  -0.081874   0.000678  -0.000037  -0.000001
     2  C    0.594043   4.479562   0.317541  -0.019536   0.002350   0.000084
     3  C   -0.081874   0.317541   5.378609   0.336489  -0.032284  -0.007286
     4  C    0.000678  -0.019536   0.336489   4.996066   0.379346  -0.052006
     5  C   -0.000037   0.002350  -0.032284   0.379346   4.754068   0.381748
     6  C   -0.000001   0.000084  -0.007286  -0.052006   0.381748   5.163798
     7  C   -0.000011   0.000161  -0.006246  -0.050459   0.380871  -0.063611
     8  C    0.000000  -0.000062   0.004312  -0.049909   0.382093  -0.063133
     9  C    0.000081  -0.013089  -0.046120   0.364821  -0.033119  -0.007645
    10  C    0.000678  -0.019536  -0.005087  -0.023900   0.003299   0.000195
    11  C   -0.000037   0.002350  -0.000127   0.003299  -0.000087   0.000003
    12  C    0.000000  -0.000062  -0.000002   0.000181   0.000005   0.000000
    13  C   -0.000001   0.000084  -0.000014   0.000195   0.000003  -0.000005
    14  C   -0.000011   0.000161  -0.000015  -0.000091   0.000001   0.000000
    15  C   -0.081874   0.317541  -0.136344  -0.005087  -0.000127  -0.000014
    16  H    0.006478  -0.023619   0.338459  -0.025137  -0.006323  -0.000105
    17  H    0.001438  -0.026578   0.340723  -0.035723  -0.007098   0.002736
    18  H    0.000551  -0.001586  -0.052935   0.366054  -0.041152   0.006227
    19  H    0.000000  -0.000005   0.000118  -0.005838  -0.028472   0.366812
    20  H    0.000001  -0.000003   0.001511  -0.005464  -0.029053   0.366132
    21  H    0.000000  -0.000000   0.000043   0.005301  -0.029315   0.367534
    22  H   -0.000000  -0.000003   0.000247   0.004906  -0.027991  -0.004322
    23  H    0.000002  -0.000045  -0.000940  -0.004996  -0.030094   0.005803
    24  H   -0.000003   0.000039   0.001525  -0.006224  -0.027164  -0.004956
    25  H   -0.000000   0.000001  -0.000120   0.004901  -0.028314  -0.004233
    26  H    0.000000  -0.000001   0.000034  -0.005665  -0.029575   0.005842
    27  H   -0.000000   0.000000  -0.000042  -0.005364  -0.027605  -0.004999
    28  H   -0.000010  -0.001294  -0.005782  -0.039965  -0.005534   0.002898
    29  H    0.000002   0.000320   0.004931  -0.033147  -0.005440  -0.000661
    30  H    0.000551  -0.001586   0.000016  -0.005890   0.000027   0.000002
    31  H    0.000000  -0.000001   0.000001  -0.000048   0.000000  -0.000000
    32  H   -0.000000   0.000001   0.000000  -0.000001  -0.000000   0.000000
    33  H   -0.000000   0.000000  -0.000001  -0.000052   0.000009   0.000001
    34  H    0.000001  -0.000003   0.000019  -0.000017   0.000000   0.000000
    35  H    0.000000  -0.000005   0.000004  -0.000019   0.000008  -0.000007
    36  H    0.000000  -0.000000   0.000000  -0.000002  -0.000000   0.000000
    37  H   -0.000003   0.000039  -0.000003  -0.000001  -0.000000   0.000000
    38  H   -0.000000  -0.000003   0.000000   0.000001  -0.000000   0.000000
    39  H    0.000002  -0.000045   0.000001  -0.000003   0.000000  -0.000000
    40  H    0.006478  -0.023620   0.006923  -0.000052   0.000011   0.000000
    41  H    0.001438  -0.026578   0.002923  -0.001313  -0.000009  -0.000004
               7          8          9         10         11         12
     1  O   -0.000011   0.000000   0.000081   0.000678  -0.000037   0.000000
     2  C    0.000161  -0.000062  -0.013089  -0.019536   0.002350  -0.000062
     3  C   -0.006246   0.004312  -0.046120  -0.005087  -0.000127  -0.000002
     4  C   -0.050459  -0.049909   0.364821  -0.023900   0.003299   0.000181
     5  C    0.380871   0.382093  -0.033119   0.003299  -0.000087   0.000005
     6  C   -0.063611  -0.063133  -0.007645   0.000195   0.000003   0.000000
     7  C    5.167024  -0.063357   0.004410  -0.000091   0.000001  -0.000000
     8  C   -0.063357   5.167164  -0.007636   0.000181   0.000005  -0.000018
     9  C    0.004410  -0.007636   5.131862   0.364821  -0.033119  -0.007636
    10  C   -0.000091   0.000181   0.364821   4.996067   0.379346  -0.049909
    11  C    0.000001   0.000005  -0.033119   0.379346   4.754068   0.382092
    12  C   -0.000000  -0.000018  -0.007636  -0.049909   0.382092   5.167165
    13  C    0.000000   0.000000  -0.007645  -0.052006   0.381748  -0.063133
    14  C   -0.000000  -0.000000   0.004410  -0.050459   0.380871  -0.063357
    15  C   -0.000015  -0.000002  -0.046120   0.336489  -0.032285   0.004312
    16  H    0.002756   0.000078   0.004539  -0.000052   0.000011  -0.000000
    17  H   -0.000762   0.000080  -0.005138  -0.001313  -0.000009  -0.000000
    18  H   -0.006378  -0.007174  -0.049340  -0.005890   0.000027  -0.000023
    19  H    0.005606  -0.004953   0.002130  -0.000019   0.000008  -0.000000
    20  H   -0.004507   0.005686  -0.000236  -0.000017   0.000000  -0.000000
    21  H   -0.005364  -0.004806   0.000108  -0.000002  -0.000000   0.000000
    22  H    0.364812  -0.006959  -0.000111   0.000001  -0.000000  -0.000000
    23  H    0.366303  -0.003835   0.000035  -0.000003   0.000000   0.000000
    24  H    0.367526   0.005624  -0.000037  -0.000001  -0.000000   0.000000
    25  H   -0.006771   0.365056   0.000241  -0.000001  -0.000000   0.000000
    26  H   -0.004142   0.366087  -0.000413  -0.000048   0.000000   0.000001
    27  H    0.005741   0.364848   0.000173  -0.000052   0.000009  -0.000032
    28  H    0.000017  -0.000229   0.365070  -0.039965  -0.005533  -0.000229
    29  H    0.000084   0.003556   0.362691  -0.033147  -0.005440   0.003556
    30  H   -0.000006  -0.000023  -0.049340   0.366054  -0.041152  -0.007174
    31  H   -0.000000   0.000001  -0.000413  -0.005665  -0.029575   0.366087
    32  H    0.000000   0.000000   0.000241   0.004901  -0.028315   0.365055
    33  H   -0.000000  -0.000032   0.000173  -0.005364  -0.027605   0.364848
    34  H   -0.000000  -0.000000  -0.000236  -0.005464  -0.029053   0.005686
    35  H   -0.000000  -0.000000   0.002130  -0.005838  -0.028472  -0.004954
    36  H    0.000000   0.000000   0.000108   0.005301  -0.029315  -0.004806
    37  H   -0.000000   0.000000  -0.000037  -0.006224  -0.027164   0.005624
    38  H    0.000000  -0.000000  -0.000111   0.004906  -0.027991  -0.006959
    39  H   -0.000000   0.000000   0.000035  -0.004996  -0.030094  -0.003835
    40  H   -0.000000  -0.000000   0.004539  -0.025137  -0.006323   0.000078
    41  H    0.000000  -0.000000  -0.005138  -0.035723  -0.007098   0.000080
              13         14         15         16         17         18
     1  O   -0.000001  -0.000011  -0.081874   0.006478   0.001438   0.000551
     2  C    0.000084   0.000161   0.317541  -0.023619  -0.026578  -0.001586
     3  C   -0.000014  -0.000015  -0.136344   0.338459   0.340723  -0.052935
     4  C    0.000195  -0.000091  -0.005087  -0.025137  -0.035723   0.366054
     5  C    0.000003   0.000001  -0.000127  -0.006323  -0.007098  -0.041152
     6  C   -0.000005   0.000000  -0.000014  -0.000105   0.002736   0.006227
     7  C    0.000000  -0.000000  -0.000015   0.002756  -0.000762  -0.006378
     8  C    0.000000  -0.000000  -0.000002   0.000078   0.000080  -0.007174
     9  C   -0.007645   0.004410  -0.046120   0.004539  -0.005138  -0.049340
    10  C   -0.052006  -0.050459   0.336489  -0.000052  -0.001313  -0.005890
    11  C    0.381748   0.380871  -0.032285   0.000011  -0.000009   0.000027
    12  C   -0.063133  -0.063357   0.004312  -0.000000  -0.000000  -0.000023
    13  C    5.163798  -0.063611  -0.007286   0.000000  -0.000004   0.000002
    14  C   -0.063611   5.167025  -0.006246  -0.000000   0.000000  -0.000006
    15  C   -0.007286  -0.006246   5.378609   0.006923   0.002923   0.000016
    16  H    0.000000  -0.000000   0.006923   0.558815  -0.027397  -0.003327
    17  H   -0.000004   0.000000   0.002923  -0.027397   0.588974   0.006465
    18  H    0.000002  -0.000006   0.000016  -0.003327   0.006465   0.645187
    19  H   -0.000007  -0.000000   0.000004   0.000010   0.000013  -0.000028
    20  H    0.000000  -0.000000   0.000019   0.000157   0.004325  -0.000031
    21  H    0.000000   0.000000   0.000000  -0.000019  -0.000138  -0.000149
    22  H    0.000000   0.000000   0.000000  -0.000081  -0.000043  -0.000098
    23  H   -0.000000  -0.000000   0.000001   0.000857   0.000120   0.005591
    24  H    0.000000  -0.000000  -0.000003   0.002253   0.000344  -0.000100
    25  H    0.000000   0.000000   0.000000  -0.000004   0.000000  -0.000052
    26  H   -0.000000  -0.000000   0.000001  -0.000008   0.000004   0.006258
    27  H    0.000001  -0.000000  -0.000001  -0.000001  -0.000001  -0.000070
    28  H    0.002898   0.000017  -0.005782  -0.000002   0.005056   0.006310
    29  H   -0.000661   0.000084   0.004931  -0.000149  -0.000010  -0.003690
    30  H    0.006227  -0.006378  -0.052935  -0.000057   0.000112   0.006754
    31  H    0.005842  -0.004142   0.000034  -0.000000  -0.000000   0.000009
    32  H   -0.004233  -0.006771  -0.000120   0.000000  -0.000000  -0.000000
    33  H   -0.004999   0.005741  -0.000042  -0.000000   0.000000   0.000012
    34  H    0.366132  -0.004507   0.001511  -0.000000  -0.000007  -0.000001
    35  H    0.366812   0.005606   0.000118  -0.000000  -0.000003  -0.000001
    36  H    0.367534  -0.005364   0.000043   0.000000   0.000000   0.000000
    37  H   -0.004956   0.367526   0.001525  -0.000000   0.000000   0.000000
    38  H   -0.004322   0.364812   0.000247   0.000000  -0.000000   0.000000
    39  H    0.005803   0.366303  -0.000940  -0.000000  -0.000000  -0.000000
    40  H   -0.000105   0.002756   0.338459  -0.000195  -0.000146  -0.000057
    41  H    0.002736  -0.000762   0.340722  -0.000146   0.001305   0.000112
              19         20         21         22         23         24
     1  O    0.000000   0.000001   0.000000  -0.000000   0.000002  -0.000003
     2  C   -0.000005  -0.000003  -0.000000  -0.000003  -0.000045   0.000039
     3  C    0.000118   0.001511   0.000043   0.000247  -0.000940   0.001525
     4  C   -0.005838  -0.005464   0.005301   0.004906  -0.004996  -0.006224
     5  C   -0.028472  -0.029053  -0.029315  -0.027991  -0.030094  -0.027164
     6  C    0.366812   0.366132   0.367534  -0.004322   0.005803  -0.004956
     7  C    0.005606  -0.004507  -0.005364   0.364812   0.366303   0.367526
     8  C   -0.004953   0.005686  -0.004806  -0.006959  -0.003835   0.005624
     9  C    0.002130  -0.000236   0.000108  -0.000111   0.000035  -0.000037
    10  C   -0.000019  -0.000017  -0.000002   0.000001  -0.000003  -0.000001
    11  C    0.000008   0.000000  -0.000000  -0.000000   0.000000  -0.000000
    12  C   -0.000000  -0.000000   0.000000  -0.000000   0.000000   0.000000
    13  C   -0.000007   0.000000   0.000000   0.000000  -0.000000   0.000000
    14  C   -0.000000  -0.000000   0.000000   0.000000  -0.000000  -0.000000
    15  C    0.000004   0.000019   0.000000   0.000000   0.000001  -0.000003
    16  H    0.000010   0.000157  -0.000019  -0.000081   0.000857   0.002253
    17  H    0.000013   0.004325  -0.000138  -0.000043   0.000120   0.000344
    18  H   -0.000028  -0.000031  -0.000149  -0.000098   0.005591  -0.000100
    19  H    0.576548  -0.031230  -0.030489  -0.000083  -0.000190  -0.000009
    20  H   -0.031230   0.577658  -0.030366  -0.000176  -0.000047   0.003754
    21  H   -0.030489  -0.030366   0.578105   0.004027  -0.000027  -0.000110
    22  H   -0.000083  -0.000176   0.004027   0.581532  -0.030054  -0.030328
    23  H   -0.000190  -0.000047  -0.000027  -0.030054   0.577411  -0.031003
    24  H   -0.000009   0.003754  -0.000110  -0.030328  -0.031003   0.571905
    25  H   -0.000151  -0.000080   0.003830   0.005373  -0.000117   0.000017
    26  H   -0.000026  -0.000191  -0.000048  -0.000116   0.003371  -0.000065
    27  H    0.003954  -0.000026  -0.000135   0.000030  -0.000072  -0.000196
    28  H    0.002821   0.000145  -0.000064   0.000001   0.000003  -0.000003
    29  H    0.000352   0.000063  -0.000039  -0.000003  -0.000007  -0.000001
    30  H   -0.000001  -0.000001   0.000000   0.000000  -0.000000   0.000000
    31  H   -0.000000  -0.000000   0.000000   0.000000  -0.000000   0.000000
    32  H    0.000000   0.000000  -0.000000  -0.000000   0.000000   0.000000
    33  H    0.000004  -0.000000   0.000000   0.000000   0.000000  -0.000000
    34  H   -0.000000   0.000000  -0.000000   0.000000  -0.000000   0.000000
    35  H    0.000022  -0.000000  -0.000000   0.000000  -0.000000   0.000000
    36  H   -0.000000  -0.000000   0.000000  -0.000000   0.000000   0.000000
    37  H    0.000000   0.000000   0.000000   0.000000  -0.000000  -0.000000
    38  H    0.000000   0.000000  -0.000000  -0.000000   0.000000   0.000000
    39  H   -0.000000  -0.000000   0.000000   0.000000  -0.000000  -0.000000
    40  H   -0.000000  -0.000000   0.000000   0.000000  -0.000000  -0.000000
    41  H   -0.000003  -0.000007   0.000000  -0.000000  -0.000000   0.000000
              25         26         27         28         29         30
     1  O   -0.000000   0.000000  -0.000000  -0.000010   0.000002   0.000551
     2  C    0.000001  -0.000001   0.000000  -0.001294   0.000320  -0.001586
     3  C   -0.000120   0.000034  -0.000042  -0.005782   0.004931   0.000016
     4  C    0.004901  -0.005665  -0.005364  -0.039965  -0.033147  -0.005890
     5  C   -0.028314  -0.029575  -0.027605  -0.005534  -0.005440   0.000027
     6  C   -0.004233   0.005842  -0.004999   0.002898  -0.000661   0.000002
     7  C   -0.006771  -0.004142   0.005741   0.000017   0.000084  -0.000006
     8  C    0.365056   0.366087   0.364848  -0.000229   0.003556  -0.000023
     9  C    0.000241  -0.000413   0.000173   0.365070   0.362691  -0.049340
    10  C   -0.000001  -0.000048  -0.000052  -0.039965  -0.033147   0.366054
    11  C   -0.000000   0.000000   0.000009  -0.005533  -0.005440  -0.041152
    12  C    0.000000   0.000001  -0.000032  -0.000229   0.003556  -0.007174
    13  C    0.000000  -0.000000   0.000001   0.002898  -0.000661   0.006227
    14  C    0.000000  -0.000000  -0.000000   0.000017   0.000084  -0.006378
    15  C    0.000000   0.000001  -0.000001  -0.005782   0.004931  -0.052935
    16  H   -0.000004  -0.000008  -0.000001  -0.000002  -0.000149  -0.000057
    17  H    0.000000   0.000004  -0.000001   0.005056  -0.000010   0.000112
    18  H   -0.000052   0.006258  -0.000070   0.006310  -0.003690   0.006754
    19  H   -0.000151  -0.000026   0.003954   0.002821   0.000352  -0.000001
    20  H   -0.000080  -0.000191  -0.000026   0.000145   0.000063  -0.000001
    21  H    0.003830  -0.000048  -0.000135  -0.000064  -0.000039   0.000000
    22  H    0.005373  -0.000116   0.000030   0.000001  -0.000003   0.000000
    23  H   -0.000117   0.003371  -0.000072   0.000003  -0.000007  -0.000000
    24  H    0.000017  -0.000065  -0.000196  -0.000003  -0.000001   0.000000
    25  H    0.579923  -0.030035  -0.029994  -0.000025  -0.000166  -0.000000
    26  H   -0.030035   0.579797  -0.031434   0.000049   0.000432   0.000009
    27  H   -0.029994  -0.031434   0.576998   0.000257   0.004639   0.000012
    28  H   -0.000025   0.000049   0.000257   0.606721  -0.037365   0.006310
    29  H   -0.000166   0.000432   0.004639  -0.037365   0.588262  -0.003690
    30  H   -0.000000   0.000009   0.000012   0.006310  -0.003690   0.645187
    31  H   -0.000000   0.000001  -0.000002   0.000049   0.000432   0.006258
    32  H    0.000000  -0.000000   0.000000  -0.000025  -0.000166  -0.000052
    33  H    0.000000  -0.000002   0.000076   0.000257   0.004640  -0.000070
    34  H    0.000000  -0.000000  -0.000000   0.000145   0.000063  -0.000031
    35  H    0.000000  -0.000000   0.000004   0.002821   0.000352  -0.000028
    36  H   -0.000000   0.000000   0.000000  -0.000064  -0.000039  -0.000149
    37  H    0.000000   0.000000  -0.000000  -0.000003  -0.000001  -0.000100
    38  H   -0.000000   0.000000   0.000000   0.000001  -0.000003  -0.000098
    39  H    0.000000  -0.000000   0.000000   0.000003  -0.000007   0.005591
    40  H    0.000000  -0.000000  -0.000000  -0.000002  -0.000149  -0.003327
    41  H   -0.000000  -0.000000   0.000000   0.005056  -0.000010   0.006465
              31         32         33         34         35         36
     1  O    0.000000  -0.000000  -0.000000   0.000001   0.000000   0.000000
     2  C   -0.000001   0.000001   0.000000  -0.000003  -0.000005  -0.000000
     3  C    0.000001   0.000000  -0.000001   0.000019   0.000004   0.000000
     4  C   -0.000048  -0.000001  -0.000052  -0.000017  -0.000019  -0.000002
     5  C    0.000000  -0.000000   0.000009   0.000000   0.000008  -0.000000
     6  C   -0.000000   0.000000   0.000001   0.000000  -0.000007   0.000000
     7  C   -0.000000   0.000000  -0.000000  -0.000000  -0.000000   0.000000
     8  C    0.000001   0.000000  -0.000032  -0.000000  -0.000000   0.000000
     9  C   -0.000413   0.000241   0.000173  -0.000236   0.002130   0.000108
    10  C   -0.005665   0.004901  -0.005364  -0.005464  -0.005838   0.005301
    11  C   -0.029575  -0.028315  -0.027605  -0.029053  -0.028472  -0.029315
    12  C    0.366087   0.365055   0.364848   0.005686  -0.004954  -0.004806
    13  C    0.005842  -0.004233  -0.004999   0.366132   0.366812   0.367534
    14  C   -0.004142  -0.006771   0.005741  -0.004507   0.005606  -0.005364
    15  C    0.000034  -0.000120  -0.000042   0.001511   0.000118   0.000043
    16  H   -0.000000   0.000000  -0.000000  -0.000000  -0.000000   0.000000
    17  H   -0.000000  -0.000000   0.000000  -0.000007  -0.000003   0.000000
    18  H    0.000009  -0.000000   0.000012  -0.000001  -0.000001   0.000000
    19  H   -0.000000   0.000000   0.000004  -0.000000   0.000022  -0.000000
    20  H   -0.000000   0.000000  -0.000000   0.000000  -0.000000  -0.000000
    21  H    0.000000  -0.000000   0.000000  -0.000000  -0.000000   0.000000
    22  H    0.000000  -0.000000   0.000000   0.000000   0.000000  -0.000000
    23  H   -0.000000   0.000000   0.000000  -0.000000  -0.000000   0.000000
    24  H    0.000000   0.000000  -0.000000   0.000000   0.000000   0.000000
    25  H   -0.000000   0.000000   0.000000   0.000000   0.000000  -0.000000
    26  H    0.000001  -0.000000  -0.000002  -0.000000  -0.000000   0.000000
    27  H   -0.000002   0.000000   0.000076  -0.000000   0.000004   0.000000
    28  H    0.000049  -0.000025   0.000257   0.000145   0.002821  -0.000064
    29  H    0.000432  -0.000166   0.004640   0.000063   0.000352  -0.000039
    30  H    0.006258  -0.000052  -0.000070  -0.000031  -0.000028  -0.000149
    31  H    0.579797  -0.030035  -0.031434  -0.000191  -0.000026  -0.000048
    32  H   -0.030035   0.579924  -0.029994  -0.000080  -0.000151   0.003830
    33  H   -0.031434  -0.029994   0.576998  -0.000026   0.003954  -0.000135
    34  H   -0.000191  -0.000080  -0.000026   0.577658  -0.031230  -0.030366
    35  H   -0.000026  -0.000151   0.003954  -0.031230   0.576548  -0.030489
    36  H   -0.000048   0.003830  -0.000135  -0.030366  -0.030489   0.578105
    37  H   -0.000065   0.000017  -0.000196   0.003754  -0.000009  -0.000110
    38  H   -0.000116   0.005373   0.000030  -0.000176  -0.000083   0.004027
    39  H    0.003371  -0.000117  -0.000072  -0.000047  -0.000190  -0.000027
    40  H   -0.000008  -0.000004  -0.000001   0.000157   0.000010  -0.000019
    41  H    0.000004   0.000000  -0.000001   0.004325   0.000013  -0.000138
              37         38         39         40         41
     1  O   -0.000003  -0.000000   0.000002   0.006478   0.001438
     2  C    0.000039  -0.000003  -0.000045  -0.023620  -0.026578
     3  C   -0.000003   0.000000   0.000001   0.006923   0.002923
     4  C   -0.000001   0.000001  -0.000003  -0.000052  -0.001313
     5  C   -0.000000  -0.000000   0.000000   0.000011  -0.000009
     6  C    0.000000   0.000000  -0.000000   0.000000  -0.000004
     7  C   -0.000000   0.000000  -0.000000  -0.000000   0.000000
     8  C    0.000000  -0.000000   0.000000  -0.000000  -0.000000
     9  C   -0.000037  -0.000111   0.000035   0.004539  -0.005138
    10  C   -0.006224   0.004906  -0.004996  -0.025137  -0.035723
    11  C   -0.027164  -0.027991  -0.030094  -0.006323  -0.007098
    12  C    0.005624  -0.006959  -0.003835   0.000078   0.000080
    13  C   -0.004956  -0.004322   0.005803  -0.000105   0.002736
    14  C    0.367526   0.364812   0.366303   0.002756  -0.000762
    15  C    0.001525   0.000247  -0.000940   0.338459   0.340722
    16  H   -0.000000   0.000000  -0.000000  -0.000195  -0.000146
    17  H    0.000000  -0.000000  -0.000000  -0.000146   0.001305
    18  H    0.000000   0.000000  -0.000000  -0.000057   0.000112
    19  H    0.000000   0.000000  -0.000000  -0.000000  -0.000003
    20  H    0.000000   0.000000  -0.000000  -0.000000  -0.000007
    21  H    0.000000  -0.000000   0.000000   0.000000   0.000000
    22  H    0.000000  -0.000000   0.000000   0.000000  -0.000000
    23  H   -0.000000   0.000000  -0.000000  -0.000000  -0.000000
    24  H   -0.000000   0.000000  -0.000000  -0.000000   0.000000
    25  H    0.000000  -0.000000   0.000000   0.000000  -0.000000
    26  H    0.000000   0.000000  -0.000000  -0.000000  -0.000000
    27  H   -0.000000   0.000000   0.000000  -0.000000   0.000000
    28  H   -0.000003   0.000001   0.000003  -0.000002   0.005056
    29  H   -0.000001  -0.000003  -0.000007  -0.000149  -0.000010
    30  H   -0.000100  -0.000098   0.005591  -0.003327   0.006465
    31  H   -0.000065  -0.000116   0.003371  -0.000008   0.000004
    32  H    0.000017   0.005373  -0.000117  -0.000004   0.000000
    33  H   -0.000196   0.000030  -0.000072  -0.000001  -0.000001
    34  H    0.003754  -0.000176  -0.000047   0.000157   0.004325
    35  H   -0.000009  -0.000083  -0.000190   0.000010   0.000013
    36  H   -0.000110   0.004027  -0.000027  -0.000019  -0.000138
    37  H    0.571906  -0.030328  -0.031003   0.002253   0.000344
    38  H   -0.030328   0.581532  -0.030054  -0.000081  -0.000043
    39  H   -0.031003  -0.030054   0.577410   0.000857   0.000120
    40  H    0.002253  -0.000081   0.000857   0.558815  -0.027397
    41  H    0.000344  -0.000043   0.000120  -0.027397   0.588975
 Mulliken charges:
               1
     1  O   -0.449786
     2  C    0.442983
     3  C   -0.359208
     4  C   -0.086332
     5  C    0.104956
     6  C   -0.456829
     7  C   -0.453591
     8  C   -0.452641
     9  C   -0.299941
    10  C   -0.086332
    11  C    0.104957
    12  C   -0.452641
    13  C   -0.456829
    14  C   -0.453591
    15  C   -0.359208
    16  H    0.165283
    17  H    0.149754
    18  H    0.122512
    19  H    0.143102
    20  H    0.141984
    21  H    0.142125
    22  H    0.139437
    23  H    0.141934
    24  H    0.147214
    25  H    0.140721
    26  H    0.139882
    27  H    0.143285
    28  H    0.134971
    29  H    0.144599
    30  H    0.122512
    31  H    0.139882
    32  H    0.140720
    33  H    0.143285
    34  H    0.141985
    35  H    0.143102
    36  H    0.142125
    37  H    0.147214
    38  H    0.139437
    39  H    0.141934
    40  H    0.165283
    41  H    0.149754
 Sum of Mulliken charges =  -0.00000
 Mulliken charges with hydrogens summed into heavy atoms:
               1
     1  O   -0.449786
     2  C    0.442983
     3  C   -0.044171
     4  C    0.036179
     5  C    0.104956
     6  C   -0.029617
     7  C   -0.025007
     8  C   -0.028754
     9  C   -0.020371
    10  C    0.036179
    11  C    0.104957
    12  C   -0.028754
    13  C   -0.029617
    14  C   -0.025007
    15  C   -0.044171
 APT charges:
               1
     1  O   -0.680689
     2  C    0.806625
     3  C   -0.117158
     4  C    0.129560
     5  C    0.133085
     6  C    0.025850
     7  C    0.036875
     8  C    0.033372
     9  C    0.007447
    10  C    0.129560
    11  C    0.133084
    12  C    0.033373
    13  C    0.025851
    14  C    0.036875
    15  C   -0.117158
    16  H   -0.014187
    17  H    0.001692
    18  H   -0.063669
    19  H   -0.019956
    20  H   -0.018766
    21  H   -0.027240
    22  H   -0.034620
    23  H   -0.020945
    24  H   -0.016068
    25  H   -0.033995
    26  H   -0.021254
    27  H   -0.019718
    28  H   -0.024991
    29  H   -0.014110
    30  H   -0.063669
    31  H   -0.021254
    32  H   -0.033995
    33  H   -0.019718
    34  H   -0.018765
    35  H   -0.019956
    36  H   -0.027240
    37  H   -0.016068
    38  H   -0.034620
    39  H   -0.020944
    40  H   -0.014187
    41  H    0.001691
 Sum of APT charges =   0.00000
 APT charges with hydrogens summed into heavy atoms:
               1
     1  O   -0.680689
     2  C    0.806625
     3  C   -0.129653
     4  C    0.065891
     5  C    0.133085
     6  C   -0.040111
     7  C   -0.034757
     8  C   -0.041594
     9  C   -0.031653
    10  C    0.065891
    11  C    0.133084
    12  C   -0.041594
    13  C   -0.040111
    14  C   -0.034757
    15  C   -0.129653
 Electronic spatial extent (au):  <R**2>=           4005.5250
 Charge=             -0.0000 electrons
 Dipole moment (field-independent basis, Debye):
    X=             -0.0000    Y=             -3.0681    Z=              0.9180  Tot=              3.2025
 Quadrupole moment (field-independent basis, Debye-Ang):
   XX=            -93.0903   YY=           -110.6200   ZZ=            -95.6162
   XY=             -0.0000   XZ=             -0.0000   YZ=              3.3655
 Traceless Quadrupole moment (field-independent basis, Debye-Ang):
   XX=              6.6852   YY=            -10.8445   ZZ=              4.1593
   XY=             -0.0000   XZ=             -0.0000   YZ=              3.3655
 Octapole moment (field-independent basis, Debye-Ang**2):
  XXX=              0.0000  YYY=            -44.9895  ZZZ=             -3.7767  XYY=              0.0000
  XXY=              2.5558  XXZ=              0.5354  XZZ=             -0.0000  YZZ=              7.3039
  YYZ=             12.6888  XYZ=              0.0000
 Hexadecapole moment (field-independent basis, Debye-Ang**3):
 XXXX=          -3473.8422 YYYY=          -1652.9388 ZZZZ=           -513.1009 XXXY=             -0.0002
 XXXZ=             -0.0000 YYYX=             -0.0001 YYYZ=             28.6776 ZZZX=             -0.0000
 ZZZY=             -1.2832 XXYY=           -806.9197 XXZZ=           -678.5273 YYZZ=           -327.8485
 XXYZ=             -0.4520 YYXZ=             -0.0000 ZZXY=              0.0000
 N-N= 1.103536341333D+03 E-N=-3.652720433367D+03  KE= 6.182609168174D+02
  Exact polarizability: 166.230   0.000 147.802   0.000  -1.967 124.772
 Approx polarizability: 203.636   0.000 216.047  -0.000  -8.318 196.507
 Calling FoFJK, ICntrl=    100127 FMM=F ISym2X=0 I1Cent= 0 IOpClX= 0 NMat=1 NMatS=1 NMatT=0.
 Full mass-weighted force constant matrix:
 Low frequencies ---   -0.0008    0.0003    0.0009    4.7135    8.3323   11.4285
 Low frequencies ---   33.2398   35.7472   79.9902
 Diagonal vibrational polarizability:
       10.5712817       6.0005182      16.8896817
 Harmonic frequencies (cm**-1), IR intensities (KM/Mole), Raman scattering
 activities (A**4/AMU), depolarization ratios for plane and unpolarized
 incident light, reduced masses (AMU), force constants (mDyne/A),
 and normal coordinates:
                      1                      2                      3
                      A                      A                      A
 Frequencies --     33.2247                35.7385                79.9902
 Red. masses --      2.5298                 2.7705                 4.9871
 Frc consts  --      0.0016                 0.0021                 0.0188
 IR Inten    --      0.0028                 0.2643                 2.7608
  Atom  AN      X      Y      Z        X      Y      Z        X      Y      Z
     1   8    -0.01   0.00   0.00    -0.00  -0.02  -0.13    -0.00   0.21   0.33
     2   6    -0.00  -0.00   0.00    -0.00   0.00  -0.08    -0.00   0.06  -0.04
     3   6    -0.00   0.00  -0.01     0.00   0.02  -0.05     0.02   0.02  -0.20
     4   6     0.00  -0.01   0.01     0.00  -0.00  -0.01    -0.00  -0.03  -0.09
     5   6     0.00   0.00   0.03    -0.01  -0.00   0.03    -0.02  -0.03  -0.00
     6   6     0.06   0.14   0.05    -0.11  -0.10   0.02    -0.10   0.01   0.02
     7   6    -0.01  -0.05  -0.10     0.02   0.03   0.17     0.02  -0.07   0.04
     8   6    -0.04  -0.08   0.15     0.06   0.05  -0.06     0.01  -0.06   0.05
     9   6    -0.00  -0.00  -0.00    -0.00   0.02   0.01     0.00   0.02  -0.01
    10   6     0.00   0.01  -0.01    -0.00  -0.00  -0.01     0.00  -0.03  -0.09
    11   6     0.00  -0.00  -0.03     0.01  -0.00   0.03     0.02  -0.03  -0.00
    12   6    -0.04   0.08  -0.15    -0.06   0.05  -0.06    -0.01  -0.06   0.05
    13   6     0.06  -0.14  -0.05     0.11  -0.10   0.02     0.10   0.01   0.02
    14   6    -0.01   0.05   0.10    -0.02   0.03   0.17    -0.02  -0.07   0.04
    15   6    -0.00  -0.00   0.01    -0.00   0.02  -0.05    -0.02   0.02  -0.20
    16   1    -0.00  -0.00  -0.01    -0.00   0.01  -0.07    -0.02   0.01  -0.31
    17   1    -0.00   0.01  -0.01     0.00   0.05  -0.05     0.14   0.10  -0.20
    18   1     0.01  -0.02   0.00     0.01  -0.03  -0.01     0.00  -0.12  -0.10
    19   1     0.04   0.22   0.16    -0.09  -0.18  -0.10    -0.11   0.01  -0.01
    20   1     0.15   0.20  -0.04    -0.22  -0.14   0.09    -0.15   0.03   0.00
    21   1     0.04   0.09   0.05    -0.08  -0.05   0.06    -0.10   0.04   0.09
    22   1    -0.01  -0.04  -0.06     0.02   0.02   0.16     0.01  -0.08   0.10
    23   1    -0.04  -0.17  -0.14     0.08   0.13   0.19     0.08  -0.10   0.02
    24   1    -0.00   0.03  -0.21    -0.00  -0.03   0.26    -0.00  -0.05   0.01
    25   1    -0.02  -0.04   0.11     0.03   0.02   0.02    -0.02  -0.09   0.14
    26   1    -0.14  -0.18   0.15     0.20   0.13  -0.07     0.10  -0.10   0.03
    27   1     0.01  -0.06   0.29    -0.01   0.05  -0.21    -0.04  -0.03   0.01
    28   1    -0.01  -0.00  -0.00    -0.00   0.06   0.02     0.00   0.15   0.00
    29   1    -0.01   0.00  -0.00    -0.00  -0.00   0.06    -0.00  -0.03   0.10
    30   1     0.01   0.02  -0.00    -0.01  -0.03  -0.01    -0.00  -0.12  -0.10
    31   1    -0.14   0.18  -0.14    -0.20   0.13  -0.07    -0.10  -0.10   0.03
    32   1    -0.02   0.04  -0.11    -0.03   0.02   0.02     0.02  -0.09   0.14
    33   1     0.01   0.06  -0.29     0.01   0.05  -0.21     0.04  -0.03   0.01
    34   1     0.15  -0.20   0.04     0.22  -0.14   0.09     0.15   0.03   0.00
    35   1     0.04  -0.22  -0.16     0.09  -0.18  -0.10     0.11   0.01  -0.01
    36   1     0.04  -0.09  -0.05     0.08  -0.05   0.06     0.10   0.04   0.09
    37   1    -0.00  -0.03   0.21     0.00  -0.03   0.26     0.00  -0.05   0.01
    38   1    -0.01   0.04   0.06    -0.02   0.02   0.16    -0.01  -0.08   0.10
    39   1    -0.04   0.17   0.14    -0.08   0.13   0.19    -0.08  -0.10   0.02
    40   1    -0.00   0.00   0.01     0.00   0.01  -0.07     0.02   0.01  -0.31
    41   1    -0.00  -0.01   0.01    -0.00   0.05  -0.05    -0.14   0.10  -0.20
                      4                      5                      6
                      A                      A                      A
 Frequencies --     88.7681               104.9977               125.9691
 Red. masses --      2.6941                 2.5180                 3.0293
 Frc consts  --      0.0125                 0.0164                 0.0283
 IR Inten    --      1.0391                 0.0764                 0.1771
  Atom  AN      X      Y      Z        X      Y      Z        X      Y      Z
     1   8    -0.13  -0.00  -0.00     0.00   0.03  -0.01     0.00  -0.02   0.06
     2   6    -0.02  -0.00   0.00     0.00   0.03  -0.03     0.00  -0.06  -0.02
     3   6     0.05   0.04  -0.21     0.02   0.04  -0.05    -0.01  -0.06  -0.05
     4   6     0.01  -0.03  -0.07    -0.03  -0.02   0.08    -0.00  -0.08   0.00
     5   6     0.00  -0.02  -0.00    -0.02  -0.02  -0.01     0.06   0.02   0.00
     6   6    -0.06   0.01   0.01     0.05  -0.06  -0.03     0.11   0.04   0.00
     7   6     0.03  -0.03   0.04    -0.04  -0.01  -0.05    -0.01   0.13  -0.01
     8   6     0.04  -0.04   0.03    -0.07   0.01  -0.05     0.18   0.02   0.01
     9   6     0.02  -0.00   0.00    -0.00   0.05   0.27    -0.00  -0.09   0.05
    10   6     0.01   0.03   0.07     0.03  -0.02   0.08     0.00  -0.08   0.00
    11   6     0.00   0.02   0.00     0.02  -0.02  -0.01    -0.06   0.02   0.00
    12   6     0.04   0.04  -0.03     0.07   0.01  -0.05    -0.18   0.02   0.01
    13   6    -0.06  -0.01  -0.01    -0.05  -0.06  -0.03    -0.11   0.04   0.00
    14   6     0.03   0.03  -0.04     0.04  -0.01  -0.05     0.01   0.13  -0.01
    15   6     0.05  -0.04   0.21    -0.02   0.04  -0.05     0.01  -0.06  -0.05
    16   1    -0.03   0.03  -0.41    -0.01   0.01  -0.15    -0.02  -0.07  -0.09
    17   1     0.26   0.15  -0.22     0.09   0.13  -0.04     0.03  -0.02  -0.05
    18   1    -0.00  -0.12  -0.08    -0.14  -0.11   0.07    -0.03  -0.13  -0.00
    19   1    -0.04  -0.03  -0.02     0.10  -0.11  -0.03     0.19  -0.06  -0.00
    20   1    -0.14   0.02   0.01     0.03  -0.08   0.00    -0.01   0.05   0.00
    21   1    -0.04   0.07   0.07     0.08  -0.02  -0.08     0.17   0.17   0.00
    22   1     0.02  -0.04   0.08    -0.05  -0.02  -0.15     0.03   0.17  -0.11
    23   1     0.07  -0.04   0.03    -0.12   0.06  -0.02    -0.09   0.20   0.02
    24   1     0.01  -0.03   0.04     0.01  -0.04  -0.01    -0.02   0.09   0.05
    25   1     0.02  -0.06   0.12    -0.09  -0.03  -0.07     0.19   0.04   0.10
    26   1     0.14  -0.06   0.01    -0.05   0.06  -0.04     0.28   0.01  -0.01
    27   1    -0.01  -0.01  -0.02    -0.10   0.03  -0.08     0.17  -0.00  -0.07
    28   1     0.06  -0.00   0.00    -0.00   0.30   0.30    -0.00  -0.05   0.05
    29   1    -0.01  -0.00   0.00     0.00  -0.05   0.50    -0.00  -0.11   0.09
    30   1    -0.00   0.12   0.08     0.14  -0.11   0.07     0.03  -0.13  -0.00
    31   1     0.14   0.06  -0.01     0.05   0.06  -0.04    -0.28   0.01  -0.01
    32   1     0.02   0.06  -0.12     0.09  -0.03  -0.07    -0.19   0.04   0.10
    33   1    -0.01   0.01   0.02     0.10   0.03  -0.08    -0.17  -0.00  -0.07
    34   1    -0.14  -0.02  -0.01    -0.03  -0.08   0.00     0.01   0.05   0.00
    35   1    -0.04   0.03   0.02    -0.10  -0.11  -0.03    -0.19  -0.06  -0.00
    36   1    -0.04  -0.07  -0.07    -0.08  -0.02  -0.08    -0.17   0.17   0.00
    37   1     0.01   0.03  -0.04    -0.01  -0.04  -0.01     0.02   0.09   0.05
    38   1     0.02   0.04  -0.08     0.05  -0.02  -0.15    -0.03   0.17  -0.11
    39   1     0.07   0.04  -0.03     0.12   0.06  -0.02     0.09   0.20   0.02
    40   1    -0.03  -0.03   0.41     0.01   0.01  -0.15     0.02  -0.07  -0.09
    41   1     0.26  -0.15   0.22    -0.09   0.13  -0.04    -0.03  -0.02  -0.05
                      7                      8                      9
                      A                      A                      A
 Frequencies --    198.2201               226.8922               243.0715
 Red. masses --      1.6407                 1.2318                 1.6069
 Frc consts  --      0.0380                 0.0374                 0.0559
 IR Inten    --      0.4424                 0.0229                 0.5706
  Atom  AN      X      Y      Z        X      Y      Z        X      Y      Z
     1   8     0.11  -0.00  -0.00    -0.00  -0.01  -0.00    -0.06   0.00   0.00
     2   6     0.04   0.00   0.00    -0.00  -0.00   0.02    -0.01  -0.00  -0.00
     3   6     0.00  -0.05  -0.01    -0.01  -0.01   0.03     0.01   0.02  -0.02
     4   6    -0.03  -0.04  -0.02    -0.01   0.01  -0.01     0.01  -0.01   0.04
     5   6    -0.02  -0.00  -0.01    -0.03  -0.00  -0.01     0.01  -0.02   0.04
     6   6    -0.02   0.04   0.00    -0.05   0.03   0.00     0.10  -0.07   0.02
     7   6    -0.06   0.05  -0.03    -0.04  -0.00  -0.04    -0.04   0.03   0.02
     8   6     0.06  -0.03   0.03    -0.02  -0.02   0.02    -0.04  -0.02   0.03
     9   6    -0.04   0.00  -0.00     0.00   0.00  -0.02    -0.01  -0.00  -0.00
    10   6    -0.03   0.04   0.02     0.01   0.01  -0.01     0.01   0.01  -0.04
    11   6    -0.02   0.00   0.01     0.03  -0.00  -0.01     0.01   0.02  -0.04
    12   6     0.06   0.03  -0.03     0.02  -0.02   0.02    -0.04   0.02  -0.03
    13   6    -0.02  -0.04  -0.00     0.05   0.03   0.00     0.10   0.07  -0.02
    14   6    -0.06  -0.05   0.03     0.04  -0.00  -0.04    -0.04  -0.03  -0.02
    15   6     0.00   0.05   0.01     0.01  -0.01   0.03     0.01  -0.02   0.02
    16   1     0.02  -0.07   0.01     0.01  -0.01   0.06    -0.01   0.01  -0.08
    17   1    -0.01  -0.07  -0.01    -0.03  -0.04   0.03     0.06   0.08  -0.02
    18   1    -0.04  -0.04  -0.02    -0.01   0.03  -0.00     0.04  -0.04   0.04
    19   1     0.09  -0.12  -0.04     0.07  -0.16  -0.07     0.19  -0.19   0.01
    20   1    -0.22   0.04   0.00    -0.30   0.02   0.02     0.01  -0.10   0.07
    21   1     0.08   0.23   0.05     0.06   0.25   0.07     0.16   0.04  -0.05
    22   1    -0.06   0.04  -0.22    -0.06  -0.05  -0.22    -0.05  -0.01  -0.28
    23   1    -0.17   0.19   0.03    -0.14   0.13   0.02    -0.20   0.27   0.12
    24   1     0.02  -0.04   0.07     0.07  -0.09   0.05     0.10  -0.12   0.19
    25   1    -0.00  -0.10   0.26    -0.10  -0.13   0.22    -0.01   0.02  -0.09
    26   1     0.31  -0.04  -0.02     0.21  -0.02  -0.02    -0.19  -0.03   0.06
    27   1    -0.07   0.05  -0.12    -0.17   0.08  -0.12     0.03  -0.05   0.14
    28   1    -0.02  -0.00  -0.00     0.00  -0.02  -0.02    -0.04  -0.00  -0.00
    29   1    -0.08   0.00  -0.00     0.00   0.01  -0.03     0.01  -0.00  -0.00
    30   1    -0.04   0.04   0.02     0.01   0.03  -0.00     0.04   0.04  -0.04
    31   1     0.31   0.04   0.02    -0.21  -0.02  -0.02    -0.19   0.03  -0.06
    32   1    -0.00   0.10  -0.26     0.10  -0.13   0.22    -0.01  -0.02   0.09
    33   1    -0.07  -0.05   0.12     0.17   0.08  -0.12     0.03   0.05  -0.14
    34   1    -0.22  -0.04  -0.00     0.30   0.02   0.02     0.01   0.10  -0.07
    35   1     0.09   0.12   0.04    -0.07  -0.16  -0.07     0.19   0.19  -0.01
    36   1     0.08  -0.23  -0.05    -0.06   0.25   0.07     0.16  -0.04   0.05
    37   1     0.02   0.04  -0.07    -0.07  -0.09   0.05     0.10   0.12  -0.19
    38   1    -0.06  -0.04   0.22     0.06  -0.05  -0.22    -0.05   0.01   0.28
    39   1    -0.17  -0.19  -0.03     0.14   0.13   0.02    -0.20  -0.27  -0.12
    40   1     0.02   0.07  -0.01    -0.01  -0.01   0.06    -0.01  -0.01   0.08
    41   1    -0.01   0.07   0.01     0.03  -0.04   0.03     0.06  -0.08   0.02
                     10                     11                     12
                      A                      A                      A
 Frequencies --    246.4908               250.5266               265.4272
 Red. masses --      1.3985                 1.6502                 1.0495
 Frc consts  --      0.0501                 0.0610                 0.0436
 IR Inten    --      0.1095                 0.1667                 0.0002
  Atom  AN      X      Y      Z        X      Y      Z        X      Y      Z
     1   8    -0.00  -0.01  -0.01     0.11  -0.00  -0.00    -0.02   0.00   0.00
     2   6    -0.00   0.00   0.02     0.06   0.00   0.00    -0.01   0.00  -0.00
     3   6     0.01   0.01   0.02     0.04  -0.03  -0.05    -0.00  -0.00  -0.01
     4   6     0.02   0.02   0.00    -0.02  -0.03  -0.02    -0.01  -0.01   0.01
     5   6     0.03   0.00  -0.01    -0.02   0.01  -0.00    -0.00  -0.00   0.01
     6   6     0.04   0.01  -0.01    -0.04   0.01  -0.00     0.03  -0.00   0.01
     7   6     0.08  -0.06  -0.01    -0.06   0.08   0.03    -0.01   0.01   0.01
     8   6     0.04   0.01  -0.02     0.02   0.00   0.00     0.00   0.01  -0.00
     9   6     0.00   0.04   0.03    -0.03   0.00   0.00    -0.02  -0.00  -0.00
    10   6    -0.02   0.02   0.00    -0.02   0.03   0.02    -0.01   0.01  -0.01
    11   6    -0.03   0.00  -0.01    -0.02  -0.01   0.00    -0.00   0.00  -0.01
    12   6    -0.04   0.01  -0.02     0.02  -0.00  -0.00     0.00  -0.01   0.00
    13   6    -0.04   0.01  -0.01    -0.04  -0.01   0.00     0.03   0.00  -0.01
    14   6    -0.08  -0.06  -0.01    -0.06  -0.08  -0.03    -0.01  -0.01  -0.01
    15   6    -0.01   0.01   0.02     0.04   0.03   0.05    -0.00   0.00   0.01
    16   1     0.01   0.03   0.03     0.03  -0.05  -0.11    -0.00  -0.01  -0.03
    17   1     0.01  -0.00   0.02     0.10  -0.01  -0.05     0.01   0.01  -0.01
    18   1     0.01   0.03   0.00    -0.03  -0.05  -0.02    -0.00  -0.02   0.01
    19   1    -0.01   0.09   0.03    -0.14   0.17   0.04    -0.13   0.25   0.12
    20   1     0.14   0.02  -0.03     0.14   0.03  -0.03     0.36   0.02  -0.04
    21   1    -0.01  -0.08  -0.02    -0.13  -0.15  -0.01    -0.12  -0.28  -0.07
    22   1     0.06  -0.08   0.12    -0.02   0.13   0.02    -0.02  -0.02  -0.12
    23   1     0.16  -0.18  -0.06    -0.06   0.10   0.03    -0.07   0.12   0.05
    24   1     0.05   0.01  -0.10    -0.11   0.07   0.05     0.06  -0.06   0.09
    25   1    -0.07  -0.15   0.25     0.14   0.17  -0.23    -0.06  -0.09   0.16
    26   1     0.37   0.05  -0.06    -0.27  -0.04   0.04     0.20   0.04  -0.03
    27   1    -0.16   0.12  -0.24     0.22  -0.13   0.19    -0.12   0.08  -0.14
    28   1    -0.00   0.09   0.03    -0.03   0.00   0.00    -0.04  -0.00  -0.00
    29   1     0.00   0.02   0.08    -0.03   0.00   0.00    -0.03   0.00  -0.00
    30   1    -0.01   0.03   0.00    -0.03   0.05   0.02    -0.00   0.02  -0.01
    31   1    -0.37   0.05  -0.06    -0.27   0.04  -0.04     0.20  -0.04   0.03
    32   1     0.06  -0.15   0.25     0.14  -0.17   0.23    -0.06   0.09  -0.16
    33   1     0.16   0.12  -0.24     0.22   0.13  -0.19    -0.12  -0.08   0.14
    34   1    -0.14   0.02  -0.03     0.14  -0.03   0.03     0.36  -0.02   0.04
    35   1     0.01   0.09   0.03    -0.14  -0.17  -0.04    -0.13  -0.25  -0.12
    36   1     0.01  -0.08  -0.02    -0.13   0.15   0.01    -0.12   0.28   0.07
    37   1    -0.05   0.01  -0.10    -0.11  -0.07  -0.05     0.06   0.06  -0.09
    38   1    -0.06  -0.08   0.12    -0.02  -0.13  -0.02    -0.02   0.02   0.12
    39   1    -0.16  -0.18  -0.06    -0.06  -0.10  -0.03    -0.07  -0.12  -0.05
    40   1    -0.01   0.03   0.03     0.03   0.05   0.11    -0.00   0.01   0.03
    41   1    -0.01  -0.00   0.02     0.10   0.01   0.05     0.01  -0.01   0.01
                     13                     14                     15
                      A                      A                      A
 Frequencies --    268.5790               270.9878               271.3480
 Red. masses --      1.8956                 1.0860                 2.1454
 Frc consts  --      0.0806                 0.0470                 0.0931
 IR Inten    --      0.0615                 0.0109                 0.2804
  Atom  AN      X      Y      Z        X      Y      Z        X      Y      Z
     1   8    -0.00  -0.06   0.01    -0.00   0.01  -0.00    -0.04  -0.00   0.00
     2   6    -0.00  -0.04   0.04    -0.00   0.01   0.00    -0.07  -0.00  -0.00
     3   6    -0.01  -0.04   0.03     0.00   0.02   0.01    -0.07  -0.04  -0.00
     4   6    -0.04  -0.02  -0.00     0.01   0.01   0.01    -0.02  -0.05   0.01
     5   6    -0.04   0.01  -0.02     0.02   0.00   0.00     0.01  -0.05   0.01
     6   6    -0.12   0.05  -0.01     0.02  -0.02  -0.00     0.07  -0.10  -0.01
     7   6    -0.07   0.03  -0.04     0.03  -0.03  -0.01    -0.05   0.02  -0.01
     8   6     0.03   0.01  -0.03     0.01   0.00  -0.00     0.11  -0.06   0.02
     9   6    -0.00  -0.01   0.09    -0.00   0.01   0.00    -0.04  -0.00  -0.00
    10   6     0.04  -0.02  -0.00    -0.01   0.01   0.01    -0.02   0.05  -0.01
    11   6     0.04   0.01  -0.02    -0.02   0.00   0.00     0.01   0.05  -0.01
[...]
 571,0.00021449,-0.00135960,-0.00012109,0.00017963,0.00064452,0.0003484
 1,-0.00009781,-0.00005161,0.00002453,-0.00000563,0.00021389,0.02220816
 ,0.05778211,0.00002523,0.00007360,-0.00002968,0.00059757,0.00010162,0.
 00006121,-0.00014606,0.00019200,-0.00000532,-0.00013783,-0.00000937,-0
 .00006814,0.00003356,-0.00003462,0.00001699,-0.00001017,0.00001178,-0.
 00000730,-0.00000965,0.00000021,-0.00000841,0.00000097,0.00002428,-0.0
 0000557,0.00020449,-0.00015798,0.00012230,-0.00069363,-0.00015316,-0.0
 0039713,0.00252356,0.00008804,0.00257340,0.00020536,-0.00023666,0.0008
 4872,0.00070158,0.00021569,0.00081387,-0.11608332,-0.03217988,-0.23594
 906,-0.00164838,0.00056638,0.00011403,0.00004924,0.00007680,0.00001861
 ,-0.00000344,-0.00000005,0.00000039,0.00000012,0.00000256,0.00001514,0
 .00000984,-0.00000358,-0.00000365,0.00000156,-0.00000591,0.00001468,0.
 00000465,-0.00000217,0.00000231,0.00000879,-0.00000280,0.00000435,-0.0
 0000172,-0.00000088,-0.00000417,0.00000657,-0.00001218,0.00001430,0.00
 000496,-0.00000528,0.00000750,-0.00000539,0.00000428,0.00000475,0.0000
 1471,-0.00000282,-0.00000194,-0.00003560,-0.00002646,0.00001209,0.0000
 7466,0.00008678,0.00002756,-0.00007752,0.00007402,0.00011039,0.0001368
 2,0.00023289,0.00030668,0.00025445,0.00005856,0.00000916,-0.00008174,0
 .00008787,0.00030245,-0.00014765,0.00005941,0.00044294,-0.00004956,-0.
 00009903,0.00024611,-0.00003904,-0.00007615,-0.00003916,0.12928477,0.0
 3251654,0.25475443,-0.00004643,0.00011186,-0.00004511,0.00034444,-0.00
 017444,0.00003028,-0.00009232,0.00013317,-0.00000550,-0.00037026,-0.00
 022220,0.00002152,0.00012109,-0.00009091,0.00000519,0.00000527,0.00000
 572,-0.00001279,-0.00003790,-0.00002597,-0.00000917,0.00001079,0.00000
 842,0.00000631,0.00101304,-0.00104886,-0.00012590,-0.00285934,-0.00251
 337,0.00023489,0.00970693,-0.01746472,0.00341753,0.00083719,-0.0012181
 5,0.00039423,0.00093354,-0.00044940,-0.00036416,-0.12380432,0.11731624
 ,-0.02420769,-0.00072862,0.00000568,-0.00006566,0.00003244,0.00004788,
 0.00001834,-0.00000120,-0.00000266,0.00000271,0.00000266,0.00000298,-0
 .00001323,-0.00000108,0.00000056,0.00000105,-0.00000133,-0.00000505,0.
 00000912,0.00000210,0.00000313,0.00000442,0.00001547,-0.00001293,0.000
 00309,-0.00000083,-0.00000051,-0.00000420,0.00000274,-0.00000822,0.000
 00879,0.00000249,0.00000276,0.00000073,-0.00000093,-0.00000137,-0.0000
 0223,-0.00000132,-0.00000032,-0.00000012,0.00002427,0.00009626,0.00003
 226,0.00007639,0.00008710,0.00000386,0.00002552,-0.00015563,-0.0002115
 1,-0.00008734,0.00013573,-0.00011731,-0.00014409,-0.00012056,-0.000111
 18,0.00028717,0.00004078,0.00023668,-0.00009001,0.00004396,0.00007589,
 0.00018038,0.00012538,-0.00024407,-0.00005320,0.00013549,0.00007078,-0
 .00940517,0.01377782,-0.00186075,0.13468805,0.00023879,-0.00010316,-0.
 00003078,-0.00017634,0.00030996,0.00006378,-0.00005088,0.00001044,-0.0
 0007804,-0.00066563,-0.00031029,0.00010687,0.00027144,-0.00005343,0.00
 001114,-0.00001162,-0.00002864,-0.00003707,-0.00010860,-0.00007500,-0.
 00000985,-0.00000619,-0.00003126,0.00003035,0.00168224,-0.00082526,0.0
 0010158,-0.00511776,-0.00286466,0.00077356,0.01422843,-0.02296050,0.00
 364012,0.00195485,0.00025315,0.00078213,0.00127838,0.00034585,-0.00066
 323,0.11601091,-0.22605839,0.03773827,-0.00054523,0.00014703,-0.000403
 02,0.00003278,-0.00001402,0.00002014,-0.00000512,0.00000602,0.00000871
 ,0.00000991,0.00002379,-0.00001276,0.00002413,0.00001262,-0.00000517,0
 .00000646,0.00000991,-0.00000187,-0.00001584,-0.00003139,0.00000856,0.
 00001293,-0.00005801,-0.00000758,0.00000379,0.00001272,0.00000006,0.00
 000497,0.00000989,0.00000279,-0.00001342,-0.00003035,-0.00001423,0.000
 00851,0.00000740,-0.00000015,0.00001946,0.00000941,0.00000991,-0.00008
 074,-0.00007348,0.00011123,-0.00007445,0.00000743,-0.00010811,-0.00008
 214,0.00030979,-0.00008002,-0.00008890,-0.00003635,-0.00005186,-0.0011
 0894,0.00063671,-0.00067838,-0.00008911,0.00067493,0.00010673,-0.00007
 257,0.00002232,-0.00004788,-0.00022183,0.00040715,-0.00019295,-0.00076
 337,0.00063455,0.00053856,-0.00284828,0.00489534,-0.00027719,-0.125446
 67,0.24759115,-0.00015114,0.00005090,0.00001805,0.00045489,-0.00007800
 ,-0.00001279,-0.00007208,0.00011058,0.00001715,0.00001074,0.00004890,-
 0.00004784,-0.00002526,-0.00001239,0.00001112,-0.00000546,0.00000819,-
 0.00000161,0.00001273,0.00001220,-0.00000657,0.00000653,0.00000914,-0.
 00000684,-0.00015422,-0.00003467,0.00045478,0.00020483,-0.00030561,-0.
 00034969,-0.00173099,0.00196424,-0.00191855,-0.00002408,-0.00134015,0.
 00014345,-0.00071852,0.00075489,-0.00004044,-0.02416511,0.03817694,-0.
 05730846,-0.00055680,0.00023726,0.00022102,0.00001797,0.00003982,0.000
 00318,0.00000006,0.00000078,-0.00000241,0.00000474,0.00000021,0.000010
 32,0.00000374,-0.00000324,0.00000105,-0.00000172,-0.00000331,0.0000042
 4,0.00000604,0.00000284,0.00000051,0.00000309,0.00000758,0.00000483,0.
 00000007,-0.00000274,-0.00000161,0.00000068,-0.00000656,0.00000435,0.0
 0000323,0.00000489,0.00000402,0.00000026,-0.00000152,-0.00000083,-0.00
 000287,-0.00000212,0.00000226,-0.00005913,-0.00007644,-0.00000829,0.00
 005756,0.00003787,0.00000575,-0.00022704,0.00029536,0.00030075,0.00007
 920,-0.00012520,-0.00004695,-0.00034801,-0.00026037,0.00026504,0.00010
 367,0.00006567,-0.00017973,0.00000164,0.00011470,0.00000433,0.00005120
 ,-0.00028961,-0.00001105,0.00055936,-0.00001174,-0.00000066,-0.0150499
 1,0.02411971,-0.00429955,0.02773410,-0.04161948,0.05736639,0.00006875,
 -0.00002582,-0.00001435,-0.00007121,0.00004164,0.00005516,0.00001113,-
 0.00000856,-0.00001117,-0.00001709,-0.00001430,-0.00002123,0.00001552,
 -0.00000055,0.00000457,-0.00001114,0.00001165,-0.00000036,-0.00000608,
 -0.00000218,-0.00000086,-0.00000862,0.00000064,0.00000786,0.00006559,-
 0.00007816,-0.00029543,0.00031341,0.00143618,0.00000533,-0.01292688,0.
 00396640,0.01514667,0.00047354,0.00086479,0.00121648,-0.00236102,-0.00
 410328,-0.00095136,-0.15472563,0.02145290,0.12482132,0.00030890,-0.000
 23520,0.00001884,0.00000252,-0.00000817,-0.00000013,-0.00000042,0.0000
 0565,-0.00000511,0.00001987,-0.00002602,-0.00001523,0.00000604,-0.0000
 0072,0.00000296,-0.00000055,0.00000172,-0.00000424,-0.00000038,-0.0000
 0379,-0.00000050,-0.00000083,-0.00000379,0.00000007,0.00000427,-0.0000
 0060,-0.00000245,-0.00000115,0.00000214,-0.00000172,-0.00000041,-0.000
 00050,-0.00000336,0.00000790,-0.00000373,-0.00000761,-0.00000048,-0.00
 000216,0.00000539,0.00008847,0.00018568,-0.00010255,-0.00002641,-0.000
 01048,0.00003137,0.00059029,-0.00057202,-0.00043050,-0.00007223,-0.000
 44230,-0.00089268,-0.00008829,-0.00005499,0.00004558,0.00032757,-0.000
 04741,-0.00031685,0.00017556,-0.00000374,0.00023022,-0.00059512,-0.000
 04220,0.00142365,0.00036481,-0.00010690,-0.00039759,0.01294161,-0.0022
 7622,-0.01371551,-0.01118760,0.00173854,0.01353255,0.16637208,-0.00003
 462,0.00004327,-0.00002634,0.00013151,-0.00010680,0.00001285,-0.000010
 61,0.00003333,0.00002603,0.00008386,0.00001238,-0.00002660,-0.00003552
 ,-0.00000787,-0.00000401,-0.00000101,0.00002143,0.00000840,0.00001873,
 0.00001376,-0.00000102,0.00000130,0.00001189,-0.00000498,-0.00004938,0
 .00017707,-0.00024881,-0.00083827,0.00126171,0.00142393,-0.01603379,0.
 00342116,0.02077638,0.00072553,0.00067175,0.00076749,-0.00289831,-0.00
 440175,-0.00037214,0.02171784,-0.05339536,-0.02611419,0.00003666,-0.00
 000234,0.00002134,-0.00000130,0.00001407,-0.00000166,-0.00000131,-0.00
 000150,-0.00000587,0.00001367,-0.00003176,-0.00001545,-0.00000306,-0.0
 0000320,0.00000330,-0.00000244,-0.00000371,0.00000112,0.00000617,0.000
 00789,-0.00000304,0.00000051,0.00001272,0.00000274,0.00000060,-0.00000
 492,-0.00000217,-0.00000124,-0.00000396,0.00000088,0.00000509,0.000009
 51,0.00000294,-0.00000012,-0.00000470,-0.00000430,-0.00000592,-0.00000
 399,0.00000023,0.00003876,0.00016154,-0.00005393,0.00001631,0.00001402
 ,0.00003334,0.00026142,-0.00037510,-0.00058364,0.00000981,0.00013653,-
 0.00044231,-0.00002201,-0.00004926,-0.00019163,0.00029586,-0.00005061,
 0.00009209,0.00018006,-0.00011007,-0.00009964,-0.00128147,0.00031114,0
 .00137606,-0.00028930,0.00022678,-0.00010239,0.00298638,-0.00146244,-0
 .00251806,0.01654254,-0.00282670,-0.02202222,-0.02157474,0.05624342,-0
 .00017088,-0.00005991,0.00006975,0.00007413,0.00002634,0.00001943,0.00
 001788,-0.00003424,-0.00003664,0.00006823,0.00001096,0.00001001,-0.000
 02182,0.00002326,-0.00000241,0.00000398,-0.00001745,-0.00000072,0.0000
 0588,0.00000109,-0.00000072,0.00000514,-0.00001497,-0.00000231,-0.0002
 2198,0.00020430,0.00020265,0.00040954,-0.00067115,0.00007618,0.0011681
 3,0.00007534,-0.00329529,-0.00060786,-0.00008380,0.00049765,0.00056835
 ,0.00156899,0.00091076,0.12481445,-0.02576302,-0.19928714,0.00011627,0
 .00039899,-0.00001252,-0.00001470,-0.00001154,-0.00001036,-0.00000081,
 -0.00000077,0.00000694,-0.00001201,0.00002181,0.00001835,-0.00000512,0
 .00000258,-0.00000090,0.00000137,0.00000182,-0.00000314,-0.00000297,-0
 .00000087,0.00000122,-0.00000420,-0.00000006,-0.00000161,-0.00000245,0
 .00000217,0.00000589,-0.00000131,0.00000441,-0.00000417,-0.00000343,-0
 .00000028,-0.00000218,-0.00000125,0.00000095,0.00000461,-0.00000522,0.
 00000326,-0.00000062,-0.00008726,-0.00013567,0.00007383,-0.00002867,-0
 .00004859,-0.00002571,-0.00023221,0.00057432,0.00038199,0.00009375,-0.
 00008273,0.00043674,-0.00003928,0.00006555,0.00001290,0.00006073,0.000
 17038,0.00013886,-0.00017299,-0.00015452,0.00039148,0.00048518,-0.0001
 6054,-0.00004082,-0.00015166,-0.00016822,0.00000979,0.01847199,-0.0039
 2639,-0.01998866,-0.00498706,0.00021472,0.00553756,-0.13936262,0.02830
 642,0.21412389,0.00183919,-0.00088118,0.00004284,0.01094546,0.01562793
 ,-0.00212027,-0.00197035,0.00260081,0.00033721,-0.00039698,0.00026398,
 -0.00009067,0.00010382,0.00000015,0.00000411,-0.00003766,0.00000464,-0
 .00003023,-0.00005464,0.00001426,-0.00002540,-0.00008471,-0.00000140,0
 .00001304,-0.00234079,0.00135051,-0.00426553,-0.01269580,-0.01550615,0
 .00393419,-0.00001989,-0.00138631,0.00039480,0.00014278,0.00018385,-0.
 00005428,-0.00011251,0.00033107,-0.00004060,-0.00025267,-0.00038061,-0
 .00087093,-0.16235483,-0.13565068,0.01774683,0.00054050,0.00083186,0.0
 0007021,-0.00007745,-0.00007688,-0.00002846,0.00006031,-0.00006128,0.0
 0000769,0.00005621,0.00000305,-0.00001910,0.00000210,0.00000088,0.0000
 2185,-0.00000001,-0.00003108,0.00000619,0.00003244,-0.00003278,0.00001
 797,0.00000252,0.00000130,-0.00001470,0.00002312,-0.00003542,0.0000492
 4,0.00002325,-0.00005530,0.00000237,0.00000793,0.00000942,-0.00000011,
 0.00010365,-0.00002313,0.00001679,0.00035466,0.00038746,-0.00000118,-0
 .00066506,-0.00141921,-0.00010894,0.00104946,0.00034501,-0.00000784,-0
 .00001311,-0.00003551,0.00000614,-0.00003883,0.00010454,-0.00003634,0.
 00020835,0.00003751,0.00011495,-0.00009655,-0.00012860,0.00006717,0.00
 024744,0.00001467,-0.00002606,-0.00008892,0.00007286,0.00001235,0.0000
 8227,0.00143517,0.00058692,0.00053963,0.00008155,0.00043058,0.00001524
 ,0.00009403,-0.00014742,0.17368840,-0.00024827,0.00612194,-0.00066778,
 -0.02237583,-0.02773778,0.00379797,0.00478092,-0.00313560,-0.00062958,
 0.00039731,0.00020677,0.00045146,0.00001381,0.00003807,-0.00009234,0.0
 0002170,-0.00002817,0.00000048,-0.00003089,-0.00007116,0.00007212,-0.0
 0001276,-0.00004155,0.00003873,0.00075373,0.00072846,0.00009021,0.0010
 1145,0.00181104,-0.00146661,-0.00000967,-0.00003524,-0.00043023,-0.000
 13608,0.00003279,0.00008952,0.00002626,-0.00008340,-0.00005191,0.00115
 707,-0.00186760,0.00042860,-0.13223140,-0.20261550,0.02039025,-0.00083
 186,-0.00144814,-0.00009228,0.00010587,0.00043440,0.00015402,-0.000036
 99,-0.00001580,-0.00012604,-0.00001917,0.00001564,-0.00000021,0.000018
 32,0.00001910,-0.00003425,-0.00002276,-0.00001228,-0.00000358,-0.00004
 788,-0.00001402,-0.00003982,0.00000817,0.00001407,0.00001154,-0.000021
 83,0.00006494,-0.00007680,-0.00002626,0.00000037,-0.00001815,0.0000100
 5,0.00000134,-0.00000501,-0.00002185,0.00001571,-0.00001085,-0.0000165
 4,-0.00003983,0.00007585,0.00009456,0.00015552,0.00014584,-0.00011758,
 0.00013143,-0.00032962,0.00000963,0.00000124,-0.00000007,-0.00003533,0
 .00004008,-0.00004184,-0.00001584,-0.00000816,-0.00002979,0.00000328,0
 .00004819,-0.00000876,-0.00001778,0.00000832,-0.00000797,0.00000473,0.
 00001012,0.00000022,0.00163540,-0.00184129,0.00131705,0.00027196,0.000
 10415,0.00021306,-0.00010968,-0.00003148,-0.00010425,0.14277220,0.2254
 3811,-0.00055761,0.00023274,-0.00123289,0.00051619,-0.00207725,-0.0004
 9443,-0.00002739,0.00031240,0.00126628,-0.00021473,0.00066821,-0.00006
 257,0.00009950,-0.00003736,0.00004197,-0.00003423,0.00001735,-0.000028
 91,-0.00004029,-0.00002646,0.00000104,-0.00008153,0.00000589,0.0000031
 9,-0.00306718,0.00117916,-0.00386580,-0.01473121,-0.01972492,0.0035837
 1,0.00049504,-0.00032726,0.00058740,0.00011448,-0.00015319,0.00001308,
 0.00002590,-0.00004329,-0.00002233,-0.00035962,0.00069139,0.00058794,0
 .01758989,0.02049452,-0.05415998,0.00007021,0.00009228,0.00038082,-0.0
 0034712,-0.00042847,0.00022605,0.00004758,-0.00003337,-0.00002248,0.00
 002852,0.00000395,-0.00002898,0.00001562,-0.00002383,0.00003040,0.0000
 0907,-0.00001299,0.00001189,0.00001834,-0.00002014,0.00000318,-0.00000
 013,0.00000166,-0.00001036,0.00001348,-0.00001772,0.00001861,0.0000309
 2,-0.00004881,0.00000423,0.00000717,0.00000496,0.00000167,0.00009520,-
 0.00001778,0.00001720,-0.00025964,-0.00007248,0.00026160,-0.00099142,-
 0.00127478,0.00025191,0.00091254,-0.00025869,0.00086236,-0.00001148,-0
 .00002495,-0.00002402,0.00004692,0.00006623,0.00000968,0.00010636,-0.0
 0000259,0.00003271,0.00001675,0.00012103,0.00004280,0.00000926,0.00000
 208,-0.00010197,0.00001799,0.00000657,0.00009102,-0.00031258,0.0005266
 5,0.00004347,0.00012224,-0.00004999,-0.00015598,0.00007377,0.00016539,
 -0.00041501,-0.01705369,-0.02307474,0.05435545,-0.00102250,0.00388718,
 -0.00311647,-0.01186933,-0.00009981,0.01698763,0.00028082,-0.00022438,
 -0.00101221,-0.00005898,-0.00034135,-0.00004710,-0.00001670,0.00001332
 ,-0.00004921,0.00003725,-0.00001299,0.00001255,0.00000202,0.00000754,0
 .00000840,0.00002748,-0.00002162,-0.00000495,0.00164433,0.00043288,-0.
 00018860,0.01047781,-0.00333129,-0.02247494,0.00107335,0.00041320,0.00
 070831,0.00002981,-0.00034403,-0.00002999,-0.00069501,0.00038536,-0.00
 011782,0.00007563,0.00011356,0.00013843,-0.09713842,0.00602404,0.10773
 957,-0.00007745,-0.00010587,-0.00034712,0.00059055,0.00034489,-0.00026
 891,-0.00011414,0.00006062,0.00001083,-0.00001905,0.00000310,0.0000042
 7,-0.00000510,0.00000715,-0.00000249,-0.00000516,0.00000825,0.00000049
 ,-0.00000120,0.00000512,0.00000006,-0.00000042,0.00000131,-0.00000081,
 -0.00000463,0.00000232,-0.00000344,-0.00001152,0.00001070,-0.00000288,
 -0.00000394,0.00000222,0.00000188,-0.00002355,0.00000766,-0.00000403,-
 0.00012318,-0.00003878,0.00036854,0.00016531,0.00034785,0.00017450,-0.
 00295793,-0.00001167,-0.00384318,0.00002447,-0.00002585,0.00017997,0.0
 0001079,0.00003582,0.00015047,-0.00000187,0.00000563,0.00000137,-0.001
 08663,0.00101321,0.00000545,-0.00009189,0.00001017,-0.00001131,0.00016
 211,-0.00005615,0.00004235,-0.00004012,0.00004498,0.00001657,0.0000616
 9,-0.00001441,0.00001287,-0.00007154,-0.00008220,-0.00007981,-0.008767
 96,0.00328979,0.01760691,0.10954479,0.00264452,-0.00279810,0.00360352,
 0.01325491,0.00158529,-0.02870386,-0.00146206,-0.00035988,0.00319367,0
 .00041300,0.00018491,0.00018089,0.00004171,-0.00000777,0.00001670,0.00
 000450,-0.00000249,0.00000742,0.00002600,0.00000157,0.00000593,0.00000
 382,0.00001810,-0.00000205,0.00050885,0.00015597,-0.00113027,-0.001339
 84,0.00047255,0.00094184,-0.00058245,0.00023484,0.00038991,0.00015171,
 0.00001556,-0.00006854,0.00071464,-0.00001816,0.00060320,0.00000620,-0
 .00004436,0.00021289,0.00793692,-0.05301978,-0.02263774,0.00007688,0.0
 0043440,0.00042847,-0.00034489,-0.00153819,-0.00001409,0.00000418,0.00
 008883,0.00008543,-0.00004133,-0.00000228,-0.00000959,0.00000791,-0.00
 002544,-0.00000547,-0.00000393,0.00002250,0.00000710,0.00000266,0.0000
 0602,-0.00000078,-0.00000565,-0.00000150,0.00000077,-0.00000184,-0.000
 00132,0.00000005,0.00000459,0.00000685,0.00000417,-0.00000220,-0.00000
 288,0.00000495,-0.00001012,-0.00000524,-0.00000674,-0.00025126,0.00006
 131,0.00002574,-0.00002253,0.00000651,0.00013866,0.00042700,0.00071990
 ,0.00028480,-0.00002703,0.00000091,-0.00010495,0.00000326,-0.00002922,
 -0.00001347,-0.00002809,-0.00000988,-0.00000829,0.00096234,-0.00057136
 ,-0.00023571,-0.00016765,0.00000791,-0.00010669,-0.00018861,-0.0000409
 3,-0.00009488,-0.00020227,-0.00000517,0.00001388,0.00006649,-0.0000608
 1,-0.00008036,0.00005033,0.00007214,-0.00023869,-0.01086319,0.00358520
 ,0.02315859,-0.01176748,0.05086350,-0.00058676,-0.00063890,-0.00084060
 ,0.00072285,0.00031695,0.00073092,0.00057785,0.00013373,-0.00055880,-0
 .00034014,-0.00002513,-0.00011537,0.00002648,-0.00000984,0.00003598,-0
 .00000224,-0.00002115,-0.00003562,-0.00002088,-0.00002087,-0.00000622,
 0.00001958,-0.00001361,-0.00000704,0.00151870,0.00079691,0.00076449,0.
 00995246,-0.00185733,-0.02598614,0.00144122,-0.00092701,0.00031430,-0.
 00003105,0.00002972,-0.00002872,-0.00008367,-0.00035932,-0.00045007,-0
 .00018528,0.00018153,-0.00008828,0.10403378,-0.01748217,-0.23860450,-0
 .00002846,-0.00015402,0.00022605,-0.00026892,0.00001409,0.00049383,-0.
 00004223,0.00018113,0.00015614,-0.00001996,0.00000199,-0.00001029,0.00
 000899,-0.00002418,0.00002532,-0.00000277,0.00000388,0.00002040,0.0000
 0271,-0.00000871,-0.00000241,-0.00000511,0.00000587,0.00000694,0.00000
 346,-0.00000385,0.00000039,-0.00000641,-0.00000572,-0.00000145,-0.0000
 0605,0.00000826,0.00001680,0.00000075,0.00000985,-0.00000119,-0.000755
 90,-0.00069642,0.00061727,-0.00015264,0.00020980,0.00043255,-0.0044994
 9,-0.00023977,-0.00290435,-0.00003436,0.00000875,0.00028352,-0.0001116
 4,0.00008839,0.00004662,-0.00002366,-0.00002328,0.00000328,0.00028538,
 0.00027290,0.00109438,-0.00001478,0.00001809,0.00007985,0.00013850,-0.
 00001223,0.00048906,0.00011228,0.00009865,-0.00008010,-0.00004639,0.00
 010041,0.00001969,-0.00006835,-0.00017655,0.00020045,0.00105830,0.0000
 6557,-0.00210393,-0.11256614,0.02015359,0.26576680\\0.00003870,0.,0.00
 000481,0.00007472,-0.00000003,0.00004430,-0.00004324,-0.00003643,-0.00
 002988,-0.00000143,0.00003952,0.00003419,-0.00000832,-0.00004992,-0.00
 000405,-0.00001215,-0.00000611,-0.00000128,0.00001151,-0.00005865,-0.0
 0000252,-0.00001016,-0.00001111,-0.00001192,0.00002725,0.00000012,-0.0
 0001617,-0.00000221,-0.00003963,0.00003402,-0.00000865,0.00005046,-0.0
 0000325,-0.00000944,0.00001019,-0.00001146,-0.00001177,0.00000607,-0.0
 0000169,0.00001127,0.00005813,-0.00000325,-0.00004302,0.00003642,-0.00
 003003,-0.00001744,-0.00000877,0.00000555,0.00002589,0.00001050,-0.000
 01004,-0.00000103,-0.00000714,0.00000453,0.00000254,-0.00000138,-0.000
 01432,0.00000183,0.00001016,0.00000233,0.00000350,0.00000204,-0.000001
 43,0.00000291,0.00000468,-0.00000082,-0.00001273,-0.00000546,0.0000009
 3,-0.00000264,0.00001261,-0.00000718,-0.00000003,0.00000820,0.00000004
 ,-0.00000015,-0.00000082,0.00000147,0.00000621,-0.00000326,0.00000427,
 -0.00002327,0.00000003,0.00001047,-0.00000740,0.00000006,0.00001681,-0
 .00000079,0.00000706,0.00000432,-0.00000016,0.00000079,0.00000114,-0.0
 0000044,-0.00000747,-0.00000004,0.00000618,0.00000325,0.00000421,0.000
 00178,-0.00001014,0.00000242,0.00000240,0.00000138,-0.00001427,0.00000
 360,-0.00000225,-0.00000147,-0.00000241,-0.00001254,-0.00000676,0.0000
 0275,-0.00000439,-0.00000081,-0.00001260,0.00000554,0.00000096,-0.0000
 1743,0.00000874,0.00000561,0.00002586,-0.00001048,-0.00000976\\\@


 Happiness is a conscious choice, not an automatic response.
 -- Mildred Barthel
 Job cpu time:       0 days  0 hours  5 minutes 41.4 seconds.
 Elapsed time:       0 days  0 hours  6 minutes 11.8 seconds.
 File lengths (MBytes):  RWF=    364 Int=      0 D2E=      0 Chk=     16 Scr=      1
 Normal termination of Gaussian 16 at Sat Feb 24 00:28:18 2024.
