 Entering Gaussian System, Link 0=g16
 Input=/Volumes/SSD-PMU3/b3lyp_6-31gd_freq/KPQOQSYRJHFQHS-HTQGCQERSA-N_calculating/gaussianinput2.gjf
 Output=/Volumes/SSD-PMU3/b3lyp_6-31gd_freq/KPQOQSYRJHFQHS-HTQGCQERSA-N_calculating/gaussianinput2.log
 Initial command:
 /Applications/g16/l1.exe "/Users/macmini_m1_2022/PycharmProjects/sphere_model/sphere_model_lib/Gau-56567.inp" -scrdir="/Users/macmini_m1_2022/PycharmProjects/sphere_model/sphere_model_lib/"
 Entering Link 1 = /Applications/g16/l1.exe PID=     56568.
  
 Copyright (c) 1988,1990,1992,1993,1995,1998,2003,2009,2016,
            Gaussian, Inc.  All Rights Reserved.
  
 This is part of the Gaussian(R) 16 program.  It is based on
 the Gaussian(R) 09 system (copyright 2009, Gaussian, Inc.),
 the Gaussian(R) 03 system (copyright 2003, Gaussian, Inc.),
 the Gaussian(R) 98 system (copyright 1998, Gaussian, Inc.),
 the Gaussian(R) 94 system (copyright 1995, Gaussian, Inc.),
 the Gaussian 92(TM) system (copyright 1992, Gaussian, Inc.),
 the Gaussian 90(TM) system (copyright 1990, Gaussian, Inc.),
 the Gaussian 88(TM) system (copyright 1988, Gaussian, Inc.),
 the Gaussian 86(TM) system (copyright 1986, Carnegie Mellon
 University), and the Gaussian 82(TM) system (copyright 1983,
 Carnegie Mellon University). Gaussian is a federally registered
 trademark of Gaussian, Inc.
  
 This software contains proprietary and confidential information,
 including trade secrets, belonging to Gaussian, Inc.
  
 This software is provided under written license and may be
 used, copied, transmitted, or stored only in accord with that
 written license.
  
 The following legend is applicable only to US Government
 contracts under FAR:
  
                    RESTRICTED RIGHTS LEGEND
  
 Use, reproduction and disclosure by the US Government is
 subject to restrictions as set forth in subparagraphs (a)
 and (c) of the Commercial Computer Software - Restricted
 Rights clause in FAR 52.227-19.
  
 Gaussian, Inc.
 340 Quinnipiac St., Bldg. 40, Wallingford CT 06492
  
  
 ---------------------------------------------------------------
 Warning -- This program may not be used in any manner that
 competes with the business of Gaussian, Inc. or will provide
 assistance to any competitor of Gaussian, Inc.  The licensee
 of this program is prohibited from giving any competitor of
 Gaussian, Inc. access to this program.  By using this program,
 the user acknowledges that Gaussian, Inc. is engaged in the
 business of creating and licensing software in the field of
 computational chemistry and represents and warrants to the
 licensee that it is not a competitor of Gaussian, Inc. and that
 it will not use this program in any manner prohibited above.
 ---------------------------------------------------------------
  

 Cite this work as:
 Gaussian 16, Revision A.03,
 M. J. Frisch, G. W. Trucks, H. B. Schlegel, G. E. Scuseria, 
 M. A. Robb, J. R. Cheeseman, G. Scalmani, V. Barone, 
 G. A. Petersson, H. Nakatsuji, X. Li, M. Caricato, A. V. Marenich, 
 J. Bloino, B. G. Janesko, R. Gomperts, B. Mennucci, H. P. Hratchian, 
 J. V. Ortiz, A. F. Izmaylov, J. L. Sonnenberg, D. Williams-Young, 
 F. Ding, F. Lipparini, F. Egidi, J. Goings, B. Peng, A. Petrone, 
 T. Henderson, D. Ranasinghe, V. G. Zakrzewski, J. Gao, N. Rega, 
 G. Zheng, W. Liang, M. Hada, M. Ehara, K. Toyota, R. Fukuda, 
 J. Hasegawa, M. Ishida, T. Nakajima, Y. Honda, O. Kitao, H. Nakai, 
 T. Vreven, K. Throssell, J. A. Montgomery, Jr., J. E. Peralta, 
 F. Ogliaro, M. J. Bearpark, J. J. Heyd, E. N. Brothers, K. N. Kudin, 
 V. N. Staroverov, T. A. Keith, R. Kobayashi, J. Normand, 
 K. Raghavachari, A. P. Rendell, J. C. Burant, S. S. Iyengar, 
 J. Tomasi, M. Cossi, J. M. Millam, M. Klene, C. Adamo, R. Cammi, 
 J. W. Ochterski, R. L. Martin, K. Morokuma, O. Farkas, 
 J. B. Foresman, and D. J. Fox, Gaussian, Inc., Wallingford CT, 2016.
 
 ******************************************
 Gaussian 16:  EM64M-G16RevA.03 25-Dec-2016
                22-Feb-2024 
 ******************************************
 %nprocshared=8
 Will use up to    8 processors via shared memory.
 %mem=4GB
 %chk= 2.chk
 ---------------------
 # freq b3lyp/6-31g(d)
 ---------------------
 1/10=4,30=1,38=1/1,3;
 2/12=2,17=6,18=5,40=1/2;
 3/5=1,6=6,7=1,11=2,25=1,30=1,71=2,74=-5,140=1/1,2,3;
 4//1;
 5/5=2,38=5,98=1/2;
 8/6=4,10=90,11=11/1;
 11/6=1,8=1,9=11,15=111,16=1/1,2,10;
 10/6=1/2;
 6/7=2,8=2,9=2,10=2,28=1/1;
 7/8=1,10=1,25=1/1,2,3,16;
 1/10=4,30=1/3;
 99//99;
 ---------
 good luck
 ---------
 Symbolic Z-matrix:
 Charge =  0 Multiplicity = 1
 O                     1.21637   0.        0. 
 C                     0.        0.        0. 
 C                    -0.8192   -1.28475   0.00571 
 C                    -1.93684  -1.26463  -1.05626 
 C                    -2.80962  -0.00004  -0.95516 
 C                    -3.9316   -0.00009  -1.99502 
 O                    -3.36912  -0.00007  -3.29451 
 C                    -4.34286   0.00148  -4.31541 
 C                    -1.9368    1.26455  -1.05637 
 C                    -0.81926   1.28472   0.00571 
 H                    -0.14012  -2.13139  -0.13109 
 H                    -1.27302  -1.38144   1.00469 
 H                    -1.49509  -1.30805  -2.05875 
 H                    -2.55947  -2.16226  -0.94919 
 H                    -3.30513   0.00008   0.02967 
 H                    -4.57295  -0.88911  -1.85932 
 H                    -4.57304   0.88887  -1.85934 
 H                    -4.98573   0.89527  -4.26424 
 H                    -4.98811  -0.89062  -4.26466 
 H                    -3.81071   0.00101  -5.27028 
 H                    -2.55942   2.16221  -0.94946 
 H                    -1.49496   1.30788  -2.0588 
 H                    -1.27314   1.38139   1.00467 
 H                    -0.1402    2.13139  -0.13106 
 

 GradGradGradGradGradGradGradGradGradGradGradGradGradGradGradGradGradGrad
 Berny optimization.
 Initialization pass.
 Trust Radius=3.00D-01 FncErr=1.00D-07 GrdErr=1.00D-07 EigMax=2.50D+02 EigMin=1.00D-04
 Number of steps in this run=      2 maximum allowed number of steps=      2.
 GradGradGradGradGradGradGradGradGradGradGradGradGradGradGradGradGradGrad

                          Input orientation:                          
 ---------------------------------------------------------------------
 Center     Atomic      Atomic             Coordinates (Angstroms)
 Number     Number       Type             X           Y           Z
 ---------------------------------------------------------------------
      1          8           0        1.216366    0.000000    0.000000
      2          6           0        0.000000    0.000000    0.000000
      3          6           0       -0.819204   -1.284750    0.005710
      4          6           0       -1.936844   -1.264634   -1.056257
      5          6           0       -2.809616   -0.000036   -0.955158
      6          6           0       -3.931598   -0.000085   -1.995016
      7          8           0       -3.369122   -0.000073   -3.294507
      8          6           0       -4.342861    0.001483   -4.315415
      9          6           0       -1.936800    1.264548   -1.056366
     10          6           0       -0.819260    1.284719    0.005710
     11          1           0       -0.140118   -2.131393   -0.131091
     12          1           0       -1.273019   -1.381439    1.004687
     13          1           0       -1.495085   -1.308047   -2.058750
     14          1           0       -2.559474   -2.162263   -0.949189
     15          1           0       -3.305134    0.000077    0.029667
     16          1           0       -4.572947   -0.889111   -1.859316
     17          1           0       -4.573038    0.888873   -1.859338
     18          1           0       -4.985734    0.895274   -4.264235
     19          1           0       -4.988105   -0.890620   -4.264661
     20          1           0       -3.810709    0.001007   -5.270282
     21          1           0       -2.559415    2.162209   -0.949457
     22          1           0       -1.494955    1.307876   -2.058799
     23          1           0       -1.273135    1.381394    1.004668
     24          1           0       -0.140196    2.131391   -0.131059
 ---------------------------------------------------------------------
                    Distance matrix (angstroms):
                    1          2          3          4          5
     1  O    0.000000
     2  C    1.216366   0.000000
     3  C    2.407106   1.523716   0.000000
     4  C    3.557768   2.542900   1.541849   0.000000
     5  C    4.137736   2.967536   2.556462   1.539857   0.000000
     6  C    5.521016   4.408804   3.916665   2.541534   1.529754
     7  O    5.646280   4.712193   4.363933   2.942838   2.405328
     8  C    7.037600   6.122357   5.722122   4.244300   3.693531
     9  C    3.557731   2.542869   2.979253   2.529182   1.539878
    10  C    2.407137   1.523720   2.569469   2.979256   2.556439
    11  H    2.529836   2.140013   1.093927   2.198961   3.513970
    12  H    3.019074   2.130340   1.101477   2.168363   2.847876
    13  H    3.647109   2.860895   2.172407   1.096370   2.157962
    14  H    4.453460   3.482420   2.170346   1.097665   2.176656
    15  H    4.521597   3.305267   2.798429   2.156604   1.102460
    16  H    6.145219   5.015917   4.210159   2.781180   2.171933
    17  H    6.145277   5.015965   4.721685   3.497435   2.171948
    18  H    7.579661   6.621387   6.351764   4.924638   4.060426
    19  H    7.581293   6.622819   5.980898   4.443415   4.061005
    20  H    7.283362   6.503643   6.199868   4.782387   4.429727
    21  H    4.453441   3.482416   3.977713   3.484574   2.176680
    22  H    3.646979   2.860784   3.382388   2.796098   2.158006
    23  H    3.019143   2.130371   2.883105   3.418974   2.847813
    24  H    2.529874   2.140014   3.485653   3.951825   3.513961
                    6          7          8          9         10
     6  C    0.000000
     7  O    1.416000   0.000000
     8  C    2.356563   1.410824   0.000000
     9  C    2.541570   2.942803   4.243332   0.000000
    10  C    3.916666   4.363934   5.721414   1.541852   0.000000
    11  H    4.732020   4.997619   6.302442   3.951786   3.485652
    12  H    4.239623   4.978442   6.296022   3.419034   2.883097
    13  H    2.766120   2.598058   3.862284   2.796092   3.382480
    14  H    2.766133   3.291065   4.381066   3.484572   3.977670
    15  H    2.119386   3.324790   4.467283   2.156546   2.798294
    16  H    1.104586   2.073489   2.622693   3.497463   4.721655
    17  H    1.104581   2.073487   2.621594   2.781303   4.210219
    18  H    2.657485   2.086972   1.102165   4.441034   5.978595
    19  H    2.657169   2.086954   1.102163   4.924263   6.351963
    20  H    3.277496   2.024521   1.093141   4.781753   6.199417
    21  H    2.766152   3.290949   4.379394   1.097668   2.170362
    22  H    2.766236   2.598116   3.861288   1.096347   2.172394
    23  H    4.239577   4.978405   6.295288   2.168402   1.101483
    24  H    4.732046   4.997650   6.301407   2.198953   1.093932
                   11         12         13         14         15
    11  H    0.000000
    12  H    1.770844   0.000000
    13  H    2.495937   3.072352   0.000000
    14  H    2.554118   2.466229   1.758902   0.000000
    15  H    3.819206   2.643623   3.057605   2.487947   0.000000
    16  H    4.917316   4.397093   3.112638   2.550161   2.442593
    17  H    5.635568   4.924133   3.786822   3.767259   2.442515
    18  H    7.051495   6.835877   4.680109   5.121016   4.697168
    19  H    6.490678   6.465972   4.152286   4.302055   4.697551
    20  H    6.665707   6.908420   4.170093   4.991710   5.324008
    21  H    4.995772   4.246285   3.795524   4.324472   2.487890
    22  H    4.168958   4.082477   2.615923   3.795563   3.057577
    23  H    3.861780   2.762833   4.082510   4.246143   2.643423
    24  H    4.262784   3.861759   4.169107   4.995769   3.819053
                   16         17         18         19         20
    16  H    0.000000
    17  H    1.777984   0.000000
    18  H    3.022922   2.440059   0.000000
    19  H    2.440910   3.020671   1.785896   0.000000
    20  H    3.606661   3.606105   1.786765   1.786766   0.000000
    21  H    3.767321   2.550283   4.298826   5.119461   4.990597
    22  H    3.786896   3.112867   4.149666   4.679883   4.169442
    23  H    4.924059   4.397098   6.463826   6.835852   6.907948
    24  H    5.635564   4.917407   6.487709   7.051343   6.665044
                   21         22         23         24
    21  H    0.000000
    22  H    1.758863   0.000000
    23  H    2.466332   3.072367   0.000000
    24  H    2.554084   2.495943   1.770853   0.000000
 Stoichiometry    C8H14O2
 Framework group  C1[X(C8H14O2)]
 Deg. of freedom    66
 Full point group                 C1      NOp   1
 Largest Abelian subgroup         C1      NOp   1
 Largest concise Abelian subgroup C1      NOp   1
                         Standard orientation:                         
 ---------------------------------------------------------------------
 Center     Atomic      Atomic             Coordinates (Angstroms)
 Number     Number       Type             X           Y           Z
 ---------------------------------------------------------------------
      1          8           0       -3.299779   -0.000867   -1.038401
      2          6           0       -2.370875   -0.000356   -0.253109
      3          6           0       -1.749174    1.284740    0.279552
      4          6           0       -0.210050    1.264841    0.190122
      5          6           0        0.391402    0.000634    0.831368
      6          6           0        1.919566    0.000906    0.761617
      7          8           0        2.328978    0.000349   -0.593904
      8          6           0        3.731698   -0.001041   -0.744890
      9          6           0       -0.209590   -1.264341    0.191157
     10          6           0       -1.748702   -1.284729    0.280753
     11          1           0       -2.179594    2.131065   -0.263724
     12          1           0       -2.047570    1.381857    1.335383
     13          1           0        0.099800    1.307829   -0.860674
     14          1           0        0.196161    2.162757    0.673454
     15          1           0        0.134006    0.000963    1.903360
     16          1           0        2.321588    0.890234    1.278903
     17          1           0        2.321969   -0.887749    1.279750
     18          1           0        4.189749   -0.894550   -0.290358
     19          1           0        4.191536    0.891345   -0.289962
     20          1           0        3.941777   -0.001017   -1.817655
     21          1           0        0.197012   -2.161715    0.675171
     22          1           0        0.100169   -1.308094   -0.859610
     23          1           0       -2.047007   -1.380975    1.336696
     24          1           0       -2.178843   -2.131719   -0.261717
 ---------------------------------------------------------------------
 Rotational constants (GHZ):           2.9416127           0.6647190           0.6296582
 Standard basis: 6-31G(d) (6D, 7F)
 There are   178 symmetry adapted cartesian basis functions of A   symmetry.
 There are   178 symmetry adapted basis functions of A   symmetry.
   178 basis functions,   336 primitive gaussians,   178 cartesian basis functions
    39 alpha electrons       39 beta electrons
       nuclear repulsion energy       554.2358863014 Hartrees.
 NAtoms=   24 NActive=   24 NUniq=   24 SFac= 1.00D+00 NAtFMM=   60 NAOKFM=F Big=F
 Integral buffers will be    131072 words long.
 Raffenetti 2 integral format.
 Two-electron integral symmetry is turned on.
 One-electron integrals computed using PRISM.
 NBasis=   178 RedAO= T EigKep=  3.10D-03  NBF=   178
 NBsUse=   178 1.00D-06 EigRej= -1.00D+00 NBFU=   178
 ExpMin= 1.61D-01 ExpMax= 5.48D+03 ExpMxC= 8.25D+02 IAcc=3 IRadAn=         5 AccDes= 0.00D+00
 Harris functional with IExCor=  402 and IRadAn=       5 diagonalized for initial guess.
 HarFok:  IExCor=  402 AccDes= 0.00D+00 IRadAn=         5 IDoV= 1 UseB2=F ITyADJ=14
 ICtDFT=  3500011 ScaDFX=  1.000000  1.000000  1.000000  1.000000
 FoFCou: FMM=F IPFlag=           0 FMFlag=      100000 FMFlg1=           0
         NFxFlg=           0 DoJE=T BraDBF=F KetDBF=T FulRan=T
         wScrn=  0.000000 ICntrl=       500 IOpCl=  0 I1Cent=   200000004 NGrid=           0
         NMat0=    1 NMatS0=      1 NMatT0=    0 NMatD0=    1 NMtDS0=    0 NMtDT0=    0
 Petite list used in FoFCou.
 Requested convergence on RMS density matrix=1.00D-08 within 128 cycles.
 Requested convergence on MAX density matrix=1.00D-06.
 Requested convergence on             energy=1.00D-06.
 No special actions if energy rises.
 Integral accuracy reduced to 1.0D-05 until final iterations.
 Initial convergence to 1.0D-05 achieved.  Increase integral accuracy.
 SCF Done:  E(RB3LYP) =  -463.719624668     A.U. after   14 cycles
            NFock= 14  Conv=0.41D-08     -V/T= 2.0094
 DoSCS=F DFT=T ScalE2(SS,OS)=  1.000000  1.000000
 Range of M.O.s used for correlation:     1   178
 NBasis=   178 NAE=    39 NBE=    39 NFC=     0 NFV=     0
 NROrb=    178 NOA=    39 NOB=    39 NVA=   139 NVB=   139
 Symmetrizing basis deriv contribution to polar:
 IMax=3 JMax=2 DiffMx= 0.00D+00
 G2DrvN: will do    25 centers at a time, making    1 passes.
 Calling FoFCou, ICntrl=  3107 FMM=F I1Cent=   0 AccDes= 0.00D+00.
 End of G2Drv F.D. properties file   721 does not exist.
 End of G2Drv F.D. properties file   722 does not exist.
 End of G2Drv F.D. properties file   788 does not exist.
          IDoAtm=111111111111111111111111
          Differentiating once with respect to electric field.
                with respect to dipole field.
          Differentiating once with respect to nuclear coordinates.
 Keep R1 ints in memory in canonical form, NReq=134943964.
          There are    75 degrees of freedom in the 1st order CPHF.  IDoFFX=6 NUNeed=     3.
     72 vectors produced by pass  0 Test12= 7.23D-15 1.33D-09 XBig12= 5.92D+01 2.47D+00.
 AX will form    72 AO Fock derivatives at one time.
     72 vectors produced by pass  1 Test12= 7.23D-15 1.33D-09 XBig12= 8.69D+00 9.13D-01.
     72 vectors produced by pass  2 Test12= 7.23D-15 1.33D-09 XBig12= 7.48D-02 3.92D-02.
     72 vectors produced by pass  3 Test12= 7.23D-15 1.33D-09 XBig12= 2.02D-04 1.88D-03.
     72 vectors produced by pass  4 Test12= 7.23D-15 1.33D-09 XBig12= 1.87D-07 4.69D-05.
     35 vectors produced by pass  5 Test12= 7.23D-15 1.33D-09 XBig12= 9.68D-11 1.12D-06.
      3 vectors produced by pass  6 Test12= 7.23D-15 1.33D-09 XBig12= 5.19D-14 2.47D-08.
 InvSVY:  IOpt=1 It=  1 EMax= 1.07D-14
 Solved reduced A of dimension   398 with    75 vectors.
 Isotropic polarizability for W=    0.000000       87.47 Bohr**3.
 End of Minotr F.D. properties file   721 does not exist.
 End of Minotr F.D. properties file   722 does not exist.
 End of Minotr F.D. properties file   788 does not exist.

 **********************************************************************

            Population analysis using the SCF density.

 **********************************************************************

 Orbital symmetries:
       Occupied  (A) (A) (A) (A) (A) (A) (A) (A) (A) (A) (A) (A)
                 (A) (A) (A) (A) (A) (A) (A) (A) (A) (A) (A) (A)
                 (A) (A) (A) (A) (A) (A) (A) (A) (A) (A) (A) (A)
                 (A) (A) (A)
       Virtual   (A) (A) (A) (A) (A) (A) (A) (A) (A) (A) (A) (A)
                 (A) (A) (A) (A) (A) (A) (A) (A) (A) (A) (A) (A)
                 (A) (A) (A) (A) (A) (A) (A) (A) (A) (A) (A) (A)
                 (A) (A) (A) (A) (A) (A) (A) (A) (A) (A) (A) (A)
                 (A) (A) (A) (A) (A) (A) (A) (A) (A) (A) (A) (A)
                 (A) (A) (A) (A) (A) (A) (A) (A) (A) (A) (A) (A)
                 (A) (A) (A) (A) (A) (A) (A) (A) (A) (A) (A) (A)
                 (A) (A) (A) (A) (A) (A) (A) (A) (A) (A) (A) (A)
                 (A) (A) (A) (A) (A) (A) (A) (A) (A) (A) (A) (A)
                 (A) (A) (A) (A) (A) (A) (A) (A) (A) (A) (A) (A)
                 (A) (A) (A) (A) (A) (A) (A) (A) (A) (A) (A) (A)
                 (A) (A) (A) (A) (A) (A) (A)
 The electronic state is 1-A.
 Alpha  occ. eigenvalues --  -19.15307 -19.12949 -10.26566 -10.23539 -10.23164
 Alpha  occ. eigenvalues --  -10.19716 -10.18849 -10.18847 -10.18799 -10.18797
 Alpha  occ. eigenvalues --   -1.03688  -1.02824  -0.83494  -0.75728  -0.75182
 Alpha  occ. eigenvalues --   -0.69270  -0.64301  -0.62675  -0.57210  -0.52979
 Alpha  occ. eigenvalues --   -0.48820  -0.47929  -0.47735  -0.45505  -0.44612
 Alpha  occ. eigenvalues --   -0.43733  -0.42522  -0.41370  -0.39209  -0.39071
 Alpha  occ. eigenvalues --   -0.38141  -0.35435  -0.35091  -0.34169  -0.32343
 Alpha  occ. eigenvalues --   -0.31990  -0.31019  -0.25964  -0.23175
 Alpha virt. eigenvalues --   -0.00989   0.08240   0.09802   0.11637   0.12351
 Alpha virt. eigenvalues --    0.12783   0.13528   0.15138   0.15389   0.16259
 Alpha virt. eigenvalues --    0.17161   0.17335   0.17641   0.18182   0.18627
 Alpha virt. eigenvalues --    0.19490   0.20387   0.22228   0.24875   0.25616
 Alpha virt. eigenvalues --    0.26447   0.27427   0.28715   0.32349   0.35907
 Alpha virt. eigenvalues --    0.50906   0.50953   0.52051   0.53399   0.53617
 Alpha virt. eigenvalues --    0.53800   0.56817   0.57276   0.60072   0.61738
 Alpha virt. eigenvalues --    0.62683   0.64551   0.65640   0.67138   0.70983
 Alpha virt. eigenvalues --    0.72121   0.72653   0.72808   0.75144   0.79476
 Alpha virt. eigenvalues --    0.80480   0.82521   0.82885   0.84735   0.85191
 Alpha virt. eigenvalues --    0.87235   0.88304   0.88565   0.88895   0.89162
 Alpha virt. eigenvalues --    0.91317   0.92784   0.93706   0.94069   0.95412
 Alpha virt. eigenvalues --    0.96430   0.96546   0.98277   1.02962   1.05044
 Alpha virt. eigenvalues --    1.09914   1.11111   1.13043   1.16324   1.21077
 Alpha virt. eigenvalues --    1.29527   1.30053   1.35778   1.37566   1.41391
 Alpha virt. eigenvalues --    1.43329   1.49056   1.50783   1.52009   1.52270
 Alpha virt. eigenvalues --    1.59534   1.67683   1.69110   1.70224   1.70911
 Alpha virt. eigenvalues --    1.76129   1.78082   1.78872   1.82556   1.83253
 Alpha virt. eigenvalues --    1.85817   1.89540   1.93249   1.94033   1.95712
 Alpha virt. eigenvalues --    1.95883   1.98441   2.01207   2.02836   2.04611
 Alpha virt. eigenvalues --    2.06118   2.07267   2.09328   2.13477   2.13658
 Alpha virt. eigenvalues --    2.20342   2.21962   2.23099   2.25594   2.30586
 Alpha virt. eigenvalues --    2.33964   2.34497   2.38653   2.43552   2.44839
 Alpha virt. eigenvalues --    2.45565   2.51052   2.51843   2.56823   2.62876
 Alpha virt. eigenvalues --    2.64818   2.67446   2.72838   2.75938   2.78975
 Alpha virt. eigenvalues --    2.83487   2.98132   2.98446   3.02128   3.92094
 Alpha virt. eigenvalues --    4.00255   4.12467   4.23640   4.26295   4.27344
 Alpha virt. eigenvalues --    4.38102   4.55162   4.57706   4.62664
          Condensed to atoms (all electrons):
               1          2          3          4          5          6
     1  O    7.996222   0.592464  -0.078708   0.001426   0.000118   0.000000
     2  C    0.592464   4.463347   0.327657  -0.021372  -0.015320   0.000414
     3  C   -0.078708   0.327657   5.323732   0.322679  -0.037744   0.003763
     4  C    0.001426  -0.021372   0.322679   5.069135   0.371941  -0.037076
     5  C    0.000118  -0.015320  -0.037744   0.371941   4.969017   0.375192
     6  C    0.000000   0.000414   0.003763  -0.037076   0.375192   4.876583
     7  O   -0.000000  -0.000017   0.000195  -0.001506  -0.052059   0.241684
     8  C    0.000000   0.000000  -0.000002   0.000188   0.005907  -0.041539
     9  C    0.001425  -0.021373  -0.001957  -0.052548   0.371924  -0.037082
    10  C   -0.078703   0.327649  -0.143995  -0.001957  -0.037743   0.003763
    11  H    0.004765  -0.023733   0.344593  -0.025535   0.003677  -0.000112
    12  H    0.001213  -0.029218   0.345764  -0.035073  -0.003479  -0.000054
    13  H    0.000369  -0.002859  -0.039674   0.376448  -0.038103  -0.008364
    14  H   -0.000068   0.003014  -0.028091   0.361478  -0.032297  -0.003631
    15  H   -0.000008  -0.001962  -0.002042  -0.048016   0.364549  -0.040200
    16  H   -0.000000  -0.000004  -0.000027  -0.010605  -0.033736   0.351214
    17  H   -0.000000  -0.000004  -0.000101   0.006363  -0.033706   0.351188
    18  H    0.000000  -0.000000   0.000000   0.000043  -0.000049  -0.008516
    19  H    0.000000  -0.000000  -0.000001  -0.000139  -0.000051  -0.008513
    20  H   -0.000000  -0.000000  -0.000000   0.000005  -0.000234   0.006093
    21  H   -0.000068   0.003014  -0.000284   0.005461  -0.032294  -0.003629
    22  H    0.000369  -0.002859   0.000578  -0.006436  -0.038103  -0.008361
    23  H    0.001213  -0.029216   0.003766  -0.001544  -0.003480  -0.000054
    24  H    0.004765  -0.023733   0.006768  -0.000175   0.003677  -0.000112
               7          8          9         10         11         12
     1  O   -0.000000   0.000000   0.001425  -0.078703   0.004765   0.001213
     2  C   -0.000017   0.000000  -0.021373   0.327649  -0.023733  -0.029218
     3  C    0.000195  -0.000002  -0.001957  -0.143995   0.344593   0.345764
     4  C   -0.001506   0.000188  -0.052548  -0.001957  -0.025535  -0.035073
     5  C   -0.052059   0.005907   0.371924  -0.037743   0.003677  -0.003479
     6  C    0.241684  -0.041539  -0.037082   0.003763  -0.000112  -0.000054
     7  O    8.185440   0.260439  -0.001497   0.000196   0.000001  -0.000002
     8  C    0.260439   4.873168   0.000188  -0.000002  -0.000000   0.000000
     9  C   -0.001497   0.000188   5.069149   0.322674  -0.000175  -0.001543
    10  C    0.000196  -0.000002   0.322674   5.323736   0.006768   0.003767
    11  H    0.000001  -0.000000  -0.000175   0.006768   0.559552  -0.026949
    12  H   -0.000002   0.000000  -0.001543   0.003767  -0.026949   0.590634
    13  H    0.009880  -0.000325  -0.006437   0.000578  -0.003002   0.005350
    14  H   -0.000330  -0.000046   0.005461  -0.000284  -0.002404  -0.006542
    15  H    0.002980  -0.000206  -0.048014  -0.002041  -0.000025   0.004849
    16  H   -0.041555  -0.006474   0.006363  -0.000101  -0.000002  -0.000004
    17  H   -0.041545  -0.006491  -0.010601  -0.000027   0.000002  -0.000004
    18  H   -0.038322   0.360337  -0.000140  -0.000001   0.000000  -0.000000
    19  H   -0.038315   0.360328   0.000043   0.000000   0.000000   0.000000
    20  H   -0.033348   0.385486   0.000005  -0.000000   0.000000   0.000000
    21  H   -0.000331  -0.000046   0.361478  -0.028090   0.000017  -0.000015
    22  H    0.009887  -0.000325   0.376444  -0.039671  -0.000033   0.000087
    23  H   -0.000002   0.000000  -0.035071   0.345765  -0.000142   0.001185
    24  H    0.000001  -0.000000  -0.025537   0.344590  -0.000179  -0.000142
              13         14         15         16         17         18
     1  O    0.000369  -0.000068  -0.000008  -0.000000  -0.000000   0.000000
     2  C   -0.002859   0.003014  -0.001962  -0.000004  -0.000004  -0.000000
     3  C   -0.039674  -0.028091  -0.002042  -0.000027  -0.000101   0.000000
     4  C    0.376448   0.361478  -0.048016  -0.010605   0.006363   0.000043
     5  C   -0.038103  -0.032297   0.364549  -0.033736  -0.033706  -0.000049
     6  C   -0.008364  -0.003631  -0.040200   0.351214   0.351188  -0.008516
     7  O    0.009880  -0.000330   0.002980  -0.041555  -0.041545  -0.038322
     8  C   -0.000325  -0.000046  -0.000206  -0.006474  -0.006491   0.360337
     9  C   -0.006437   0.005461  -0.048014   0.006363  -0.010601  -0.000140
    10  C    0.000578  -0.000284  -0.002041  -0.000101  -0.000027  -0.000001
    11  H   -0.003002  -0.002404  -0.000025  -0.000002   0.000002   0.000000
    12  H    0.005350  -0.006542   0.004849  -0.000004  -0.000004  -0.000000
    13  H    0.563756  -0.034941   0.006114  -0.000108   0.000256   0.000026
    14  H   -0.034941   0.602960  -0.004327   0.005349  -0.000125  -0.000001
    15  H    0.006114  -0.004327   0.643674  -0.000769  -0.000780   0.000008
    16  H   -0.000108   0.005349  -0.000769   0.660435  -0.058376  -0.002641
    17  H    0.000256  -0.000125  -0.000780  -0.058376   0.660456   0.013796
    18  H    0.000026  -0.000001   0.000008  -0.002641   0.013796   0.629757
    19  H    0.000012   0.000024   0.000008   0.013779  -0.002648  -0.051552
    20  H   -0.000006   0.000000   0.000004  -0.000138  -0.000137  -0.033691
    21  H    0.000012  -0.000194  -0.004328  -0.000125   0.005347   0.000024
    22  H    0.004600   0.000012   0.006114   0.000256  -0.000109   0.000012
    23  H    0.000087  -0.000015   0.004850  -0.000004  -0.000004   0.000000
    24  H   -0.000033   0.000017  -0.000025   0.000002  -0.000002   0.000000
              19         20         21         22         23         24
     1  O    0.000000  -0.000000  -0.000068   0.000369   0.001213   0.004765
     2  C   -0.000000  -0.000000   0.003014  -0.002859  -0.029216  -0.023733
     3  C   -0.000001  -0.000000  -0.000284   0.000578   0.003766   0.006768
     4  C   -0.000139   0.000005   0.005461  -0.006436  -0.001544  -0.000175
     5  C   -0.000051  -0.000234  -0.032294  -0.038103  -0.003480   0.003677
     6  C   -0.008513   0.006093  -0.003629  -0.008361  -0.000054  -0.000112
     7  O   -0.038315  -0.033348  -0.000331   0.009887  -0.000002   0.000001
     8  C    0.360328   0.385486  -0.000046  -0.000325   0.000000  -0.000000
     9  C    0.000043   0.000005   0.361478   0.376444  -0.035071  -0.025537
    10  C    0.000000  -0.000000  -0.028090  -0.039671   0.345765   0.344590
    11  H    0.000000   0.000000   0.000017  -0.000033  -0.000142  -0.000179
    12  H    0.000000   0.000000  -0.000015   0.000087   0.001185  -0.000142
    13  H    0.000012  -0.000006   0.000012   0.004600   0.000087  -0.000033
    14  H    0.000024   0.000000  -0.000194   0.000012  -0.000015   0.000017
    15  H    0.000008   0.000004  -0.004328   0.006114   0.004850  -0.000025
    16  H    0.013779  -0.000138  -0.000125   0.000256  -0.000004   0.000002
    17  H   -0.002648  -0.000137   0.005347  -0.000109  -0.000004  -0.000002
    18  H   -0.051552  -0.033691   0.000024   0.000012   0.000000   0.000000
    19  H    0.629786  -0.033686  -0.000001   0.000026  -0.000000   0.000000
    20  H   -0.033686   0.548912   0.000000  -0.000006   0.000000   0.000000
    21  H   -0.000001   0.000000   0.602970  -0.034945  -0.006540  -0.002405
    22  H    0.000026  -0.000006  -0.034945   0.563760   0.005349  -0.003000
    23  H   -0.000000   0.000000  -0.006540   0.005349   0.590629  -0.026950
    24  H    0.000000   0.000000  -0.002405  -0.003000  -0.026950   0.559561
 Mulliken charges:
               1
     1  O   -0.446796
     2  C    0.454111
     3  C   -0.346870
     4  C   -0.273186
     5  C   -0.107604
     6  C   -0.012653
     7  O   -0.461874
     8  C   -0.190587
     9  C   -0.273182
    10  C   -0.346872
    11  H    0.162916
    12  H    0.150177
    13  H    0.166362
    14  H    0.134979
    15  H    0.119595
    16  H    0.117271
    17  H    0.117252
    18  H    0.130909
    19  H    0.130898
    20  H    0.160739
    21  H    0.134971
    22  H    0.166355
    23  H    0.150175
    24  H    0.162912
 Sum of Mulliken charges =  -0.00000
 Mulliken charges with hydrogens summed into heavy atoms:
               1
     1  O   -0.446796
     2  C    0.454111
     3  C   -0.033777
     4  C    0.028155
     5  C    0.011992
     6  C    0.221870
     7  O   -0.461874
     8  C    0.231958
     9  C    0.028144
    10  C   -0.033784
 APT charges:
               1
     1  O   -0.644907
     2  C    0.723608
     3  C   -0.041705
     4  C    0.112780
     5  C    0.083067
     6  C    0.547350
     7  O   -0.769701
     8  C    0.581636
     9  C    0.112751
    10  C   -0.041699
    11  H   -0.030705
    12  H   -0.017367
    13  H   -0.008126
    14  H   -0.052524
    15  H   -0.070433
    16  H   -0.096071
    17  H   -0.096008
    18  H   -0.078154
    19  H   -0.078158
    20  H   -0.026908
    21  H   -0.052527
    22  H   -0.008121
    23  H   -0.017367
    24  H   -0.030711
 Sum of APT charges =   0.00000
 APT charges with hydrogens summed into heavy atoms:
               1
     1  O   -0.644907
     2  C    0.723608
     3  C   -0.089778
     4  C    0.052131
     5  C    0.012634
     6  C    0.355271
     7  O   -0.769701
     8  C    0.398416
     9  C    0.052103
    10  C   -0.089777
 Electronic spatial extent (au):  <R**2>=           1911.3485
 Charge=             -0.0000 electrons
 Dipole moment (field-independent basis, Debye):
    X=              3.3757    Y=              0.0004    Z=              2.5234  Tot=              4.2146
 Quadrupole moment (field-independent basis, Debye-Ang):
   XX=            -67.2062   YY=            -59.6349   ZZ=            -61.7946
   XY=             -0.0086   XZ=             -6.0839   YZ=             -0.0002
 Traceless Quadrupole moment (field-independent basis, Debye-Ang):
   XX=             -4.3276   YY=              3.2437   ZZ=              1.0840
   XY=             -0.0086   XZ=             -6.0839   YZ=             -0.0002
 Octapole moment (field-independent basis, Debye-Ang**2):
  XXX=             74.9558  YYY=             -0.0025  ZZZ=             -5.2834  XYY=             -3.1023
  XXY=              0.0043  XXZ=             15.9664  XZZ=              7.0588  YZZ=              0.0001
  YYZ=             -1.6430  XYZ=              0.0117
 Hexadecapole moment (field-independent basis, Debye-Ang**3):
 XXXX=          -1896.6057 YYYY=           -380.8939 ZZZZ=           -238.0998 XXXY=             -0.0899
 XXXZ=            -98.2196 YYYX=              0.0112 YYYZ=              0.0035 ZZZX=            -11.7258
 ZZZY=              0.0014 XXYY=           -363.4373 XXZZ=           -355.6861 YYZZ=           -104.1538
 XXYZ=             -0.0042 YYXZ=              5.5313 ZZXY=             -0.0101
 N-N= 5.542358863014D+02 E-N=-2.187586064875D+03  KE= 4.593957025494D+02
  Exact polarizability: 102.076  -0.001  82.794   3.290   0.002  77.530
 Approx polarizability: 125.189   0.002 113.350  10.281   0.007 121.703
 Calling FoFJK, ICntrl=    100127 FMM=F ISym2X=0 I1Cent= 0 IOpClX= 0 NMat=1 NMatS=1 NMatT=0.
 Full mass-weighted force constant matrix:
 Low frequencies ---   -4.3549   -2.9346   -0.0013   -0.0010    0.0003    3.7721
 Low frequencies ---   56.9249   76.8140  107.1236
 Diagonal vibrational polarizability:
       12.5105182      17.3842916      15.8714062
 Harmonic frequencies (cm**-1), IR intensities (KM/Mole), Raman scattering
 activities (A**4/AMU), depolarization ratios for plane and unpolarized
 incident light, reduced masses (AMU), force constants (mDyne/A),
 and normal coordinates:
                      1                      2                      3
                      A                      A                      A
 Frequencies --     56.9249                76.8138               107.1222
 Red. masses --      6.3142                 2.8063                 2.1098
 Frc consts  --      0.0121                 0.0098                 0.0143
 IR Inten    --      1.6000                 0.9505                 2.6276
  Atom  AN      X      Y      Z        X      Y      Z        X      Y      Z
     1   8    -0.32   0.00   0.32     0.00   0.04  -0.00    -0.00  -0.02   0.00
     2   6    -0.08   0.00   0.04    -0.00   0.03  -0.00     0.00  -0.00  -0.00
     3   6     0.03   0.02  -0.11     0.07   0.02  -0.07     0.04   0.01  -0.07
     4   6     0.02  -0.01  -0.17     0.07  -0.07  -0.06     0.04  -0.04  -0.04
     5   6    -0.00  -0.00  -0.13    -0.00  -0.08   0.00     0.00  -0.04   0.00
     6   6     0.00  -0.00   0.00    -0.00  -0.13   0.00     0.00  -0.07   0.00
     7   8     0.14  -0.00   0.05    -0.00  -0.09  -0.00     0.00   0.23   0.00
     8   6     0.16   0.00   0.21     0.00   0.28  -0.00    -0.00  -0.03  -0.00
     9   6     0.02   0.01  -0.17    -0.07  -0.07   0.06    -0.04  -0.04   0.04
    10   6     0.03  -0.02  -0.11    -0.07   0.02   0.07    -0.04   0.01   0.07
    11   1     0.01  -0.01  -0.15     0.13   0.02  -0.12     0.08  -0.01  -0.12
    12   1     0.07   0.10  -0.11     0.07   0.10  -0.07     0.02   0.08  -0.08
    13   1    -0.00  -0.06  -0.18     0.08  -0.14  -0.06     0.05  -0.09  -0.04
    14   1     0.05   0.00  -0.22     0.12  -0.07  -0.10     0.06  -0.04  -0.07
    15   1    -0.07  -0.00  -0.14     0.00  -0.02   0.00    -0.00  -0.01   0.00
    16   1    -0.05  -0.00   0.04     0.01  -0.14   0.02     0.03  -0.20   0.20
    17   1    -0.05   0.00   0.04    -0.01  -0.14  -0.02    -0.03  -0.20  -0.20
    18   1     0.11   0.00   0.26     0.25   0.43   0.04    -0.20  -0.31  -0.35
    19   1     0.11   0.00   0.26    -0.25   0.43  -0.04     0.20  -0.31   0.35
    20   1     0.29   0.00   0.23     0.00   0.28  -0.00    -0.00   0.35  -0.00
    21   1     0.05  -0.00  -0.22    -0.12  -0.07   0.10    -0.06  -0.04   0.07
    22   1    -0.00   0.06  -0.18    -0.08  -0.14   0.06    -0.05  -0.09   0.04
    23   1     0.07  -0.10  -0.11    -0.07   0.10   0.07    -0.02   0.08   0.08
    24   1     0.01   0.01  -0.15    -0.13   0.02   0.12    -0.08  -0.01   0.12
                      4                      5                      6
                      A                      A                      A
 Frequencies --    142.1711               177.2878               232.0230
 Red. masses --      3.4534                 2.0331                 1.3264
 Frc consts  --      0.0411                 0.0377                 0.0421
 IR Inten    --      3.9633                 1.2894                 3.3517
  Atom  AN      X      Y      Z        X      Y      Z        X      Y      Z
     1   8     0.12  -0.00  -0.09    -0.00   0.10  -0.00    -0.00  -0.01   0.00
     2   6    -0.05   0.00   0.10     0.00   0.02  -0.00    -0.00  -0.00  -0.00
     3   6    -0.08  -0.01   0.17     0.00  -0.04   0.11    -0.02   0.00   0.01
     4   6    -0.08  -0.00  -0.08    -0.02  -0.07  -0.14    -0.02   0.04  -0.01
     5   6    -0.02  -0.00  -0.14     0.00   0.02  -0.00     0.00   0.05   0.00
     6   6    -0.02  -0.00  -0.11    -0.00   0.05  -0.00     0.00   0.00  -0.00
     7   8     0.11   0.00  -0.07    -0.00   0.03  -0.00     0.00  -0.13  -0.00
     8   6     0.13  -0.00   0.13    -0.00  -0.00   0.00     0.00   0.02   0.00
     9   6    -0.08   0.00  -0.08     0.02  -0.07   0.14     0.02   0.03   0.01
    10   6    -0.08   0.01   0.17    -0.00  -0.04  -0.11     0.02   0.00  -0.01
    11   1    -0.17   0.02   0.29    -0.08   0.02   0.27    -0.05   0.00   0.04
    12   1     0.09  -0.11   0.22     0.18  -0.18   0.17    -0.00  -0.02   0.02
    13   1    -0.25  -0.01  -0.13    -0.18  -0.25  -0.20    -0.03   0.03  -0.01
    14   1    -0.01   0.00  -0.15     0.08   0.00  -0.35    -0.03   0.05  -0.02
    15   1     0.02  -0.00  -0.13    -0.00   0.16  -0.00     0.00   0.06   0.00
    16   1    -0.05  -0.00  -0.08    -0.03   0.07  -0.02     0.03   0.04  -0.09
    17   1    -0.05   0.00  -0.08     0.03   0.07   0.02    -0.03   0.04   0.09
    18   1     0.06  -0.00   0.20    -0.02  -0.01   0.00     0.05  -0.19  -0.48
    19   1     0.06  -0.00   0.20     0.02  -0.01  -0.00    -0.05  -0.19   0.48
    20   1     0.29   0.00   0.16    -0.00  -0.02   0.00     0.00   0.62   0.00
    21   1    -0.01  -0.00  -0.15    -0.08   0.00   0.35     0.03   0.05   0.02
    22   1    -0.25   0.01  -0.13     0.18  -0.25   0.20     0.03   0.03   0.01
    23   1     0.09   0.11   0.22    -0.18  -0.18  -0.17     0.00  -0.02  -0.02
    24   1    -0.17  -0.02   0.29     0.08   0.02  -0.27     0.05   0.00  -0.04
                      7                      8                      9
                      A                      A                      A
 Frequencies --    246.3941               317.5069               323.3506
 Red. masses --      3.1639                 3.3963                 2.0522
 Frc consts  --      0.1132                 0.2017                 0.1264
 IR Inten    --      0.7113                 0.6605                 0.0040
  Atom  AN      X      Y      Z        X      Y      Z        X      Y      Z
     1   8    -0.11   0.00  -0.03     0.08   0.00   0.07    -0.00   0.06  -0.00
     2   6    -0.06  -0.00  -0.09     0.11   0.00   0.04    -0.00   0.02  -0.00
     3   6    -0.07  -0.02  -0.03     0.07   0.05  -0.03     0.03   0.01  -0.03
     4   6    -0.04   0.03   0.17     0.04   0.05   0.03     0.01  -0.11   0.04
     5   6     0.04  -0.00   0.05    -0.03  -0.00  -0.02     0.00  -0.12   0.00
     6   6     0.06   0.00  -0.13    -0.10   0.00  -0.15     0.00   0.20   0.00
     7   8     0.12   0.00  -0.12    -0.15   0.00  -0.17     0.00  -0.00   0.00
     8   6     0.15  -0.00   0.02    -0.11  -0.00   0.21     0.00  -0.01  -0.00
     9   6    -0.04  -0.03   0.17     0.04  -0.05   0.03    -0.01  -0.11  -0.04
    10   6    -0.07   0.02  -0.03     0.07  -0.05  -0.03    -0.03   0.01   0.03
    11   1     0.01   0.00  -0.06     0.06  -0.02  -0.12     0.12   0.00  -0.11
    12   1    -0.22  -0.04  -0.07     0.02   0.13  -0.05    -0.04   0.09  -0.06
    13   1     0.07   0.21   0.21     0.10   0.12   0.05     0.05  -0.09   0.06
    14   1    -0.16  -0.01   0.35     0.06  -0.01   0.13     0.05  -0.15   0.08
    15   1     0.22  -0.00   0.09     0.02  -0.00  -0.01    -0.00  -0.18   0.00
    16   1     0.08  -0.00  -0.13    -0.04   0.00  -0.20    -0.26   0.46  -0.22
    17   1     0.08   0.00  -0.13    -0.04   0.01  -0.19     0.26   0.46   0.22
    18   1     0.10   0.00   0.07    -0.27   0.00   0.37    -0.02  -0.08  -0.11
    19   1     0.10  -0.00   0.07    -0.27  -0.01   0.37     0.02  -0.08   0.10
    20   1     0.26  -0.00   0.04     0.24   0.00   0.28    -0.00   0.12  -0.00
    21   1    -0.16   0.01   0.35     0.06   0.01   0.13    -0.05  -0.15  -0.08
    22   1     0.07  -0.21   0.21     0.10  -0.12   0.05    -0.05  -0.09  -0.06
    23   1    -0.22   0.04  -0.07     0.02  -0.13  -0.05     0.04   0.09   0.06
    24   1     0.01  -0.00  -0.06     0.06   0.02  -0.12    -0.12  -0.00   0.11
                     10                     11                     12
                      A                      A                      A
 Frequencies --    417.4146               426.4622               445.8697
 Red. masses --      2.4399                 3.6672                 1.7906
 Frc consts  --      0.2505                 0.3930                 0.2097
 IR Inten    --      3.4111                 4.1376                 0.1416
  Atom  AN      X      Y      Z        X      Y      Z        X      Y      Z
     1   8     0.12  -0.00   0.05    -0.00  -0.12  -0.00     0.04  -0.00  -0.03
     2   6     0.04   0.00   0.13    -0.00   0.15  -0.00    -0.07   0.00   0.09
     3   6    -0.04   0.11  -0.04    -0.16   0.19   0.06    -0.03   0.03  -0.02
     4   6    -0.05   0.09   0.01    -0.14  -0.10   0.01    -0.02  -0.10   0.00
     5   6    -0.09  -0.00  -0.08     0.00  -0.09   0.00     0.03   0.00   0.14
     6   6    -0.06  -0.00   0.02     0.00  -0.06   0.00     0.05  -0.00  -0.02
     7   8     0.07  -0.00   0.05    -0.00  -0.01  -0.00     0.00   0.00  -0.05
     8   6     0.07  -0.00  -0.08    -0.00  -0.00   0.00     0.02  -0.00   0.01
     9   6    -0.05  -0.09   0.01     0.14  -0.10  -0.01    -0.02   0.10   0.00
    10   6    -0.04  -0.11  -0.04     0.16   0.19  -0.06    -0.03  -0.03  -0.02
    11   1    -0.03  -0.06  -0.32     0.00   0.21  -0.05     0.10  -0.06  -0.26
    12   1    -0.12   0.41  -0.09    -0.24   0.28   0.02    -0.10   0.32  -0.07
    13   1    -0.01   0.22   0.03    -0.28  -0.23  -0.04    -0.07  -0.39  -0.02
    14   1    -0.02   0.00   0.15     0.05  -0.09  -0.16     0.04   0.01  -0.27
    15   1    -0.10  -0.00  -0.08     0.00  -0.16   0.00     0.11   0.00   0.16
    16   1    -0.12   0.00   0.06     0.03  -0.11   0.05     0.09  -0.00  -0.06
    17   1    -0.12  -0.00   0.06    -0.03  -0.11  -0.05     0.09   0.00  -0.06
    18   1     0.13  -0.00  -0.14     0.00   0.01   0.01    -0.01   0.00   0.05
    19   1     0.13   0.00  -0.14    -0.01   0.01  -0.01    -0.01  -0.00   0.05
    20   1    -0.07   0.00  -0.10     0.00  -0.01   0.00     0.09  -0.00   0.03
    21   1    -0.02  -0.00   0.15    -0.05  -0.09   0.16     0.04  -0.01  -0.27
    22   1    -0.01  -0.22   0.03     0.28  -0.23   0.04    -0.07   0.39  -0.02
    23   1    -0.12  -0.41  -0.09     0.24   0.28  -0.02    -0.10  -0.32  -0.07
    24   1    -0.03   0.06  -0.32    -0.00   0.21   0.05     0.10   0.06  -0.26
                     13                     14                     15
                      A                      A                      A
 Frequencies --    504.0060               620.7223               714.6814
 Red. masses --      3.2234                 3.8346                 3.2099
 Frc consts  --      0.4824                 0.8705                 0.9660
 IR Inten    --      6.9299                 0.3273                 0.7879
  Atom  AN      X      Y      Z        X      Y      Z        X      Y      Z
     1   8    -0.00   0.28  -0.00     0.05   0.00   0.12     0.08   0.00   0.12
     2   6     0.00  -0.08   0.00     0.24  -0.00  -0.13     0.20   0.00  -0.06
     3   6    -0.11  -0.09  -0.08     0.03  -0.03  -0.02    -0.10  -0.06  -0.03
     4   6    -0.13  -0.02  -0.00    -0.08  -0.06   0.03    -0.11   0.03  -0.02
     5   6     0.00   0.03  -0.00    -0.21   0.00   0.14     0.13   0.00  -0.04
     6   6     0.00  -0.04   0.00    -0.20  -0.00  -0.05     0.20   0.00   0.03
     7   8    -0.00  -0.01   0.00     0.07   0.00  -0.04    -0.03  -0.00   0.03
     8   6    -0.00   0.00   0.00     0.13  -0.00  -0.06    -0.08   0.00   0.03
     9   6     0.13  -0.02   0.00    -0.08   0.06   0.03    -0.11  -0.03  -0.02
    10   6     0.11  -0.09   0.08     0.03   0.03  -0.02    -0.10   0.06  -0.03
    11   1    -0.09  -0.26  -0.36    -0.05   0.00   0.10    -0.16  -0.16  -0.13
    12   1    -0.27   0.16  -0.15    -0.05  -0.29  -0.02    -0.30  -0.12  -0.09
    13   1    -0.14  -0.03  -0.01    -0.07  -0.34   0.02    -0.27   0.02  -0.07
    14   1    -0.19   0.02  -0.04     0.05  -0.00  -0.19    -0.15   0.11  -0.14
    15   1     0.00  -0.01   0.00    -0.12   0.00   0.16     0.15  -0.00  -0.04
    16   1     0.10  -0.13   0.06    -0.24  -0.00  -0.02     0.25   0.00   0.00
    17   1    -0.10  -0.13  -0.06    -0.24   0.00  -0.02     0.25  -0.00   0.00
    18   1     0.01   0.01   0.00     0.16  -0.00  -0.10    -0.10   0.00   0.07
    19   1    -0.01   0.01  -0.00     0.16   0.00  -0.10    -0.10  -0.00   0.07
    20   1    -0.00  -0.00   0.00     0.05  -0.00  -0.08    -0.02   0.00   0.05
    21   1     0.19   0.02   0.04     0.05   0.00  -0.19    -0.15  -0.11  -0.14
    22   1     0.14  -0.03   0.01    -0.07   0.34   0.02    -0.27  -0.02  -0.07
    23   1     0.27   0.16   0.15    -0.05   0.29  -0.02    -0.30   0.12  -0.09
    24   1     0.09  -0.25   0.36    -0.05  -0.00   0.10    -0.16   0.16  -0.13
                     16                     17                     18
                      A                      A                      A
 Frequencies --    750.7315               769.4155               824.0365
 Red. masses --      3.2641                 1.5630                 2.2588
 Frc consts  --      1.0839                 0.5452                 0.9037
 IR Inten    --      2.1890                 3.2064                11.4623
  Atom  AN      X      Y      Z        X      Y      Z        X      Y      Z
     1   8    -0.08  -0.00  -0.03    -0.00  -0.02   0.00     0.05   0.00   0.01
     2   6     0.04  -0.00  -0.15     0.00  -0.08  -0.00    -0.04   0.00   0.10
     3   6    -0.03   0.23   0.06     0.05  -0.01   0.10    -0.04  -0.03  -0.08
     4   6     0.02   0.15  -0.00     0.05   0.03   0.06     0.00   0.09  -0.07
     5   6    -0.00   0.00   0.09    -0.00   0.06   0.00    -0.06   0.00   0.18
     6   6     0.07   0.00   0.02     0.00   0.01   0.00     0.06   0.00   0.07
     7   8    -0.01   0.00  -0.02    -0.00  -0.00  -0.00    -0.02   0.00  -0.07
     8   6     0.00  -0.00   0.00     0.00  -0.00  -0.00     0.05  -0.00  -0.01
     9   6     0.02  -0.15  -0.00    -0.05   0.03  -0.06     0.00  -0.09  -0.07
    10   6    -0.03  -0.23   0.06    -0.05  -0.01  -0.10    -0.04   0.03  -0.08
    11   1    -0.11   0.27   0.17     0.17  -0.18  -0.26    -0.33  -0.05   0.12
    12   1    -0.07   0.02   0.06    -0.18   0.34  -0.00     0.29  -0.14   0.03
    13   1    -0.14  -0.15  -0.06    -0.17  -0.23  -0.02     0.28   0.06   0.02
    14   1     0.30   0.18  -0.29     0.20   0.13  -0.25    -0.21   0.13   0.03
    15   1     0.00   0.00   0.09    -0.00  -0.04   0.00    -0.21   0.00   0.14
    16   1     0.12  -0.00  -0.02     0.02   0.01  -0.00     0.16  -0.00  -0.02
    17   1     0.12   0.00  -0.02    -0.02   0.01   0.00     0.16   0.00  -0.02
    18   1    -0.01   0.00   0.02     0.00   0.00  -0.00     0.01   0.00   0.03
    19   1    -0.01  -0.00   0.02    -0.00   0.00   0.00     0.01  -0.00   0.03
    20   1     0.05  -0.00   0.01     0.00   0.00  -0.00     0.15  -0.00   0.00
    21   1     0.30  -0.19  -0.29    -0.20   0.13   0.25    -0.21  -0.13   0.03
    22   1    -0.14   0.15  -0.06     0.17  -0.23   0.02     0.28  -0.06   0.02
    23   1    -0.07  -0.02   0.06     0.18   0.34   0.00     0.29   0.14   0.03
    24   1    -0.11  -0.27   0.17    -0.17  -0.18   0.26    -0.33   0.05   0.12
                     19                     20                     21
                      A                      A                      A
 Frequencies --    905.8313               929.9733               952.9484
 Red. masses --      2.0099                 1.3791                 2.3780
 Frc consts  --      0.9717                 0.7027                 1.2723
 IR Inten    --      5.4097                 3.4688                 7.3128
  Atom  AN      X      Y      Z        X      Y      Z        X      Y      Z
     1   8    -0.00  -0.02   0.00     0.00  -0.02   0.00    -0.01   0.00   0.01
     2   6    -0.00   0.08  -0.00    -0.00  -0.00   0.00     0.03  -0.00  -0.05
     3   6     0.09  -0.03  -0.05     0.03  -0.00   0.07     0.02   0.03   0.04
     4   6    -0.07  -0.07   0.08    -0.03  -0.06  -0.06    -0.04  -0.08  -0.01
     5   6    -0.00   0.13  -0.00    -0.00   0.04  -0.00    -0.09  -0.00  -0.05
     6   6    -0.00   0.10  -0.00    -0.00   0.03  -0.00     0.10   0.00   0.20
     7   8    -0.00  -0.02   0.00     0.00  -0.01   0.00    -0.07   0.00  -0.13
     8   6     0.00  -0.00  -0.00     0.00  -0.00  -0.00     0.08  -0.00  -0.04
     9   6     0.07  -0.07  -0.08     0.03  -0.06   0.06    -0.04   0.08  -0.01
    10   6    -0.09  -0.03   0.05    -0.03  -0.00  -0.07     0.02  -0.03   0.04
    11   1     0.28   0.16   0.10     0.18  -0.06  -0.13     0.20   0.07  -0.02
    12   1     0.02  -0.21  -0.05     0.08   0.31   0.05    -0.07   0.08   0.01
    13   1    -0.07  -0.21   0.07     0.03   0.32  -0.02    -0.07   0.14  -0.01
    14   1    -0.14   0.06  -0.10    -0.14  -0.20   0.28    -0.01  -0.19   0.17
    15   1    -0.00  -0.06   0.00    -0.00   0.35  -0.00    -0.57  -0.00  -0.16
    16   1     0.40  -0.16   0.13     0.14  -0.06   0.04     0.19   0.01   0.10
    17   1    -0.40  -0.16  -0.13    -0.14  -0.06  -0.04     0.19  -0.01   0.10
    18   1     0.03   0.01  -0.01     0.01   0.00  -0.00    -0.03   0.01   0.08
    19   1    -0.03   0.01   0.01    -0.01   0.00   0.00    -0.03  -0.01   0.08
    20   1    -0.00   0.02  -0.00    -0.00   0.01  -0.00     0.37  -0.00   0.01
    21   1     0.14   0.06   0.10     0.14  -0.20  -0.28    -0.01   0.19   0.17
    22   1     0.07  -0.21  -0.07    -0.03   0.32   0.02    -0.07  -0.14  -0.01
    23   1    -0.02  -0.21   0.05    -0.08   0.31  -0.05    -0.07  -0.08   0.01
    24   1    -0.28   0.16  -0.10    -0.18  -0.06   0.13     0.20  -0.07  -0.02
                     22                     23                     24
                      A                      A                      A
 Frequencies --    972.0412              1019.6822              1021.8552
 Red. masses --      2.3296                 1.7010                 2.2627
 Frc consts  --      1.2969                 1.0420                 1.3920
 IR Inten    --      2.3283                 3.1787                 6.0468
  Atom  AN      X      Y      Z        X      Y      Z        X      Y      Z
     1   8    -0.03  -0.00  -0.03    -0.00   0.02  -0.00    -0.02  -0.00  -0.03
     2   6    -0.03   0.00   0.00    -0.00  -0.05   0.00    -0.03   0.00   0.00
     3   6     0.02  -0.13   0.06    -0.09   0.03   0.01     0.16  -0.01   0.01
     4   6     0.07   0.13   0.01     0.10  -0.04   0.01    -0.15   0.07  -0.00
     5   6     0.03   0.00   0.01    -0.00   0.03   0.00    -0.02  -0.00   0.05
     6   6    -0.09   0.00   0.09     0.00   0.13  -0.00     0.04  -0.00  -0.03
     7   8    -0.05   0.00  -0.06     0.00  -0.02   0.00     0.02   0.00   0.02
     8   6     0.08  -0.00  -0.02    -0.00  -0.01   0.00    -0.03   0.00   0.01
     9   6     0.07  -0.13   0.01    -0.10  -0.04  -0.01    -0.14  -0.07  -0.00
    10   6     0.02   0.13   0.06     0.09   0.03  -0.01     0.16   0.01   0.01
    11   1     0.07  -0.29  -0.24    -0.28  -0.07   0.01     0.37   0.09   0.00
    12   1    -0.29   0.09  -0.05     0.02   0.02   0.04     0.21   0.12   0.01
    13   1    -0.20  -0.02  -0.07     0.26  -0.11   0.05    -0.21   0.07  -0.02
    14   1     0.11   0.24  -0.23     0.24  -0.14   0.07    -0.35   0.21  -0.10
    15   1    -0.11  -0.00  -0.02     0.00  -0.03   0.00     0.02   0.00   0.06
    16   1    -0.10   0.00   0.07     0.39  -0.15   0.18     0.07  -0.00  -0.05
    17   1    -0.10  -0.00   0.07    -0.39  -0.15  -0.18     0.08   0.01  -0.04
    18   1     0.04   0.00   0.00     0.05   0.02  -0.01    -0.01  -0.00  -0.01
    19   1     0.04  -0.00   0.00    -0.05   0.02   0.01    -0.01   0.00  -0.01
    20   1     0.16  -0.00  -0.01    -0.00   0.03  -0.00    -0.07  -0.00   0.00
    21   1     0.11  -0.24  -0.23    -0.25  -0.14  -0.07    -0.35  -0.21  -0.10
    22   1    -0.20   0.02  -0.07    -0.26  -0.11  -0.05    -0.21  -0.07  -0.02
    23   1    -0.29  -0.09  -0.05    -0.02   0.02  -0.04     0.21  -0.12   0.01
    24   1     0.07   0.29  -0.24     0.29  -0.07  -0.01     0.37  -0.09   0.00
                     25                     26                     27
                      A                      A                      A
 Frequencies --   1080.5284              1081.8664              1138.3639
 Red. masses --      2.5509                 1.2375                 2.3438
 Frc consts  --      1.7548                 0.8534                 1.7895
 IR Inten    --     21.1736                 2.5719                 3.6005
  Atom  AN      X      Y      Z        X      Y      Z        X      Y      Z
     1   8     0.02   0.00   0.02     0.00   0.00   0.00    -0.04  -0.00   0.00
     2   6     0.00   0.00   0.01    -0.00   0.06  -0.00     0.09  -0.00  -0.12
     3   6    -0.01   0.06  -0.05    -0.04  -0.02  -0.01    -0.04   0.00   0.12
     4   6    -0.05  -0.02   0.01     0.06  -0.03   0.01     0.02  -0.03  -0.12
     5   6     0.22  -0.00  -0.03     0.00   0.05  -0.00     0.06  -0.00   0.13
     6   6    -0.12   0.00   0.10    -0.00  -0.02   0.00    -0.05   0.00  -0.06
     7   8    -0.14   0.00  -0.03     0.00   0.01  -0.00    -0.03   0.00   0.02
     8   6     0.14  -0.00  -0.04    -0.00   0.00  -0.00     0.05  -0.00   0.03
     9   6    -0.05   0.02   0.01    -0.06  -0.03  -0.01     0.02   0.03  -0.12
    10   6    -0.01  -0.06  -0.05     0.04  -0.02   0.01    -0.04  -0.00   0.12
    11   1     0.03   0.19   0.12     0.13   0.06   0.00     0.06  -0.12  -0.15
    12   1     0.14  -0.06   0.01    -0.43  -0.25  -0.09    -0.00   0.34   0.09
    13   1    -0.02   0.02   0.02    -0.17   0.12  -0.06     0.22   0.25  -0.05
    14   1    -0.21   0.08  -0.04     0.19  -0.11   0.05    -0.30  -0.03   0.16
    15   1     0.55   0.00   0.06    -0.00   0.48  -0.00     0.04   0.00   0.12
    16   1    -0.28   0.01   0.20    -0.04   0.03  -0.06    -0.00  -0.00  -0.08
    17   1    -0.27  -0.01   0.20     0.04   0.03   0.06    -0.00   0.00  -0.08
    18   1     0.06   0.00   0.02    -0.01  -0.00   0.00     0.11  -0.02  -0.08
    19   1     0.06  -0.00   0.02     0.01  -0.00  -0.00     0.11   0.02  -0.08
    20   1     0.26  -0.00  -0.02     0.00  -0.01   0.00    -0.20   0.00  -0.01
    21   1    -0.21  -0.08  -0.04    -0.19  -0.11  -0.05    -0.30   0.03   0.16
    22   1    -0.02  -0.02   0.02     0.17   0.12   0.06     0.22  -0.24  -0.05
    23   1     0.14   0.06   0.01     0.43  -0.25   0.09    -0.00  -0.34   0.09
    24   1     0.03  -0.19   0.12    -0.13   0.06  -0.00     0.06   0.12  -0.15
                     28                     29                     30
                      A                      A                      A
 Frequencies --   1143.0152              1169.9577              1186.5447
 Red. masses --      1.7560                 3.9022                 1.4781
 Frc consts  --      1.3517                 3.1470                 1.2261
 IR Inten    --      8.2737               138.9732                10.7519
  Atom  AN      X      Y      Z        X      Y      Z        X      Y      Z
     1   8    -0.00  -0.01   0.00    -0.01   0.00   0.01    -0.00  -0.01   0.00
     2   6     0.00   0.08  -0.00     0.03  -0.00  -0.04    -0.00   0.11  -0.00
     3   6    -0.08  -0.04   0.02    -0.03   0.01   0.03    -0.02  -0.05   0.02
     4   6     0.07  -0.06   0.02     0.00  -0.01  -0.02     0.04   0.02  -0.03
     5   6     0.00   0.13   0.00     0.07   0.00   0.02     0.00  -0.05   0.00
     6   6    -0.00  -0.09   0.00    -0.11   0.00   0.17    -0.00   0.04   0.00
     7   8     0.00   0.01  -0.00     0.28  -0.00  -0.14     0.00   0.03  -0.00
     8   6    -0.00   0.03  -0.00    -0.27   0.00  -0.06    -0.00  -0.11   0.00
     9   6    -0.07  -0.06  -0.02     0.00   0.01  -0.02    -0.04   0.02   0.03
    10   6     0.08  -0.04  -0.02    -0.03  -0.01   0.03     0.02  -0.05  -0.02
    11   1     0.08   0.02  -0.01     0.03   0.01  -0.02     0.07  -0.05  -0.05
    12   1     0.09   0.15   0.05     0.05   0.11   0.04    -0.12   0.02  -0.01
    13   1     0.36  -0.20   0.10     0.14   0.01   0.02     0.04   0.04  -0.03
    14   1    -0.34   0.16  -0.05    -0.19   0.07  -0.00    -0.20   0.14  -0.05
    15   1     0.00   0.06   0.00     0.19   0.00   0.05     0.00  -0.14   0.00
    16   1    -0.13   0.10  -0.22    -0.23   0.02   0.20    -0.07  -0.04   0.20
    17   1     0.13   0.10   0.22    -0.23  -0.01   0.20     0.07  -0.04  -0.20
    18   1    -0.14  -0.04   0.01    -0.31   0.06   0.16     0.53   0.15  -0.01
    19   1     0.14  -0.04  -0.01    -0.32  -0.06   0.16    -0.53   0.15   0.01
    20   1     0.00  -0.06   0.00     0.36  -0.00   0.04    -0.00   0.22   0.00
    21   1     0.34   0.16   0.05    -0.19  -0.07  -0.01     0.20   0.14   0.05
    22   1    -0.36  -0.20  -0.10     0.14  -0.01   0.02    -0.04   0.04   0.03
    23   1    -0.09   0.14  -0.05     0.05  -0.11   0.04     0.12   0.02   0.01
    24   1    -0.08   0.02   0.01     0.04  -0.01  -0.02    -0.07  -0.04   0.05
                     31                     32                     33
                      A                      A                      A
 Frequencies --   1203.7170              1218.1698              1252.6046
 Red. masses --      1.7988                 1.4951                 1.4712
 Frc consts  --      1.5357                 1.3072                 1.3600
 IR Inten    --     34.5635                36.1864                14.9018
  Atom  AN      X      Y      Z        X      Y      Z        X      Y      Z
     1   8    -0.00  -0.02  -0.00    -0.03   0.00  -0.02     0.04   0.00   0.02
     2   6     0.00   0.14  -0.00     0.03  -0.00  -0.04    -0.03   0.00   0.04
     3   6    -0.00  -0.05   0.03     0.02  -0.01   0.03    -0.02   0.00  -0.01
     4   6     0.04   0.04  -0.05    -0.03   0.01   0.01     0.04  -0.00  -0.04
     5   6    -0.00  -0.10   0.00    -0.06   0.00  -0.03    -0.01   0.00   0.07
     6   6    -0.00   0.09   0.00     0.05  -0.00  -0.05    -0.01  -0.00  -0.08
     7   8     0.00  -0.07  -0.00    -0.04   0.00   0.09     0.00   0.00   0.09
     8   6    -0.00   0.10  -0.00     0.03  -0.00  -0.11     0.01  -0.00  -0.09
     9   6    -0.04   0.04   0.05    -0.03  -0.01   0.01     0.04   0.00  -0.04
    10   6     0.00  -0.05  -0.03     0.02   0.01   0.03    -0.02  -0.00  -0.01
    11   1     0.03  -0.11  -0.09    -0.19  -0.20  -0.10     0.29   0.22   0.09
    12   1    -0.20  -0.02  -0.03     0.20   0.16   0.06    -0.34  -0.18  -0.07
    13   1    -0.01   0.10  -0.06     0.12  -0.11   0.05    -0.04   0.14  -0.06
    14   1    -0.16   0.12  -0.04     0.08  -0.05   0.02    -0.10   0.04   0.01
    15   1     0.00  -0.29   0.00     0.27   0.00   0.05    -0.13  -0.00   0.03
    16   1     0.10  -0.09   0.21    -0.04  -0.01   0.06    -0.02  -0.01  -0.03
    17   1    -0.10  -0.09  -0.21    -0.04   0.01   0.06    -0.02   0.01  -0.03
    18   1    -0.46  -0.13   0.00    -0.22   0.06   0.23    -0.17   0.05   0.18
    19   1     0.46  -0.14  -0.00    -0.22  -0.05   0.23    -0.17  -0.05   0.18
    20   1     0.00  -0.19  -0.00     0.53  -0.00  -0.01     0.39  -0.00  -0.01
    21   1     0.16   0.12   0.04     0.08   0.04   0.02    -0.10  -0.04   0.01
    22   1     0.01   0.10   0.06     0.12   0.11   0.05    -0.04  -0.14  -0.06
    23   1     0.20  -0.02   0.03     0.20  -0.16   0.06    -0.33   0.18  -0.07
    24   1    -0.03  -0.11   0.09    -0.19   0.20  -0.10     0.29  -0.22   0.09
                     34                     35                     36
                      A                      A                      A
 Frequencies --   1267.7736              1291.3551              1291.4071
 Red. masses --      1.3623                 1.3944                 1.2072
 Frc consts  --      1.2900                 1.3700                 1.1862
 IR Inten    --      2.0420                 2.6973                 6.3272
  Atom  AN      X      Y      Z        X      Y      Z        X      Y      Z
     1   8    -0.00  -0.03   0.00    -0.01  -0.00  -0.02     0.00  -0.02   0.00
     2   6    -0.00   0.14  -0.00    -0.03   0.00   0.03     0.00   0.08  -0.00
     3   6     0.05  -0.02   0.01     0.07   0.02  -0.01     0.03  -0.00  -0.01
     4   6    -0.02  -0.00  -0.00    -0.04  -0.01  -0.05    -0.01  -0.02   0.05
     5   6     0.00   0.01  -0.00     0.03   0.00   0.10    -0.00   0.02  -0.00
     6   6     0.00  -0.05   0.00    -0.02   0.00   0.01     0.00   0.01  -0.00
     7   8    -0.00   0.04   0.00     0.02  -0.00  -0.01    -0.00  -0.03   0.00
     8   6     0.00  -0.01   0.00    -0.01   0.00  -0.00     0.00   0.01   0.00
     9   6     0.02  -0.00   0.00    -0.04   0.01  -0.05     0.02  -0.02  -0.05
    10   6    -0.05  -0.02  -0.01     0.07  -0.02  -0.01    -0.03  -0.00   0.01
    11   1    -0.34  -0.30  -0.12    -0.23  -0.15  -0.04    -0.31  -0.21  -0.06
    12   1    -0.03  -0.03  -0.02    -0.12  -0.13  -0.05     0.15   0.03   0.02
    13   1    -0.02  -0.01  -0.00    -0.28   0.27  -0.10    -0.06  -0.09   0.04
    14   1     0.09  -0.08   0.04     0.28  -0.27   0.16     0.01  -0.00  -0.01
    15   1     0.00  -0.13   0.00     0.22   0.01   0.15    -0.00   0.45  -0.00
    16   1     0.27   0.06  -0.40    -0.02  -0.01   0.03    -0.31  -0.03   0.33
    17   1    -0.27   0.06   0.40    -0.01   0.01   0.02     0.31  -0.03  -0.33
    18   1     0.06   0.02   0.01    -0.01   0.00   0.00    -0.03  -0.01  -0.01
    19   1    -0.06   0.02  -0.01    -0.01  -0.01   0.00     0.03  -0.01   0.01
    20   1    -0.00   0.02  -0.00     0.03  -0.00   0.00    -0.00  -0.01  -0.00
    21   1    -0.09  -0.08  -0.04     0.28   0.27   0.16    -0.02  -0.01   0.00
    22   1     0.02  -0.01   0.00    -0.27  -0.27  -0.10     0.07  -0.08  -0.04
    23   1     0.03  -0.03   0.02    -0.13   0.13  -0.05    -0.14   0.03  -0.01
    24   1     0.34  -0.30   0.12    -0.22   0.15  -0.04     0.32  -0.21   0.06
                     37                     38                     39
                      A                      A                      A
 Frequencies --   1332.1851              1339.2529              1365.6372
 Red. masses --      1.3640                 1.3362                 1.3658
 Frc consts  --      1.4263                 1.4120                 1.5007
 IR Inten    --      1.2358                 2.5533                 2.5112
  Atom  AN      X      Y      Z        X      Y      Z        X      Y      Z
     1   8     0.00   0.00  -0.00     0.01   0.00   0.01     0.02   0.00   0.02
     2   6    -0.00   0.02   0.00    -0.02  -0.00   0.02     0.02  -0.00  -0.02
     3   6    -0.06  -0.04  -0.05     0.01  -0.01   0.03    -0.09  -0.06  -0.03
     4   6     0.06  -0.01   0.05    -0.03   0.03  -0.05     0.01   0.03  -0.00
     5   6    -0.00  -0.07  -0.00    -0.10   0.00  -0.04    -0.04  -0.00   0.03
     6   6     0.00   0.01   0.00     0.04  -0.00   0.05    -0.00   0.00   0.02
     7   8    -0.00   0.01  -0.00    -0.01  -0.00  -0.03     0.00   0.00  -0.00
     8   6     0.00   0.00   0.00     0.00   0.00   0.03    -0.00   0.00   0.00
     9   6    -0.06  -0.01  -0.05    -0.03  -0.03  -0.05     0.01  -0.03  -0.00
    10   6     0.06  -0.04   0.05     0.01   0.01   0.03    -0.09   0.06  -0.03
    11   1     0.03   0.06   0.03     0.18   0.06   0.01     0.31   0.17   0.03
    12   1     0.37   0.16   0.05    -0.28  -0.10  -0.05     0.34   0.16   0.06
    13   1    -0.43   0.17  -0.08     0.34  -0.13   0.05    -0.23   0.11  -0.07
    14   1    -0.04   0.12  -0.09     0.08  -0.07   0.05     0.28  -0.12   0.06
    15   1     0.00   0.18   0.00     0.62  -0.00   0.14     0.27   0.00   0.12
    16   1     0.18  -0.00  -0.13     0.04  -0.00   0.06     0.06  -0.02   0.00
    17   1    -0.18  -0.00   0.13     0.04   0.00   0.05     0.06   0.02   0.00
    18   1    -0.01   0.00   0.00     0.05  -0.02  -0.06     0.02   0.00  -0.01
    19   1     0.01   0.00  -0.00     0.05   0.02  -0.06     0.02  -0.00  -0.01
    20   1    -0.00  -0.00   0.00    -0.09   0.00   0.01     0.02  -0.00   0.00
    21   1     0.04   0.12   0.09     0.08   0.07   0.05     0.28   0.12   0.06
    22   1     0.43   0.17   0.08     0.34   0.13   0.05    -0.23  -0.11  -0.07
    23   1    -0.38   0.16  -0.05    -0.27   0.10  -0.05     0.34  -0.16   0.06
    24   1    -0.03   0.06  -0.03     0.18  -0.06   0.01     0.31  -0.17   0.03
                     40                     41                     42
                      A                      A                      A
 Frequencies --   1370.3562              1400.2853              1415.7796
 Red. masses --      1.5537                 1.4958                 1.6837
 Frc consts  --      1.7190                 1.7280                 1.9884
 IR Inten    --     14.8977                 0.1078                12.0085
  Atom  AN      X      Y      Z        X      Y      Z        X      Y      Z
     1   8     0.00  -0.01   0.00    -0.00  -0.00  -0.00     0.01   0.00   0.01
     2   6    -0.00   0.10  -0.00    -0.00   0.02  -0.00    -0.01   0.00  -0.00
     3   6    -0.06  -0.10  -0.02    -0.01  -0.04   0.00    -0.00  -0.03   0.00
     4   6    -0.04   0.05  -0.01    -0.05   0.07   0.01    -0.10   0.05  -0.01
     5   6    -0.00   0.07  -0.00    -0.00  -0.16   0.00     0.15  -0.00   0.01
     6   6     0.00  -0.01   0.00     0.00   0.02   0.00    -0.10   0.00   0.00
     7   8     0.00  -0.01  -0.00    -0.00   0.01  -0.00     0.01   0.00   0.03
     8   6    -0.00   0.00   0.00     0.00  -0.00   0.00    -0.00  -0.00  -0.02
     9   6     0.04   0.05   0.01     0.05   0.07  -0.01    -0.10  -0.05  -0.01
    10   6     0.06  -0.10   0.02     0.01  -0.04  -0.00    -0.00   0.03   0.00
    11   1     0.24   0.05  -0.02     0.12   0.06   0.05     0.10   0.05   0.03
    12   1     0.22   0.12   0.03    -0.02   0.08  -0.01    -0.01   0.04  -0.01
    13   1     0.03  -0.06   0.00     0.27  -0.28   0.09     0.31  -0.17   0.10
    14   1     0.46  -0.25   0.11     0.05   0.04  -0.01     0.32  -0.17   0.05
    15   1     0.00  -0.28   0.00     0.00   0.69  -0.00    -0.39   0.00  -0.13
    16   1    -0.13   0.01   0.08     0.19  -0.01  -0.11     0.23  -0.04  -0.19
    17   1     0.13   0.01  -0.08    -0.19  -0.01   0.11     0.23   0.04  -0.19
    18   1     0.00  -0.00  -0.00    -0.00   0.00   0.01     0.02   0.04   0.04
    19   1    -0.00  -0.00   0.00     0.00   0.00  -0.01     0.02  -0.04   0.04
    20   1    -0.00  -0.00   0.00    -0.00   0.01   0.00     0.09  -0.00  -0.00
    21   1    -0.46  -0.25  -0.11    -0.05   0.04   0.01     0.32   0.17   0.05
    22   1    -0.03  -0.06  -0.00    -0.27  -0.28  -0.09     0.31   0.17   0.10
    23   1    -0.22   0.12  -0.03     0.02   0.08   0.01    -0.01  -0.04  -0.01
    24   1    -0.24   0.05   0.02    -0.12   0.06  -0.06     0.10  -0.05   0.03
                     43                     44                     45
                      A                      A                      A
 Frequencies --   1437.9620              1491.7763              1501.4951
 Red. masses --      1.3099                 1.0950                 1.0885
 Frc consts  --      1.5958                 1.4357                 1.4459
 IR Inten    --     33.3455                 5.5482                11.4271
  Atom  AN      X      Y      Z        X      Y      Z        X      Y      Z
     1   8    -0.00  -0.00  -0.00     0.00   0.00   0.00    -0.00  -0.00  -0.00
     2   6     0.00  -0.00   0.00     0.00   0.00  -0.00    -0.01   0.00   0.01
     3   6     0.01   0.02   0.00     0.03  -0.04  -0.03    -0.03   0.05   0.02
     4   6     0.03  -0.02   0.01     0.01  -0.00  -0.00    -0.01   0.00   0.00
     5   6    -0.04  -0.00  -0.04    -0.00   0.02  -0.00     0.01   0.00   0.00
     6   6    -0.11   0.00   0.06     0.00  -0.00   0.00    -0.01  -0.00   0.00
     7   8     0.01   0.00   0.03    -0.00  -0.00   0.00     0.00  -0.00  -0.00
     8   6    -0.02   0.00  -0.02    -0.00   0.00   0.00     0.02  -0.00  -0.01
     9   6     0.03   0.02   0.01    -0.01  -0.00   0.00    -0.01  -0.00   0.00
    10   6     0.01  -0.02   0.00    -0.03  -0.04   0.03    -0.03  -0.05   0.02
    11   1    -0.08  -0.04  -0.03    -0.21   0.15   0.44     0.20  -0.14  -0.42
    12   1     0.00  -0.04   0.00    -0.22   0.41  -0.13     0.20  -0.43   0.12
    13   1    -0.10   0.03  -0.02    -0.05  -0.02  -0.02     0.04   0.04   0.02
    14   1    -0.16   0.07  -0.02    -0.01  -0.03   0.05     0.02   0.02  -0.05
    15   1     0.29  -0.00   0.03     0.00  -0.07   0.00    -0.02  -0.00  -0.00
    16   1     0.48  -0.04  -0.33    -0.02   0.00   0.01     0.02  -0.01   0.01
    17   1     0.48   0.04  -0.33     0.02   0.00  -0.01     0.02   0.01   0.01
    18   1     0.15   0.08  -0.01     0.00  -0.00  -0.00    -0.07  -0.01   0.06
    19   1     0.15  -0.08  -0.01    -0.00  -0.00   0.00    -0.07   0.01   0.06
    20   1     0.21  -0.00   0.03     0.00  -0.00   0.00    -0.12   0.00  -0.03
    21   1    -0.16  -0.07  -0.02     0.01  -0.03  -0.05     0.02  -0.02  -0.05
    22   1    -0.10  -0.03  -0.02     0.05  -0.02   0.02     0.04  -0.04   0.02
    23   1     0.00   0.04   0.00     0.22   0.41   0.13     0.20   0.43   0.12
    24   1    -0.08   0.04  -0.03     0.21   0.14  -0.44     0.20   0.14  -0.42
                     46                     47                     48
                      A                      A                      A
 Frequencies --   1503.8455              1514.6587              1522.3457
 Red. masses --      1.1592                 1.0481                 1.0873
 Frc consts  --      1.5445                 1.4167                 1.4847
 IR Inten    --      0.9660                 5.0166                 3.6118
  Atom  AN      X      Y      Z        X      Y      Z        X      Y      Z
     1   8    -0.00  -0.00  -0.00     0.00   0.00   0.00    -0.00   0.00  -0.00
     2   6    -0.00   0.00   0.00    -0.00  -0.00   0.00     0.00  -0.01   0.00
     3   6    -0.01   0.01   0.01     0.00   0.00  -0.00    -0.00   0.01   0.00
     4   6    -0.01   0.00  -0.00     0.00   0.00  -0.00     0.04   0.04  -0.02
     5   6     0.00   0.00   0.01     0.00   0.00   0.00    -0.00   0.01  -0.00
     6   6     0.05  -0.00  -0.02     0.00  -0.00  -0.00     0.00   0.00   0.00
     7   8    -0.02   0.00   0.02    -0.00  -0.01  -0.00    -0.00   0.00  -0.00
     8   6    -0.09   0.00   0.04    -0.00  -0.06   0.00     0.00   0.00  -0.00
     9   6    -0.01  -0.00  -0.00    -0.00   0.00   0.00    -0.04   0.04   0.02
    10   6    -0.01  -0.01   0.01    -0.00   0.00   0.00     0.00   0.01  -0.00
    11   1     0.05  -0.03  -0.08    -0.00  -0.00   0.00     0.02  -0.00  -0.04
    12   1     0.04  -0.08   0.02     0.00  -0.00  -0.00     0.02  -0.05   0.01
    13   1     0.03   0.02   0.01    -0.01  -0.01  -0.00    -0.25  -0.42  -0.11
    14   1     0.03  -0.00  -0.02    -0.00  -0.00   0.01    -0.20  -0.12   0.43
    15   1    -0.07  -0.00  -0.01    -0.00  -0.01  -0.00    -0.00  -0.03   0.00
    16   1    -0.19   0.13  -0.07    -0.01  -0.00   0.00    -0.00  -0.00   0.00
    17   1    -0.19  -0.13  -0.07     0.01  -0.00  -0.00     0.00  -0.00  -0.00
    18   1     0.36   0.04  -0.31    -0.23   0.07   0.42     0.00  -0.00  -0.01
    19   1     0.36  -0.04  -0.31     0.23   0.07  -0.42    -0.00  -0.00   0.01
    20   1     0.59  -0.00   0.15     0.00   0.73   0.00    -0.00  -0.01  -0.00
    21   1     0.03   0.00  -0.02     0.00  -0.00  -0.01     0.20  -0.12  -0.43
    22   1     0.03  -0.02   0.01     0.01  -0.01   0.00     0.25  -0.42   0.11
    23   1     0.04   0.08   0.02    -0.00  -0.00   0.00    -0.02  -0.05  -0.01
    24   1     0.05   0.03  -0.08     0.00  -0.00  -0.00    -0.02  -0.00   0.04
                     49                     50                     51
                      A                      A                      A
 Frequencies --   1531.3174              1536.7058              1553.9533
 Red. masses --      1.0631                 1.0878                 1.0887
 Frc consts  --      1.4687                 1.5135                 1.5489
 IR Inten    --     10.8643                 4.5411                 1.1088
  Atom  AN      X      Y      Z        X      Y      Z        X      Y      Z
     1   8     0.00  -0.00   0.00     0.00   0.00   0.00    -0.00  -0.00  -0.00
     2   6    -0.00   0.00  -0.00    -0.00  -0.00  -0.00     0.00  -0.00   0.00
     3   6     0.00  -0.00  -0.00     0.00  -0.01  -0.00     0.00   0.00   0.00
     4   6    -0.01  -0.01   0.00    -0.02  -0.05   0.02     0.00  -0.00   0.00
     5   6    -0.01   0.00   0.00    -0.02  -0.00  -0.00     0.00  -0.00   0.00
     6   6     0.03   0.00   0.03    -0.01  -0.00  -0.00    -0.02  -0.00  -0.07
     7   8    -0.01   0.00  -0.01     0.00  -0.00   0.00    -0.01   0.00  -0.02
     8   6    -0.02   0.00  -0.04     0.01  -0.00   0.01    -0.05   0.00  -0.01
     9   6    -0.01   0.01   0.00    -0.02   0.05   0.02     0.00   0.00   0.00
    10   6     0.00   0.00  -0.00     0.00   0.01  -0.00     0.00  -0.00   0.00
    11   1    -0.00   0.00   0.02    -0.03   0.01   0.05    -0.00  -0.00  -0.01
    12   1    -0.00   0.02  -0.00    -0.01   0.05  -0.01    -0.00  -0.01   0.00
    13   1     0.04   0.09   0.02     0.21   0.44   0.10     0.01  -0.01   0.00
    14   1     0.05   0.02  -0.08     0.17   0.12  -0.42    -0.01   0.01  -0.00
    15   1     0.02   0.00   0.01     0.04   0.00   0.01    -0.05  -0.00  -0.01
    16   1    -0.18   0.22  -0.21     0.06  -0.05   0.04     0.16  -0.34   0.43
    17   1    -0.18  -0.22  -0.21     0.06   0.05   0.04     0.16   0.34   0.43
    18   1     0.27   0.33   0.37    -0.06  -0.07  -0.07     0.30   0.23   0.13
    19   1     0.26  -0.33   0.37    -0.06   0.07  -0.07     0.30  -0.23   0.13
    20   1    -0.25   0.00  -0.07     0.04  -0.00   0.01     0.01  -0.00   0.01
    21   1     0.05  -0.02  -0.08     0.17  -0.12  -0.42    -0.01  -0.01  -0.00
    22   1     0.04  -0.09   0.02     0.21  -0.44   0.10     0.01   0.01   0.00
    23   1    -0.00  -0.02  -0.00    -0.01  -0.05  -0.01    -0.00   0.01   0.00
    24   1    -0.00  -0.00   0.02    -0.03  -0.01   0.05    -0.00   0.00  -0.01
                     52                     53                     54
                      A                      A                      A
 Frequencies --   1819.2649              2960.4692              2989.3460
 Red. masses --     11.0184                 1.0538                 1.1073
 Frc consts  --     21.4862                 5.4419                 5.8301
 IR Inten    --    194.8176                32.6617                66.7300
  Atom  AN      X      Y      Z        X      Y      Z        X      Y      Z
     1   8    -0.38  -0.00  -0.32    -0.00   0.00  -0.00    -0.00   0.00  -0.00
     2   6     0.57   0.00   0.49     0.00  -0.00   0.00     0.00  -0.00   0.00
     3   6    -0.04  -0.01  -0.04     0.00   0.00  -0.00     0.00  -0.00  -0.00
     4   6    -0.01  -0.00  -0.01     0.00   0.00  -0.00     0.00   0.00   0.00
     5   6     0.00   0.00   0.00    -0.00   0.00   0.01    -0.00  -0.00   0.00
     6   6    -0.00   0.00   0.00    -0.04  -0.00  -0.05    -0.00  -0.09  -0.00
     7   8     0.00  -0.00  -0.00     0.00   0.00  -0.00    -0.00  -0.00  -0.00
     8   6    -0.00   0.00   0.00     0.01  -0.00   0.01    -0.00  -0.00  -0.00
     9   6    -0.01   0.00  -0.01     0.00  -0.00  -0.00    -0.00   0.00  -0.00
    10   6    -0.04   0.01  -0.04     0.00  -0.00  -0.00    -0.00  -0.00   0.00
    11   1     0.17   0.16   0.13    -0.00   0.00  -0.00    -0.00   0.00  -0.00
    12   1    -0.09  -0.07  -0.03    -0.00   0.00   0.00    -0.00   0.00   0.02
    13   1     0.05   0.01   0.01    -0.00  -0.00   0.01    -0.00   0.00   0.00
    14   1     0.02  -0.02  -0.02    -0.01  -0.01  -0.01    -0.02  -0.03  -0.02
    15   1    -0.00  -0.00  -0.00     0.04  -0.00  -0.17     0.00   0.00  -0.00
    16   1     0.00   0.00  -0.01     0.23   0.56   0.30     0.26   0.57   0.32
    17   1     0.00  -0.00  -0.01     0.23  -0.56   0.30    -0.26   0.56  -0.32
    18   1     0.00   0.00  -0.00    -0.05   0.13  -0.06    -0.01   0.01  -0.00
    19   1     0.00  -0.00  -0.00    -0.05  -0.13  -0.06     0.02   0.03   0.01
    20   1     0.00  -0.00   0.00    -0.01  -0.00   0.06     0.00   0.00  -0.00
    21   1     0.02   0.02  -0.02    -0.01   0.01  -0.01     0.02  -0.03   0.02
    22   1     0.05  -0.01   0.01    -0.00   0.00   0.01     0.00   0.00  -0.00
    23   1    -0.09   0.07  -0.03    -0.00  -0.00   0.00     0.00   0.00  -0.02
    24   1     0.17  -0.16   0.13    -0.00  -0.00  -0.00     0.00   0.00   0.00
                     55                     56                     57
                      A                      A                      A
 Frequencies --   2989.6598              3000.0941              3013.6546
 Red. masses --      1.0395                 1.0808                 1.0694
 Frc consts  --      5.4742                 5.7313                 5.7224
 IR Inten    --     85.9645                39.2727                 0.4912
  Atom  AN      X      Y      Z        X      Y      Z        X      Y      Z
     1   8     0.00   0.00   0.00    -0.00  -0.00  -0.00     0.00   0.00   0.00
     2   6    -0.00  -0.00  -0.00    -0.00   0.00   0.00    -0.00  -0.00  -0.00
     3   6    -0.00  -0.00   0.00    -0.00   0.00   0.00    -0.02   0.02   0.05
     4   6    -0.00   0.00   0.00     0.00   0.00   0.01    -0.00  -0.00  -0.01
     5   6     0.00  -0.00  -0.02     0.02  -0.00  -0.08     0.00  -0.00  -0.00
     6   6     0.01  -0.00   0.01    -0.01   0.00  -0.01    -0.00  -0.00  -0.00
     7   8     0.00  -0.00   0.00    -0.00   0.00  -0.00    -0.00  -0.00   0.00
     8   6     0.04  -0.00   0.03    -0.01   0.00  -0.00    -0.00   0.00  -0.00
     9   6    -0.00  -0.00   0.00     0.00  -0.00   0.01     0.00  -0.00   0.01
    10   6    -0.00   0.00   0.00    -0.00  -0.00   0.00     0.02   0.02  -0.05
[...]
 3169,-0.00003605,-0.00002843,-0.00000075,0.00000098,0.00004722,0.00002
 040,-0.00003472,0.00117605,-0.00025240,0.00085066,0.00027353,-0.000155
 52,0.13871865,-0.00013853,0.00019855,0.00002837,0.00018981,-0.00042402
 ,-0.00004470,-0.00004508,0.00032626,-0.00009621,0.00075059,0.00064692,
 0.00019826,0.00110496,-0.00035375,-0.00004885,-0.10604382,-0.21415849,
 0.01494004,-0.00189021,0.00724848,0.00717708,-0.00035985,0.00117220,-0
 .00158670,0.00017227,0.00084902,-0.00061300,-0.00012552,0.00020457,0.0
 0026349,-0.00004043,0.00002403,-0.00002572,-0.00001223,-0.00002106,-0.
 00000881,0.00008761,-0.00000882,-0.00004373,-0.00029069,0.00064225,-0.
 00002983,-0.00029082,0.00005182,-0.00072650,0.12044238,0.22665896,-0.0
 0024558,0.00029697,0.00003888,0.00034219,-0.00071217,-0.00000264,0.000
 15472,0.00001032,-0.00004160,0.00086338,-0.00061978,0.00044884,-0.0131
 2211,-0.01903996,0.00329068,0.00774291,0.01345240,-0.05171013,0.025673
 84,0.02771830,-0.02397049,0.00643879,0.00295546,0.00504445,-0.00325107
 ,0.00158323,-0.00327657,-0.00092000,-0.00106762,0.00058252,0.00003016,
 0.00004933,0.00003036,-0.00000526,-0.00000851,0.00000888,-0.00017114,0
 .00013390,-0.00001335,0.00007943,0.00044632,0.00005670,0.00071221,-0.0
 0004065,0.00072087,-0.01902135,-0.02216865,0.06592107,-0.00005314,-0.0
 0041104,-0.00003054,0.00029304,0.00097984,0.00018128,-0.00064387,0.001
 22814,0.00053425,-0.00219366,-0.00202653,-0.00389588,-0.01423678,0.020
 79282,0.00137409,-0.12478121,0.10411588,0.00922248,-0.01134138,0.01280
 805,0.01477182,-0.00050233,-0.00162736,-0.00278598,0.00061491,0.001690
 15,0.00095848,0.00035782,-0.00046935,-0.00010229,-0.00042026,-0.000069
 04,-0.00038992,0.00005519,-0.00001637,-0.00003217,0.00030519,-0.000200
 85,0.00018578,0.00017532,0.00018270,-0.00011629,0.00085131,-0.00027379
 ,-0.00015510,0.01126964,-0.01477891,-0.00230568,0.13874952,0.00013851,
 0.00019853,-0.00002837,-0.00018973,-0.00042398,0.00004473,0.00012529,0
 .00020484,-0.00026350,-0.00017258,0.00084884,0.00061221,-0.00110878,-0
 .00034883,0.00005066,0.10605725,-0.21413762,-0.01494294,0.00189492,0.0
 0723533,-0.00717063,0.00035467,0.00118062,0.00158877,-0.00074976,0.000
 64675,-0.00019794,0.00004506,0.00032633,0.00009614,0.00007418,0.000007
 54,0.00007257,-0.00002703,0.00001037,0.00003427,-0.00009158,0.00004787
 ,-0.00007595,-0.00012122,0.00050074,-0.00009315,0.00029097,0.00005222,
 0.00072695,0.01478343,-0.02325413,-0.00111530,-0.12045610,0.22663705,-
 0.00024549,-0.00029704,0.00003886,0.00034206,0.00071232,-0.00000261,-0
 .00091976,0.00106756,0.00058239,-0.00325127,-0.00158336,-0.00327632,-0
 .01312155,0.01903905,0.00328908,0.00774847,-0.01344562,-0.05171538,0.0
 2567221,-0.02770770,-0.02396806,0.00643266,-0.00297441,0.00504094,0.00
 086332,0.00061957,0.00044875,0.00015475,-0.00001036,-0.00004166,-0.000
 41036,-0.00002836,-0.00042809,0.00010684,-0.00001136,0.00000272,-0.000
 34220,0.00009542,0.00006340,0.00019828,-0.00027209,-0.00008561,0.00071
 088,0.00004105,0.00072078,-0.00230611,0.00111519,0.00323008,-0.0190244
 7,0.02216679,0.06592776,-0.00014908,-0.00005219,0.00000702,0.00017180,
 0.00012362,-0.00001401,0.00009671,-0.00005377,-0.00005795,-0.00017410,
 -0.00008749,0.00029047,0.00027337,-0.00021915,0.00000195,-0.00101146,-
 0.00068119,0.00545991,-0.02464189,0.02047935,-0.01455687,-0.12399571,0
 .10773949,0.01345418,-0.00005453,0.00017237,0.00006559,0.00001887,-0.0
 0007295,0.00001853,-0.00002849,0.00000353,-0.00000730,-0.00003246,-0.0
 0001526,-0.00005595,0.00028075,-0.00010824,-0.00006575,0.00002494,-0.0
 0000433,-0.00003482,-0.00009201,-0.00004049,-0.00015141,0.00036093,0.0
 0006357,-0.00067191,0.00103600,-0.00067653,-0.00159264,0.14315802,0.00
 005897,0.00003670,0.00000192,-0.00005877,-0.00007978,0.00001151,-0.000
 04147,0.00009543,0.00001284,-0.00006688,-0.00004958,-0.00027030,-0.000
 32315,0.00036910,0.00025586,-0.00023595,0.00100456,-0.00172975,0.00389
 271,0.00796991,0.00667439,0.10945701,-0.22051790,-0.01831397,0.0000664
 4,-0.00009254,-0.00005324,-0.00002208,0.00003905,-0.00000049,-0.000004
 75,-0.00000012,-0.00001233,0.00000725,0.00000570,0.00002378,-0.0001021
 3,0.00000488,0.00001999,0.00001372,0.00004189,-0.00001530,0.00007762,-
 0.00001880,0.00011193,-0.00010738,-0.00056989,-0.00005469,-0.00009100,
 -0.00012976,0.00162635,-0.12579110,0.23304204,-0.00005546,-0.00001355,
 0.00000786,0.00006579,0.00004240,-0.00000760,0.00009264,-0.00002375,-0
 .00008161,-0.00010645,-0.00000341,0.00003557,0.00002641,-0.00016754,0.
 00001269,-0.00420189,0.00371485,0.00580995,-0.02410230,0.02225290,-0.0
 0842284,0.01584892,-0.01977431,-0.05632676,-0.00000605,0.00004036,0.00
 006881,0.00002187,-0.00000595,-0.00000647,-0.00000471,0.00000468,-0.00
 000060,-0.00003585,-0.00000282,-0.00003859,0.00022144,-0.00013631,-0.0
 0006787,0.00001468,0.00001572,-0.00001387,-0.00004109,-0.00005289,-0.0
 0009707,0.00033576,-0.00013073,-0.00056175,0.00132997,-0.00153159,0.00
 062021,-0.00373174,0.01590357,0.05668450,-0.00014931,0.00005203,0.0000
 0700,0.00017201,-0.00012324,-0.00001405,0.00001902,0.00007269,0.000018
 40,-0.00005471,-0.00017230,0.00006595,0.00027382,0.00022033,0.00000068
 ,-0.00100852,0.00068092,0.00546234,-0.02470092,-0.02039117,-0.01457990
 ,-0.12458346,-0.10800126,0.01344928,-0.00017373,0.00008748,0.00029113,
 0.00009685,0.00005388,-0.00005793,-0.00004522,0.00001388,-0.00002313,-
 0.00000145,-0.00001366,-0.00001061,0.00007350,-0.00012875,0.00001687,0
 .00005153,0.00005944,-0.00008363,-0.00009212,0.00004038,-0.00015190,0.
 00103565,0.00067736,-0.00159717,0.00036118,-0.00006402,-0.00067107,0.0
 1241438,0.01487977,-0.00035368,0.14383412,-0.00005870,0.00003658,-0.00
 000193,0.00005840,-0.00007950,-0.00001154,0.00002194,0.00003862,0.0000
 0049,-0.00006562,-0.00009168,0.00005325,0.00032210,0.00036635,-0.00025
 572,0.00024533,0.00101001,0.00170996,-0.00379473,0.00804446,-0.0066257
 3,-0.10972099,-0.21995663,0.01819926,0.00006711,-0.00004976,0.00026936
 ,0.00004108,0.00009530,-0.00001261,-0.00001779,0.00000668,-0.00000691,
 -0.00000589,-0.00000760,-0.00001336,0.00006175,-0.00004071,-0.00000786
 ,0.00002102,0.00004602,-0.00003121,-0.00007725,-0.00001882,-0.00011138
 ,0.00008485,-0.00013265,-0.00162307,0.00010514,-0.00057233,0.00005594,
 -0.01497251,-0.02263902,0.00376592,0.12603216,0.23238677,-0.00005548,0
 .00001348,0.00000786,0.00006581,-0.00004224,-0.00000761,0.00002205,0.0
 0000571,-0.00000660,-0.00000602,-0.00004013,0.00006922,0.00002802,0.00
 016809,0.00001165,-0.00419870,-0.00370876,0.00580716,-0.02417205,-0.02
 218159,-0.00843188,0.01584980,0.01965533,-0.05631276,-0.00010621,0.000
 00311,0.00003599,0.00009275,0.00002388,-0.00008173,-0.00000544,0.00000
 468,-0.00000135,-0.00000578,-0.00000512,-0.00001105,0.00007495,-0.0000
 6562,0.00000554,-0.00000152,0.00003504,-0.00002220,-0.00004135,0.00005
 280,-0.00009752,0.00132898,0.00152876,0.00062018,0.00033390,0.00012805
 ,-0.00056195,-0.00037180,-0.00377780,0.00199069,-0.00371227,-0.0158064
 3,0.05667050,-0.00000821,-0.00000002,0.00000639,0.00001933,0.00000004,
 -0.00000844,-0.00002136,0.00000449,0.00001375,0.00015429,-0.00008747,0
 .00005119,0.00084941,0.00000035,-0.00137026,-0.00288368,0.00000423,-0.
 00264795,0.01258335,-0.00000609,-0.03093751,-0.12598648,0.00006533,0.1
 2892005,0.00015416,0.00008759,0.00005121,-0.00002128,-0.00000457,0.000
 01374,-0.00000836,0.00000201,-0.00000024,0.00000875,-0.00000366,0.0000
 2018,-0.00005147,0.00004228,0.00003204,-0.00000804,0.00000748,0.000003
 00,-0.00036748,0.00000003,-0.00030729,0.00014884,0.00036201,-0.0002786
 1,0.00014853,-0.00036262,-0.00027769,-0.00773394,-0.00154928,0.0146198
 6,-0.00776769,0.00156740,0.01468468,0.13085044,0.00000002,-0.00002245,
 0.00000001,-0.00000007,0.00004659,-0.00000003,-0.00001230,0.00002010,-
 0.00000184,-0.00008510,-0.00002725,-0.00005344,-0.00000185,0.00055362,
 0.00000222,0.00000773,0.00017392,0.00000344,-0.00001478,0.00032805,0.0
 0005078,0.00006762,-0.05311814,-0.00012548,0.00008477,-0.00002771,0.00
 005310,0.00001232,0.00002026,0.00000181,-0.00000402,-0.00000425,-0.000
 00238,-0.00000028,-0.00000218,-0.00000577,0.00002449,0.00000581,0.0000
 0407,-0.00000424,0.00000203,-0.00000198,0.00000070,-0.00001246,0.00000
 064,0.00024654,0.00033320,-0.00041186,-0.00024851,0.00033343,0.0004119
 7,0.01412452,0.00148378,-0.02392826,-0.01410036,0.00150590,0.02388978,
 -0.00008139,0.04840614,-0.00019770,0.,0.00003753,0.00023789,0.,-0.0000
 4828,-0.00005875,0.00006075,0.00006005,0.00006911,-0.00020437,-0.00009
 471,0.00130948,0.00000089,-0.00098983,-0.00551435,0.00000229,-0.000212
 80,0.00575695,0.00000448,-0.03227055,0.11709285,-0.00011061,-0.2438712
 5,0.00006927,0.00020434,-0.00009451,-0.00005871,-0.00006069,0.00006002
 ,-0.00006642,0.00001400,-0.00004043,0.00001779,-0.00001499,0.00001929,
 -0.00001817,0.00001909,0.00003282,0.00000410,0.00000388,0.00000117,-0.
 00045564,0.00000002,-0.00042827,0.00014823,0.00021021,0.00003070,0.000
 14717,-0.00020974,0.00003231,0.00211488,-0.00047401,0.00042367,0.00210
 766,0.00046925,0.00043682,-0.12264299,0.00010719,0.27690337,-0.0019377
 4,0.00191036,0.00080776,-0.00086670,-0.00503427,-0.00397260,-0.0000402
 0,0.00017459,0.00062783,-0.00235235,-0.00282183,0.00003225,0.01135465,
 -0.01652558,-0.00292508,0.00145479,-0.00063581,0.00006929,-0.00000245,
 0.00010348,0.00026953,-0.00007886,0.00006303,-0.00014298,-0.13235003,0
 .11999396,0.01840120,-0.01489736,0.02083084,-0.00012227,0.00006482,0.0
 0012254,0.00010378,-0.00001429,-0.00005614,0.00001069,-0.00003747,-0.0
 0006629,-0.00011360,0.00085496,-0.00108632,0.00003888,0.00079677,0.000
 77207,-0.00009736,0.00017531,0.00012127,0.00019835,-0.00003469,0.00029
 060,0.00007929,0.00005159,-0.00002125,-0.00000150,0.00002499,-0.000013
 84,0.00001467,-0.00000801,0.00000423,0.00000411,0.14415439,0.00006940,
 0.00009775,0.00014771,-0.00066633,0.00063568,-0.00033208,-0.00035727,0
 .00071605,-0.00023823,-0.00553103,-0.00344406,0.00090791,0.01623066,-0
 .02316029,-0.00396071,0.00216190,-0.00000675,0.00032598,-0.00038402,0.
 00029854,-0.00003363,-0.00001851,-0.00016228,-0.00006594,0.11860219,-0
 .21828743,-0.02288104,-0.00082293,0.00209938,0.00008596,0.00012680,0.0
 0004657,0.00006869,0.00000657,-0.00001616,0.00005279,-0.00004838,0.000
 31016,-0.00003328,0.00108620,-0.00174118,-0.00009412,0.00008285,0.0010
 6069,0.00051509,-0.00018268,0.00050070,0.00027200,-0.00117561,0.000642
 07,-0.00044633,-0.00005950,0.00004635,-0.00003506,0.00000418,0.0000419
 7,-0.00001578,-0.00000757,0.00000217,-0.00000389,-0.12855677,0.2383205
 5,-0.00228803,0.00182109,0.00088428,-0.00181888,-0.00360795,-0.0037135
 1,0.00024786,-0.00008302,0.00031097,0.00023926,0.00020758,0.00033365,-
 0.00150901,0.00363084,-0.00084236,0.00046991,-0.00110585,0.00020769,-0
 .00023466,0.00034517,-0.00023313,0.00003682,-0.00011666,0.00007985,0.0
 1842330,-0.02376675,-0.05314035,-0.01566094,0.02180413,-0.00018077,0.0
 0003528,0.00008740,0.00005547,-0.00001600,-0.00000702,0.00001199,-0.00
 022641,0.00038162,0.00028498,0.00003887,0.00009423,0.00054954,-0.00059
 090,0.00000861,0.00026453,-0.00011624,0.00009301,-0.00008568,-0.000251
 99,0.00002979,0.00005656,-0.00008371,0.00003149,-0.00002217,-0.0000349
 8,0.00001545,-0.00001400,0.00000294,0.00000208,0.00000119,-0.01564258,
 0.02547691,0.05533668,-0.00022500,-0.00025857,0.00036028,0.00177970,-0
 .00073470,-0.00057491,-0.00000380,0.00004770,-0.00023105,0.00034926,0.
 00116266,-0.00043799,-0.00994073,-0.00147152,0.01841101,-0.00023886,0.
 00010812,0.00271106,0.00060551,0.00024691,-0.00099728,-0.00012266,0.00
 028099,-0.00086934,-0.09303500,-0.00114824,0.09733811,0.00947835,0.001
 06952,-0.02457539,0.00006413,0.00003910,0.00004031,-0.00010896,-0.0000
 0136,0.00000713,0.00061509,-0.00037297,-0.00021470,-0.00003745,0.00004
 833,-0.00022646,-0.00171192,-0.00380403,-0.00018877,0.00030521,0.00009
 146,-0.00034255,0.00000104,-0.00008761,-0.00017107,0.00007290,-0.00006
 216,0.00007457,0.00028105,0.00010140,0.00022157,-0.00005144,-0.0000243
 7,-0.00001815,-0.00809207,-0.00085393,0.01747590,0.10221515,-0.0001056
 9,0.00009210,-0.00015964,-0.00030236,-0.00016089,0.00075479,0.00021044
 ,-0.00013884,-0.00017357,-0.00043994,0.00171663,0.00118504,-0.01287514
 ,-0.00222882,0.02624794,0.00043103,0.00073889,0.00087123,-0.00007927,-
 0.00032066,-0.00052272,0.00010975,0.00017098,-0.00044764,-0.00028564,-
 0.05242767,0.00755695,-0.00016260,-0.00023709,-0.00029583,0.00005857,-
 0.00001849,0.00003325,-0.00006793,0.00010335,-0.00016173,0.00037307,-0
 .00053654,-0.00048968,0.00006628,0.00031013,-0.00038164,-0.00356673,-0
 .00439937,0.00055713,0.00020069,0.00004796,-0.00009566,-0.00004730,-0.
 00000887,-0.00013377,0.00012853,-0.00004107,0.00006533,0.00010855,0.00
 000448,0.00013661,-0.00004223,0.00000589,-0.00001907,0.01121192,0.0014
 4483,-0.02535206,0.00524681,0.05473203,-0.00107141,0.00027382,0.000315
 81,0.00176013,-0.00124672,-0.00052162,-0.00007804,0.00034323,-0.000323
 55,-0.00016244,-0.00040731,0.00010726,0.00254225,0.00092008,-0.0016119
 1,-0.00004397,0.00052516,-0.00075715,-0.00163326,-0.00109717,-0.000602
 36,-0.00008135,-0.00014041,0.00018200,0.09876564,0.00814229,-0.2651580
 8,0.00661939,0.00118535,-0.02009087,0.00001334,0.00008222,-0.00000731,
 0.00000039,-0.00003216,0.00011908,-0.00021462,0.00048917,0.00028720,-0
 .00011360,0.00003330,0.00028492,-0.00015240,0.00014111,0.00103211,0.00
 018586,0.00007591,0.00006336,0.00002017,0.00004366,-0.00001342,0.00001
 694,0.00000786,0.00000559,-0.00006574,-0.00001979,-0.00006783,0.000032
 03,-0.00000418,0.00003282,0.00141330,-0.00052893,-0.00219486,-0.104166
 69,-0.00870287,0.28999808,-0.00120520,0.00375107,-0.00335943,-0.011101
 71,-0.00023492,0.01803951,0.00032181,-0.00019083,-0.00115322,-0.000111
 10,-0.00028482,-0.00002136,0.00168313,0.00053064,-0.00028404,0.0002031
 0,0.00046892,-0.00025643,-0.00019123,-0.00014232,0.00003163,-0.0000416
 3,-0.00006857,0.00007725,0.00938950,-0.00288884,-0.02562661,-0.0888165
 9,0.00755709,0.10154161,-0.00009143,-0.00008183,-0.00032914,0.00057909
 ,0.00039323,-0.00027009,-0.00010898,0.00006791,0.00000040,-0.00001427,
 -0.00000658,-0.00001597,-0.00019460,-0.00004445,0.00050624,0.00005522,
 0.00002704,0.00010690,-0.00003607,0.00001223,-0.00000528,-0.00000137,0
 .00000593,-0.00000571,-0.00003249,-0.00000715,-0.00003588,0.00000873,0
 .00000025,0.00001778,0.00161633,-0.00004428,0.00091313,-0.00344300,-0.
 00042030,-0.00365879,0.09953026,0.00249494,-0.00265280,0.00358711,0.01
 209457,0.00124666,-0.02904098,-0.00138049,-0.00040700,0.00343801,0.000
 40749,0.00025608,0.00017629,0.00050892,0.00003806,-0.00100321,-0.00015
 348,0.00004810,-0.00000248,0.00009372,-0.00000226,0.00012559,-0.000069
 24,0.00000093,-0.00005207,-0.00077247,0.00041238,0.00132093,0.00885003
 ,-0.05382278,-0.02551460,0.00008869,0.00042152,0.00041784,-0.00039316,
 -0.00161372,-0.00001781,0.00000132,0.00010334,0.00003213,0.00005612,-0
 .00001615,0.00000701,-0.00020611,0.00004735,0.00007677,0.00001638,0.00
 001037,0.00001137,0.00002843,-0.00002107,0.00000851,0.00001362,-0.0000
 0764,0.00000511,0.00001528,0.00000567,0.00000282,0.00000366,-0.0000022
 1,0.00001499,-0.00053038,0.00020091,0.00042450,0.00047823,0.00100272,0
 .00031990,-0.01148389,0.05105415,-0.00066457,-0.00070655,-0.00069259,0
 .00109056,0.00004005,0.00040386,0.00058904,0.00014908,-0.00067864,-0.0
 0036970,-0.00005819,-0.00005206,0.00157066,0.00062478,0.00056799,-0.00
 015177,0.00024466,-0.00015185,-0.00020097,-0.00016975,0.00013805,0.000
 03823,-0.00004652,0.00020392,0.00839849,-0.00190378,-0.02471833,0.0971
 7529,-0.01962678,-0.24624636,-0.00002940,-0.00018133,0.00024178,-0.000
 27002,0.00001778,0.00054296,0.00000711,0.00016176,0.00011907,0.0000106
 8,-0.00005281,0.00001198,-0.00077015,-0.00073263,0.00052887,-0.0000321
 3,-0.00003426,0.00000278,-0.00000079,0.00000880,0.00000888,-0.00001045
 ,0.00001340,-0.00001099,-0.00005599,-0.00002367,-0.00003860,0.00002017
 ,0.00000572,0.00001929,0.00036982,0.00043214,0.00139409,-0.00450458,-0
 .00010052,-0.00191716,-0.10379599,0.02190572,0.27377433,0.00181769,-0.
 00132250,0.00014000,0.01159215,0.01577189,-0.00308553,-0.00209600,0.00
 274015,0.00044981,-0.00029521,0.00023336,-0.00008520,-0.00237394,0.002
 06888,-0.00420601,-0.00028717,-0.00158952,0.00073076,-0.00007564,0.000
 05225,-0.00039836,0.00021292,-0.00002748,0.00014926,-0.01312454,-0.017
 55421,0.00420209,-0.15281761,-0.13121968,0.02313859,0.00059521,0.00090
 863,0.00009071,-0.00009142,-0.00008870,-0.00002941,0.00006412,-0.00005
 855,0.00001335,0.00006482,-0.00012679,0.00003530,0.00029486,0.00042187
 ,0.00000570,-0.00042037,-0.00007425,-0.00041041,0.00002470,0.00004045,
 0.00003019,-0.00004520,0.00001794,-0.00000548,-0.00002850,0.00000479,-
 0.00000466,-0.00000837,0.00000408,-0.00006640,0.00016362,0.00033806,0.
 00059104,0.00124350,0.00024950,0.00007287,-0.00799751,-0.01016215,0.00
 158642,0.16358789,0.00004331,0.00601912,-0.00085400,-0.02215501,-0.026
 61167,0.00485793,0.00500226,-0.00324722,-0.00079107,0.00046408,0.00029
 141,0.00039221,0.00064983,0.00095423,0.00023316,0.00015015,0.00014947,
 0.00023621,-0.00003274,0.00003568,-0.00010732,0.00004307,-0.00000464,0
 .00005827,0.00154354,0.00224992,-0.00110835,-0.12680277,-0.20855243,0.
 02895313,-0.00090855,-0.00151312,-0.00006142,0.00008180,0.00042149,0.0
 0018134,-0.00003910,-0.00001850,-0.00008222,-0.00012256,0.00004656,-0.
 00008738,-0.00003172,-0.00005687,0.00005973,0.00006903,0.00000754,0.00
 002833,-0.00003941,0.00002403,-0.00004933,-0.00001388,0.00000671,-0.00
 000468,-0.00000356,-0.00000011,-0.00000469,-0.00000201,-0.00000425,-0.
 00001402,-0.00025042,0.00035378,-0.00041458,-0.00010176,0.00014830,-0.
 00040352,0.00308445,0.00369740,0.00003290,0.13937197,0.22560318,-0.000
 76927,0.00026295,-0.00114726,0.00056814,-0.00273995,-0.00063021,-0.000
 02360,0.00023126,0.00118530,-0.00012209,0.00050882,-0.00007862,-0.0028
 5420,0.00156207,-0.00357408,-0.00073073,-0.00135373,0.00076933,0.00009
 863,0.00007727,-0.00013567,0.00009820,-0.00001891,0.00009720,-0.014362
 99,-0.02000125,0.00354456,0.02274804,0.02930078,-0.05531810,0.00009076
 ,0.00006149,0.00038971,-0.00032912,-0.00041791,0.00024180,0.00004029,-
 0.00003324,-0.00000731,0.00010377,-0.00006871,0.00005546,-0.00026196,-
 0.00006366,0.00025502,-0.00038999,-0.00007264,-0.00042817,0.00003171,0
 .00002572,0.00003039,-0.00002315,0.00000700,-0.00000138,-0.00000727,0.
 00001232,-0.00000054,-0.00000025,0.00000239,-0.00004042,0.00057725,0.0
 0038385,0.00065539,0.00087898,-0.00037185,0.00083789,0.01758347,0.0237
 5656,-0.00345128,-0.02294462,-0.03105063,0.05675098\\-0.00003338,-0.00
 000445,0.00003176,-0.00001903,0.00000419,-0.00005943,0.00002990,-0.000
 02676,0.00002730,-0.00000066,-0.00000854,0.00000473,0.00001592,-0.0000
 1142,0.00002251,-0.00003555,0.00000067,-0.00000172,0.00003274,-0.00000
 911,0.00002112,-0.00003527,0.00000947,-0.00000528,0.00000973,0.0000129
 3,-0.00001050,0.00002221,0.00002111,0.00003041,-0.00001485,0.00001080,
 -0.00001254,0.00000366,-0.00000157,-0.00001036,0.00000166,0.00000467,-
 0.00001014,0.00000111,0.00000638,0.00000437,-0.00000335,0.00000615,-0.
 00001448,0.00001086,0.00000809,-0.00000821,0.00000388,-0.00001310,-0.0
 0001295,0.00000674,0.00000043,0.00000540,0.00000763,0.00000081,0.00001
 214,0.00000830,0.00000014,0.00000137,0.00000159,-0.00000488,0.00000062
 ,-0.00000347,0.,0.00000287,0.00000336,0.00000301,-0.00000479,-0.000013
 74,-0.00000901,-0.00001420\\\@


     ON THE SURVIVAL OF THE FITTEST -
 "STRONG REPRESENTATIVES FROM EACH PAST ERA THRIVE TODAY,
 SUCH AS PROGRAMMING IN THE THIRTY YEAR OLD LANGUAGE KNOWN
 AS FORTRAN, AND EVEN IN THE ANCIENT SCRIPT KNOWN AS DIRECT
 MACHINE CODE. SOME PEOPLE MIGHT LOOK ON SUCH RELICS AS LIVING
 FOSSILS; OTHERS WOULD POINT OUT THAT EVEN A VERY OLD SPECIES
 MIGHT STILL BE FILLING A PARTICULAR ECOLOGICAL NICHE."
     -- ALAN KAY, SCI.AM. SEPTEMBER 1984
 Job cpu time:       0 days  0 hours  1 minutes 44.0 seconds.
 Elapsed time:       0 days  0 hours 48 minutes 18.9 seconds.
 File lengths (MBytes):  RWF=     97 Int=      0 D2E=      0 Chk=      4 Scr=      1
 Normal termination of Gaussian 16 at Thu Feb 22 00:53:26 2024.
