 Entering Gaussian System, Link 0=g16
 Input=/Volumes/SSD-PMU3/b3lyp_6-31gd_freq/KPQOQSYRJHFQHS-HTQGCQERSA-N_calculating/gaussianinput1.gjf
 Output=/Volumes/SSD-PMU3/b3lyp_6-31gd_freq/KPQOQSYRJHFQHS-HTQGCQERSA-N_calculating/gaussianinput1.log
 Initial command:
 /Applications/g16/l1.exe "/Users/macmini_m1_2022/PycharmProjects/sphere_model/sphere_model_lib/Gau-56411.inp" -scrdir="/Users/macmini_m1_2022/PycharmProjects/sphere_model/sphere_model_lib/"
 Entering Link 1 = /Applications/g16/l1.exe PID=     56412.
  
 Copyright (c) 1988,1990,1992,1993,1995,1998,2003,2009,2016,
            Gaussian, Inc.  All Rights Reserved.
  
 This is part of the Gaussian(R) 16 program.  It is based on
 the Gaussian(R) 09 system (copyright 2009, Gaussian, Inc.),
 the Gaussian(R) 03 system (copyright 2003, Gaussian, Inc.),
 the Gaussian(R) 98 system (copyright 1998, Gaussian, Inc.),
 the Gaussian(R) 94 system (copyright 1995, Gaussian, Inc.),
 the Gaussian 92(TM) system (copyright 1992, Gaussian, Inc.),
 the Gaussian 90(TM) system (copyright 1990, Gaussian, Inc.),
 the Gaussian 88(TM) system (copyright 1988, Gaussian, Inc.),
 the Gaussian 86(TM) system (copyright 1986, Carnegie Mellon
 University), and the Gaussian 82(TM) system (copyright 1983,
 Carnegie Mellon University). Gaussian is a federally registered
 trademark of Gaussian, Inc.
  
 This software contains proprietary and confidential information,
 including trade secrets, belonging to Gaussian, Inc.
  
 This software is provided under written license and may be
 used, copied, transmitted, or stored only in accord with that
 written license.
  
 The following legend is applicable only to US Government
 contracts under FAR:
  
                    RESTRICTED RIGHTS LEGEND
  
 Use, reproduction and disclosure by the US Government is
 subject to restrictions as set forth in subparagraphs (a)
 and (c) of the Commercial Computer Software - Restricted
 Rights clause in FAR 52.227-19.
  
 Gaussian, Inc.
 340 Quinnipiac St., Bldg. 40, Wallingford CT 06492
  
  
 ---------------------------------------------------------------
 Warning -- This program may not be used in any manner that
 competes with the business of Gaussian, Inc. or will provide
 assistance to any competitor of Gaussian, Inc.  The licensee
 of this program is prohibited from giving any competitor of
 Gaussian, Inc. access to this program.  By using this program,
 the user acknowledges that Gaussian, Inc. is engaged in the
 business of creating and licensing software in the field of
 computational chemistry and represents and warrants to the
 licensee that it is not a competitor of Gaussian, Inc. and that
 it will not use this program in any manner prohibited above.
 ---------------------------------------------------------------
  

 Cite this work as:
 Gaussian 16, Revision A.03,
 M. J. Frisch, G. W. Trucks, H. B. Schlegel, G. E. Scuseria, 
 M. A. Robb, J. R. Cheeseman, G. Scalmani, V. Barone, 
 G. A. Petersson, H. Nakatsuji, X. Li, M. Caricato, A. V. Marenich, 
 J. Bloino, B. G. Janesko, R. Gomperts, B. Mennucci, H. P. Hratchian, 
 J. V. Ortiz, A. F. Izmaylov, J. L. Sonnenberg, D. Williams-Young, 
 F. Ding, F. Lipparini, F. Egidi, J. Goings, B. Peng, A. Petrone, 
 T. Henderson, D. Ranasinghe, V. G. Zakrzewski, J. Gao, N. Rega, 
 G. Zheng, W. Liang, M. Hada, M. Ehara, K. Toyota, R. Fukuda, 
 J. Hasegawa, M. Ishida, T. Nakajima, Y. Honda, O. Kitao, H. Nakai, 
 T. Vreven, K. Throssell, J. A. Montgomery, Jr., J. E. Peralta, 
 F. Ogliaro, M. J. Bearpark, J. J. Heyd, E. N. Brothers, K. N. Kudin, 
 V. N. Staroverov, T. A. Keith, R. Kobayashi, J. Normand, 
 K. Raghavachari, A. P. Rendell, J. C. Burant, S. S. Iyengar, 
 J. Tomasi, M. Cossi, J. M. Millam, M. Klene, C. Adamo, R. Cammi, 
 J. W. Ochterski, R. L. Martin, K. Morokuma, O. Farkas, 
 J. B. Foresman, and D. J. Fox, Gaussian, Inc., Wallingford CT, 2016.
 
 ******************************************
 Gaussian 16:  EM64M-G16RevA.03 25-Dec-2016
                21-Feb-2024 
 ******************************************
 %nprocshared=8
 Will use up to    8 processors via shared memory.
 %mem=4GB
 %chk= 1.chk
 ---------------------
 # freq b3lyp/6-31g(d)
 ---------------------
 1/10=4,30=1,38=1/1,3;
 2/12=2,17=6,18=5,40=1/2;
 3/5=1,6=6,7=1,11=2,25=1,30=1,71=2,74=-5,140=1/1,2,3;
 4//1;
 5/5=2,38=5,98=1/2;
 8/6=4,10=90,11=11/1;
 11/6=1,8=1,9=11,15=111,16=1/1,2,10;
 10/6=1/2;
 6/7=2,8=2,9=2,10=2,28=1/1;
 7/8=1,10=1,25=1/1,2,3,16;
 1/10=4,30=1/3;
 99//99;
 ---------
 good luck
 ---------
 Symbolic Z-matrix:
 Charge =  0 Multiplicity = 1
 O                     1.21636   0.        0. 
 C                     0.        0.        0. 
 C                    -0.82232  -1.28191   0.00239 
 C                    -1.93587  -1.25451  -1.06342 
 C                    -2.80649   0.00904  -0.9534 
 C                    -3.91724   0.02439  -2.00185 
 O                    -4.75869  -1.09564  -1.79961 
 C                    -5.80191  -1.1767   -2.74622 
 C                    -1.93329   1.27137  -1.05947 
 C                    -0.81514   1.28871   0.00239 
 H                    -0.14554  -2.13064  -0.13308 
 H                    -1.28206  -1.37995   0.99821 
 H                    -2.56304  -2.14673  -0.97622 
 H                    -1.47937  -1.28559  -2.06399 
 H                    -3.29591   0.00619   0.0329 
 H                    -4.50142   0.95846  -1.92353 
 H                    -3.48207  -0.00212  -3.01768 
 H                    -6.45683  -0.29085  -2.70885 
 H                    -5.41486  -1.27587  -3.77344 
 H                    -6.39185  -2.06408  -2.50206 
 H                    -2.54831   2.17455  -0.95715 
 H                    -1.47926   1.314    -2.06019 
 H                    -0.13278   2.13243  -0.13574 
 H                    -1.27123   1.38971   0.99941 
 

 GradGradGradGradGradGradGradGradGradGradGradGradGradGradGradGradGradGrad
 Berny optimization.
 Initialization pass.
 Trust Radius=3.00D-01 FncErr=1.00D-07 GrdErr=1.00D-07 EigMax=2.50D+02 EigMin=1.00D-04
 Number of steps in this run=      2 maximum allowed number of steps=      2.
 GradGradGradGradGradGradGradGradGradGradGradGradGradGradGradGradGradGrad

                          Input orientation:                          
 ---------------------------------------------------------------------
 Center     Atomic      Atomic             Coordinates (Angstroms)
 Number     Number       Type             X           Y           Z
 ---------------------------------------------------------------------
      1          8           0        1.216355    0.000000    0.000000
      2          6           0        0.000000    0.000000    0.000000
      3          6           0       -0.822316   -1.281905    0.002386
      4          6           0       -1.935867   -1.254514   -1.063418
      5          6           0       -2.806491    0.009038   -0.953397
      6          6           0       -3.917244    0.024385   -2.001851
      7          8           0       -4.758692   -1.095643   -1.799613
      8          6           0       -5.801908   -1.176702   -2.746220
      9          6           0       -1.933294    1.271367   -1.059473
     10          6           0       -0.815137    1.288705    0.002386
     11          1           0       -0.145536   -2.130641   -0.133079
     12          1           0       -1.282059   -1.379948    0.998210
     13          1           0       -2.563040   -2.146731   -0.976218
     14          1           0       -1.479365   -1.285587   -2.063990
     15          1           0       -3.295909    0.006187    0.032898
     16          1           0       -4.501419    0.958455   -1.923532
     17          1           0       -3.482068   -0.002122   -3.017677
     18          1           0       -6.456828   -0.290854   -2.708854
     19          1           0       -5.414859   -1.275870   -3.773443
     20          1           0       -6.391848   -2.064076   -2.502065
     21          1           0       -2.548312    2.174552   -0.957150
     22          1           0       -1.479260    1.314004   -2.060186
     23          1           0       -0.132782    2.132433   -0.135740
     24          1           0       -1.271227    1.389707    0.999405
 ---------------------------------------------------------------------
                    Distance matrix (angstroms):
                    1          2          3          4          5
     1  O    0.000000
     2  C    1.216355   0.000000
     3  C    2.408208   1.522987   0.000000
     4  C    3.555442   2.540127   1.541650   0.000000
     5  C    4.134288   2.964024   2.552843   1.538393   0.000000
     6  C    5.510158   4.399182   3.911769   2.538128   1.527502
     7  O    6.335632   5.204247   4.333238   2.921569   2.397392
     8  C    7.627737   6.525986   5.688782   4.217126   3.686830
     9  C    3.557969   2.544893   2.980103   2.525885   1.538571
    10  C    2.405769   1.524865   2.570620   2.976565   2.552755
    11  H    2.532210   2.139748   1.093954   2.199640   3.511670
    12  H    3.023698   2.131749   1.101200   2.166451   2.839356
    13  H    4.454804   3.482905   2.176169   1.094075   2.169592
    14  H    3.630385   2.846280   2.168326   1.100229   2.161188
    15  H    4.512388   3.296079   2.789045   2.154296   1.101052
    16  H    6.108318   4.988124   4.718493   3.495581   2.171482
    17  H    5.584045   4.607730   4.222903   2.788970   2.172045
    18  H    8.142495   7.008075   6.330934   4.906647   4.061591
    19  H    7.735613   6.722158   5.945450   4.409997   4.050584
    20  H    8.270761   7.167737   6.156602   4.751933   4.421647
    21  H    4.451688   3.484065   3.980812   3.484950   2.180853
    22  H    3.638312   2.856428   3.380018   2.792726   2.165516
    23  H    2.527027   2.140871   3.486006   3.947545   3.510853
    24  H    3.019629   2.132162   2.886707   3.418902   2.841957
                    6          7          8          9         10
     6  C    0.000000
     7  O    1.415414   0.000000
     8  C    2.355558   1.411005   0.000000
     9  C    2.525688   3.759444   4.878968   0.000000
    10  C    3.903657   4.948125   6.204914   1.542116   0.000000
    11  H    4.728872   5.012960   6.303416   3.953219   3.486925
    12  H    4.232814   4.471646   5.872912   3.418719   2.886415
    13  H    2.756726   2.569757   3.816298   3.476623   3.976814
    14  H    2.768238   3.295445   4.377405   2.784442   3.367208
    15  H    2.127579   2.590726   3.924634   2.156542   2.792850
    16  H    1.104482   2.073852   2.631916   2.727596   4.172158
    17  H    1.105434   2.075870   2.614380   2.802684   4.230784
    18  H    2.654942   2.087599   1.102290   5.061951   6.455579
    19  H    2.659333   2.087832   1.102193   5.096601   6.480075
    20  H    3.276515   2.024475   1.093194   5.751952   6.972311
    21  H    2.754740   4.036050   5.001756   1.097479   2.170099
    22  H    2.758675   4.077864   5.035826   1.099723   2.167003
    23  H    4.716820   5.881156   7.064274   2.199218   1.093876
    24  H    4.227653   5.116041   6.414299   2.165945   1.101030
                   11         12         13         14         15
    11  H    0.000000
    12  H    1.770604   0.000000
    13  H    2.560365   2.475325   0.000000
    14  H    2.494320   3.070000   1.760446   0.000000
    15  H    3.810306   2.628458   2.488065   3.060303   0.000000
    16  H    5.632224   4.936495   3.781124   3.766731   2.487506
    17  H    4.897341   4.781819   3.100244   2.562737   3.056261
    18  H    7.060584   6.458071   4.648429   5.116687   4.194860
    19  H    6.461319   6.313441   4.088488   4.290739   4.541129
    20  H    6.680789   6.231364   4.122476   4.993040   4.505204
    21  H    4.998711   4.249859   4.321350   3.786859   2.498180
    22  H    4.166310   4.080447   3.785004   2.599594   3.064572
    23  H    4.263094   3.865682   4.992374   4.149011   3.815067
    24  H    3.865560   2.769676   4.251854   4.072457   2.635830
                   16         17         18         19         20
    16  H    0.000000
    17  H    1.777340   0.000000
    18  H    2.449720   3.004652   0.000000
    19  H    3.041176   2.435015   1.785863   0.000000
    20  H    3.611664   3.603378   1.786421   1.786667   0.000000
    21  H    2.495479   3.139360   4.941982   5.296604   5.926677
    22  H    3.046069   2.580740   5.269964   5.013146   5.978311
    23  H    4.864094   4.907097   7.244777   7.262902   7.898486
    24  H    4.377634   4.791863   6.592869   6.859669   7.099977
                   21         22         23         24
    21  H    0.000000
    22  H    1.760711   0.000000
    23  H    2.551720   2.487232   0.000000
    24  H    2.464759   3.067590   1.770947   0.000000
 Stoichiometry    C8H14O2
 Framework group  C1[X(C8H14O2)]
 Deg. of freedom    66
 Full point group                 C1      NOp   1
 Largest Abelian subgroup         C1      NOp   1
 Largest concise Abelian subgroup C1      NOp   1
                         Standard orientation:                         
 ---------------------------------------------------------------------
 Center     Atomic      Atomic             Coordinates (Angstroms)
 Number     Number       Type             X           Y           Z
 ---------------------------------------------------------------------
      1          8           0        3.583585   -0.398694   -0.489604
      2          6           0        2.489509   -0.209447    0.007088
      3          6           0        1.525322   -1.343521    0.329127
      4          6           0        0.102198   -1.054840   -0.188625
      5          6           0       -0.414629    0.315235    0.283011
      6          6           0       -1.830414    0.590186   -0.220197
      7          8           0       -2.703391   -0.398161    0.294079
      8          6           0       -4.034647   -0.237066   -0.144945
      9          6           0        0.550404    1.430730   -0.154690
     10          6           0        1.983960    1.185688    0.358136
     11          1           0        1.930582   -2.273009   -0.081424
     12          1           0        1.492892   -1.451158    1.424574
     13          1           0       -0.583989   -1.842734    0.135983
     14          1           0        0.107101   -1.073397   -1.288687
     15          1           0       -0.460817    0.306706    1.383061
     16          1           0       -2.160227    1.594006    0.101440
     17          1           0       -1.849992    0.580707   -1.325416
     18          1           0       -4.452957    0.733693    0.167601
     19          1           0       -4.114854   -0.309634   -1.241817
     20          1           0       -4.623709   -1.039015    0.307779
     21          1           0        0.197018    2.406955    0.201067
     22          1           0        0.565996    1.485123   -1.252956
     23          1           0        2.690882    1.921494   -0.036090
     24          1           0        1.990307    1.273309    1.455655
 ---------------------------------------------------------------------
 Rotational constants (GHZ):           3.5721534           0.6155414           0.5518580
 Standard basis: 6-31G(d) (6D, 7F)
 There are   178 symmetry adapted cartesian basis functions of A   symmetry.
 There are   178 symmetry adapted basis functions of A   symmetry.
   178 basis functions,   336 primitive gaussians,   178 cartesian basis functions
    39 alpha electrons       39 beta electrons
       nuclear repulsion energy       548.8627390729 Hartrees.
 NAtoms=   24 NActive=   24 NUniq=   24 SFac= 1.00D+00 NAtFMM=   60 NAOKFM=F Big=F
 Integral buffers will be    131072 words long.
 Raffenetti 2 integral format.
 Two-electron integral symmetry is turned on.
 One-electron integrals computed using PRISM.
 NBasis=   178 RedAO= T EigKep=  2.86D-03  NBF=   178
 NBsUse=   178 1.00D-06 EigRej= -1.00D+00 NBFU=   178
 ExpMin= 1.61D-01 ExpMax= 5.48D+03 ExpMxC= 8.25D+02 IAcc=3 IRadAn=         5 AccDes= 0.00D+00
 Harris functional with IExCor=  402 and IRadAn=       5 diagonalized for initial guess.
 HarFok:  IExCor=  402 AccDes= 0.00D+00 IRadAn=         5 IDoV= 1 UseB2=F ITyADJ=14
 ICtDFT=  3500011 ScaDFX=  1.000000  1.000000  1.000000  1.000000
 FoFCou: FMM=F IPFlag=           0 FMFlag=      100000 FMFlg1=           0
         NFxFlg=           0 DoJE=T BraDBF=F KetDBF=T FulRan=T
         wScrn=  0.000000 ICntrl=       500 IOpCl=  0 I1Cent=   200000004 NGrid=           0
         NMat0=    1 NMatS0=      1 NMatT0=    0 NMatD0=    1 NMtDS0=    0 NMtDT0=    0
 Petite list used in FoFCou.
 Requested convergence on RMS density matrix=1.00D-08 within 128 cycles.
 Requested convergence on MAX density matrix=1.00D-06.
 Requested convergence on             energy=1.00D-06.
 No special actions if energy rises.
 Integral accuracy reduced to 1.0D-05 until final iterations.
 Initial convergence to 1.0D-05 achieved.  Increase integral accuracy.
 SCF Done:  E(RB3LYP) =  -463.719919719     A.U. after   14 cycles
            NFock= 14  Conv=0.43D-08     -V/T= 2.0094
 DoSCS=F DFT=T ScalE2(SS,OS)=  1.000000  1.000000
 Range of M.O.s used for correlation:     1   178
 NBasis=   178 NAE=    39 NBE=    39 NFC=     0 NFV=     0
 NROrb=    178 NOA=    39 NOB=    39 NVA=   139 NVB=   139
 Symmetrizing basis deriv contribution to polar:
 IMax=3 JMax=2 DiffMx= 0.00D+00
 G2DrvN: will do    25 centers at a time, making    1 passes.
 Calling FoFCou, ICntrl=  3107 FMM=F I1Cent=   0 AccDes= 0.00D+00.
 End of G2Drv F.D. properties file   721 does not exist.
 End of G2Drv F.D. properties file   722 does not exist.
 End of G2Drv F.D. properties file   788 does not exist.
          IDoAtm=111111111111111111111111
          Differentiating once with respect to electric field.
                with respect to dipole field.
          Differentiating once with respect to nuclear coordinates.
 Keep R1 ints in memory in canonical form, NReq=134943985.
          There are    75 degrees of freedom in the 1st order CPHF.  IDoFFX=6 NUNeed=     3.
     72 vectors produced by pass  0 Test12= 7.23D-15 1.33D-09 XBig12= 6.38D+01 2.39D+00.
 AX will form    72 AO Fock derivatives at one time.
     72 vectors produced by pass  1 Test12= 7.23D-15 1.33D-09 XBig12= 1.22D+01 1.11D+00.
     72 vectors produced by pass  2 Test12= 7.23D-15 1.33D-09 XBig12= 9.04D-02 4.28D-02.
     72 vectors produced by pass  3 Test12= 7.23D-15 1.33D-09 XBig12= 2.38D-04 2.13D-03.
     72 vectors produced by pass  4 Test12= 7.23D-15 1.33D-09 XBig12= 2.24D-07 6.02D-05.
     35 vectors produced by pass  5 Test12= 7.23D-15 1.33D-09 XBig12= 1.49D-10 1.49D-06.
      3 vectors produced by pass  6 Test12= 7.23D-15 1.33D-09 XBig12= 8.80D-14 4.09D-08.
      1 vectors produced by pass  7 Test12= 7.23D-15 1.33D-09 XBig12= 5.73D-17 1.39D-09.
 InvSVY:  IOpt=1 It=  1 EMax= 8.88D-15
 Solved reduced A of dimension   399 with    75 vectors.
 Isotropic polarizability for W=    0.000000       87.72 Bohr**3.
 End of Minotr F.D. properties file   721 does not exist.
 End of Minotr F.D. properties file   722 does not exist.
 End of Minotr F.D. properties file   788 does not exist.

 **********************************************************************

            Population analysis using the SCF density.

 **********************************************************************

 Orbital symmetries:
       Occupied  (A) (A) (A) (A) (A) (A) (A) (A) (A) (A) (A) (A)
                 (A) (A) (A) (A) (A) (A) (A) (A) (A) (A) (A) (A)
                 (A) (A) (A) (A) (A) (A) (A) (A) (A) (A) (A) (A)
                 (A) (A) (A)
       Virtual   (A) (A) (A) (A) (A) (A) (A) (A) (A) (A) (A) (A)
                 (A) (A) (A) (A) (A) (A) (A) (A) (A) (A) (A) (A)
                 (A) (A) (A) (A) (A) (A) (A) (A) (A) (A) (A) (A)
                 (A) (A) (A) (A) (A) (A) (A) (A) (A) (A) (A) (A)
                 (A) (A) (A) (A) (A) (A) (A) (A) (A) (A) (A) (A)
                 (A) (A) (A) (A) (A) (A) (A) (A) (A) (A) (A) (A)
                 (A) (A) (A) (A) (A) (A) (A) (A) (A) (A) (A) (A)
                 (A) (A) (A) (A) (A) (A) (A) (A) (A) (A) (A) (A)
                 (A) (A) (A) (A) (A) (A) (A) (A) (A) (A) (A) (A)
                 (A) (A) (A) (A) (A) (A) (A) (A) (A) (A) (A) (A)
                 (A) (A) (A) (A) (A) (A) (A) (A) (A) (A) (A) (A)
                 (A) (A) (A) (A) (A) (A) (A)
 The electronic state is 1-A.
 Alpha  occ. eigenvalues --  -19.15222 -19.13168 -10.26772 -10.23479 -10.23108
 Alpha  occ. eigenvalues --  -10.19655 -10.19619 -10.19170 -10.18873 -10.18845
 Alpha  occ. eigenvalues --   -1.03608  -1.03045  -0.83799  -0.75811  -0.75460
 Alpha  occ. eigenvalues --   -0.69471  -0.63930  -0.62621  -0.57930  -0.53326
 Alpha  occ. eigenvalues --   -0.48704  -0.48158  -0.47635  -0.45789  -0.44749
 Alpha  occ. eigenvalues --   -0.43841  -0.42803  -0.41331  -0.39696  -0.38750
 Alpha  occ. eigenvalues --   -0.38447  -0.35793  -0.35286  -0.33268  -0.32790
 Alpha  occ. eigenvalues --   -0.32400  -0.31414  -0.25946  -0.23390
 Alpha virt. eigenvalues --   -0.01164   0.08522   0.09466   0.10274   0.12113
 Alpha virt. eigenvalues --    0.13271   0.13660   0.14946   0.15503   0.16123
 Alpha virt. eigenvalues --    0.16466   0.16783   0.17353   0.18131   0.19229
 Alpha virt. eigenvalues --    0.20241   0.20883   0.21703   0.23783   0.25326
 Alpha virt. eigenvalues --    0.26751   0.27519   0.29706   0.32231   0.35739
 Alpha virt. eigenvalues --    0.49382   0.51239   0.52380   0.52954   0.53209
 Alpha virt. eigenvalues --    0.55353   0.56855   0.57966   0.59978   0.61525
 Alpha virt. eigenvalues --    0.62894   0.63750   0.65686   0.67653   0.69970
 Alpha virt. eigenvalues --    0.72238   0.73484   0.74585   0.75898   0.77504
 Alpha virt. eigenvalues --    0.81250   0.81675   0.82672   0.83230   0.85713
 Alpha virt. eigenvalues --    0.86286   0.87327   0.87979   0.88869   0.89636
 Alpha virt. eigenvalues --    0.91848   0.92273   0.93476   0.93737   0.93817
 Alpha virt. eigenvalues --    0.95423   0.96200   0.97988   1.01872   1.06915
 Alpha virt. eigenvalues --    1.10847   1.11433   1.12640   1.16693   1.24193
 Alpha virt. eigenvalues --    1.24850   1.32629   1.35644   1.37882   1.41881
 Alpha virt. eigenvalues --    1.45920   1.47816   1.49369   1.51558   1.52822
 Alpha virt. eigenvalues --    1.58135   1.64018   1.68921   1.69622   1.72832
 Alpha virt. eigenvalues --    1.75871   1.78700   1.80237   1.83354   1.85199
 Alpha virt. eigenvalues --    1.87612   1.88988   1.91966   1.93616   1.95117
 Alpha virt. eigenvalues --    1.96630   1.98797   2.01343   2.02698   2.03979
 Alpha virt. eigenvalues --    2.05302   2.07352   2.09471   2.11482   2.12983
 Alpha virt. eigenvalues --    2.19240   2.20909   2.23157   2.25606   2.30642
 Alpha virt. eigenvalues --    2.33591   2.35332   2.38727   2.40945   2.44271
 Alpha virt. eigenvalues --    2.47472   2.51190   2.52304   2.57384   2.62573
 Alpha virt. eigenvalues --    2.63536   2.66027   2.71051   2.75840   2.79268
 Alpha virt. eigenvalues --    2.88914   2.98222   2.98671   3.02019   3.96733
 Alpha virt. eigenvalues --    3.99925   4.12507   4.23803   4.25690   4.26695
 Alpha virt. eigenvalues --    4.36621   4.55371   4.57168   4.62473
          Condensed to atoms (all electrons):
               1          2          3          4          5          6
     1  O    7.996325   0.591560  -0.078155   0.001398   0.000098   0.000001
     2  C    0.591560   4.468910   0.326379  -0.021878  -0.014585   0.000352
     3  C   -0.078155   0.326379   5.320434   0.324610  -0.037582   0.003756
     4  C    0.001398  -0.021878   0.324610   5.070805   0.370848  -0.037549
     5  C    0.000098  -0.014585  -0.037582   0.370848   4.967243   0.381002
     6  C    0.000001   0.000352   0.003756  -0.037549   0.381002   4.868759
     7  O    0.000000  -0.000006   0.000173  -0.000890  -0.044505   0.238719
     8  C   -0.000000   0.000000   0.000000   0.000258   0.005290  -0.040158
     9  C    0.001502  -0.021687  -0.002006  -0.046110   0.356810  -0.037310
    10  C   -0.079300   0.326467  -0.143063  -0.001802  -0.034683   0.003323
    11  H    0.004643  -0.024353   0.344779  -0.025505   0.003677  -0.000115
    12  H    0.001263  -0.029083   0.348338  -0.035746  -0.003926   0.000019
    13  H   -0.000062   0.002736  -0.025995   0.366884  -0.030527  -0.007260
    14  H    0.000392  -0.003058  -0.042220   0.368679  -0.040888  -0.004507
    15  H   -0.000008  -0.001892  -0.001998  -0.051914   0.369275  -0.042295
    16  H   -0.000000  -0.000018  -0.000097   0.006477  -0.038780   0.353925
    17  H   -0.000000  -0.000031   0.000011  -0.012986  -0.032505   0.344973
    18  H    0.000000  -0.000000   0.000000   0.000042  -0.000236  -0.008471
    19  H    0.000000   0.000000  -0.000001  -0.000172   0.000201  -0.008571
    20  H   -0.000000  -0.000000  -0.000000   0.000015  -0.000235   0.005941
    21  H   -0.000069   0.002850  -0.000290   0.005696  -0.032019  -0.004393
    22  H    0.000387  -0.002927   0.000788  -0.007688  -0.037269  -0.005751
    23  H    0.004890  -0.023721   0.006716  -0.000185   0.003529  -0.000104
    24  H    0.001215  -0.028381   0.003855  -0.001635  -0.003392  -0.000018
               7          8          9         10         11         12
     1  O    0.000000  -0.000000   0.001502  -0.079300   0.004643   0.001263
     2  C   -0.000006   0.000000  -0.021687   0.326467  -0.024353  -0.029083
     3  C    0.000173   0.000000  -0.002006  -0.143063   0.344779   0.348338
     4  C   -0.000890   0.000258  -0.046110  -0.001802  -0.025505  -0.035746
     5  C   -0.044505   0.005290   0.356810  -0.034683   0.003677  -0.003926
     6  C    0.238719  -0.040158  -0.037310   0.003323  -0.000115   0.000019
     7  O    8.190607   0.258416   0.002370  -0.000037   0.000000   0.000002
     8  C    0.258416   4.875083  -0.000171   0.000002  -0.000000  -0.000000
     9  C    0.002370  -0.000171   5.083234   0.324817  -0.000134  -0.001625
    10  C   -0.000037   0.000002   0.324817   5.316877   0.006792   0.003585
    11  H    0.000000  -0.000000  -0.000134   0.006792   0.559299  -0.026555
    12  H    0.000002  -0.000000  -0.001625   0.003585  -0.026555   0.583284
    13  H    0.010959  -0.000370   0.005436  -0.000238  -0.001953  -0.006067
    14  H   -0.000262  -0.000053  -0.007381   0.000684  -0.003407   0.005768
    15  H    0.002907  -0.000037  -0.045859  -0.002077  -0.000035   0.004838
    16  H   -0.040414  -0.006068  -0.001267   0.000013   0.000002   0.000004
    17  H   -0.041807  -0.006660  -0.002252  -0.000058   0.000001   0.000005
    18  H   -0.038294   0.360165   0.000012   0.000000   0.000000   0.000000
    19  H   -0.038223   0.360422   0.000014  -0.000000   0.000000  -0.000000
    20  H   -0.033408   0.385507   0.000001  -0.000000   0.000000  -0.000000
    21  H   -0.000007  -0.000005   0.363525  -0.026869   0.000017  -0.000009
    22  H   -0.000017  -0.000001   0.369812  -0.041437  -0.000042   0.000097
    23  H    0.000000  -0.000000  -0.025454   0.344221  -0.000177  -0.000139
    24  H   -0.000000   0.000000  -0.035746   0.348103  -0.000141   0.001130
              13         14         15         16         17         18
     1  O   -0.000062   0.000392  -0.000008  -0.000000  -0.000000   0.000000
     2  C    0.002736  -0.003058  -0.001892  -0.000018  -0.000031  -0.000000
     3  C   -0.025995  -0.042220  -0.001998  -0.000097   0.000011   0.000000
     4  C    0.366884   0.368679  -0.051914   0.006477  -0.012986   0.000042
     5  C   -0.030527  -0.040888   0.369275  -0.038780  -0.032505  -0.000236
     6  C   -0.007260  -0.004507  -0.042295   0.353925   0.344973  -0.008471
     7  O    0.010959  -0.000262   0.002907  -0.040414  -0.041807  -0.038294
     8  C   -0.000370  -0.000053  -0.000037  -0.006068  -0.006660   0.360165
     9  C    0.005436  -0.007381  -0.045859  -0.001267  -0.002252   0.000012
    10  C   -0.000238   0.000684  -0.002077   0.000013  -0.000058   0.000000
    11  H   -0.001953  -0.003407  -0.000035   0.000002   0.000001   0.000000
    12  H   -0.006067   0.005768   0.004838   0.000004   0.000005   0.000000
    13  H    0.559004  -0.034599  -0.003717   0.000233   0.000097   0.000032
    14  H   -0.034599   0.607519   0.006352  -0.000081   0.005959  -0.000000
    15  H   -0.003717   0.006352   0.626284  -0.006939   0.007203  -0.000065
    16  H    0.000233  -0.000081  -0.006939   0.659670  -0.059924   0.013501
    17  H    0.000097   0.005959   0.007203  -0.059924   0.667218  -0.002757
    18  H    0.000032  -0.000000  -0.000065   0.013501  -0.002757   0.631201
    19  H    0.000034   0.000019   0.000050  -0.002604   0.014171  -0.051656
    20  H   -0.000018   0.000000   0.000001  -0.000138  -0.000143  -0.033765
    21  H   -0.000177  -0.000022  -0.004544   0.005848  -0.000529   0.000002
    22  H   -0.000014   0.005206   0.006253  -0.000647   0.005237  -0.000000
    23  H    0.000016  -0.000041  -0.000007  -0.000002   0.000006  -0.000000
    24  H   -0.000013   0.000098   0.004661  -0.000001   0.000003   0.000000
              19         20         21         22         23         24
     1  O    0.000000  -0.000000  -0.000069   0.000387   0.004890   0.001215
     2  C    0.000000  -0.000000   0.002850  -0.002927  -0.023721  -0.028381
     3  C   -0.000001  -0.000000  -0.000290   0.000788   0.006716   0.003855
     4  C   -0.000172   0.000015   0.005696  -0.007688  -0.000185  -0.001635
     5  C    0.000201  -0.000235  -0.032019  -0.037269   0.003529  -0.003392
     6  C   -0.008571   0.005941  -0.004393  -0.005751  -0.000104  -0.000018
     7  O   -0.038223  -0.033408  -0.000007  -0.000017   0.000000  -0.000000
     8  C    0.360422   0.385507  -0.000005  -0.000001  -0.000000   0.000000
     9  C    0.000014   0.000001   0.363525   0.369812  -0.025454  -0.035746
    10  C   -0.000000  -0.000000  -0.026869  -0.041437   0.344221   0.348103
    11  H    0.000000   0.000000   0.000017  -0.000042  -0.000177  -0.000141
    12  H   -0.000000  -0.000000  -0.000009   0.000097  -0.000139   0.001130
    13  H    0.000034  -0.000018  -0.000177  -0.000014   0.000016  -0.000013
    14  H    0.000019   0.000000  -0.000022   0.005206  -0.000041   0.000098
    15  H    0.000050   0.000001  -0.004544   0.006253  -0.000007   0.004661
    16  H   -0.002604  -0.000138   0.005848  -0.000647  -0.000002  -0.000001
    17  H    0.014171  -0.000143  -0.000529   0.005237   0.000006   0.000003
    18  H   -0.051656  -0.033765   0.000002  -0.000000  -0.000000   0.000000
    19  H    0.628715  -0.033722  -0.000000   0.000000   0.000000  -0.000000
    20  H   -0.033722   0.550283   0.000000   0.000000   0.000000  -0.000000
    21  H   -0.000000   0.000000   0.596615  -0.037785  -0.002354  -0.006503
    22  H    0.000000   0.000000  -0.037785   0.600449  -0.003264   0.005704
    23  H    0.000000   0.000000  -0.002354  -0.003264   0.559168  -0.026486
    24  H   -0.000000  -0.000000  -0.006503   0.005704  -0.026486   0.582587
 Mulliken charges:
               1
     1  O   -0.446079
     2  C    0.452367
     3  C   -0.348430
     4  C   -0.271653
     5  C   -0.106842
     6  C   -0.004266
     7  O   -0.466281
     8  C   -0.191621
     9  C   -0.280532
    10  C   -0.345318
    11  H    0.163208
    12  H    0.154818
    13  H    0.165579
    14  H    0.135841
    15  H    0.133561
    16  H    0.117305
    17  H    0.114767
    18  H    0.130291
    19  H    0.131323
    20  H    0.159681
    21  H    0.141022
    22  H    0.142910
    23  H    0.163387
    24  H    0.154961
 Sum of Mulliken charges =  -0.00000
 Mulliken charges with hydrogens summed into heavy atoms:
               1
     1  O   -0.446079
     2  C    0.452367
     3  C   -0.030404
     4  C    0.029767
     5  C    0.026720
     6  C    0.227806
     7  O   -0.466281
     8  C    0.229674
     9  C    0.003400
    10  C   -0.026970
 APT charges:
               1
     1  O   -0.647813
     2  C    0.725341
     3  C   -0.044986
     4  C    0.111461
     5  C    0.060857
     6  C    0.562633
     7  O   -0.780796
     8  C    0.575069
     9  C    0.128468
    10  C   -0.043669
    11  H   -0.030067
    12  H   -0.011251
    13  H   -0.012747
    14  H   -0.040678
    15  H   -0.054007
    16  H   -0.097361
    17  H   -0.085954
    18  H   -0.078306
    19  H   -0.075364
    20  H   -0.030776
    21  H   -0.049491
    22  H   -0.038608
    23  H   -0.030093
    24  H   -0.011864
 Sum of APT charges =  -0.00000
 APT charges with hydrogens summed into heavy atoms:
               1
     1  O   -0.647813
     2  C    0.725341
     3  C   -0.086303
     4  C    0.058036
     5  C    0.006849
     6  C    0.379319
     7  O   -0.780796
     8  C    0.390622
     9  C    0.040370
    10  C   -0.085626
 Electronic spatial extent (au):  <R**2>=           2045.5777
 Charge=             -0.0000 electrons
 Dipole moment (field-independent basis, Debye):
    X=             -3.2864    Y=              1.2311    Z=              0.4869  Tot=              3.5431
 Quadrupole moment (field-independent basis, Debye-Ang):
   XX=            -71.2189   YY=            -59.8030   ZZ=            -60.7044
   XY=              1.0086   XZ=              5.8031   YZ=             -0.1285
 Traceless Quadrupole moment (field-independent basis, Debye-Ang):
   XX=             -7.3102   YY=              4.1058   ZZ=              3.2044
   XY=              1.0086   XZ=              5.8031   YZ=             -0.1285
 Octapole moment (field-independent basis, Debye-Ang**2):
  XXX=            -95.5548  YYY=             -3.7457  ZZZ=              0.0791  XYY=              1.7634
  XXY=              8.2264  XXZ=              9.5290  XZZ=              1.8243  YZZ=             -0.9647
  YYZ=              0.9804  XYZ=             -2.1520
 Hexadecapole moment (field-independent basis, Debye-Ang**3):
 XXXX=          -2172.9565 YYYY=           -406.0275 ZZZZ=           -136.5554 XXXY=             48.8300
 XXXZ=             49.4517 YYYX=              0.8136 YYYZ=              1.2550 ZZZX=             -4.5359
 ZZZY=              0.2473 XXYY=           -405.7076 XXZZ=           -372.4538 YYZZ=            -92.8935
 XXYZ=             -5.2507 YYXZ=             -5.6986 ZZXY=              0.9486
 N-N= 5.488627390729D+02 E-N=-2.176738547354D+03  KE= 4.594019676490D+02
  Exact polarizability: 107.359   0.231  83.533  -2.438   0.685  72.256
 Approx polarizability: 131.575  -1.596 115.061  -8.825   0.724 114.115
 Calling FoFJK, ICntrl=    100127 FMM=F ISym2X=0 I1Cent= 0 IOpClX= 0 NMat=1 NMatS=1 NMatT=0.
 Full mass-weighted force constant matrix:
 Low frequencies ---  -11.5240   -4.7248   -3.8513    0.0011    0.0013    0.0015
 Low frequencies ---   55.4244   86.6401  102.1809
 Diagonal vibrational polarizability:
       14.5448804      12.4970630      28.5879963
 Harmonic frequencies (cm**-1), IR intensities (KM/Mole), Raman scattering
 activities (A**4/AMU), depolarization ratios for plane and unpolarized
 incident light, reduced masses (AMU), force constants (mDyne/A),
 and normal coordinates:
                      1                      2                      3
                      A                      A                      A
 Frequencies --     55.4236                86.6317               102.1804
 Red. masses --      4.7827                 3.3348                 2.0873
 Frc consts  --      0.0087                 0.0147                 0.0128
 IR Inten    --      1.8283                 3.1407                 3.5768
  Atom  AN      X      Y      Z        X      Y      Z        X      Y      Z
     1   8     0.15   0.02   0.31    -0.05   0.09  -0.12    -0.01   0.06  -0.04
     2   6     0.02   0.01   0.05     0.01   0.03   0.03     0.01   0.01   0.01
     3   6    -0.01  -0.02  -0.15     0.08   0.00   0.11     0.03  -0.02  -0.03
     4   6     0.01  -0.00  -0.20     0.07  -0.08   0.06     0.03  -0.03  -0.04
     5   6    -0.01  -0.03  -0.14     0.00  -0.08  -0.02    -0.00  -0.04  -0.05
     6   6    -0.03  -0.03  -0.06     0.03  -0.10  -0.12     0.01  -0.06  -0.10
     7   8    -0.00  -0.01   0.02    -0.02  -0.07  -0.14    -0.04   0.13   0.15
     8   6    -0.07   0.07   0.25    -0.07   0.22   0.12    -0.00  -0.00  -0.02
     9   6    -0.02  -0.01  -0.11    -0.01  -0.05   0.02     0.01  -0.02   0.02
    10   6    -0.04   0.01  -0.04    -0.03   0.00   0.09    -0.02  -0.02   0.10
    11   1     0.03   0.02  -0.20     0.12  -0.00   0.16     0.05  -0.00  -0.05
    12   1    -0.08  -0.13  -0.16     0.06   0.07   0.11     0.02  -0.06  -0.03
    13   1     0.00  -0.03  -0.28     0.10  -0.10   0.08     0.03  -0.04  -0.06
    14   1     0.05   0.07  -0.20     0.10  -0.14   0.06     0.05  -0.02  -0.04
    15   1     0.02  -0.08  -0.14    -0.07  -0.05  -0.02    -0.06  -0.05  -0.05
    16   1    -0.00  -0.02  -0.06     0.03  -0.09  -0.16     0.08   0.04  -0.33
    17   1    -0.11  -0.05  -0.06     0.09  -0.13  -0.12     0.00  -0.31  -0.10
    18   1     0.04   0.08   0.36     0.14   0.23   0.36     0.01   0.15  -0.47
    19   1    -0.25   0.12   0.26    -0.27   0.43   0.12     0.08  -0.47   0.00
    20   1    -0.03   0.09   0.31    -0.12   0.23   0.08    -0.07   0.22   0.27
    21   1    -0.05  -0.02  -0.12    -0.06  -0.06  -0.01    -0.02  -0.04   0.03
    22   1     0.02  -0.02  -0.11     0.04  -0.06   0.02     0.07   0.00   0.02
    23   1    -0.03   0.01  -0.01    -0.04   0.04   0.13    -0.01   0.01   0.19
    24   1    -0.10   0.03  -0.04    -0.09  -0.04   0.09    -0.10  -0.10   0.10
                      4                      5                      6
                      A                      A                      A
 Frequencies --    128.9793               184.2805               218.8682
 Red. masses --      3.5772                 1.9378                 2.1767
 Frc consts  --      0.0351                 0.0388                 0.0614
 IR Inten    --      1.4136                 1.1624                 1.0838
  Atom  AN      X      Y      Z        X      Y      Z        X      Y      Z
     1   8     0.13   0.07   0.08     0.01  -0.08   0.00     0.05  -0.03   0.03
     2   6     0.05   0.03  -0.08     0.01  -0.01  -0.01     0.01  -0.01  -0.07
     3   6     0.10  -0.02  -0.10    -0.00   0.04   0.09    -0.00  -0.01  -0.09
     4   6     0.01  -0.09   0.10     0.07   0.03  -0.10    -0.07   0.03   0.14
     5   6    -0.01  -0.10   0.12    -0.01  -0.04   0.01    -0.04   0.07   0.06
     6   6    -0.01  -0.05   0.13    -0.00  -0.05  -0.02     0.00  -0.01  -0.12
     7   8    -0.13   0.02   0.05    -0.03  -0.02   0.00     0.03  -0.03  -0.10
     8   6    -0.05   0.15  -0.15    -0.03   0.02  -0.00    -0.02  -0.04   0.06
     9   6    -0.08  -0.08   0.01    -0.05   0.06   0.14    -0.00   0.06   0.10
    10   6    -0.02   0.02  -0.14     0.04   0.03  -0.11     0.03  -0.02  -0.02
    11   1     0.10   0.03  -0.19     0.02  -0.02   0.25    -0.08   0.02  -0.23
    12   1     0.24  -0.09  -0.10    -0.13   0.20   0.10     0.17  -0.12  -0.10
    13   1     0.09  -0.12   0.21     0.04  -0.02  -0.30    -0.04   0.07   0.30
    14   1    -0.15  -0.12   0.10     0.24   0.17  -0.10    -0.25  -0.06   0.14
    15   1     0.05  -0.07   0.12    -0.06  -0.16   0.01    -0.15   0.13   0.06
    16   1     0.06  -0.03   0.14    -0.00  -0.04  -0.06    -0.10  -0.01  -0.24
    17   1     0.03  -0.01   0.12     0.01  -0.09  -0.02     0.12  -0.11  -0.12
    18   1     0.01   0.21  -0.24     0.05   0.09  -0.12     0.11   0.08  -0.14
    19   1     0.11   0.14  -0.16    -0.05  -0.12   0.01    -0.21  -0.33   0.09
    20   1    -0.21   0.23  -0.22    -0.08   0.12   0.11    -0.02   0.14   0.38
    21   1    -0.09  -0.08   0.01    -0.04  -0.02   0.38     0.06   0.04   0.19
    22   1    -0.20  -0.11   0.01    -0.20   0.28   0.15    -0.06   0.14   0.10
    23   1    -0.10   0.04  -0.25    -0.02  -0.01  -0.30     0.02  -0.01  -0.03
    24   1     0.10   0.09  -0.14     0.26   0.13  -0.12     0.12  -0.06  -0.01
                      7                      8                      9
                      A                      A                      A
 Frequencies --    243.0470               301.6761               351.4104
 Red. masses --      1.3827                 3.7616                 3.0275
 Frc consts  --      0.0481                 0.2017                 0.2203
 IR Inten    --      2.4302                 0.6285                 2.9796
  Atom  AN      X      Y      Z        X      Y      Z        X      Y      Z
     1   8     0.03  -0.01   0.00    -0.13   0.02   0.06    -0.02   0.07   0.02
     2   6     0.02  -0.01  -0.02    -0.15   0.01   0.01    -0.04   0.02  -0.01
     3   6     0.02  -0.00  -0.01    -0.09  -0.06  -0.06     0.01  -0.03   0.03
     4   6     0.00   0.00   0.03    -0.06  -0.04   0.00    -0.03  -0.17  -0.00
     5   6    -0.02   0.01  -0.00     0.04  -0.02   0.02     0.00  -0.13  -0.04
     6   6    -0.00  -0.03  -0.10     0.13  -0.10  -0.04     0.07   0.17  -0.02
     7   8    -0.03   0.08   0.06     0.17  -0.04   0.07     0.07   0.17  -0.09
     8   6    -0.03  -0.03   0.01     0.24   0.11  -0.02     0.01  -0.08   0.05
     9   6    -0.00   0.02   0.05    -0.09   0.05   0.02    -0.05  -0.07   0.07
    10   6     0.02  -0.01  -0.01    -0.09   0.06  -0.06    -0.03   0.02  -0.05
    11   1    -0.00  -0.00  -0.03    -0.03   0.01  -0.17     0.09  -0.03   0.11
    12   1     0.06  -0.01  -0.01    -0.05  -0.19  -0.07    -0.01   0.05   0.03
    13   1     0.01   0.00   0.06    -0.11   0.02   0.03     0.01  -0.16   0.12
    14   1    -0.02  -0.03   0.03    -0.12  -0.03   0.00    -0.06  -0.30   0.00
    15   1    -0.10   0.02  -0.01     0.02  -0.02   0.02    -0.04  -0.20  -0.04
    16   1     0.02   0.04  -0.29     0.07  -0.06  -0.23     0.22   0.16   0.18
    17   1     0.02  -0.24  -0.10     0.17  -0.28  -0.04     0.03   0.37  -0.02
    18   1    -0.28  -0.26   0.37     0.32   0.12   0.04    -0.14  -0.14   0.04
    19   1     0.09   0.41  -0.03     0.35   0.25  -0.04    -0.13  -0.19   0.07
    20   1     0.12  -0.36  -0.39     0.10   0.12  -0.18     0.24  -0.16   0.20
    21   1     0.01  -0.00   0.13    -0.15  -0.00   0.12    -0.14  -0.15   0.20
    22   1    -0.03   0.10   0.06    -0.16   0.13   0.02    -0.12   0.06   0.08
    23   1     0.00  -0.00  -0.02    -0.07  -0.03  -0.16    -0.09  -0.01  -0.19
    24   1     0.06  -0.03  -0.01    -0.02   0.14  -0.07     0.10   0.10  -0.06
                     10                     11                     12
                      A                      A                      A
 Frequencies --    415.4967               425.0206               449.3360
 Red. masses --      1.8440                 3.7150                 2.3652
 Frc consts  --      0.1876                 0.3954                 0.2814
 IR Inten    --      1.7167                 5.1976                 1.4207
  Atom  AN      X      Y      Z        X      Y      Z        X      Y      Z
     1   8    -0.09   0.01  -0.02    -0.04  -0.11   0.00    -0.07  -0.01   0.01
     2   6    -0.02  -0.00   0.13     0.01   0.15   0.02    -0.04  -0.00   0.07
     3   6     0.02  -0.08  -0.03    -0.10   0.19  -0.10     0.05  -0.10  -0.01
     4   6     0.05   0.05  -0.00    -0.14  -0.09  -0.05     0.04  -0.09   0.03
     5   6     0.03   0.00   0.11     0.00  -0.09  -0.02     0.09   0.02  -0.16
     6   6     0.04  -0.01  -0.01     0.00  -0.05  -0.01    -0.03  -0.01   0.03
     7   8    -0.03   0.04  -0.04    -0.02  -0.03   0.02    -0.06  -0.04   0.02
     8   6    -0.07  -0.03   0.01    -0.01   0.00  -0.01    -0.07  -0.00  -0.02
     9   6     0.02  -0.04  -0.01     0.12  -0.10   0.05     0.06   0.17  -0.01
    10   6     0.04   0.06  -0.03     0.19   0.18   0.09     0.05   0.06  -0.00
    11   1     0.05   0.06  -0.33     0.05   0.22  -0.00     0.12   0.02  -0.19
    12   1     0.04  -0.42  -0.06    -0.16   0.24  -0.09     0.10  -0.30  -0.03
    13   1     0.01   0.00  -0.22    -0.03  -0.10   0.18    -0.00   0.05   0.28
    14   1     0.13   0.27  -0.01    -0.32  -0.23  -0.05    -0.05  -0.37   0.04
    15   1     0.01   0.01   0.11    -0.02  -0.16  -0.02     0.15   0.05  -0.15
    16   1     0.04   0.02  -0.11     0.00  -0.04  -0.05     0.02  -0.05   0.18
    17   1     0.17  -0.08  -0.01    -0.01  -0.09  -0.01    -0.19   0.10   0.03
    18   1    -0.12  -0.06   0.03     0.01   0.01   0.00    -0.05   0.01  -0.03
    19   1    -0.13  -0.06   0.02     0.02   0.03  -0.01    -0.04  -0.00  -0.02
    20   1     0.02  -0.07   0.06    -0.04   0.01  -0.04    -0.10   0.01  -0.03
    21   1     0.02   0.03  -0.21    -0.02  -0.09  -0.12     0.02   0.06   0.26
    22   1     0.02  -0.26  -0.02     0.24  -0.22   0.05     0.07   0.48   0.00
    23   1     0.03  -0.07  -0.31     0.07   0.19  -0.10     0.14  -0.06  -0.06
    24   1     0.16   0.36  -0.05     0.31   0.30   0.08     0.07   0.15  -0.01
                     13                     14                     15
                      A                      A                      A
 Frequencies --    502.9992               554.8096               690.7333
 Red. masses --      3.3246                 2.7977                 3.2002
 Frc consts  --      0.4956                 0.5074                 0.8996
 IR Inten    --      5.2922                 0.8271                 1.0429
  Atom  AN      X      Y      Z        X      Y      Z        X      Y      Z
     1   8     0.05   0.27  -0.01    -0.03   0.04   0.06     0.13  -0.02  -0.12
     2   6     0.00  -0.09   0.03    -0.11   0.01  -0.13     0.22  -0.05   0.17
     3   6    -0.12  -0.08   0.05    -0.07   0.01  -0.01    -0.09  -0.05   0.01
     4   6    -0.12  -0.00  -0.03    -0.00  -0.02  -0.02    -0.13   0.00  -0.05
     5   6    -0.02   0.03  -0.03     0.17  -0.01   0.09     0.04  -0.01   0.02
     6   6    -0.05  -0.01  -0.02     0.17  -0.09   0.06     0.09  -0.04   0.04
     7   8    -0.01  -0.05   0.03    -0.07   0.03  -0.04    -0.00   0.02  -0.02
     8   6     0.01   0.01  -0.01    -0.12  -0.03  -0.00    -0.02  -0.01  -0.00
     9   6     0.13  -0.04   0.04     0.07   0.08  -0.04    -0.11   0.06  -0.06
    10   6     0.13  -0.10  -0.05    -0.00  -0.01  -0.02    -0.05   0.08   0.02
    11   1    -0.21  -0.21   0.25    -0.03  -0.09   0.27    -0.17  -0.12   0.08
    12   1    -0.24   0.10   0.07    -0.12   0.34   0.02    -0.37  -0.11  -0.00
    13   1    -0.18   0.05  -0.01    -0.08   0.05  -0.01    -0.14   0.09   0.14
    14   1    -0.11  -0.03  -0.03    -0.06   0.03  -0.02    -0.31  -0.09  -0.05
    15   1    -0.05   0.00  -0.03     0.34  -0.01   0.10     0.20  -0.02   0.03
    16   1    -0.11  -0.02  -0.04     0.19  -0.03  -0.10     0.08  -0.01  -0.07
    17   1    -0.08  -0.06  -0.01     0.38  -0.18   0.06     0.23  -0.11   0.04
    18   1     0.06   0.04  -0.01    -0.20  -0.07   0.02    -0.05  -0.02   0.01
    19   1     0.05   0.04  -0.01    -0.21  -0.07   0.01    -0.06  -0.02   0.00
    20   1    -0.06   0.04  -0.05    -0.00  -0.08   0.06     0.04  -0.03   0.03
    21   1     0.21  -0.01   0.04     0.04   0.06  -0.01    -0.15  -0.03   0.15
    22   1     0.14  -0.02   0.04     0.03   0.07  -0.04    -0.24   0.22  -0.05
    23   1     0.15  -0.30  -0.39     0.13  -0.01   0.22    -0.09   0.16   0.09
    24   1     0.37   0.18  -0.08    -0.12  -0.26   0.01    -0.29   0.23   0.01
                     16                     17                     18
                      A                      A                      A
 Frequencies --    755.7530               771.2915               831.9993
 Red. masses --      2.9914                 1.5649                 2.2322
 Frc consts  --      1.0067                 0.5485                 0.9104
 IR Inten    --      3.0767                 3.9456                 2.6187
  Atom  AN      X      Y      Z        X      Y      Z        X      Y      Z
     1   8    -0.08   0.02  -0.00    -0.01  -0.02  -0.00     0.04  -0.00  -0.00
     2   6     0.00   0.01   0.17    -0.01  -0.08   0.02    -0.00  -0.02  -0.09
     3   6     0.01   0.22  -0.05     0.07  -0.01  -0.09    -0.10  -0.01   0.04
     4   6     0.03   0.12   0.01     0.07   0.03  -0.05     0.02   0.15   0.09
     5   6     0.03  -0.02  -0.05     0.01   0.05   0.00     0.07  -0.04  -0.15
     6   6     0.06  -0.03   0.02     0.00  -0.00   0.00     0.09  -0.06  -0.01
     7   8    -0.01   0.00  -0.00    -0.00   0.00  -0.00    -0.01   0.00   0.02
     8   6    -0.02  -0.00  -0.00    -0.00   0.00  -0.00    -0.03   0.00  -0.01
     9   6     0.01  -0.12  -0.03    -0.05   0.04   0.04    -0.03  -0.08   0.05
    10   6    -0.03  -0.21  -0.08    -0.08  -0.02   0.08    -0.05   0.04   0.06
    11   1     0.00   0.28  -0.20     0.06  -0.18   0.29    -0.38  -0.04  -0.18
    12   1    -0.08  -0.00  -0.08    -0.13   0.38  -0.06     0.15  -0.12   0.03
    13   1     0.21   0.10   0.32     0.16   0.10   0.32    -0.13   0.26   0.04
    14   1    -0.20  -0.10   0.01    -0.24  -0.21  -0.04     0.17   0.05   0.09
    15   1     0.12  -0.00  -0.04     0.01  -0.04   0.00    -0.00  -0.01  -0.14
    16   1     0.12  -0.02   0.04    -0.01   0.00  -0.01     0.32  -0.08   0.28
    17   1     0.06  -0.01   0.02     0.02  -0.01   0.00    -0.14   0.18  -0.01
    18   1    -0.04  -0.01   0.00    -0.01  -0.00   0.00    -0.07  -0.01  -0.01
    19   1    -0.03  -0.01  -0.00    -0.01  -0.00  -0.00    -0.02  -0.02  -0.00
    20   1     0.01  -0.01   0.01     0.00  -0.00   0.00    -0.01  -0.02  -0.00
    21   1     0.20  -0.21   0.40    -0.07   0.14  -0.25    -0.24  -0.12  -0.04
    22   1    -0.17   0.27  -0.01     0.11  -0.23   0.03     0.18  -0.08   0.05
    23   1    -0.02  -0.23  -0.10    -0.11  -0.19  -0.30    -0.22   0.07  -0.18
    24   1    -0.14  -0.07  -0.09     0.21   0.30   0.04     0.24   0.12   0.05
                     19                     20                     21
                      A                      A                      A
 Frequencies --    924.2695               934.0922               961.3728
 Red. masses --      1.6164                 1.8305                 1.8503
 Frc consts  --      0.8136                 0.9410                 1.0076
 IR Inten    --      2.2689                12.5211                 1.5404
  Atom  AN      X      Y      Z        X      Y      Z        X      Y      Z
     1   8     0.00  -0.01   0.00    -0.00   0.03  -0.00     0.04  -0.01  -0.01
     2   6     0.01   0.06  -0.01    -0.00  -0.04   0.02     0.02   0.01  -0.02
     3   6     0.00  -0.03   0.09    -0.07   0.04   0.01    -0.01   0.11   0.07
     4   6     0.01   0.03  -0.10     0.06   0.03   0.00    -0.08  -0.08  -0.03
     5   6     0.05   0.06  -0.01    -0.07  -0.09   0.02    -0.04   0.02  -0.04
     6   6     0.01   0.04  -0.00     0.00  -0.08  -0.01     0.02  -0.03   0.09
     7   8     0.00  -0.03   0.02    -0.01   0.05  -0.02    -0.00   0.02  -0.03
     8   6    -0.03  -0.00  -0.01     0.04   0.01   0.01     0.02   0.00  -0.00
     9   6     0.02  -0.03   0.11    -0.07   0.13  -0.00    -0.03   0.10  -0.01
    10   6    -0.04  -0.00  -0.09     0.11  -0.02  -0.03    -0.06  -0.10   0.06
    11   1     0.11   0.11  -0.12    -0.19   0.05  -0.13     0.03   0.26  -0.25
    12   1    -0.13  -0.33   0.05    -0.12  -0.13  -0.01     0.28  -0.19   0.05
    13   1    -0.08   0.26   0.28     0.19  -0.02   0.18    -0.09  -0.14  -0.18
    14   1    -0.14  -0.35  -0.09    -0.03  -0.15   0.01     0.22  -0.10  -0.03
    15   1     0.04  -0.25  -0.01    -0.25  -0.27   0.01     0.19  -0.02  -0.03
    16   1    -0.10   0.04  -0.11     0.18  -0.09   0.21    -0.06   0.02  -0.14
    17   1     0.07  -0.06  -0.00    -0.11   0.13  -0.01     0.24  -0.19   0.08
    18   1     0.01   0.01  -0.00    -0.02  -0.02   0.00    -0.01  -0.02   0.02
    19   1    -0.02   0.02  -0.01     0.02  -0.02   0.01    -0.05  -0.02   0.00
    20   1    -0.07   0.02  -0.02     0.11  -0.03   0.03     0.10  -0.02   0.05
    21   1     0.11   0.11  -0.19    -0.08   0.24  -0.32     0.01   0.18  -0.18
    22   1     0.04  -0.33   0.09    -0.12  -0.24  -0.03     0.26  -0.01  -0.01
    23   1    -0.17   0.21   0.09     0.36  -0.13   0.20    -0.12  -0.21  -0.26
    24   1     0.01  -0.32  -0.05     0.02  -0.23  -0.01     0.34   0.04   0.04
                     22                     23                     24
                      A                      A                      A
 Frequencies --    985.8835              1011.0834              1024.0585
 Red. masses --      2.1149                 2.3652                 2.2193
 Frc consts  --      1.2111                 1.4246                 1.3713
 IR Inten    --     14.7869                 4.5476                 6.2589
  Atom  AN      X      Y      Z        X      Y      Z        X      Y      Z
     1   8     0.00  -0.01  -0.01     0.02   0.01  -0.01     0.02  -0.01  -0.02
     2   6     0.03   0.01   0.05     0.00  -0.06  -0.01     0.03   0.02   0.02
     3   6     0.05   0.03  -0.01    -0.14   0.07  -0.03    -0.10   0.01  -0.04
     4   6    -0.09  -0.05   0.01     0.13  -0.07   0.03     0.08  -0.07   0.04
     5   6    -0.03   0.01   0.01     0.02  -0.01   0.03    -0.01  -0.00   0.04
     6   6     0.16   0.02  -0.10     0.04   0.19  -0.03    -0.04  -0.08  -0.00
     7   8     0.03  -0.07   0.08     0.05  -0.09   0.07    -0.04   0.04  -0.03
     8   6    -0.11  -0.00  -0.02    -0.10  -0.02  -0.02     0.06   0.01   0.02
     9   6     0.02   0.08   0.03    -0.02   0.02  -0.01     0.17   0.04   0.05
    10   6    -0.05  -0.05  -0.03    -0.01   0.01   0.02    -0.16   0.02  -0.06
    11   1     0.25   0.08   0.06    -0.45  -0.01  -0.17    -0.22  -0.04  -0.03
    12   1     0.02   0.07  -0.01    -0.03  -0.05  -0.04    -0.25  -0.05  -0.05
    13   1    -0.14  -0.09  -0.20     0.33  -0.25   0.03     0.23  -0.22  -0.02
    14   1    -0.06   0.21   0.00     0.29  -0.20   0.03     0.07  -0.00   0.03
    15   1    -0.42   0.09  -0.01     0.06  -0.07   0.03    -0.12   0.04   0.04
    16   1     0.38  -0.05   0.31    -0.13   0.20  -0.27     0.03  -0.10   0.15
    17   1    -0.09   0.33  -0.09     0.20  -0.05  -0.03    -0.16   0.07  -0.00
    18   1    -0.07   0.02  -0.05     0.05   0.04  -0.02    -0.01  -0.02   0.01
    19   1     0.00   0.02  -0.02    -0.01   0.07  -0.02     0.03  -0.03   0.02
    20   1    -0.22   0.03  -0.10    -0.31   0.08  -0.11     0.14  -0.03   0.04
    21   1     0.15   0.19  -0.14    -0.08  -0.01  -0.01     0.48   0.16   0.01
    22   1     0.03  -0.11   0.02    -0.08  -0.00  -0.01     0.26   0.04   0.05
    23   1    -0.03  -0.06  -0.03     0.06  -0.07  -0.01    -0.37   0.20  -0.09
    24   1    -0.04  -0.02  -0.04    -0.07   0.12   0.01    -0.18   0.12  -0.06
                     25                     26                     27
                      A                      A                      A
 Frequencies --   1082.3325              1108.4654              1133.0543
 Red. masses --      1.3190                 2.5824                 1.9465
 Frc consts  --      0.9104                 1.8695                 1.4723
 IR Inten    --      2.0625                 2.4341                 6.5522
  Atom  AN      X      Y      Z        X      Y      Z        X      Y      Z
     1   8    -0.00   0.00  -0.00     0.01  -0.00  -0.02    -0.02   0.00  -0.00
     2   6     0.01   0.06   0.01     0.04  -0.01   0.06     0.02   0.04   0.04
     3   6    -0.05  -0.02  -0.01    -0.05   0.07  -0.05    -0.07  -0.02  -0.07
     4   6     0.06  -0.06   0.02    -0.02  -0.07   0.05     0.05  -0.08   0.01
     5   6     0.01   0.07  -0.00     0.26  -0.01   0.04    -0.01   0.16  -0.06
     6   6     0.01  -0.02  -0.00    -0.11   0.02  -0.12     0.03  -0.07   0.06
     7   8     0.01   0.00   0.00    -0.06   0.01  -0.01     0.04   0.02   0.00
     8   6    -0.01   0.01  -0.00     0.06  -0.02   0.04    -0.03   0.04  -0.04
     9   6    -0.08  -0.02  -0.00    -0.04   0.04   0.07    -0.07  -0.06   0.05
    10   6     0.04  -0.03   0.00    -0.03  -0.05  -0.03     0.08  -0.02  -0.00
    11   1     0.14   0.04   0.04     0.10   0.12  -0.01    -0.02  -0.05   0.06
    12   1    -0.48  -0.15  -0.04     0.12   0.12  -0.03     0.22   0.22  -0.03
    13   1     0.17  -0.16  -0.02    -0.33   0.11  -0.16    -0.24   0.12  -0.10
    14   1    -0.12   0.14   0.01     0.18   0.13   0.05     0.42  -0.26   0.01
    15   1     0.07   0.50   0.00     0.32  -0.05   0.05    -0.14   0.08  -0.06
    16   1     0.02  -0.03   0.06    -0.21  -0.06   0.05    -0.02  -0.09   0.06
    17   1    -0.04   0.05  -0.01    -0.38   0.15  -0.12    -0.01  -0.05   0.06
    18   1    -0.04  -0.00  -0.01     0.08   0.02  -0.03    -0.15  -0.04   0.02
    19   1    -0.01  -0.01  -0.00     0.14   0.03   0.02    -0.14  -0.06  -0.02
    20   1     0.02  -0.01   0.00    -0.06   0.02  -0.05     0.20  -0.06   0.09
    21   1    -0.22  -0.07  -0.02    -0.26   0.03  -0.15     0.28   0.08   0.00
    22   1     0.15   0.05   0.00    -0.14  -0.28   0.05    -0.39  -0.21   0.03
    23   1    -0.10   0.08  -0.02     0.10  -0.17   0.01    -0.01   0.10   0.06
    24   1     0.38  -0.32   0.03    -0.04  -0.04  -0.03    -0.18   0.10  -0.01
                     28                     29                     30
                      A                      A                      A
 Frequencies --   1149.9413              1171.2490              1187.2010
 Red. masses --      2.0826                 3.8332                 1.8707
 Frc consts  --      1.6226                 3.0982                 1.5535
 IR Inten    --     10.4641               151.8533                29.1115
  Atom  AN      X      Y      Z        X      Y      Z        X      Y      Z
     1   8     0.04  -0.01   0.00     0.03   0.00  -0.00     0.00  -0.02  -0.00
     2   6    -0.03   0.05  -0.11    -0.02  -0.06  -0.04     0.02   0.15  -0.01
     3   6    -0.04  -0.00   0.08     0.01   0.04   0.06    -0.04  -0.05  -0.03
     4   6     0.04  -0.02  -0.09    -0.03   0.01  -0.03     0.05   0.02   0.06
     5   6     0.01   0.05   0.12     0.07  -0.02   0.06     0.00  -0.09   0.01
     6   6     0.02  -0.02  -0.09    -0.16  -0.12  -0.01    -0.06   0.01   0.01
     7   8    -0.05  -0.00   0.00     0.29   0.05   0.03     0.07   0.04   0.03
     8   6     0.03  -0.00   0.05    -0.22   0.11  -0.09    -0.04  -0.06  -0.08
     9   6    -0.03  -0.03  -0.09     0.05   0.01  -0.00    -0.03   0.04  -0.06
    10   6     0.02  -0.04   0.12    -0.04   0.02   0.02    -0.00  -0.07   0.04
    11   1     0.12   0.16  -0.12     0.04   0.12  -0.10     0.08  -0.05   0.09
    12   1    -0.06  -0.23   0.06    -0.02  -0.15   0.03    -0.19   0.02  -0.02
    13   1    -0.02   0.13   0.14     0.14  -0.11   0.04    -0.26   0.26   0.01
    14   1    -0.09  -0.21  -0.08    -0.18   0.08  -0.03     0.01   0.08   0.06
    15   1    -0.04   0.04   0.11     0.13  -0.06   0.07     0.01  -0.25   0.02
    16   1     0.00  -0.13   0.21    -0.27  -0.18   0.10     0.10   0.10  -0.07
    17   1    -0.05   0.29  -0.09    -0.31   0.04  -0.03    -0.11  -0.09   0.01
    18   1    -0.05   0.01  -0.09    -0.46  -0.01  -0.10     0.41   0.02   0.23
    19   1     0.22  -0.02   0.03    -0.12  -0.13  -0.05    -0.38   0.19  -0.07
    20   1    -0.07  -0.01  -0.09     0.25  -0.13   0.06    -0.15   0.12   0.10
    21   1     0.29  -0.01   0.18    -0.15  -0.07   0.03     0.31   0.13   0.01
    22   1    -0.35   0.12  -0.08    -0.00   0.01   0.00    -0.02   0.07  -0.05
    23   1    -0.02  -0.15  -0.17     0.10  -0.14  -0.02    -0.06  -0.09  -0.11
    24   1    -0.02   0.37   0.08    -0.09   0.12   0.01     0.15   0.02   0.03
                     31                     32                     33
                      A                      A                      A
 Frequencies --   1194.2880              1231.6035              1246.1553
 Red. masses --      1.4756                 1.5148                 1.4730
 Frc consts  --      1.2400                 1.3538                 1.3477
 IR Inten    --     15.9095                33.1036                26.7303
  Atom  AN      X      Y      Z        X      Y      Z        X      Y      Z
     1   8    -0.02  -0.01   0.00     0.03  -0.01  -0.01    -0.03  -0.00   0.01
     2   6     0.03   0.09   0.03    -0.00   0.05  -0.04     0.02   0.04   0.04
     3   6    -0.01  -0.04  -0.04    -0.01  -0.01   0.01     0.02  -0.02  -0.01
     4   6     0.02   0.02   0.04     0.02   0.00   0.04    -0.01   0.01  -0.03
     5   6    -0.03  -0.06  -0.01     0.03  -0.03  -0.04    -0.01  -0.02   0.06
     6   6    -0.02   0.01   0.01     0.03   0.09   0.03     0.02   0.02  -0.09
     7   8     0.04  -0.02  -0.04    -0.05  -0.09   0.00    -0.03  -0.04   0.07
     8   6    -0.05   0.05   0.10     0.05   0.09  -0.02     0.04   0.06  -0.06
     9   6    -0.02   0.02  -0.03     0.02   0.01   0.01    -0.01   0.01  -0.05
    10   6     0.01  -0.03  -0.00    -0.03  -0.02   0.02    -0.00  -0.01  -0.00
    11   1    -0.05  -0.12   0.09     0.13   0.06   0.01    -0.30  -0.17   0.03
    12   1    -0.01   0.10  -0.02    -0.30  -0.10  -0.02     0.23   0.10   0.01
    13   1    -0.15   0.14  -0.01    -0.05   0.04  -0.01     0.02   0.00   0.02
    14   1     0.09   0.00   0.04    -0.08   0.16   0.04     0.06  -0.12  -0.02
    15   1     0.11  -0.19  -0.00    -0.25  -0.08  -0.05     0.16  -0.13   0.06
    16   1    -0.05   0.02  -0.05     0.03   0.14  -0.17    -0.29  -0.16   0.14
    17   1     0.16   0.00  -0.00    -0.20  -0.26   0.05     0.14   0.27  -0.09
    18   1    -0.38   0.04  -0.33    -0.37  -0.09  -0.01    -0.18  -0.08   0.12
    19   1     0.58  -0.15   0.07    -0.13  -0.20   0.01    -0.30  -0.10  -0.02
    20   1    -0.09  -0.10  -0.23     0.44  -0.11   0.13     0.37  -0.05   0.16
    21   1     0.16   0.08  -0.01    -0.04  -0.01  -0.01     0.00  -0.02   0.03
    22   1     0.10   0.06  -0.02    -0.11  -0.07   0.00     0.13   0.13  -0.04
    23   1    -0.08   0.03  -0.03     0.18  -0.25  -0.05    -0.11   0.09  -0.01
    24   1     0.16  -0.11   0.00    -0.11   0.14   0.00     0.26  -0.21   0.01
                     34                     35                     36
                      A                      A                      A
 Frequencies --   1274.7908              1278.6099              1295.7351
 Red. masses --      1.3023                 1.3728                 1.3344
 Frc consts  --      1.2469                 1.3223                 1.3200
 IR Inten    --      1.9294                 6.9377                 0.7038
  Atom  AN      X      Y      Z        X      Y      Z        X      Y      Z
     1   8    -0.02   0.02   0.01     0.02   0.02  -0.01     0.00   0.00   0.01
     2   6    -0.01  -0.10   0.01    -0.02  -0.12   0.01    -0.03  -0.02  -0.04
     3   6    -0.01   0.02   0.01    -0.08   0.02  -0.04     0.04   0.00   0.00
     4   6    -0.01   0.00  -0.01     0.05   0.01   0.04    -0.04   0.01   0.07
     5   6     0.04  -0.03   0.02    -0.04  -0.02   0.02     0.01  -0.01  -0.10
     6   6    -0.01   0.04  -0.00    -0.00   0.01  -0.01     0.01  -0.01  -0.02
     7   8     0.00  -0.03  -0.01    -0.00  -0.00   0.02    -0.01   0.01   0.03
     8   6     0.01   0.02  -0.00     0.00   0.01  -0.01     0.01  -0.00  -0.01
     9   6    -0.04   0.02  -0.03     0.02   0.00  -0.03    -0.04   0.01   0.04
    10   6     0.07  -0.01   0.03     0.01   0.02  -0.01     0.06  -0.02   0.02
    11   1     0.06   0.06  -0.02     0.63   0.30   0.02     0.07   0.02   0.01
    12   1     0.16   0.03   0.02    -0.09   0.04  -0.04    -0.33  -0.10  -0.02
    13   1     0.08  -0.07   0.01    -0.24   0.26   0.04     0.16  -0.21  -0.08
    14   1    -0.12   0.09  -0.01     0.19  -0.08   0.04    -0.06   0.24   0.07
    15   1     0.12  -0.01   0.02    -0.13  -0.16   0.02     0.32  -0.20  -0.09
    16   1     0.30   0.17  -0.11    -0.16  -0.06   0.04    -0.31  -0.15   0.06
    17   1    -0.37  -0.19   0.01     0.23   0.10  -0.01     0.36   0.21  -0.04
    18   1    -0.08  -0.02  -0.01    -0.03  -0.01   0.02     0.00  -0.01   0.03
    19   1    -0.02  -0.05  -0.00    -0.04  -0.02  -0.00    -0.03   0.01  -0.00
    20   1     0.08  -0.02   0.02     0.06  -0.01   0.03     0.01   0.00   0.01
    21   1     0.29   0.14  -0.02    -0.16  -0.08   0.02     0.25   0.15  -0.07
    22   1    -0.16   0.01  -0.04     0.20   0.15  -0.02    -0.17  -0.15   0.02
    23   1    -0.44   0.46  -0.00    -0.14   0.17   0.01    -0.13   0.14  -0.01
    24   1     0.15  -0.05   0.03     0.01  -0.02  -0.00    -0.20   0.19  -0.00
                     37                     38                     39
                      A                      A                      A
 Frequencies --   1323.3192              1345.0268              1364.9184
 Red. masses --      1.3140                 1.2822                 1.4274
 Frc consts  --      1.3557                 1.3666                 1.5668
 IR Inten    --      3.2615                 5.0735                 4.9999
  Atom  AN      X      Y      Z        X      Y      Z        X      Y      Z
     1   8     0.01  -0.00  -0.00     0.01  -0.00  -0.00    -0.02   0.01   0.01
     2   6    -0.00   0.01  -0.01    -0.01  -0.03  -0.00    -0.02  -0.05  -0.03
     3   6    -0.05  -0.02   0.01     0.05   0.01  -0.03     0.13   0.08  -0.00
     4   6     0.05   0.00  -0.03    -0.06   0.04   0.03    -0.00  -0.05  -0.01
     5   6    -0.07  -0.05   0.01    -0.06   0.02   0.02     0.01  -0.03   0.04
     6   6    -0.02   0.02  -0.04    -0.01  -0.01  -0.04    -0.00   0.01   0.00
     7   8     0.00  -0.03   0.02    -0.00  -0.02   0.00     0.01   0.00  -0.00
     8   6     0.01   0.02  -0.01     0.00   0.01  -0.00    -0.00   0.00  -0.00
     9   6    -0.06  -0.01   0.07     0.02  -0.02   0.00    -0.04   0.00   0.00
    10   6     0.03  -0.01  -0.04    -0.05   0.06   0.01     0.05  -0.01  -0.01
    11   1     0.10   0.06  -0.01     0.10   0.01   0.03    -0.42  -0.11  -0.10
    12   1     0.21   0.05   0.03    -0.35  -0.06  -0.05    -0.45  -0.13  -0.05
    13   1    -0.06   0.12   0.04     0.02  -0.07  -0.04    -0.42   0.31  -0.02
    14   1    -0.15   0.03  -0.03     0.46  -0.31   0.04     0.19  -0.09  -0.01
    15   1     0.49   0.38   0.04     0.46  -0.05   0.05    -0.15   0.20   0.04
    16   1     0.23   0.08   0.00     0.36   0.10   0.03    -0.04  -0.00   0.00
    17   1     0.03   0.05  -0.03    -0.12  -0.01  -0.03    -0.03  -0.03   0.01
    18   1    -0.04  -0.02   0.02    -0.01  -0.01   0.02    -0.01   0.00  -0.00
    19   1    -0.04  -0.04  -0.00    -0.01  -0.03  -0.00     0.00  -0.00  -0.00
    20   1     0.08  -0.01   0.03     0.04  -0.01   0.01     0.01  -0.00   0.00
    21   1     0.16   0.12  -0.06     0.13   0.01   0.04     0.00   0.02  -0.01
    22   1     0.40   0.01   0.08    -0.16  -0.03   0.00     0.26   0.08   0.01
    23   1     0.18  -0.09   0.06     0.18  -0.14   0.04    -0.11   0.14  -0.00
    24   1    -0.34   0.21  -0.05     0.18  -0.14   0.03    -0.18   0.12  -0.02
                     40                     41                     42
                      A                      A                      A
 Frequencies --   1369.0125              1399.9789              1418.5368
 Red. masses --      1.4594                 1.4594                 1.5040
 Frc consts  --      1.6115                 1.6853                 1.7831
 IR Inten    --     10.1688                 0.1535                 0.0127
  Atom  AN      X      Y      Z        X      Y      Z        X      Y      Z
     1   8     0.01   0.01  -0.01    -0.01  -0.00   0.00     0.01  -0.00  -0.00
     2   6    -0.00  -0.08   0.02     0.01   0.02   0.00    -0.01   0.00   0.00
     3   6     0.00   0.05   0.01    -0.00  -0.02  -0.00    -0.01  -0.04  -0.00
     4   6     0.06  -0.06  -0.01     0.00   0.04  -0.02    -0.08   0.09  -0.02
     5   6    -0.01  -0.04  -0.04    -0.04  -0.11  -0.02     0.10  -0.10   0.00
     6   6    -0.00   0.01   0.01    -0.03   0.01   0.00     0.01   0.02   0.02
     7   8     0.00   0.00   0.01     0.01  -0.00   0.01     0.00   0.01  -0.00
     8   6    -0.00   0.00  -0.00    -0.00   0.01  -0.01     0.00  -0.01   0.00
     9   6    -0.01  -0.04  -0.00     0.12   0.08   0.02    -0.08  -0.01   0.00
    10   6    -0.08   0.11   0.01    -0.00  -0.06   0.01    -0.00   0.02  -0.00
    11   1    -0.09   0.04  -0.05     0.01   0.00  -0.03     0.18   0.05  -0.02
    12   1     0.06  -0.01   0.00     0.01   0.06   0.00    -0.01   0.09   0.01
    13   1    -0.25   0.21  -0.00    -0.07   0.10   0.00     0.25  -0.17   0.04
    14   1    -0.28   0.25  -0.01     0.07  -0.19  -0.02     0.32  -0.29  -0.00
    15   1    -0.02   0.22  -0.05     0.06   0.59  -0.01    -0.36   0.40  -0.02
    16   1    -0.15  -0.04  -0.01    -0.01   0.01   0.01    -0.31  -0.09  -0.00
    17   1     0.17   0.04   0.00     0.21   0.03  -0.01    -0.03  -0.08   0.02
    18   1    -0.00  -0.00   0.00    -0.00  -0.00   0.02    -0.03  -0.00  -0.03
    19   1     0.01  -0.00   0.00     0.01  -0.01  -0.00    -0.03   0.03   0.00
    20   1     0.01  -0.00   0.01     0.03  -0.01   0.02    -0.04   0.02  -0.01
    21   1     0.46   0.12   0.03    -0.27  -0.04  -0.04     0.38   0.14   0.04
    22   1    -0.27  -0.04  -0.01    -0.54  -0.26  -0.01     0.20  -0.01   0.01
    23   1     0.24  -0.16   0.08    -0.20   0.13  -0.01     0.10  -0.05   0.03
    24   1     0.36  -0.26   0.05     0.06   0.07   0.00     0.01  -0.02   0.00
                     43                     44                     45
                      A                      A                      A
 Frequencies --   1442.5297              1491.3841              1501.0775
 Red. masses --      1.4180                 1.0943                 1.0866
 Frc consts  --      1.7385                 1.4341                 1.4425
 IR Inten    --     36.6779                 5.3171                 8.8159
  Atom  AN      X      Y      Z        X      Y      Z        X      Y      Z
     1   8     0.00  -0.00  -0.00    -0.00  -0.00   0.00    -0.01   0.00   0.00
     2   6    -0.00   0.00   0.00    -0.00  -0.00  -0.00    -0.00   0.00  -0.01
     3   6     0.00   0.00   0.01    -0.01   0.05  -0.03    -0.01   0.05  -0.03
     4   6    -0.02  -0.00  -0.01    -0.01   0.01  -0.01    -0.01   0.00  -0.00
     5   6     0.09   0.03  -0.00    -0.00  -0.02  -0.00     0.01  -0.00  -0.00
     6   6    -0.15  -0.01  -0.01    -0.00   0.00  -0.00     0.00   0.00   0.00
     7   8    -0.01  -0.03   0.02     0.00   0.00   0.00    -0.00  -0.00  -0.00
     8   6    -0.01   0.02  -0.02     0.00   0.00   0.00    -0.02  -0.00  -0.00
     9   6    -0.02  -0.01  -0.01     0.01   0.00   0.01    -0.01   0.00  -0.01
    10   6     0.00   0.00   0.00     0.03   0.04   0.03    -0.03  -0.04  -0.03
    11   1    -0.04  -0.01  -0.01     0.05  -0.17   0.48     0.04  -0.16   0.46
    12   1     0.02   0.00   0.00     0.17  -0.45  -0.07     0.14  -0.46  -0.06
    13   1     0.06  -0.07   0.00     0.01   0.02   0.05     0.02   0.01   0.05
    14   1     0.01   0.00  -0.01     0.06   0.01  -0.00     0.06   0.02  -0.00
    15   1    -0.31  -0.02  -0.02     0.00   0.07  -0.00    -0.03   0.01  -0.01
    16   1     0.53   0.20   0.03    -0.02  -0.01   0.02    -0.02   0.01  -0.03
    17   1     0.63   0.13  -0.03     0.01  -0.02   0.00    -0.01   0.02   0.00
    18   1     0.12   0.02   0.12    -0.02  -0.01  -0.01     0.07   0.03   0.01
    19   1     0.16  -0.08  -0.01    -0.02  -0.00   0.00     0.08   0.02  -0.01
    20   1     0.20  -0.06   0.10    -0.02   0.01  -0.01     0.08  -0.04   0.05
    21   1     0.04   0.01   0.01     0.01   0.03  -0.05     0.01  -0.02   0.07
    22   1     0.05   0.02  -0.01    -0.05   0.03   0.01     0.05  -0.06  -0.01
    23   1    -0.01  -0.01  -0.04    -0.10  -0.12  -0.47     0.10   0.12   0.47
    24   1    -0.01  -0.04   0.01    -0.32  -0.35   0.06     0.30   0.38  -0.05
                     46                     47                     48
                      A                      A                      A
 Frequencies --   1503.8039              1514.8066              1520.1699
 Red. masses --      1.1662                 1.0480                 1.0889
 Frc consts  --      1.5539                 1.4169                 1.4827
 IR Inten    --      3.2827                 4.9653                 3.3434
  Atom  AN      X      Y      Z        X      Y      Z        X      Y      Z
     1   8     0.00  -0.00  -0.00    -0.00   0.00   0.00     0.00   0.00  -0.00
     2   6    -0.00  -0.00   0.00     0.00  -0.00   0.00    -0.00  -0.01   0.00
     3   6     0.00  -0.01   0.00     0.00  -0.00   0.00     0.00   0.01  -0.00
     4   6     0.00   0.00   0.00     0.00  -0.00   0.00     0.03   0.03   0.03
     5   6    -0.01  -0.01   0.00    -0.00   0.00   0.00    -0.00   0.01  -0.00
     6   6     0.05   0.00   0.01    -0.00  -0.00  -0.00     0.00  -0.01   0.01
     7   8    -0.03  -0.01  -0.00     0.00  -0.01  -0.01     0.00  -0.00   0.00
     8   6    -0.10  -0.01  -0.02     0.01  -0.03  -0.05     0.01   0.00  -0.00
     9   6    -0.00   0.00  -0.00     0.00  -0.00  -0.00    -0.02   0.05  -0.04
    10   6     0.01   0.01   0.01     0.00   0.00   0.00     0.00   0.01   0.00
    11   1     0.01   0.02  -0.05    -0.00   0.00  -0.00    -0.00  -0.00   0.03
    12   1    -0.02   0.06   0.01    -0.00   0.00   0.00    -0.00  -0.04  -0.01
    13   1     0.00   0.00  -0.00    -0.00  -0.00  -0.01    -0.09  -0.07  -0.43
    14   1     0.00  -0.01   0.00    -0.01  -0.01   0.00    -0.29  -0.32   0.02
    15   1     0.04   0.01   0.00     0.01  -0.01   0.00    -0.00  -0.03  -0.00
    16   1    -0.13   0.02  -0.19     0.01  -0.00  -0.00     0.01   0.02  -0.07
    17   1    -0.18   0.16  -0.00    -0.00   0.00  -0.00    -0.01   0.07   0.00
    18   1     0.43   0.20   0.01    -0.39  -0.25   0.17    -0.02  -0.02   0.02
    19   1     0.46   0.16  -0.06     0.35   0.32  -0.07    -0.02  -0.04   0.00
    20   1     0.48  -0.23   0.30    -0.15   0.43   0.57    -0.03   0.01  -0.03
    21   1     0.01   0.00   0.01    -0.00  -0.00   0.00     0.05  -0.14   0.51
    22   1     0.00  -0.01  -0.00     0.00   0.00  -0.00     0.19  -0.50  -0.04
    23   1    -0.02  -0.03  -0.10    -0.00  -0.00  -0.00    -0.01  -0.00  -0.06
    24   1    -0.07  -0.08   0.01    -0.00  -0.00   0.00    -0.03  -0.06   0.01
                     49                     50                     51
                      A                      A                      A
 Frequencies --   1531.2491              1535.5322              1555.4647
 Red. masses --      1.0702                 1.0807                 1.0889
 Frc consts  --      1.4784                 1.5014                 1.5522
 IR Inten    --      8.5452                 5.8476                 0.5800
  Atom  AN      X      Y      Z        X      Y      Z        X      Y      Z
     1   8     0.00  -0.00  -0.00     0.00  -0.00  -0.00    -0.00  -0.00   0.00
     2   6    -0.00   0.00   0.00    -0.00   0.00   0.00     0.00   0.00  -0.00
     3   6    -0.00  -0.01   0.00    -0.00  -0.01   0.00     0.00   0.00  -0.00
     4   6    -0.02  -0.02  -0.02    -0.02  -0.04  -0.03    -0.00   0.01   0.00
     5   6    -0.01  -0.00  -0.00    -0.01   0.01  -0.00     0.01  -0.00   0.00
     6   6     0.02  -0.03   0.03    -0.01   0.01  -0.01    -0.01  -0.05   0.04
     7   8    -0.00   0.01  -0.00     0.00  -0.01   0.00     0.00  -0.01   0.01
     8   6     0.00   0.03  -0.02     0.01  -0.02   0.02     0.04  -0.02   0.02
     9   6    -0.00   0.02  -0.01    -0.01   0.04  -0.03     0.00  -0.01   0.01
    10   6     0.00   0.00   0.00     0.00   0.01   0.00    -0.00  -0.00  -0.00
    11   1    -0.00   0.00  -0.03    -0.01   0.01  -0.05     0.00  -0.00   0.01
    12   1    -0.00   0.03   0.00     0.00   0.05   0.01    -0.00  -0.01  -0.00
    13   1     0.06   0.06   0.30     0.07   0.09   0.43    -0.01  -0.00  -0.03
    14   1     0.20   0.23  -0.02     0.26   0.35  -0.02     0.00  -0.04   0.00
    15   1    -0.00   0.02  -0.00     0.03  -0.01  -0.00    -0.05   0.02  -0.00
    16   1    -0.04   0.07  -0.31     0.05  -0.02   0.12     0.06   0.18  -0.55
    17   1    -0.11   0.30   0.01     0.07  -0.11  -0.01    -0.05   0.58   0.01
    18   1     0.03  -0.13   0.47    -0.06   0.07  -0.32    -0.17   0.02  -0.34
    19   1     0.14  -0.47   0.02    -0.13   0.31  -0.01    -0.26   0.27   0.01
    20   1    -0.18   0.10  -0.11     0.09  -0.05   0.06    -0.01   0.00  -0.01
    21   1     0.01  -0.05   0.17     0.02  -0.11   0.38    -0.00   0.03  -0.09
    22   1     0.05  -0.17  -0.02     0.11  -0.38  -0.04    -0.03   0.09   0.01
    23   1    -0.01  -0.00  -0.03    -0.01  -0.00  -0.04     0.00  -0.00   0.01
    24   1    -0.01  -0.02   0.00    -0.02  -0.04   0.00     0.00   0.01  -0.00
                     52                     53                     54
                      A                      A                      A
 Frequencies --   1819.2410              2956.7850              2984.4339
 Red. masses --     11.0147                 1.0544                 1.1004
 Frc consts  --     21.4785                 5.4311                 5.7747
 IR Inten    --    195.9906                34.7175                47.0826
  Atom  AN      X      Y      Z        X      Y      Z        X      Y      Z
     1   8    -0.44   0.08   0.20    -0.00  -0.00   0.00    -0.00   0.00   0.00
     2   6     0.68  -0.12  -0.31     0.00   0.00  -0.00    -0.00  -0.00  -0.00
     3   6    -0.05  -0.00   0.02    -0.00   0.00  -0.00    -0.00   0.00  -0.00
     4   6    -0.01  -0.00   0.00     0.00  -0.00   0.00     0.00   0.00   0.00
     5   6     0.00  -0.00   0.00     0.00   0.00   0.00    -0.00  -0.00   0.02
     6   6    -0.00  -0.00  -0.00    -0.02   0.04  -0.05     0.02  -0.06  -0.07
     7   8     0.00   0.00   0.00     0.00   0.00  -0.00    -0.00  -0.00  -0.00
     8   6    -0.00   0.00  -0.00     0.00  -0.01   0.01    -0.01   0.01  -0.01
     9   6    -0.01   0.01   0.00     0.00  -0.00   0.00    -0.00   0.00   0.00
    10   6    -0.04   0.02   0.02    -0.00  -0.00   0.00    -0.00  -0.00  -0.00
    11   1     0.22   0.13  -0.08    -0.00  -0.00  -0.00     0.00  -0.00  -0.00
    12   1    -0.10  -0.05  -0.00     0.00  -0.00   0.01    -0.00  -0.00   0.01
    13   1     0.01  -0.02   0.03    -0.00  -0.00   0.00    -0.01  -0.00   0.00
    14   1     0.05   0.00   0.00    -0.00   0.00  -0.03    -0.00   0.00  -0.00
    15   1    -0.00   0.00   0.00     0.00  -0.00  -0.04     0.01   0.00  -0.25
    16   1     0.00   0.00   0.00     0.17  -0.51  -0.19    -0.23   0.67   0.22
    17   1     0.00   0.00  -0.00     0.01   0.03   0.79     0.02   0.00   0.57
    18   1     0.00   0.00   0.00    -0.05   0.13   0.05     0.04  -0.12  -0.04
    19   1     0.00  -0.00  -0.00     0.00  -0.01  -0.14     0.01   0.01   0.17
    20   1     0.00  -0.00   0.00    -0.02  -0.04   0.02     0.03   0.04  -0.02
    21   1     0.02   0.02   0.03    -0.01   0.02   0.01     0.01  -0.03  -0.01
    22   1     0.05  -0.02   0.00    -0.00  -0.00  -0.04    -0.00  -0.00   0.00
    23   1     0.16  -0.20  -0.08    -0.00  -0.00  -0.00     0.00   0.00  -0.00
    24   1    -0.08   0.08  -0.00     0.00   0.00   0.00    -0.00   0.00   0.02
                     55                     56                     57
                      A                      A                      A
 Frequencies --   2989.4427              3013.7959              3017.0100
 Red. masses --      1.0403                 1.0819                 1.0704
 Frc consts  --      5.4777                 5.7899                 5.7406
 IR Inten    --     85.9370                10.5852                 5.2285
  Atom  AN      X      Y      Z        X      Y      Z        X      Y      Z
     1   8    -0.00  -0.00   0.00     0.00   0.00  -0.00     0.00   0.00   0.00
     2   6     0.00   0.00  -0.00    -0.00  -0.00   0.00    -0.00  -0.00  -0.00
     3   6    -0.00   0.00  -0.00     0.00   0.00  -0.01    -0.00   0.02  -0.05
     4   6    -0.00  -0.00   0.00     0.00   0.00   0.03     0.00   0.00   0.02
     5   6     0.00  -0.00  -0.00     0.00   0.00  -0.07    -0.00  -0.00   0.01
     6   6    -0.01   0.02   0.00     0.00  -0.01  -0.02    -0.00   0.00   0.00
     7   8    -0.00   0.00  -0.00    -0.00  -0.00   0.00     0.00  -0.00   0.00
     8   6    -0.03   0.03  -0.03     0.00  -0.00  -0.00     0.00  -0.00  -0.00
[...]
 339388,0.01936250,0.00393288,-0.12872139,0.11076757,0.01329752,0.00923
 861,-0.02694528,-0.00344965,0.00482640,-0.00301944,0.00191257,0.000295
 05,0.00175225,0.00039541,0.00023871,-0.00060715,0.00001841,-0.00045593
 ,-0.00005845,-0.00045090,0.00002142,-0.00002777,-0.00010647,0.00007905
 ,0.00004635,-0.00005541,0.00029438,-0.00039716,-0.00003560,0.00119825,
 -0.00051377,-0.00013734,0.13544766,0.00002919,0.00016769,0.00000337,-0
 .00019672,-0.00036680,-0.00005878,-0.00008047,0.00015190,-0.00010831,-
 0.00069106,0.00072556,0.00023036,0.00157437,-0.00014029,-0.00035124,0.
 10901756,-0.20399445,-0.01897744,-0.00267935,-0.04081642,0.00064495,0.
 00558254,0.00068759,0.00423884,-0.00056679,0.00038064,-0.00034381,0.00
 002454,0.00043222,0.00021707,0.00002468,0.00000234,0.00002955,0.000000
 81,-0.00000154,0.00002614,-0.00017674,0.00018176,-0.00017723,-0.000048
 58,0.00007817,-0.00002146,-0.00010717,0.00009788,0.00025541,-0.1129780
 8,0.24061134,-0.00008985,-0.00021037,0.00001157,0.00017066,0.00050574,
 0.00003123,-0.00080883,0.00109002,0.00061340,-0.00231431,-0.00147867,-
 0.00319526,-0.01508184,0.01947204,0.00210572,0.01456727,-0.01975923,-0
 .05807576,-0.00417570,0.00841827,0.00392883,0.00073839,-0.00131372,0.0
 0007630,0.00053951,0.00083388,0.00053881,0.00026205,0.00000685,-0.0000
 8304,-0.00036420,-0.00002946,-0.00036392,0.00013883,-0.00000774,0.0000
 5570,0.00025595,-0.00008338,0.00002555,-0.00039915,0.00011444,0.000340
 30,0.00084462,0.00025948,0.00105355,-0.01275458,0.01767839,0.05547575,
 -0.00001854,0.00003469,-0.00003263,0.00009789,-0.00008556,0.00005537,0
 .00006250,-0.00007183,-0.00012332,0.00164785,-0.00077527,-0.00048457,0
 .00926955,-0.00114128,-0.02240125,-0.08591811,0.00985227,0.07879606,-0
 .01670960,-0.01390282,0.01858567,0.00322155,0.00079972,0.00582326,0.00
 129094,0.00084457,-0.00015068,0.00005713,0.00006547,-0.00011375,-0.000
 01969,0.00001121,0.00009594,-0.00007456,0.00000409,0.00014656,-0.00013
 571,0.00022260,-0.00004671,-0.00007355,-0.00006065,0.00048247,-0.00318
 715,0.00006492,-0.00385209,-0.00580700,0.00407574,0.01808689,0.0966797
 3,-0.00008908,-0.00002511,0.00000509,0.00010200,0.00006616,-0.00000824
 ,0.00000919,-0.00003650,-0.00002773,-0.00063236,0.00008627,0.00113818,
 0.00081125,0.00070261,0.00098919,0.01039856,-0.05484942,-0.01970742,-0
 .02476800,-0.00858540,0.03005791,0.00318119,0.00093514,0.00477056,0.00
 048774,0.00022208,-0.00043661,-0.00000033,-0.00002351,-0.00000990,-0.0
 0002135,-0.00000404,-0.00001376,0.00003306,-0.00004409,-0.00004390,-0.
 00012343,0.00007565,-0.00001446,0.00011189,0.00016277,-0.00009130,-0.0
 0071991,0.00057927,0.00019679,0.01114140,-0.00015857,-0.02506688,0.000
 04852,0.06064258,-0.00014143,0.00002833,0.00003060,0.00022099,-0.00006
 626,-0.00004710,-0.00032157,0.00001326,0.00039983,0.00174790,-0.000900
 70,0.00054422,0.00874249,-0.00211301,-0.02244881,0.07958002,-0.0170774
 3,-0.24799929,0.00736745,0.00955543,-0.00253159,-0.00301978,-0.0003378
 2,0.00154319,0.00123148,0.00083407,-0.00033895,-0.00047841,-0.00012381
 ,0.00039139,-0.00009650,0.00001698,-0.00001022,0.00020248,-0.00003894,
 0.00029540,-0.00000796,0.00001652,0.00001408,-0.00113277,0.00074936,0.
 00062699,-0.00367488,0.00021260,-0.00233757,0.00117983,-0.00138143,-0.
 00282855,-0.09282023,0.01073285,0.27247692,-0.00013519,-0.00006345,0.0
 0001992,0.00010511,0.00014720,-0.00006295,-0.00002352,-0.00020853,0.00
 005324,0.00014989,0.00017214,0.00001987,0.00007285,-0.00050879,0.00003
 574,0.00321488,0.00721726,-0.00012474,-0.02859145,0.01653706,-0.013307
 40,-0.12799308,0.10832463,0.01300036,-0.00010417,0.00008877,-0.0001487
 5,-0.00001039,-0.00008872,0.00004750,-0.00001348,0.00000580,-0.0000016
 3,0.00000976,-0.00000585,-0.00001539,0.00012172,-0.00032236,0.00011791
 ,-0.00001364,-0.00001711,0.00000638,0.00004011,0.00004892,0.00005101,0
 .00040771,-0.00197334,0.00010199,-0.00049385,-0.00044269,0.00036352,0.
 14649473,0.00010388,0.00002830,-0.00000775,-0.00010141,-0.00006378,0.0
 0003148,-0.00002565,0.00007096,-0.00000890,-0.00021091,-0.00012505,-0.
 00007958,-0.00000307,0.00044113,-0.00013179,-0.00278642,0.00267584,0.0
 0025128,0.00154320,0.00717462,0.00595809,0.11058779,-0.21791684,-0.015
 58698,0.00007729,-0.00009822,0.00009390,0.00002582,0.00004320,-0.00004
 313,0.00000609,-0.00000549,0.00000011,0.00000076,0.00000332,0.00001402
 ,-0.00002973,0.00005187,-0.00006645,-0.00001036,0.00001184,0.00001550,
 -0.00000855,-0.00002430,0.00001128,0.00208501,0.00089619,0.00016897,0.
 00022021,-0.00019262,-0.00030185,-0.12750487,0.22886279,-0.00011506,-0
 .00001859,0.00002143,0.00009346,0.00004563,-0.00005433,-0.00005681,-0.
 00008653,0.00007118,0.00004088,0.00007406,-0.00018107,0.00006561,0.000
 03255,0.00011832,0.00235467,0.00400280,-0.00006167,-0.02694698,0.02024
 038,-0.00345531,0.01347512,-0.01790662,-0.05478869,0.00000558,0.000042
 48,-0.00009725,-0.00001471,-0.00002677,0.00003460,-0.00002952,0.000007
 35,-0.00001863,0.00001465,-0.00000304,0.00000096,0.00010132,-0.0002200
 6,0.00006550,-0.00004654,-0.00002942,0.00003744,0.00000097,0.00004360,
 -0.00000996,0.00067020,-0.00116029,0.00020553,-0.00023004,-0.00073601,
 -0.00009393,-0.00245485,0.01345009,0.05731880,-0.00003019,-0.00000067,
 0.00000150,0.00003183,0.00000227,-0.00001015,-0.00000808,-0.00000417,0
 .00001642,0.00004822,-0.00002211,0.00002260,-0.00003643,0.00000131,-0.
 00024011,0.00468592,0.00338764,-0.00387491,0.00477114,-0.00614727,-0.0
 3525137,-0.09391708,0.00826771,0.09275019,-0.00007160,0.00007891,0.000
 08541,-0.00000766,-0.00000498,0.00002655,-0.00000961,0.00000166,-0.000
 00385,0.00000637,-0.00000415,0.00000163,0.00006805,-0.00005428,-0.0000
 0911,-0.00003141,0.00000225,0.00000635,-0.00011305,-0.00003382,0.00016
 122,-0.00064969,-0.00035064,0.00036408,0.00030358,0.00065788,0.0019802
 9,-0.00579092,0.00082102,0.01759946,0.09608235,0.00002014,-0.00001465,
 0.00000097,-0.00002869,0.00003288,-0.00000417,0.00000288,-0.00003454,-
 0.00000539,0.00001391,0.00003833,0.00001382,-0.00021005,-0.00001715,0.
 00003009,0.00187132,0.00084921,-0.00250023,-0.00266443,0.00251018,-0.0
 0117804,0.00888636,-0.05746790,-0.01987179,0.00000252,-0.00003170,-0.0
 0002209,-0.00000293,-0.00000007,0.00001060,0.00001299,-0.00000208,0.00
 000617,-0.00000170,0.00000135,-0.00000436,-0.00000481,-0.00002140,0.00
 003497,0.00000125,0.00002393,-0.00000449,0.00000241,-0.00006234,0.0001
 0819,0.00016731,-0.00009466,-0.00003226,0.00008809,0.00033541,0.000596
 59,0.01211391,-0.00196558,-0.02528227,-0.00984273,0.05140716,-0.000180
 86,0.00000767,0.00002843,0.00018567,-0.00001520,-0.00004716,-0.0000594
 2,-0.00001113,0.00006987,0.00016352,-0.00002199,-0.00014928,-0.0003535
 8,-0.00023731,0.00068145,0.00423938,0.00500157,0.00017497,-0.01104839,
 -0.00414164,-0.03238028,0.08951628,-0.02035092,-0.24941604,-0.00017343
 ,0.00015172,-0.00012464,-0.00004610,-0.00004790,0.00005785,-0.00004837
 ,0.00001340,-0.00003078,0.00002501,-0.00000747,0.00002344,0.00014795,-
 0.00015483,-0.00002161,-0.00011300,-0.00003956,0.00006974,0.00027763,0
 .00010177,0.00037604,-0.00012911,-0.00078857,-0.00001042,-0.00171162,-
 0.00154652,0.00091810,0.00344931,-0.00037666,-0.00049330,-0.08834310,0
 .02304506,0.28537766,-0.00012912,0.00005843,0.00001314,0.00016109,-0.0
 0013267,-0.00001848,-0.00000906,0.00007988,0.00003328,0.00008746,-0.00
 019051,0.00001404,-0.00031730,-0.00158716,0.00062350,-0.00203662,0.002
 22720,-0.00408789,-0.02307612,-0.02487690,0.00007784,-0.11998111,-0.10
 827838,0.03482034,-0.00033661,0.00028016,-0.00050839,-0.00010989,-0.00
 015702,0.00009454,-0.00004807,0.00001374,-0.00002449,0.00000330,-0.000
 01725,-0.00000577,0.00000726,0.00003789,-0.00000256,-0.00000402,0.0000
 1183,0.00000779,0.00001220,0.00001019,-0.00008632,0.00011199,-0.000599
 07,-0.00010588,0.00011596,0.00016381,0.00007682,0.01258815,0.01519469,
 -0.00450340,-0.00530105,-0.01040703,0.00427749,0.13829579,-0.00010163,
 0.00000629,0.00000896,0.00011213,-0.00001298,-0.00002306,-0.00004185,0
 .00004452,0.00004503,-0.00006212,-0.00006817,-0.00014205,-0.00000456,0
 .00003964,0.00047658,0.00046839,0.00192357,-0.00105238,-0.00299177,0.0
 0053861,-0.00315275,-0.11533984,-0.23355091,0.05420060,-0.00003131,0.0
 0008602,-0.00009856,-0.00002402,-0.00002925,0.00004032,-0.00003839,0.0
 0000566,-0.00002437,0.00000720,-0.00000961,-0.00000659,0.00002721,-0.0
 0002979,0.00002186,-0.00000418,0.00000049,0.00000659,-0.00000094,0.000
 00826,-0.00004575,0.00013442,0.00044843,0.00013774,-0.00004722,-0.0000
 5460,0.00016998,-0.01345354,-0.01986388,0.00754557,0.00328277,0.004522
 84,-0.00057137,0.12812690,0.24599095,-0.00004493,0.00003086,0.00000799
 ,0.00006346,-0.00007500,-0.00000715,-0.00001547,0.00004448,0.00001203,
 0.00007309,-0.00010540,-0.00000942,-0.00085536,-0.00110544,0.00080492,
 -0.00262566,0.00059892,-0.00289972,-0.02016285,-0.02450499,0.00323999,
 0.04131154,0.06106809,-0.06920989,-0.00027598,0.00016861,-0.00040328,-
 0.00008202,-0.00012026,0.00005763,-0.00001139,0.00000694,-0.00001081,0
 .00000014,-0.00000551,-0.00000528,-0.00000659,0.00005118,0.00001353,-0
 .00000809,0.00001068,0.00000095,0.00014613,0.00000642,0.00003713,0.000
 08876,-0.00003190,-0.00005748,-0.00055793,-0.00016118,0.00047268,-0.00
 110274,-0.00342005,0.00138989,0.01472139,0.02503398,-0.00506683,-0.030
 63482,-0.05752526,0.07167950,-0.00195079,0.00187532,0.00079611,-0.0007
 9927,-0.00494982,-0.00395428,-0.00009467,0.00012122,0.00062356,-0.0023
 2445,-0.00245948,-0.00001372,0.01192387,-0.01621917,-0.00279565,0.0009
 5597,-0.00095998,0.00004968,0.00024800,0.00018725,0.00016841,-0.000051
 19,0.00006526,-0.00006221,-0.13042183,0.11914422,0.01786657,-0.0147893
 9,0.02096453,-0.00026693,0.00006314,0.00011914,0.00010347,-0.00001342,
 -0.00005094,0.00000696,0.00067394,-0.00107460,-0.00003649,-0.00000401,
 -0.00008690,-0.00018059,0.00077434,0.00078172,-0.00005493,-0.00009037,
 0.00010955,0.00004755,-0.00010643,0.00004842,-0.00009560,-0.00000126,-
 0.00001241,-0.00000523,0.00000609,-0.00000008,0.00001533,0.00002417,0.
 00000453,0.00001975,0.14220089,0.00010949,0.00009015,0.00013880,-0.000
 69782,0.00065501,-0.00030023,-0.00032805,0.00073290,-0.00023893,-0.005
 69554,-0.00359557,0.00085740,0.01602094,-0.02260493,-0.00390582,0.0019
 3780,-0.00078607,0.00043636,-0.00016003,0.00095567,0.00012631,-0.00004
 895,0.00000275,-0.00008299,0.11818367,-0.22115742,-0.02204600,-0.00069
 835,0.00199500,0.00006422,0.00012494,0.00004704,0.00006462,0.00000453,
 -0.00001614,0.00004955,0.00128372,-0.00164290,-0.00005393,-0.00006327,
 0.00033541,-0.00010026,0.00009063,0.00106335,0.00048639,-0.00114909,0.
 00070378,-0.00047268,-0.00016799,0.00009409,0.00004184,-0.00007289,-0.
 00000115,-0.00001406,0.00000167,0.00000213,0.00002360,0.00001658,0.000
 00464,0.00001138,-0.12806207,0.24105003,-0.00232572,0.00182742,0.00087
 695,-0.00174281,-0.00363865,-0.00369502,0.00022298,-0.00011553,0.00031
 702,0.00030877,0.00023635,0.00021202,-0.00158832,0.00365417,-0.0006885
 1,0.00048177,-0.00096803,0.00000776,-0.00014334,0.00023436,-0.00011375
 ,0.00001667,-0.00006130,-0.00003692,0.01776074,-0.02295270,-0.05309322
 ,-0.01551605,0.02197345,-0.00016706,0.00003096,0.00009344,0.00005255,-
 0.00001559,-0.00000931,0.00001629,-0.00002417,0.00008855,0.00056211,-0
 .00025095,0.00036910,0.00035557,-0.00055236,0.00002681,0.00025125,-0.0
 0034757,-0.00003457,0.00015360,-0.00002513,-0.00007021,0.00003571,-0.0
 0001498,-0.00000092,0.00001210,-0.00000054,-0.00000249,-0.00000693,-0.
 00000254,0.00001124,-0.00000131,-0.01494744,0.02475270,0.05561595,-0.0
 0020205,-0.00025372,0.00033683,0.00176569,-0.00077107,-0.00046553,0.00
 000318,0.00003821,-0.00022924,0.00035156,0.00131167,-0.00043585,-0.010
 11607,-0.00119128,0.01850982,0.00022777,0.00026594,0.00223042,0.000247
 71,0.00014015,-0.00068888,-0.00003255,0.00002057,-0.00004043,-0.093651
 03,-0.00123981,0.09623617,0.00943894,0.00089311,-0.02435243,0.00006573
 ,0.00003979,0.00004211,-0.00011228,0.00000703,0.00000183,-0.00003000,0
 .00007090,-0.00024697,0.00063085,-0.00035465,-0.00033252,-0.00158599,-
 0.00373122,-0.00038643,-0.00005564,-0.00004051,-0.00005610,-0.00008116
 ,-0.00035777,-0.00095212,-0.00000351,0.,0.00000268,-0.00003457,-0.0000
 3410,-0.00005279,0.00001187,0.00000163,0.00000096,-0.00802094,-0.00089
 235,0.01719862,0.10334413,-0.00016183,0.00014356,-0.00014347,-0.000293
 20,-0.00027085,0.00070064,0.00023142,-0.00015044,-0.00016439,-0.000629
 59,0.00189973,0.00133924,-0.01274798,-0.00200521,0.02605516,0.00046628
 ,0.00052144,0.00130747,0.00028746,0.00002102,-0.00028512,0.00004575,0.
 00002706,-0.00012939,-0.00063140,-0.05273190,0.00687206,-0.00009173,-0
 .00003883,-0.00033074,0.00006361,-0.00000980,0.00003908,-0.00006111,0.
 00009148,-0.00016049,0.00001337,0.00027682,-0.00037160,0.00034490,-0.0
 0034934,-0.00067785,-0.00336266,-0.00428965,0.00041997,-0.00004673,0.0
 0000772,-0.00020343,-0.00008309,0.00011126,-0.00064967,0.00000574,-0.0
 0000249,-0.00000092,-0.00004580,-0.00000838,-0.00003859,0.00001248,-0.
 00000384,0.00001927,0.01122661,0.00150294,-0.02540850,0.00565603,0.054
 08284,-0.00124197,0.00037728,0.00035280,0.00204463,-0.00157936,-0.0004
 9424,-0.00010078,0.00038920,-0.00027975,-0.00017898,-0.00056799,0.0000
 3608,0.00225835,0.00083597,-0.00270828,-0.00060757,-0.00025720,0.00000
 755,-0.00014280,-0.00001331,0.00034702,0.00004917,0.00004316,-0.000049
 94,0.09562371,0.00648421,-0.25459742,0.00727981,0.00120815,-0.02118868
 ,0.00001226,0.00011181,-0.00001893,0.00001760,-0.00005047,0.00014506,-
 0.00014954,0.00008387,0.00032590,-0.00034421,0.00063890,0.00038721,0.0
 0002810,0.00046951,0.00104735,0.00000244,0.00008511,-0.00001033,0.0002
 8866,0.00000819,0.00064282,-0.00000076,-0.00000112,0.00000363,0.000008
 92,0.00001782,0.00001172,0.00001926,0.00000502,0.00001068,0.00169611,-
 0.00061808,-0.00267785,-0.10271730,-0.00766791,0.28009823,0.00180346,-
 0.00128139,0.00013823,0.01156128,0.01556629,-0.00304911,-0.00208987,0.
 00272433,0.00042683,-0.00026225,0.00021996,-0.00007725,-0.00256592,0.0
 0194201,-0.00431571,0.00027539,-0.00126578,0.00071049,-0.00074992,-0.0
 0021727,-0.00058324,0.00014284,-0.00013960,0.00025966,-0.01318284,-0.0
 1733483,0.00425354,-0.15392936,-0.13139184,0.02337677,0.00059480,0.000
 89963,0.00009100,-0.00009027,-0.00008618,-0.00002671,0.00006216,-0.000
 10998,0.00003112,0.00006934,-0.00006445,0.00001461,0.00031336,0.000423
 14,-0.00000848,-0.00002960,0.00002428,0.00005597,-0.00003583,-0.000004
 52,-0.00015058,-0.00003340,0.00003246,-0.00002367,-0.00000899,0.000007
 81,-0.00005022,-0.00008395,-0.00002971,-0.00004939,0.00017280,0.000322
 71,0.00057858,0.00122545,0.00024064,0.00006396,0.16485490,0.00005006,0
 .00604327,-0.00087138,-0.02227022,-0.02659080,0.00488460,0.00504092,-0
 .00321567,-0.00074757,0.00043395,0.00026722,0.00041386,0.00067791,0.00
 092547,0.00026802,0.00010613,0.00014984,0.00015396,-0.00000207,0.00004
 680,-0.00001502,0.00007332,0.00001165,0.00005612,0.00162912,0.00226213
 ,-0.00108294,-0.12719714,-0.20759870,0.02909967,-0.00092201,-0.0015061
 1,-0.00007512,0.00008380,0.00041656,0.00017758,-0.00008230,0.00005813,
 -0.00008343,-0.00004224,-0.00000388,-0.00011964,-0.00002929,-0.0000550
 7,0.00006389,-0.00004366,0.00002028,-0.00003683,-0.00000387,-0.0000088
 4,-0.00001243,-0.00001006,0.00000903,-0.00000645,-0.00000116,0.0000001
 2,-0.00000825,0.00000165,-0.00000361,0.00000151,-0.00024424,0.00036955
 ,-0.00042154,-0.00007130,0.00015481,-0.00040490,0.13965283,0.22447442,
 -0.00078653,0.00027351,-0.00114662,0.00064173,-0.00272987,-0.00059336,
 -0.00003379,0.00026382,0.00119990,-0.00011487,0.00050847,-0.00007650,-
 0.00304720,0.00148907,-0.00381216,-0.00011068,-0.00106186,0.00100970,-
 0.00068464,-0.00019848,-0.00053762,0.00005606,-0.00012994,0.00017689,-
 0.01455474,-0.01987913,0.00342681,0.02312712,0.02956460,-0.05556352,0.
 00009108,0.00007385,0.00037722,-0.00032396,-0.00041717,0.00022772,0.00
 010553,-0.00005480,0.00005487,0.00004582,-0.00003489,-0.00001259,-0.00
 025276,-0.00006156,0.00027845,-0.00002260,0.00001856,0.00003418,0.0000
 7514,-0.00001273,-0.00005072,-0.00002464,0.00002162,-0.00001754,-0.000
 00837,0.00000160,-0.00004085,-0.00006891,-0.00002062,-0.00004916,0.000
 61122,0.00036855,0.00065623,0.00087024,-0.00037702,0.00087162,-0.02321
 994,-0.03125974,0.05695656,-0.00118049,0.00371912,-0.00332228,-0.01097
 642,-0.00016196,0.01777216,0.00034571,-0.00018939,-0.00113507,-0.00015
 359,-0.00027333,-0.00005124,0.00166271,0.00051089,-0.00025302,0.000066
 34,0.00029502,-0.00035747,0.00004563,0.00000807,0.00022548,-0.00001313
 ,0.00002317,-0.00003413,0.00915620,-0.00296583,-0.02545889,-0.08946972
 ,0.00811273,0.10245018,-0.00008729,-0.00007936,-0.00032275,0.00055996,
 0.00039175,-0.00026343,-0.00001392,-0.00001305,-0.00001575,-0.00011266
 ,0.00006137,0.00001705,-0.00021086,-0.00005586,0.00044246,-0.00001285,
 0.00002527,-0.00002332,-0.00008551,-0.00003546,0.00019857,0.00000296,-
 0.00000486,0.00000221,0.00000680,0.00000564,0.00001242,0.00001372,0.00
 000589,0.00000802,0.00162482,-0.00006030,0.00089841,-0.00338708,-0.000
 43918,-0.00390906,-0.00801358,0.00316990,0.01762971,0.10023224,0.00250
 290,-0.00267257,0.00360083,0.01217259,0.00118942,-0.02904673,-0.001427
 54,-0.00041491,0.00341485,0.00041229,0.00024121,0.00017597,0.00050016,
 0.00002569,-0.00097460,-0.00014822,0.00003976,-0.00000857,0.00009141,0
 .00002622,0.00006178,-0.00006385,0.00000506,-0.00004692,-0.00076843,0.
 00040449,0.00132984,0.00935572,-0.05393524,-0.02645425,0.00008849,0.00
 041391,0.00041999,-0.00039174,-0.00161197,-0.00002522,0.00004967,-0.00
 002505,0.00000900,-0.00000213,0.00009751,0.00004822,-0.00022570,0.0000
 4188,0.00007964,0.00003497,-0.00002077,0.00000882,0.00000748,-0.000030
 59,0.00003556,0.00001076,-0.00000968,0.00000656,0.00000673,-0.00000308
 ,0.00001312,0.00001056,0.00000673,0.00000268,-0.00052810,0.00019975,0.
 00041615,0.00049275,0.00102006,0.00040214,-0.01013055,0.00377342,0.023
 65417,-0.01205024,0.05123876,-0.00070255,-0.00064690,-0.00072078,0.001
 06327,-0.00011308,0.00062889,0.00059125,0.00014263,-0.00065582,-0.0003
 7342,-0.00007085,-0.00008101,0.00148939,0.00060147,0.00043958,-0.00008
 406,0.00018673,0.00017489,-0.00020589,-0.00012329,0.00007280,0.0000479
 2,-0.00000295,0.00002326,0.00835744,-0.00200135,-0.02453804,0.09776443
 ,-0.02047835,-0.24701711,-0.00002999,-0.00017550,0.00022783,-0.0002574
 8,0.00003509,0.00051481,0.00001968,-0.00004511,0.00001972,-0.00000118,
 0.00015562,0.00015461,-0.00075658,-0.00069987,0.00056119,0.00000633,0.
 00000730,-0.00002525,0.00011392,0.00004810,0.00029480,-0.00000791,0.00
 000886,-0.00000769,-0.00000451,0.00000771,-0.00000117,-0.00000860,-0.0
 0000673,-0.00000658,0.00040833,0.00041127,0.00135547,-0.00447309,-0.00
 014381,-0.00226228,0.00155354,0.00002605,-0.00336951,-0.10451025,0.022
 87697,0.27421739\\-0.00007099,0.00003651,0.00000900,0.00000495,-0.0000
 0342,0.00000467,-0.00010877,0.00004141,-0.00010512,0.00006294,-0.00003
 690,0.00003224,-0.00002006,-0.00002805,0.00001454,0.00002187,0.0000248
 4,0.00003225,-0.00001974,0.00000594,-0.00002642,0.00007879,-0.00000349
 ,0.00003852,0.00004002,0.00004929,0.00000355,-0.00002067,-0.00005413,-
 0.00006908,0.00000606,-0.00000298,0.00000452,0.00001451,0.00000170,0.0
 0001694,0.00000600,-0.00000048,0.00000357,-0.00000216,-0.00000384,0.00
 001116,-0.00000401,0.00000365,-0.00001129,0.00000896,-0.00000361,0.000
 01533,-0.00002037,-0.00001918,-0.00001204,-0.00000885,0.00002914,-0.00
 000660,-0.00000511,-0.00001474,-0.00001928,0.00000164,0.00000395,0.000
 00858,0.00001188,-0.00001271,0.00001684,-0.00000347,-0.00000526,0.0000
 0718,0.00000896,-0.00000426,0.00000935,0.00001761,-0.00000339,0.000021
 60\\\@


 IF YOU DON'T HAVE THE LAW - ARGUE THE FACTS.
 IF YOU DON'T HAVE THE FACTS - ARGUE THE LAW.
 IF YOU DON'T HAVE EITHER - POUND THE TABLE.
 Job cpu time:       0 days  0 hours  1 minutes 43.9 seconds.
 Elapsed time:       0 days  0 hours 33 minutes 23.7 seconds.
 File lengths (MBytes):  RWF=     97 Int=      0 D2E=      0 Chk=      4 Scr=      1
 Normal termination of Gaussian 16 at Thu Feb 22 00:05:03 2024.
