 Entering Gaussian System, Link 0=g16
 Input=/Volumes/SSD-PMU3/b3lyp_6-31gd_freq/KPQOQSYRJHFQHS-HTQGCQERSA-N_calculating/gaussianinput0.gjf
 Output=/Volumes/SSD-PMU3/b3lyp_6-31gd_freq/KPQOQSYRJHFQHS-HTQGCQERSA-N_calculating/gaussianinput0.log
 Initial command:
 /Applications/g16/l1.exe "/Users/macmini_m1_2022/PycharmProjects/sphere_model/sphere_model_lib/Gau-56259.inp" -scrdir="/Users/macmini_m1_2022/PycharmProjects/sphere_model/sphere_model_lib/"
 Entering Link 1 = /Applications/g16/l1.exe PID=     56260.
  
 Copyright (c) 1988,1990,1992,1993,1995,1998,2003,2009,2016,
            Gaussian, Inc.  All Rights Reserved.
  
 This is part of the Gaussian(R) 16 program.  It is based on
 the Gaussian(R) 09 system (copyright 2009, Gaussian, Inc.),
 the Gaussian(R) 03 system (copyright 2003, Gaussian, Inc.),
 the Gaussian(R) 98 system (copyright 1998, Gaussian, Inc.),
 the Gaussian(R) 94 system (copyright 1995, Gaussian, Inc.),
 the Gaussian 92(TM) system (copyright 1992, Gaussian, Inc.),
 the Gaussian 90(TM) system (copyright 1990, Gaussian, Inc.),
 the Gaussian 88(TM) system (copyright 1988, Gaussian, Inc.),
 the Gaussian 86(TM) system (copyright 1986, Carnegie Mellon
 University), and the Gaussian 82(TM) system (copyright 1983,
 Carnegie Mellon University). Gaussian is a federally registered
 trademark of Gaussian, Inc.
  
 This software contains proprietary and confidential information,
 including trade secrets, belonging to Gaussian, Inc.
  
 This software is provided under written license and may be
 used, copied, transmitted, or stored only in accord with that
 written license.
  
 The following legend is applicable only to US Government
 contracts under FAR:
  
                    RESTRICTED RIGHTS LEGEND
  
 Use, reproduction and disclosure by the US Government is
 subject to restrictions as set forth in subparagraphs (a)
 and (c) of the Commercial Computer Software - Restricted
 Rights clause in FAR 52.227-19.
  
 Gaussian, Inc.
 340 Quinnipiac St., Bldg. 40, Wallingford CT 06492
  
  
 ---------------------------------------------------------------
 Warning -- This program may not be used in any manner that
 competes with the business of Gaussian, Inc. or will provide
 assistance to any competitor of Gaussian, Inc.  The licensee
 of this program is prohibited from giving any competitor of
 Gaussian, Inc. access to this program.  By using this program,
 the user acknowledges that Gaussian, Inc. is engaged in the
 business of creating and licensing software in the field of
 computational chemistry and represents and warrants to the
 licensee that it is not a competitor of Gaussian, Inc. and that
 it will not use this program in any manner prohibited above.
 ---------------------------------------------------------------
  

 Cite this work as:
 Gaussian 16, Revision A.03,
 M. J. Frisch, G. W. Trucks, H. B. Schlegel, G. E. Scuseria, 
 M. A. Robb, J. R. Cheeseman, G. Scalmani, V. Barone, 
 G. A. Petersson, H. Nakatsuji, X. Li, M. Caricato, A. V. Marenich, 
 J. Bloino, B. G. Janesko, R. Gomperts, B. Mennucci, H. P. Hratchian, 
 J. V. Ortiz, A. F. Izmaylov, J. L. Sonnenberg, D. Williams-Young, 
 F. Ding, F. Lipparini, F. Egidi, J. Goings, B. Peng, A. Petrone, 
 T. Henderson, D. Ranasinghe, V. G. Zakrzewski, J. Gao, N. Rega, 
 G. Zheng, W. Liang, M. Hada, M. Ehara, K. Toyota, R. Fukuda, 
 J. Hasegawa, M. Ishida, T. Nakajima, Y. Honda, O. Kitao, H. Nakai, 
 T. Vreven, K. Throssell, J. A. Montgomery, Jr., J. E. Peralta, 
 F. Ogliaro, M. J. Bearpark, J. J. Heyd, E. N. Brothers, K. N. Kudin, 
 V. N. Staroverov, T. A. Keith, R. Kobayashi, J. Normand, 
 K. Raghavachari, A. P. Rendell, J. C. Burant, S. S. Iyengar, 
 J. Tomasi, M. Cossi, J. M. Millam, M. Klene, C. Adamo, R. Cammi, 
 J. W. Ochterski, R. L. Martin, K. Morokuma, O. Farkas, 
 J. B. Foresman, and D. J. Fox, Gaussian, Inc., Wallingford CT, 2016.
 
 ******************************************
 Gaussian 16:  EM64M-G16RevA.03 25-Dec-2016
                21-Feb-2024 
 ******************************************
 %nprocshared=8
 Will use up to    8 processors via shared memory.
 %mem=4GB
 %chk= 0.chk
 ---------------------
 # freq b3lyp/6-31g(d)
 ---------------------
 1/10=4,30=1,38=1/1,3;
 2/12=2,17=6,18=5,40=1/2;
 3/5=1,6=6,7=1,11=2,25=1,30=1,71=2,74=-5,140=1/1,2,3;
 4//1;
 5/5=2,38=5,98=1/2;
 8/6=4,10=90,11=11/1;
 11/6=1,8=1,9=11,15=111,16=1/1,2,10;
 10/6=1/2;
 6/7=2,8=2,9=2,10=2,28=1/1;
 7/8=1,10=1,25=1/1,2,3,16;
 1/10=4,30=1/3;
 99//99;
 ---------
 good luck
 ---------
 Symbolic Z-matrix:
 Charge =  0 Multiplicity = 1
 O                     1.21645   0.        0. 
 C                     0.        0.        0. 
 C                    -0.81514  -1.28864   0.00252 
 C                    -1.93275  -1.27132  -1.06036 
 C                    -2.80597  -0.00887  -0.9553 
 C                    -3.9155   -0.02413  -2.00514 
 O                    -4.75963   1.09363  -1.80119 
 C                    -5.80152   1.17499  -2.74942 
 C                    -1.93516   1.2547   -1.06432 
 C                    -0.82224   1.28188   0.00252 
 H                    -1.27221  -1.38913   0.99908 
 H                    -0.13275  -2.13241  -0.13493 
 H                    -2.54792  -2.17448  -0.95851 
 H                    -1.47788  -1.31409  -2.06067 
 H                    -3.2967   -0.00608   0.03034 
 H                    -3.47897   0.00581  -3.02028 
 H                    -4.4976   -0.95976  -1.92981 
 H                    -6.39203   2.06193  -2.50517 
 H                    -6.45611   0.28884  -2.71375 
 H                    -5.41295   1.2753   -3.77596 
 H                    -2.56235   2.14695  -0.97782 
 H                    -1.47764   1.2856   -2.06441 
 H                    -1.28291   1.37929   0.99794 
 H                    -0.14536   2.13064  -0.13214 
 

 GradGradGradGradGradGradGradGradGradGradGradGradGradGradGradGradGradGrad
 Berny optimization.
 Initialization pass.
 Trust Radius=3.00D-01 FncErr=1.00D-07 GrdErr=1.00D-07 EigMax=2.50D+02 EigMin=1.00D-04
 Number of steps in this run=      2 maximum allowed number of steps=      2.
 GradGradGradGradGradGradGradGradGradGradGradGradGradGradGradGradGradGrad

                          Input orientation:                          
 ---------------------------------------------------------------------
 Center     Atomic      Atomic             Coordinates (Angstroms)
 Number     Number       Type             X           Y           Z
 ---------------------------------------------------------------------
      1          8           0        1.216452    0.000000    0.000000
      2          6           0        0.000000    0.000000    0.000000
      3          6           0       -0.815136   -1.288637    0.002515
      4          6           0       -1.932752   -1.271322   -1.060358
      5          6           0       -2.805965   -0.008873   -0.955295
      6          6           0       -3.915498   -0.024127   -2.005142
      7          8           0       -4.759628    1.093627   -1.801194
      8          6           0       -5.801515    1.174986   -2.749423
      9          6           0       -1.935156    1.254699   -1.064320
     10          6           0       -0.822236    1.281884    0.002515
     11          1           0       -1.272214   -1.389127    0.999078
     12          1           0       -0.132753   -2.132411   -0.134928
     13          1           0       -2.547916   -2.174482   -0.958512
     14          1           0       -1.477875   -1.314088   -2.060671
     15          1           0       -3.296699   -0.006077    0.030340
     16          1           0       -3.478968    0.005811   -3.020284
     17          1           0       -4.497596   -0.959757   -1.929809
     18          1           0       -6.392032    2.061931   -2.505170
     19          1           0       -6.456113    0.288841   -2.713748
     20          1           0       -5.412954    1.275298   -3.775963
     21          1           0       -2.562351    2.146953   -0.977823
     22          1           0       -1.477635    1.285598   -2.064414
     23          1           0       -1.282905    1.379291    0.997935
     24          1           0       -0.145361    2.130639   -0.132143
 ---------------------------------------------------------------------
                    Distance matrix (angstroms):
                    1          2          3          4          5
     1  O    0.000000
     2  C    1.216452   0.000000
     3  C    2.405814   1.524808   0.000000
     4  C    3.557823   2.544828   1.542422   0.000000
     5  C    4.134308   2.964137   2.553154   1.538609   0.000000
     6  C    5.509817   4.399125   3.904090   2.525746   1.527572
     7  O    6.336707   5.205226   4.948491   3.759395   2.397468
     8  C    7.628354   6.526676   6.205367   4.879005   3.686969
     9  C    3.555233   2.540054   2.976767   2.526025   1.538444
    10  C    2.408211   1.522926   2.570531   2.980236   2.553162
    11  H    3.020147   2.132219   1.100980   2.165979   2.842018
    12  H    2.527001   2.140796   1.093843   2.199521   3.511193
    13  H    4.451694   3.484106   2.170443   1.097496   2.180931
    14  H    3.637663   2.856100   2.167166   1.099713   2.165471
    15  H    4.513257   3.296844   2.793544   2.156576   1.101047
    16  H    5.582931   4.607100   4.231892   2.804133   2.171941
    17  H    6.107016   4.987351   4.171636   2.726067   2.171514
    18  H    8.271425   7.168369   6.972558   5.751803   4.421563
    19  H    8.143470   7.009226   6.456558   5.062470   4.062557
    20  H    7.735199   6.721931   6.480015   5.096233   4.049896
    21  H    4.454761   3.482985   3.977072   3.476753   2.169664
    22  H    3.629418   2.845694   3.367163   2.784439   2.161079
    23  H    3.024087   2.131704   2.885742   3.418277   2.839334
    24  H    2.532117   2.139676   3.486858   3.953440   3.511966
                    6          7          8          9         10
     6  C    0.000000
     7  O    1.415459   0.000000
     8  C    2.355607   1.411129   0.000000
     9  C    2.538168   2.923452   4.218372   0.000000
    10  C    3.912112   4.334958   5.690150   1.541904   0.000000
    11  H    4.227944   5.115432   6.414086   3.418614   2.886160
    12  H    4.717173   5.881474   7.064653   3.947777   3.485927
    13  H    2.754949   4.035136   5.001220   3.485104   3.980956
    14  H    2.758458   4.078520   5.036242   2.792935   3.380188
    15  H    2.127540   2.589214   3.923786   2.154446   2.789728
    16  H    1.105427   2.075961   2.614299   2.787270   4.221836
    17  H    1.104498   2.074027   2.632318   3.495567   4.718803
    18  H    3.276414   2.024336   1.093179   4.753043   6.157888
    19  H    2.656087   2.087701   1.102281   4.908416   6.332834
    20  H    2.658324   2.087954   1.102192   4.410047   5.945724
    21  H    2.756806   2.572054   3.817783   1.094062   2.176559
    22  H    2.768044   3.298123   4.379202   1.100213   2.168354
    23  H    4.233037   4.472620   5.873863   2.166530   1.101165
    24  H    4.729173   5.015235   6.305197   2.199907   1.093928
                   11         12         13         14         15
    11  H    0.000000
    12  H    1.771105   0.000000
    13  H    2.465027   2.552072   0.000000
    14  H    3.067571   2.487467   1.760687   0.000000
    15  H    2.636251   3.815647   2.498096   3.064529   0.000000
    16  H    4.792795   4.908607   3.141885   2.582124   3.056087
    17  H    4.377879   4.862980   2.494038   3.043253   2.488743
    18  H    7.099443   7.898679   5.925924   5.978631   4.504060
    19  H    6.593441   7.245527   4.941945   5.270554   4.195103
    20  H    6.859002   7.262929   5.295985   5.013182   4.539648
    21  H    4.251641   4.992632   4.321502   3.785162   2.488212
    22  H    4.072019   4.149025   3.786908   2.599689   3.060296
    23  H    2.768439   3.865007   4.249381   4.080119   2.628850
    24  H    3.864998   4.263070   4.998922   4.166648   3.810891
                   16         17         18         19         20
    16  H    0.000000
    17  H    1.777375   0.000000
    18  H    3.602626   3.612551   0.000000
    19  H    3.006237   2.451397   1.786466   0.000000
    20  H    2.433711   3.040006   1.786701   1.785939   0.000000
    21  H    3.097793   3.781944   4.123891   4.650527   4.088436
    22  H    2.560640   3.765621   4.994823   5.118633   4.291415
    23  H    4.780714   4.937314   6.232248   6.459702   6.313337
    24  H    4.895834   5.632415   6.682580   7.062754   6.461932
                   21         22         23         24
    21  H    0.000000
    22  H    1.760461   0.000000
    23  H    2.475865   3.069964   0.000000
    24  H    2.560719   2.494538   1.770764   0.000000
 Stoichiometry    C8H14O2
 Framework group  C1[X(C8H14O2)]
 Deg. of freedom    66
 Full point group                 C1      NOp   1
 Largest Abelian subgroup         C1      NOp   1
 Largest concise Abelian subgroup C1      NOp   1
                         Standard orientation:                         
 ---------------------------------------------------------------------
 Center     Atomic      Atomic             Coordinates (Angstroms)
 Number     Number       Type             X           Y           Z
 ---------------------------------------------------------------------
      1          8           0       -3.583674   -0.397879   -0.490150
      2          6           0       -2.489688   -0.209068    0.007145
      3          6           0       -1.983934    1.185748    0.358908
      4          6           0       -0.550150    1.430524   -0.154328
      5          6           0        0.414790    0.314600    0.282616
      6          6           0        1.830369    0.589099   -0.221627
      7          8           0        2.704142   -0.397125    0.295487
      8          6           0        4.035158   -0.236677   -0.144897
      9          6           0       -0.102781   -1.055331   -0.188784
     10          6           0       -1.526114   -1.343513    0.329426
     11          1           0       -1.989609    1.272774    1.456428
     12          1           0       -2.690761    1.921850   -0.034847
     13          1           0       -0.196316    2.406591    0.201471
     14          1           0       -0.566152    1.485169   -1.252566
     15          1           0        0.461897    0.306086    1.382622
     16          1           0        1.849573    0.576256   -1.326812
     17          1           0        2.159380    1.594199    0.096870
     18          1           0        4.624175   -1.038412    0.308226
     19          1           0        4.453942    0.734262    0.166425
     20          1           0        4.114425   -0.310401   -1.241760
     21          1           0        0.583330   -1.843486    0.135308
     22          1           0       -0.108312   -1.073629   -1.288831
     23          1           0       -1.493347   -1.450639    1.424878
     24          1           0       -1.931860   -2.272875   -0.080858
 ---------------------------------------------------------------------
 Rotational constants (GHZ):           3.5723538           0.6153860           0.5517841
 Standard basis: 6-31G(d) (6D, 7F)
 There are   178 symmetry adapted cartesian basis functions of A   symmetry.
 There are   178 symmetry adapted basis functions of A   symmetry.
   178 basis functions,   336 primitive gaussians,   178 cartesian basis functions
    39 alpha electrons       39 beta electrons
       nuclear repulsion energy       548.8330837228 Hartrees.
 NAtoms=   24 NActive=   24 NUniq=   24 SFac= 1.00D+00 NAtFMM=   60 NAOKFM=F Big=F
 Integral buffers will be    131072 words long.
 Raffenetti 2 integral format.
 Two-electron integral symmetry is turned on.
 One-electron integrals computed using PRISM.
 NBasis=   178 RedAO= T EigKep=  2.86D-03  NBF=   178
 NBsUse=   178 1.00D-06 EigRej= -1.00D+00 NBFU=   178
 ExpMin= 1.61D-01 ExpMax= 5.48D+03 ExpMxC= 8.25D+02 IAcc=3 IRadAn=         5 AccDes= 0.00D+00
 Harris functional with IExCor=  402 and IRadAn=       5 diagonalized for initial guess.
 HarFok:  IExCor=  402 AccDes= 0.00D+00 IRadAn=         5 IDoV= 1 UseB2=F ITyADJ=14
 ICtDFT=  3500011 ScaDFX=  1.000000  1.000000  1.000000  1.000000
 FoFCou: FMM=F IPFlag=           0 FMFlag=      100000 FMFlg1=           0
         NFxFlg=           0 DoJE=T BraDBF=F KetDBF=T FulRan=T
         wScrn=  0.000000 ICntrl=       500 IOpCl=  0 I1Cent=   200000004 NGrid=           0
         NMat0=    1 NMatS0=      1 NMatT0=    0 NMatD0=    1 NMtDS0=    0 NMtDT0=    0
 Petite list used in FoFCou.
 Requested convergence on RMS density matrix=1.00D-08 within 128 cycles.
 Requested convergence on MAX density matrix=1.00D-06.
 Requested convergence on             energy=1.00D-06.
 No special actions if energy rises.
 Integral accuracy reduced to 1.0D-05 until final iterations.
 Initial convergence to 1.0D-05 achieved.  Increase integral accuracy.
 SCF Done:  E(RB3LYP) =  -463.719919508     A.U. after   14 cycles
            NFock= 14  Conv=0.43D-08     -V/T= 2.0094
 DoSCS=F DFT=T ScalE2(SS,OS)=  1.000000  1.000000
 Range of M.O.s used for correlation:     1   178
 NBasis=   178 NAE=    39 NBE=    39 NFC=     0 NFV=     0
 NROrb=    178 NOA=    39 NOB=    39 NVA=   139 NVB=   139
 Symmetrizing basis deriv contribution to polar:
 IMax=3 JMax=2 DiffMx= 0.00D+00
 G2DrvN: will do    25 centers at a time, making    1 passes.
 Calling FoFCou, ICntrl=  3107 FMM=F I1Cent=   0 AccDes= 0.00D+00.
 End of G2Drv F.D. properties file   721 does not exist.
 End of G2Drv F.D. properties file   722 does not exist.
 End of G2Drv F.D. properties file   788 does not exist.
          IDoAtm=111111111111111111111111
          Differentiating once with respect to electric field.
                with respect to dipole field.
          Differentiating once with respect to nuclear coordinates.
 Keep R1 ints in memory in canonical form, NReq=134943985.
          There are    75 degrees of freedom in the 1st order CPHF.  IDoFFX=6 NUNeed=     3.
     72 vectors produced by pass  0 Test12= 7.23D-15 1.33D-09 XBig12= 6.38D+01 2.39D+00.
 AX will form    72 AO Fock derivatives at one time.
     72 vectors produced by pass  1 Test12= 7.23D-15 1.33D-09 XBig12= 1.22D+01 1.11D+00.
     72 vectors produced by pass  2 Test12= 7.23D-15 1.33D-09 XBig12= 9.04D-02 4.29D-02.
     72 vectors produced by pass  3 Test12= 7.23D-15 1.33D-09 XBig12= 2.38D-04 2.14D-03.
     72 vectors produced by pass  4 Test12= 7.23D-15 1.33D-09 XBig12= 2.24D-07 6.02D-05.
     34 vectors produced by pass  5 Test12= 7.23D-15 1.33D-09 XBig12= 1.49D-10 1.50D-06.
      3 vectors produced by pass  6 Test12= 7.23D-15 1.33D-09 XBig12= 9.33D-14 5.04D-08.
      1 vectors produced by pass  7 Test12= 7.23D-15 1.33D-09 XBig12= 6.06D-17 1.42D-09.
 InvSVY:  IOpt=1 It=  1 EMax= 6.22D-15
 Solved reduced A of dimension   398 with    75 vectors.
 Isotropic polarizability for W=    0.000000       87.72 Bohr**3.
 End of Minotr F.D. properties file   721 does not exist.
 End of Minotr F.D. properties file   722 does not exist.
 End of Minotr F.D. properties file   788 does not exist.

 **********************************************************************

            Population analysis using the SCF density.

 **********************************************************************

 Orbital symmetries:
       Occupied  (A) (A) (A) (A) (A) (A) (A) (A) (A) (A) (A) (A)
                 (A) (A) (A) (A) (A) (A) (A) (A) (A) (A) (A) (A)
                 (A) (A) (A) (A) (A) (A) (A) (A) (A) (A) (A) (A)
                 (A) (A) (A)
       Virtual   (A) (A) (A) (A) (A) (A) (A) (A) (A) (A) (A) (A)
                 (A) (A) (A) (A) (A) (A) (A) (A) (A) (A) (A) (A)
                 (A) (A) (A) (A) (A) (A) (A) (A) (A) (A) (A) (A)
                 (A) (A) (A) (A) (A) (A) (A) (A) (A) (A) (A) (A)
                 (A) (A) (A) (A) (A) (A) (A) (A) (A) (A) (A) (A)
                 (A) (A) (A) (A) (A) (A) (A) (A) (A) (A) (A) (A)
                 (A) (A) (A) (A) (A) (A) (A) (A) (A) (A) (A) (A)
                 (A) (A) (A) (A) (A) (A) (A) (A) (A) (A) (A) (A)
                 (A) (A) (A) (A) (A) (A) (A) (A) (A) (A) (A) (A)
                 (A) (A) (A) (A) (A) (A) (A) (A) (A) (A) (A) (A)
                 (A) (A) (A) (A) (A) (A) (A) (A) (A) (A) (A) (A)
                 (A) (A) (A) (A) (A) (A) (A)
 The electronic state is 1-A.
 Alpha  occ. eigenvalues --  -19.15223 -19.13169 -10.26773 -10.23479 -10.23108
 Alpha  occ. eigenvalues --  -10.19657 -10.19621 -10.19171 -10.18875 -10.18850
 Alpha  occ. eigenvalues --   -1.03604  -1.03040  -0.83796  -0.75811  -0.75457
 Alpha  occ. eigenvalues --   -0.69472  -0.63928  -0.62624  -0.57930  -0.53326
 Alpha  occ. eigenvalues --   -0.48702  -0.48154  -0.47635  -0.45791  -0.44749
 Alpha  occ. eigenvalues --   -0.43840  -0.42803  -0.41330  -0.39693  -0.38752
 Alpha  occ. eigenvalues --   -0.38447  -0.35793  -0.35286  -0.33267  -0.32794
 Alpha  occ. eigenvalues --   -0.32400  -0.31414  -0.25946  -0.23391
 Alpha virt. eigenvalues --   -0.01167   0.08522   0.09466   0.10273   0.12115
 Alpha virt. eigenvalues --    0.13268   0.13659   0.14943   0.15503   0.16120
 Alpha virt. eigenvalues --    0.16466   0.16788   0.17345   0.18132   0.19232
 Alpha virt. eigenvalues --    0.20243   0.20872   0.21695   0.23776   0.25323
 Alpha virt. eigenvalues --    0.26755   0.27512   0.29697   0.32227   0.35734
 Alpha virt. eigenvalues --    0.49382   0.51237   0.52379   0.52950   0.53206
 Alpha virt. eigenvalues --    0.55352   0.56858   0.57966   0.59972   0.61520
 Alpha virt. eigenvalues --    0.62890   0.63738   0.65685   0.67648   0.69968
 Alpha virt. eigenvalues --    0.72229   0.73489   0.74582   0.75903   0.77503
 Alpha virt. eigenvalues --    0.81254   0.81674   0.82668   0.83227   0.85715
 Alpha virt. eigenvalues --    0.86286   0.87327   0.87986   0.88870   0.89640
 Alpha virt. eigenvalues --    0.91848   0.92275   0.93476   0.93736   0.93818
 Alpha virt. eigenvalues --    0.95421   0.96197   0.97989   1.01862   1.06903
 Alpha virt. eigenvalues --    1.10845   1.11414   1.12655   1.16662   1.24198
 Alpha virt. eigenvalues --    1.24858   1.32614   1.35635   1.37862   1.41887
 Alpha virt. eigenvalues --    1.45915   1.47842   1.49363   1.51553   1.52806
 Alpha virt. eigenvalues --    1.58125   1.64042   1.68917   1.69624   1.72835
 Alpha virt. eigenvalues --    1.75870   1.78697   1.80242   1.83338   1.85198
 Alpha virt. eigenvalues --    1.87603   1.88984   1.91954   1.93613   1.95120
 Alpha virt. eigenvalues --    1.96628   1.98807   2.01339   2.02716   2.03957
 Alpha virt. eigenvalues --    2.05281   2.07341   2.09478   2.11475   2.12988
 Alpha virt. eigenvalues --    2.19240   2.20901   2.23157   2.25609   2.30638
 Alpha virt. eigenvalues --    2.33573   2.35328   2.38706   2.40948   2.44266
 Alpha virt. eigenvalues --    2.47453   2.51181   2.52300   2.57376   2.62563
 Alpha virt. eigenvalues --    2.63535   2.66018   2.71043   2.75820   2.79277
 Alpha virt. eigenvalues --    2.88897   2.98213   2.98668   3.02009   3.96707
 Alpha virt. eigenvalues --    3.99924   4.12495   4.23800   4.25680   4.26696
 Alpha virt. eigenvalues --    4.36628   4.55374   4.57163   4.62466
          Condensed to atoms (all electrons):
               1          2          3          4          5          6
     1  O    7.996421   0.591512  -0.079297   0.001497   0.000098   0.000001
     2  C    0.591512   4.468994   0.326457  -0.021702  -0.014572   0.000352
     3  C   -0.079297   0.326457   5.316804   0.324821  -0.034662   0.003322
     4  C    0.001497  -0.021702   0.324821   5.083304   0.356778  -0.037298
     5  C    0.000098  -0.014572  -0.034662   0.356778   4.967228   0.380959
     6  C    0.000001   0.000352   0.003322  -0.037298   0.380959   4.868903
     7  O    0.000000  -0.000006  -0.000037   0.002369  -0.044475   0.238674
     8  C   -0.000000   0.000000   0.000002  -0.000171   0.005287  -0.040153
     9  C    0.001393  -0.021896  -0.001805  -0.046102   0.370832  -0.037507
    10  C   -0.078162   0.326393  -0.143036  -0.002017  -0.037556   0.003754
    11  H    0.001218  -0.028375   0.348100  -0.035748  -0.003387  -0.000018
    12  H    0.004894  -0.023721   0.344209  -0.025425   0.003525  -0.000104
    13  H   -0.000069   0.002849  -0.026853   0.363529  -0.032003  -0.004401
    14  H    0.000388  -0.002925  -0.041443   0.369799  -0.037284  -0.005746
    15  H   -0.000008  -0.001887  -0.002089  -0.045835   0.369284  -0.042341
    16  H   -0.000000  -0.000031  -0.000060  -0.002254  -0.032447   0.344915
    17  H   -0.000000  -0.000018   0.000015  -0.001253  -0.038871   0.353940
    18  H   -0.000000  -0.000000  -0.000000   0.000001  -0.000235   0.005942
    19  H    0.000000  -0.000000   0.000000   0.000012  -0.000235  -0.008438
    20  H    0.000000   0.000000  -0.000000   0.000014   0.000202  -0.008602
    21  H   -0.000062   0.002734  -0.000238   0.005436  -0.030553  -0.007230
    22  H    0.000393  -0.003056   0.000682  -0.007379  -0.040884  -0.004534
    23  H    0.001266  -0.029084   0.003581  -0.001626  -0.003920   0.000019
    24  H    0.004648  -0.024355   0.006794  -0.000133   0.003673  -0.000115
               7          8          9         10         11         12
     1  O    0.000000  -0.000000   0.001393  -0.078162   0.001218   0.004894
     2  C   -0.000006   0.000000  -0.021896   0.326393  -0.028375  -0.023721
     3  C   -0.000037   0.000002  -0.001805  -0.143036   0.348100   0.344209
     4  C    0.002369  -0.000171  -0.046102  -0.002017  -0.035748  -0.025425
     5  C   -0.044475   0.005287   0.370832  -0.037556  -0.003387   0.003525
     6  C    0.238674  -0.040153  -0.037507   0.003754  -0.000018  -0.000104
     7  O    8.190696   0.258364  -0.000883   0.000170  -0.000000   0.000000
     8  C    0.258364   4.875148   0.000256   0.000000   0.000000  -0.000000
     9  C   -0.000883   0.000256   5.070793   0.324650  -0.001636  -0.000185
    10  C    0.000170   0.000000   0.324650   5.320304   0.003849   0.006718
    11  H   -0.000000   0.000000  -0.001636   0.003849   0.582566  -0.026479
    12  H    0.000000  -0.000000  -0.000185   0.006718  -0.026479   0.559123
    13  H   -0.000007  -0.000005   0.005692  -0.000289  -0.006496  -0.002352
    14  H   -0.000017  -0.000001  -0.007683   0.000786   0.005703  -0.003259
    15  H    0.002918  -0.000036  -0.051884  -0.001996   0.004657  -0.000007
    16  H   -0.041780  -0.006692  -0.013008   0.000012   0.000003   0.000006
    17  H   -0.040414  -0.006037   0.006473  -0.000097  -0.000001  -0.000002
    18  H   -0.033416   0.385506   0.000015  -0.000000  -0.000000   0.000000
    19  H   -0.038308   0.360197   0.000042   0.000000   0.000000  -0.000000
    20  H   -0.038181   0.360389  -0.000171  -0.000001  -0.000000   0.000000
    21  H    0.010926  -0.000369   0.366887  -0.025978  -0.000013   0.000016
    22  H   -0.000259  -0.000053   0.368668  -0.042225   0.000098  -0.000041
    23  H    0.000002  -0.000000  -0.035749   0.348329   0.001135  -0.000140
    24  H    0.000000  -0.000000  -0.025474   0.344763  -0.000141  -0.000177
              13         14         15         16         17         18
     1  O   -0.000069   0.000388  -0.000008  -0.000000  -0.000000  -0.000000
     2  C    0.002849  -0.002925  -0.001887  -0.000031  -0.000018  -0.000000
     3  C   -0.026853  -0.041443  -0.002089  -0.000060   0.000015  -0.000000
     4  C    0.363529   0.369799  -0.045835  -0.002254  -0.001253   0.000001
     5  C   -0.032003  -0.037284   0.369284  -0.032447  -0.038871  -0.000235
     6  C   -0.004401  -0.005746  -0.042341   0.344915   0.353940   0.005942
     7  O   -0.000007  -0.000017   0.002918  -0.041780  -0.040414  -0.033416
     8  C   -0.000005  -0.000001  -0.000036  -0.006692  -0.006037   0.385506
     9  C    0.005692  -0.007683  -0.051884  -0.013008   0.006473   0.000015
    10  C   -0.000289   0.000786  -0.001996   0.000012  -0.000097  -0.000000
    11  H   -0.006496   0.005703   0.004657   0.000003  -0.000001  -0.000000
    12  H   -0.002352  -0.003259  -0.000007   0.000006  -0.000002   0.000000
    13  H    0.596542  -0.037785  -0.004543  -0.000526   0.005860   0.000000
    14  H   -0.037785   0.600489   0.006253   0.005219  -0.000649   0.000000
    15  H   -0.004543   0.006253   0.626171   0.007205  -0.006900   0.000001
    16  H   -0.000526   0.005219   0.007205   0.667194  -0.059920  -0.000141
    17  H    0.005860  -0.000649  -0.006900  -0.059920   0.659704  -0.000139
    18  H    0.000000   0.000000   0.000001  -0.000141  -0.000139   0.550257
    19  H    0.000002  -0.000000  -0.000065  -0.002752   0.013463  -0.033786
    20  H   -0.000000   0.000000   0.000050   0.014197  -0.002606  -0.033680
    21  H   -0.000177  -0.000014  -0.003721   0.000093   0.000234  -0.000018
    22  H   -0.000022   0.005206   0.006350   0.005978  -0.000080   0.000000
    23  H   -0.000010   0.000097   0.004832   0.000005   0.000004  -0.000000
    24  H    0.000017  -0.000042  -0.000035   0.000001   0.000002   0.000000
              19         20         21         22         23         24
     1  O    0.000000   0.000000  -0.000062   0.000393   0.001266   0.004648
     2  C   -0.000000   0.000000   0.002734  -0.003056  -0.029084  -0.024355
     3  C    0.000000  -0.000000  -0.000238   0.000682   0.003581   0.006794
     4  C    0.000012   0.000014   0.005436  -0.007379  -0.001626  -0.000133
     5  C   -0.000235   0.000202  -0.030553  -0.040884  -0.003920   0.003673
     6  C   -0.008438  -0.008602  -0.007230  -0.004534   0.000019  -0.000115
     7  O   -0.038308  -0.038181   0.010926  -0.000259   0.000002   0.000000
     8  C    0.360197   0.360389  -0.000369  -0.000053  -0.000000  -0.000000
     9  C    0.000042  -0.000171   0.366887   0.368668  -0.035749  -0.025474
    10  C    0.000000  -0.000001  -0.025978  -0.042225   0.348329   0.344763
    11  H    0.000000  -0.000000  -0.000013   0.000098   0.001135  -0.000141
    12  H   -0.000000   0.000000   0.000016  -0.000041  -0.000140  -0.000177
    13  H    0.000002  -0.000000  -0.000177  -0.000022  -0.000010   0.000017
    14  H   -0.000000   0.000000  -0.000014   0.005206   0.000097  -0.000042
    15  H   -0.000065   0.000050  -0.003721   0.006350   0.004832  -0.000035
    16  H   -0.002752   0.014197   0.000093   0.005978   0.000005   0.000001
    17  H    0.013463  -0.002606   0.000234  -0.000080   0.000004   0.000002
    18  H   -0.033786  -0.033680  -0.000018   0.000000  -0.000000   0.000000
    19  H    0.631139  -0.051645   0.000032  -0.000000   0.000000   0.000000
    20  H   -0.051645   0.628652   0.000034   0.000019  -0.000000   0.000000
    21  H    0.000032   0.000034   0.559069  -0.034609  -0.006056  -0.001954
    22  H   -0.000000   0.000019  -0.034609   0.607526   0.005768  -0.003401
    23  H    0.000000  -0.000000  -0.006056   0.005768   0.583279  -0.026547
    24  H    0.000000   0.000000  -0.001954  -0.003401  -0.026547   0.559260
 Mulliken charges:
               1
     1  O   -0.446131
     2  C    0.452338
     3  C   -0.345266
     4  C   -0.280618
     5  C   -0.106780
     6  C   -0.004291
     7  O   -0.466334
     8  C   -0.191632
     9  C   -0.271718
    10  C   -0.348371
    11  H    0.154966
    12  H    0.163399
    13  H    0.141048
    14  H    0.142909
    15  H    0.133625
    16  H    0.114784
    17  H    0.117290
    18  H    0.159692
    19  H    0.130344
    20  H    0.131329
    21  H    0.165532
    22  H    0.135856
    23  H    0.154816
    24  H    0.163216
 Sum of Mulliken charges =  -0.00000
 Mulliken charges with hydrogens summed into heavy atoms:
               1
     1  O   -0.446131
     2  C    0.452338
     3  C   -0.026901
     4  C    0.003338
     5  C    0.026844
     6  C    0.227783
     7  O   -0.466334
     8  C    0.229733
     9  C    0.029669
    10  C   -0.030339
 APT charges:
               1
     1  O   -0.647707
     2  C    0.725171
     3  C   -0.043763
     4  C    0.128537
     5  C    0.060769
     6  C    0.562549
     7  O   -0.780635
     8  C    0.574886
     9  C    0.111552
    10  C   -0.045092
    11  H   -0.011823
    12  H   -0.030049
    13  H   -0.049494
    14  H   -0.038619
    15  H   -0.053900
    16  H   -0.085909
    17  H   -0.097369
    18  H   -0.030761
    19  H   -0.078329
    20  H   -0.075244
    21  H   -0.012838
    22  H   -0.040686
    23  H   -0.011220
    24  H   -0.030025
 Sum of APT charges =  -0.00000
 APT charges with hydrogens summed into heavy atoms:
               1
     1  O   -0.647707
     2  C    0.725171
     3  C   -0.085635
     4  C    0.040424
     5  C    0.006868
     6  C    0.379271
     7  O   -0.780635
     8  C    0.390552
     9  C    0.058028
    10  C   -0.086338
 Electronic spatial extent (au):  <R**2>=           2045.8781
 Charge=             -0.0000 electrons
 Dipole moment (field-independent basis, Debye):
    X=              3.2860    Y=              1.2282    Z=              0.4846  Tot=              3.5414
 Quadrupole moment (field-independent basis, Debye-Ang):
   XX=            -71.2214   YY=            -59.8005   ZZ=            -60.7081
   XY=             -1.0076   XZ=             -5.8168   YZ=             -0.1274
 Traceless Quadrupole moment (field-independent basis, Debye-Ang):
   XX=             -7.3113   YY=              4.1095   ZZ=              3.2019
   XY=             -1.0076   XZ=             -5.8168   YZ=             -0.1274
 Octapole moment (field-independent basis, Debye-Ang**2):
  XXX=             95.5636  YYY=             -3.7347  ZZZ=              0.0852  XYY=             -1.7636
  XXY=              8.2056  XXZ=              9.5234  XZZ=             -1.8231  YZZ=             -0.9639
  YYZ=              0.9797  XYZ=              2.1507
 Hexadecapole moment (field-independent basis, Debye-Ang**3):
 XXXX=          -2173.3045 YYYY=           -405.9027 ZZZZ=           -136.6476 XXXY=            -48.7514
 XXXZ=            -49.5376 YYYX=             -0.7993 YYYZ=              1.2528 ZZZX=              4.5528
 ZZZY=              0.2492 XXYY=           -405.7194 XXZZ=           -372.5727 YYZZ=            -92.8975
 XXYZ=             -5.2470 YYXZ=              5.7048 ZZXY=             -0.9570
 N-N= 5.488330837228D+02 E-N=-2.176678144643D+03  KE= 4.594006735266D+02
  Exact polarizability: 107.374  -0.229  83.529   2.442   0.685  72.257
 Approx polarizability: 131.601   1.595 115.050   8.839   0.720 114.127
 Calling FoFJK, ICntrl=    100127 FMM=F ISym2X=0 I1Cent= 0 IOpClX= 0 NMat=1 NMatS=1 NMatT=0.
 Full mass-weighted force constant matrix:
 Low frequencies ---  -11.0429   -3.7875   -2.0109   -0.0007   -0.0001    0.0003
 Low frequencies ---   55.7727   86.8512  102.5847
 Diagonal vibrational polarizability:
       14.4736456      12.4868193      28.2937872
 Harmonic frequencies (cm**-1), IR intensities (KM/Mole), Raman scattering
 activities (A**4/AMU), depolarization ratios for plane and unpolarized
 incident light, reduced masses (AMU), force constants (mDyne/A),
 and normal coordinates:
                      1                      2                      3
                      A                      A                      A
 Frequencies --     55.7717                86.8416               102.5836
 Red. masses --      4.7824                 3.3472                 2.0835
 Frc consts  --      0.0088                 0.0149                 0.0129
 IR Inten    --      1.8350                 3.0566                 3.6486
  Atom  AN      X      Y      Z        X      Y      Z        X      Y      Z
     1   8    -0.15   0.02   0.31     0.05   0.09  -0.12     0.01   0.06  -0.04
     2   6    -0.02   0.01   0.05    -0.01   0.04   0.03    -0.01   0.01   0.01
     3   6     0.04   0.01  -0.04     0.03   0.00   0.09     0.02  -0.02   0.10
     4   6     0.02  -0.01  -0.11     0.01  -0.05   0.02    -0.01  -0.02   0.02
     5   6     0.01  -0.03  -0.14    -0.00  -0.08  -0.02     0.00  -0.04  -0.05
     6   6     0.03  -0.03  -0.06    -0.03  -0.10  -0.12    -0.01  -0.05  -0.10
     7   8     0.00  -0.01   0.03     0.02  -0.06  -0.14     0.04   0.13   0.15
     8   6     0.07   0.07   0.25     0.07   0.22   0.12     0.00  -0.01  -0.03
     9   6    -0.01  -0.00  -0.20    -0.07  -0.08   0.06    -0.03  -0.03  -0.04
    10   6     0.01  -0.02  -0.15    -0.08   0.00   0.11    -0.03  -0.02  -0.03
    11   1     0.10   0.03  -0.04     0.09  -0.04   0.09     0.10  -0.10   0.10
    12   1     0.03   0.01  -0.01     0.04   0.05   0.14     0.01   0.01   0.19
    13   1     0.05  -0.02  -0.12     0.07  -0.07  -0.01     0.02  -0.04   0.03
    14   1    -0.02  -0.02  -0.11    -0.04  -0.06   0.02    -0.07   0.00   0.02
    15   1    -0.02  -0.08  -0.14     0.08  -0.05  -0.02     0.06  -0.05  -0.05
    16   1     0.11  -0.06  -0.06    -0.09  -0.14  -0.12    -0.00  -0.31  -0.09
    17   1     0.00  -0.02  -0.06    -0.03  -0.09  -0.17    -0.08   0.04  -0.33
    18   1     0.03   0.09   0.31     0.12   0.24   0.08     0.07   0.21   0.27
    19   1    -0.04   0.08   0.36    -0.14   0.24   0.35    -0.01   0.14  -0.47
    20   1     0.25   0.12   0.26     0.27   0.42   0.12    -0.09  -0.47  -0.00
    21   1    -0.00  -0.03  -0.28    -0.10  -0.10   0.08    -0.03  -0.04  -0.06
    22   1    -0.06   0.07  -0.20    -0.10  -0.14   0.06    -0.05  -0.02  -0.04
    23   1     0.08  -0.13  -0.16    -0.06   0.07   0.11    -0.02  -0.06  -0.03
    24   1    -0.03   0.02  -0.20    -0.12  -0.00   0.16    -0.05  -0.00  -0.05
                      4                      5                      6
                      A                      A                      A
 Frequencies --    129.1779               184.3489               219.1358
 Red. masses --      3.5784                 1.9379                 2.1734
 Frc consts  --      0.0352                 0.0388                 0.0615
 IR Inten    --      1.4265                 1.1610                 1.0928
  Atom  AN      X      Y      Z        X      Y      Z        X      Y      Z
     1   8    -0.13   0.07   0.08    -0.01  -0.08   0.00    -0.05  -0.03   0.03
     2   6    -0.05   0.03  -0.08    -0.01  -0.01  -0.01    -0.01  -0.01  -0.07
     3   6     0.02   0.02  -0.14    -0.04   0.03  -0.11    -0.03  -0.02  -0.02
     4   6     0.08  -0.08   0.01     0.05   0.06   0.14     0.00   0.06   0.10
     5   6     0.01  -0.10   0.12     0.01  -0.04   0.01     0.04   0.07   0.06
     6   6     0.01  -0.05   0.13     0.00  -0.05  -0.02    -0.00  -0.01  -0.12
     7   8     0.13   0.02   0.05     0.03  -0.02   0.00    -0.03  -0.03  -0.10
     8   6     0.05   0.15  -0.15     0.02   0.02  -0.00     0.02  -0.04   0.06
     9   6    -0.01  -0.09   0.10    -0.07   0.03  -0.10     0.07   0.03   0.14
    10   6    -0.10  -0.02  -0.10     0.00   0.04   0.09     0.00  -0.01  -0.09
    11   1    -0.11   0.09  -0.14    -0.26   0.14  -0.12    -0.12  -0.06  -0.01
    12   1     0.10   0.04  -0.25     0.02  -0.01  -0.30    -0.02  -0.01  -0.03
    13   1     0.09  -0.08   0.01     0.04  -0.02   0.38    -0.06   0.04   0.19
    14   1     0.20  -0.11   0.01     0.20   0.28   0.15     0.06   0.14   0.10
    15   1    -0.05  -0.07   0.12     0.06  -0.16   0.01     0.15   0.13   0.06
    16   1    -0.03  -0.01   0.13    -0.01  -0.09  -0.02    -0.12  -0.11  -0.12
    17   1    -0.06  -0.03   0.14     0.00  -0.04  -0.06     0.10  -0.01  -0.23
    18   1     0.21   0.23  -0.22     0.08   0.12   0.11     0.02   0.14   0.38
    19   1    -0.01   0.21  -0.24    -0.05   0.09  -0.12    -0.11   0.09  -0.14
    20   1    -0.11   0.14  -0.16     0.05  -0.12   0.01     0.21  -0.33   0.09
    21   1    -0.09  -0.12   0.21    -0.04  -0.02  -0.30     0.04   0.08   0.30
    22   1     0.15  -0.12   0.10    -0.24   0.17  -0.10     0.25  -0.06   0.14
    23   1    -0.24  -0.09  -0.10     0.13   0.20   0.10    -0.17  -0.12  -0.10
    24   1    -0.10   0.03  -0.19    -0.02  -0.02   0.25     0.08   0.02  -0.23
                      7                      8                      9
                      A                      A                      A
 Frequencies --    243.0336               301.7003               351.3361
 Red. masses --      1.3852                 3.7538                 3.0217
 Frc consts  --      0.0482                 0.2013                 0.2198
 IR Inten    --      2.4164                 0.6368                 2.9673
  Atom  AN      X      Y      Z        X      Y      Z        X      Y      Z
     1   8    -0.03  -0.01   0.00    -0.13  -0.02  -0.06     0.02   0.07   0.02
     2   6    -0.02  -0.01  -0.02    -0.15  -0.01  -0.01     0.04   0.02  -0.01
     3   6    -0.02  -0.01  -0.01    -0.09  -0.06   0.06     0.03   0.02  -0.05
     4   6     0.00   0.02   0.05    -0.09  -0.05  -0.02     0.05  -0.07   0.07
     5   6     0.02   0.01  -0.00     0.04   0.02  -0.02    -0.00  -0.13  -0.04
     6   6     0.00  -0.03  -0.10     0.13   0.10   0.04    -0.07   0.17  -0.02
     7   8     0.03   0.08   0.06     0.17   0.04  -0.07    -0.07   0.17  -0.10
     8   6     0.03  -0.03   0.01     0.24  -0.11   0.02    -0.01  -0.08   0.05
     9   6    -0.00   0.00   0.03    -0.06   0.04  -0.00     0.03  -0.17  -0.00
    10   6    -0.02  -0.00  -0.01    -0.09   0.06   0.06    -0.01  -0.03   0.03
    11   1    -0.06  -0.03  -0.01    -0.02  -0.14   0.07    -0.10   0.10  -0.06
    12   1    -0.00  -0.00  -0.02    -0.07   0.03   0.16     0.09  -0.01  -0.19
    13   1    -0.01  -0.00   0.13    -0.15   0.00  -0.12     0.13  -0.15   0.20
    14   1     0.03   0.10   0.06    -0.16  -0.13  -0.02     0.12   0.06   0.08
    15   1     0.10   0.02  -0.01     0.02   0.02  -0.02     0.04  -0.20  -0.04
    16   1    -0.02  -0.24  -0.09     0.17   0.28   0.04    -0.03   0.37  -0.02
    17   1    -0.02   0.04  -0.29     0.07   0.06   0.23    -0.22   0.16   0.18
    18   1    -0.12  -0.36  -0.39     0.10  -0.12   0.18    -0.23  -0.16   0.20
    19   1     0.28  -0.26   0.37     0.31  -0.12  -0.04     0.14  -0.14   0.04
    20   1    -0.09   0.41  -0.03     0.35  -0.25   0.04     0.13  -0.19   0.07
    21   1    -0.01   0.00   0.06    -0.11  -0.02  -0.03    -0.01  -0.16   0.12
    22   1     0.02  -0.03   0.03    -0.12   0.03  -0.00     0.06  -0.30   0.00
    23   1    -0.06  -0.01  -0.01    -0.05   0.19   0.07     0.01   0.05   0.03
    24   1     0.00  -0.00  -0.03    -0.03  -0.01   0.17    -0.09  -0.03   0.11
                     10                     11                     12
                      A                      A                      A
 Frequencies --    415.4649               425.0428               449.3981
 Red. masses --      1.8451                 3.7110                 2.3652
 Frc consts  --      0.1876                 0.3950                 0.2814
 IR Inten    --      1.7203                 5.1723                 1.4187
  Atom  AN      X      Y      Z        X      Y      Z        X      Y      Z
     1   8     0.09   0.01  -0.02     0.04  -0.11   0.00     0.07  -0.01   0.01
     2   6     0.02  -0.00   0.13    -0.01   0.14   0.02     0.04  -0.00   0.07
     3   6    -0.04   0.06  -0.03    -0.19   0.18   0.09    -0.05   0.06  -0.00
     4   6    -0.02  -0.04  -0.01    -0.12  -0.10   0.05    -0.06   0.17  -0.01
     5   6    -0.03   0.00   0.11    -0.00  -0.09  -0.02    -0.09   0.02  -0.16
     6   6    -0.04  -0.01  -0.01    -0.00  -0.05  -0.01     0.03  -0.01   0.03
     7   8     0.03   0.04  -0.04     0.02  -0.03   0.02     0.06  -0.04   0.02
     8   6     0.07  -0.03   0.01     0.01   0.00  -0.01     0.07  -0.00  -0.02
     9   6    -0.05   0.05  -0.00     0.14  -0.09  -0.05    -0.04  -0.09   0.03
    10   6    -0.02  -0.08  -0.03     0.10   0.19  -0.10    -0.05  -0.10  -0.01
    11   1    -0.16   0.36  -0.05    -0.31   0.31   0.08    -0.07   0.15  -0.01
    12   1    -0.03  -0.07  -0.31    -0.07   0.19  -0.10    -0.14  -0.06  -0.06
    13   1    -0.02   0.03  -0.21     0.02  -0.09  -0.12    -0.02   0.06   0.26
    14   1    -0.02  -0.26  -0.02    -0.24  -0.22   0.05    -0.07   0.48   0.00
    15   1    -0.02   0.01   0.11     0.02  -0.16  -0.02    -0.15   0.05  -0.15
    16   1    -0.17  -0.08  -0.01     0.01  -0.10  -0.01     0.19   0.10   0.03
    17   1    -0.04   0.02  -0.11    -0.00  -0.04  -0.05    -0.02  -0.04   0.18
    18   1    -0.02  -0.07   0.06     0.04   0.01  -0.04     0.10   0.01  -0.03
    19   1     0.12  -0.06   0.03    -0.01   0.01   0.00     0.05   0.01  -0.03
    20   1     0.13  -0.06   0.02    -0.02   0.03  -0.01     0.04  -0.00  -0.02
    21   1    -0.01   0.00  -0.22     0.03  -0.10   0.18     0.00   0.05   0.28
    22   1    -0.13   0.27  -0.01     0.32  -0.23  -0.05     0.05  -0.37   0.04
    23   1    -0.04  -0.43  -0.06     0.16   0.24  -0.09    -0.10  -0.30  -0.03
    24   1    -0.05   0.06  -0.33    -0.05   0.22  -0.01    -0.12   0.02  -0.19
                     13                     14                     15
                      A                      A                      A
 Frequencies --    503.0355               554.7775               690.7749
 Red. masses --      3.3257                 2.7975                 3.1998
 Frc consts  --      0.4958                 0.5073                 0.8996
 IR Inten    --      5.3174                 0.8262                 1.0499
  Atom  AN      X      Y      Z        X      Y      Z        X      Y      Z
     1   8    -0.05   0.27  -0.01    -0.03  -0.04  -0.06     0.13   0.02   0.12
     2   6    -0.00  -0.09   0.03    -0.11  -0.01   0.13     0.22   0.05  -0.17
     3   6    -0.13  -0.10  -0.05    -0.00   0.01   0.02    -0.05  -0.08  -0.02
     4   6    -0.13  -0.04   0.04     0.07  -0.08   0.04    -0.11  -0.06   0.06
     5   6     0.02   0.03  -0.03     0.17   0.01  -0.09     0.04   0.01  -0.02
     6   6     0.05  -0.01  -0.02     0.17   0.09  -0.06     0.09   0.04  -0.04
     7   8     0.01  -0.05   0.03    -0.07  -0.03   0.04    -0.00  -0.02   0.02
     8   6    -0.01   0.01  -0.01    -0.12   0.03   0.00    -0.02   0.01   0.00
     9   6     0.12  -0.00  -0.03    -0.00   0.02   0.02    -0.13  -0.00   0.05
    10   6     0.12  -0.08   0.05    -0.07  -0.01   0.01    -0.09   0.05  -0.01
    11   1    -0.37   0.18  -0.08    -0.12   0.26  -0.01    -0.29  -0.23  -0.01
    12   1    -0.15  -0.30  -0.39     0.13   0.01  -0.22    -0.09  -0.16  -0.09
    13   1    -0.21  -0.01   0.04     0.04  -0.06   0.01    -0.15   0.03  -0.15
    14   1    -0.14  -0.02   0.04     0.03  -0.07   0.04    -0.24  -0.22   0.05
    15   1     0.05   0.00  -0.03     0.34   0.01  -0.10     0.20   0.02  -0.03
    16   1     0.08  -0.06  -0.01     0.38   0.18  -0.06     0.23   0.11  -0.04
    17   1     0.11  -0.02  -0.04     0.19   0.03   0.10     0.08   0.01   0.07
    18   1     0.06   0.04  -0.05    -0.00   0.08  -0.06     0.04   0.03  -0.03
    19   1    -0.06   0.04  -0.01    -0.20   0.07  -0.02    -0.05   0.02  -0.01
    20   1    -0.05   0.04  -0.01    -0.21   0.07  -0.01    -0.06   0.02  -0.00
    21   1     0.18   0.05  -0.01    -0.08  -0.05   0.01    -0.14  -0.09  -0.14
    22   1     0.11  -0.03  -0.03    -0.06  -0.03   0.02    -0.31   0.09   0.05
    23   1     0.24   0.10   0.07    -0.12  -0.34  -0.02    -0.37   0.11   0.00
    24   1     0.21  -0.21   0.25    -0.03   0.09  -0.27    -0.17   0.12  -0.08
                     16                     17                     18
                      A                      A                      A
 Frequencies --    755.8022               771.2903               832.0100
 Red. masses --      2.9912                 1.5647                 2.2322
 Frc consts  --      1.0067                 0.5484                 0.9104
 IR Inten    --      3.0749                 3.9469                 2.6339
  Atom  AN      X      Y      Z        X      Y      Z        X      Y      Z
     1   8     0.08   0.02  -0.00     0.01  -0.02  -0.00    -0.04  -0.00  -0.00
     2   6    -0.00   0.01   0.17     0.01  -0.08   0.02     0.00  -0.02  -0.09
     3   6     0.03  -0.21  -0.08     0.08  -0.02   0.08     0.05   0.04   0.06
     4   6    -0.01  -0.12  -0.03     0.05   0.04   0.04     0.03  -0.08   0.05
     5   6    -0.03  -0.02  -0.05    -0.01   0.05   0.00    -0.07  -0.04  -0.15
     6   6    -0.06  -0.03   0.02    -0.00  -0.00   0.00    -0.09  -0.06  -0.01
     7   8     0.01   0.00  -0.00     0.00   0.00  -0.00     0.01   0.00   0.02
     8   6     0.02  -0.00  -0.00     0.00   0.00  -0.00     0.03   0.00  -0.01
     9   6    -0.03   0.13   0.01    -0.07   0.03  -0.05    -0.02   0.15   0.09
    10   6    -0.01   0.22  -0.05    -0.07  -0.01  -0.09     0.10  -0.01   0.04
    11   1     0.14  -0.07  -0.09    -0.21   0.30   0.04    -0.24   0.12   0.05
    12   1     0.02  -0.23  -0.10     0.11  -0.19  -0.30     0.22   0.07  -0.18
    13   1    -0.20  -0.21   0.41     0.07   0.14  -0.25     0.24  -0.12  -0.04
    14   1     0.17   0.27  -0.01    -0.11  -0.23   0.03    -0.18  -0.08   0.05
    15   1    -0.12  -0.00  -0.04    -0.01  -0.04   0.00     0.00  -0.01  -0.14
    16   1    -0.06  -0.01   0.02    -0.02  -0.01   0.00     0.14   0.18  -0.01
    17   1    -0.12  -0.02   0.04     0.01   0.00  -0.01    -0.32  -0.08   0.28
    18   1    -0.01  -0.01   0.01    -0.00  -0.00   0.00     0.01  -0.02  -0.00
    19   1     0.04  -0.01   0.00     0.01  -0.00   0.00     0.07  -0.01  -0.01
    20   1     0.03  -0.01  -0.00     0.01  -0.00  -0.00     0.02  -0.02  -0.00
    21   1    -0.21   0.10   0.32    -0.16   0.10   0.32     0.13   0.26   0.04
    22   1     0.20  -0.10   0.01     0.24  -0.21  -0.04    -0.17   0.05   0.09
    23   1     0.08  -0.00  -0.08     0.13   0.38  -0.06    -0.15  -0.12   0.03
    24   1    -0.00   0.28  -0.20    -0.06  -0.17   0.28     0.38  -0.04  -0.18
                     19                     20                     21
                      A                      A                      A
 Frequencies --    924.1437               933.8197               961.3782
 Red. masses --      1.6293                 1.8147                 1.8519
 Frc consts  --      0.8199                 0.9324                 1.0085
 IR Inten    --      2.4193                12.3428                 1.5469
  Atom  AN      X      Y      Z        X      Y      Z        X      Y      Z
     1   8    -0.00  -0.01   0.00     0.00   0.02  -0.00    -0.04  -0.01  -0.01
     2   6    -0.01   0.06  -0.01     0.00  -0.04   0.02    -0.02   0.01  -0.02
     3   6     0.04  -0.00  -0.09    -0.11  -0.02  -0.03     0.06  -0.10   0.06
     4   6    -0.02  -0.03   0.11     0.07   0.13  -0.00     0.03   0.10  -0.01
     5   6    -0.05   0.06  -0.01     0.07  -0.09   0.02     0.04   0.02  -0.04
     6   6    -0.01   0.05  -0.00    -0.00  -0.08  -0.01    -0.02  -0.03   0.09
     7   8    -0.00  -0.03   0.02     0.01   0.04  -0.02     0.00   0.02  -0.03
     8   6     0.03  -0.00  -0.01    -0.04   0.01   0.01    -0.02   0.00  -0.00
     9   6    -0.01   0.03  -0.10    -0.06   0.03  -0.00     0.08  -0.08  -0.03
    10   6    -0.00  -0.03   0.10     0.06   0.04   0.01     0.01   0.11   0.07
    11   1    -0.01  -0.32  -0.05    -0.02  -0.24  -0.01    -0.34   0.04   0.04
    12   1     0.17   0.21   0.09    -0.36  -0.12   0.20     0.12  -0.21  -0.26
    13   1    -0.11   0.11  -0.19     0.08   0.24  -0.32    -0.01   0.18  -0.18
    14   1    -0.04  -0.33   0.09     0.12  -0.24  -0.03    -0.26  -0.01  -0.01
    15   1    -0.04  -0.25  -0.01     0.25  -0.27   0.01    -0.19  -0.02  -0.03
    16   1    -0.07  -0.06  -0.00     0.11   0.12  -0.01    -0.23  -0.19   0.08
    17   1     0.10   0.04  -0.12    -0.18  -0.09   0.21     0.06   0.02  -0.14
    18   1     0.07   0.02  -0.03    -0.10  -0.03   0.03    -0.10  -0.02   0.05
    19   1    -0.01   0.01  -0.00     0.02  -0.02   0.00     0.01  -0.02   0.02
    20   1     0.02   0.02  -0.01    -0.02  -0.02   0.01     0.05  -0.02   0.00
    21   1     0.08   0.26   0.28    -0.19  -0.01   0.18     0.09  -0.14  -0.18
    22   1     0.13  -0.35  -0.09     0.03  -0.16   0.00    -0.22  -0.10  -0.03
    23   1     0.13  -0.33   0.05     0.13  -0.14  -0.01    -0.28  -0.19   0.05
    24   1    -0.11   0.11  -0.12     0.19   0.05  -0.13    -0.03   0.26  -0.25
                     22                     23                     24
                      A                      A                      A
 Frequencies --    985.7168              1010.8166              1023.6034
 Red. masses --      2.1152                 2.3674                 2.2239
 Frc consts  --      1.2109                 1.4252                 1.3729
 IR Inten    --     14.7220                 4.5650                 6.2884
  Atom  AN      X      Y      Z        X      Y      Z        X      Y      Z
     1   8     0.00   0.01   0.01    -0.02   0.01  -0.01     0.02   0.01   0.02
     2   6     0.03  -0.01  -0.05    -0.00  -0.06  -0.01     0.03  -0.02  -0.02
     3   6    -0.05   0.05   0.03     0.01   0.01   0.02    -0.16  -0.02   0.06
     4   6     0.02  -0.08  -0.03     0.02   0.02  -0.01     0.17  -0.04  -0.05
     5   6    -0.03  -0.01  -0.01    -0.02  -0.01   0.03    -0.01   0.00  -0.04
     6   6     0.16  -0.02   0.10    -0.04   0.18  -0.03    -0.04   0.08   0.00
     7   8     0.03   0.07  -0.08    -0.05  -0.09   0.07    -0.04  -0.04   0.03
     8   6    -0.11   0.00   0.02     0.10  -0.02  -0.02     0.06  -0.01  -0.02
     9   6    -0.09   0.05  -0.01    -0.13  -0.07   0.03     0.08   0.07  -0.03
    10   6     0.05  -0.03   0.01     0.14   0.07  -0.03    -0.10  -0.01   0.04
    11   1    -0.04   0.02   0.04     0.07   0.12   0.01    -0.18  -0.12   0.06
    12   1    -0.03   0.06   0.03    -0.06  -0.06  -0.01    -0.37  -0.20   0.09
    13   1     0.15  -0.19   0.14     0.08  -0.01  -0.01     0.48  -0.16  -0.01
    14   1     0.03   0.11  -0.02     0.08  -0.00  -0.01     0.26  -0.04  -0.05
    15   1    -0.42  -0.09   0.01    -0.06  -0.07   0.03    -0.12  -0.04  -0.04
    16   1    -0.09  -0.33   0.09    -0.20  -0.05  -0.03    -0.16  -0.07   0.00
    17   1     0.38   0.05  -0.31     0.13   0.20  -0.27     0.03   0.10  -0.15
    18   1    -0.22  -0.03   0.10     0.31   0.08  -0.11     0.14   0.03  -0.05
    19   1    -0.07  -0.02   0.05    -0.05   0.04  -0.02    -0.01   0.02  -0.01
    20   1     0.00  -0.02   0.02     0.01   0.07  -0.02     0.03   0.03  -0.02
    21   1    -0.14   0.09   0.20    -0.34  -0.25   0.02     0.23   0.21   0.02
    22   1    -0.06  -0.21  -0.00    -0.29  -0.20   0.03     0.07   0.00  -0.03
    23   1     0.02  -0.07   0.01     0.03  -0.05  -0.04    -0.25   0.05   0.05
    24   1     0.25  -0.08  -0.06     0.45  -0.01  -0.17    -0.21   0.04   0.02
                     25                     26                     27
                      A                      A                      A
 Frequencies --   1082.1474              1108.3339              1132.9235
 Red. masses --      1.3194                 2.5852                 1.9433
 Frc consts  --      0.9104                 1.8710                 1.4696
 IR Inten    --      2.0843                 2.4567                 6.5758
  Atom  AN      X      Y      Z        X      Y      Z        X      Y      Z
     1   8     0.00   0.00  -0.00     0.01   0.00   0.02     0.02   0.00  -0.00
     2   6    -0.01   0.06   0.01     0.04   0.01  -0.06    -0.02   0.04   0.04
     3   6    -0.04  -0.03   0.00    -0.03   0.05   0.03    -0.08  -0.02  -0.00
     4   6     0.08  -0.02  -0.00    -0.04  -0.04  -0.07     0.07  -0.06   0.05
     5   6    -0.01   0.07  -0.00     0.26   0.01  -0.05     0.01   0.16  -0.06
     6   6    -0.01  -0.02  -0.00    -0.11  -0.02   0.12    -0.03  -0.07   0.06
     7   8    -0.01   0.00   0.00    -0.06  -0.01   0.01    -0.04   0.02   0.00
     8   6     0.01   0.01  -0.00     0.06   0.02  -0.04     0.03   0.04  -0.04
     9   6    -0.06  -0.06   0.02    -0.02   0.07  -0.05    -0.05  -0.08   0.01
    10   6     0.05  -0.02  -0.01    -0.05  -0.07   0.05     0.07  -0.02  -0.07
    11   1    -0.38  -0.32   0.03    -0.04   0.05   0.03     0.19   0.10  -0.01
    12   1     0.10   0.08  -0.02     0.10   0.17  -0.00     0.02   0.10   0.06
    13   1     0.22  -0.07  -0.02    -0.26  -0.03   0.15    -0.28   0.08   0.00
    14   1    -0.15   0.05   0.00    -0.14   0.28  -0.05     0.39  -0.21   0.03
    15   1    -0.07   0.50   0.00     0.32   0.05  -0.05     0.14   0.08  -0.06
    16   1     0.04   0.05  -0.01    -0.38  -0.15   0.12     0.01  -0.05   0.06
    17   1    -0.02  -0.03   0.06    -0.20   0.06  -0.05     0.02  -0.09   0.06
    18   1    -0.02  -0.01   0.00    -0.06  -0.02   0.05    -0.20  -0.06   0.09
    19   1     0.04  -0.00  -0.01     0.08  -0.02   0.03     0.15  -0.04   0.02
    20   1     0.01  -0.01  -0.00     0.15  -0.03  -0.02     0.14  -0.06  -0.02
    21   1    -0.17  -0.16  -0.02    -0.33  -0.11   0.16     0.24   0.12  -0.10
    22   1     0.12   0.14   0.01     0.18  -0.13  -0.05    -0.42  -0.26   0.01
    23   1     0.48  -0.15  -0.04     0.12  -0.12   0.03    -0.22   0.22  -0.03
    24   1    -0.14   0.04   0.04     0.10  -0.12   0.01     0.01  -0.05   0.06
                     28                     29                     30
                      A                      A                      A
 Frequencies --   1149.8422              1170.9806              1187.0933
 Red. masses --      2.0836                 3.8569                 1.8544
 Frc consts  --      1.6231                 3.1159                 1.5396
 IR Inten    --     10.7688               151.9914                28.3148
  Atom  AN      X      Y      Z        X      Y      Z        X      Y      Z
     1   8    -0.04  -0.01   0.00     0.03  -0.00   0.00    -0.00  -0.02  -0.00
     2   6     0.03   0.05  -0.11    -0.02   0.05   0.04    -0.02   0.15  -0.01
     3   6    -0.02  -0.04   0.12    -0.04  -0.02  -0.02     0.00  -0.07   0.04
     4   6     0.03  -0.03  -0.09     0.05  -0.01   0.00     0.03   0.04  -0.06
     5   6    -0.01   0.05   0.11     0.07   0.02  -0.07    -0.00  -0.09   0.01
     6   6    -0.02  -0.02  -0.09    -0.16   0.12   0.01     0.06   0.01   0.01
     7   8     0.05  -0.00   0.00     0.29  -0.05  -0.03    -0.06   0.04   0.03
     8   6    -0.03  -0.00   0.05    -0.22  -0.11   0.09     0.04  -0.06  -0.08
     9   6    -0.04  -0.02  -0.09    -0.03  -0.01   0.03    -0.05   0.02   0.06
    10   6     0.04  -0.00   0.08     0.01  -0.04  -0.06     0.04  -0.05  -0.03
    11   1     0.02   0.37   0.08    -0.09  -0.13  -0.01    -0.15   0.02   0.03
    12   1     0.02  -0.15  -0.17     0.10   0.14   0.03     0.06  -0.09  -0.11
    13   1    -0.29  -0.01   0.18    -0.15   0.07  -0.03    -0.31   0.13   0.01
    14   1     0.35   0.12  -0.08    -0.00  -0.01   0.00     0.02   0.07  -0.05
    15   1     0.04   0.04   0.11     0.14   0.06  -0.07    -0.01  -0.24   0.02
    16   1     0.05   0.29  -0.09    -0.31  -0.04   0.03     0.11  -0.09   0.01
    17   1    -0.01  -0.12   0.21    -0.27   0.18  -0.10    -0.10   0.10  -0.07
    18   1     0.07  -0.01  -0.09     0.25   0.13  -0.06     0.15   0.12   0.10
    19   1     0.05   0.01  -0.09    -0.45   0.01   0.10    -0.41   0.02   0.23
    20   1    -0.22  -0.02   0.03    -0.12   0.13   0.05     0.38   0.19  -0.07
    21   1     0.02   0.13   0.14     0.14   0.11  -0.04     0.26   0.26   0.01
    22   1     0.09  -0.21  -0.08    -0.18  -0.08   0.03    -0.01   0.08   0.06
    23   1     0.06  -0.23   0.06    -0.02   0.15  -0.03     0.19   0.02  -0.02
    24   1    -0.12   0.16  -0.12     0.05  -0.12   0.10    -0.08  -0.05   0.09
                     31                     32                     33
                      A                      A                      A
 Frequencies --   1194.2693              1231.4527              1246.1375
 Red. masses --      1.4801                 1.5123                 1.4746
 Frc consts  --      1.2438                 1.3512                 1.3492
 IR Inten    --     16.1515                32.7799                26.9058
  Atom  AN      X      Y      Z        X      Y      Z        X      Y      Z
     1   8    -0.02   0.01  -0.00     0.03   0.01   0.01    -0.03   0.00  -0.01
     2   6     0.03  -0.09  -0.03    -0.00  -0.05   0.04     0.02  -0.04  -0.04
     3   6     0.01   0.03   0.00    -0.03   0.02  -0.02    -0.00   0.01   0.00
     4   6    -0.02  -0.02   0.03     0.02  -0.01  -0.01    -0.01  -0.01   0.05
     5   6    -0.03   0.06   0.01     0.03   0.03   0.04    -0.01   0.02  -0.06
     6   6    -0.02  -0.01  -0.01     0.03  -0.09  -0.03     0.02  -0.02   0.09
     7   8     0.04   0.02   0.04    -0.05   0.09  -0.00    -0.03   0.04  -0.07
     8   6    -0.05  -0.05  -0.10     0.05  -0.09   0.02     0.04  -0.06   0.06
     9   6     0.02  -0.02  -0.04     0.02  -0.00  -0.04    -0.01  -0.01   0.03
    10   6    -0.01   0.04   0.04    -0.01   0.01  -0.01     0.02   0.02   0.01
    11   1     0.16   0.11  -0.00    -0.11  -0.14  -0.00     0.26   0.21  -0.01
    12   1    -0.08  -0.03   0.03     0.18   0.25   0.05    -0.11  -0.09   0.01
    13   1     0.16  -0.08   0.01    -0.04   0.01   0.01     0.00   0.02  -0.03
    14   1     0.10  -0.06   0.03    -0.11   0.07  -0.00     0.12  -0.13   0.04
    15   1     0.11   0.20   0.00    -0.25   0.08   0.05     0.16   0.13  -0.06
    16   1     0.16  -0.00   0.00    -0.20   0.26  -0.05     0.14  -0.27   0.09
    17   1    -0.05  -0.02   0.05     0.03  -0.14   0.17    -0.29   0.16  -0.14
    18   1    -0.09   0.10   0.23     0.44   0.11  -0.13     0.37   0.05  -0.17
    19   1    -0.38  -0.04   0.33    -0.37   0.09   0.01    -0.18   0.09  -0.12
    20   1     0.58   0.15  -0.07    -0.13   0.20  -0.01    -0.30   0.10   0.02
    21   1    -0.15  -0.14   0.01    -0.05  -0.04   0.01     0.02  -0.00  -0.02
    22   1     0.09  -0.00  -0.04    -0.08  -0.16  -0.04     0.05   0.12   0.02
    23   1    -0.01  -0.10   0.02    -0.30   0.10   0.02     0.23  -0.10  -0.01
    24   1    -0.05   0.12  -0.09     0.14  -0.06  -0.01    -0.30   0.17  -0.03
                     34                     35                     36
                      A                      A                      A
 Frequencies --   1274.6546              1278.5317              1295.6075
 Red. masses --      1.3012                 1.3748                 1.3345
 Frc consts  --      1.2456                 1.3241                 1.3198
 IR Inten    --      1.9416                 6.9405                 0.6969
  Atom  AN      X      Y      Z        X      Y      Z        X      Y      Z
     1   8     0.02   0.02   0.01     0.02  -0.02   0.01     0.00  -0.00  -0.01
     2   6     0.01  -0.10   0.01    -0.02   0.12  -0.01    -0.03   0.02   0.04
     3   6    -0.07  -0.01   0.03     0.01  -0.02   0.01     0.06   0.02  -0.02
     4   6     0.04   0.02  -0.03     0.02  -0.00   0.03    -0.04  -0.01  -0.04
     5   6    -0.04  -0.03   0.02    -0.04   0.02  -0.02     0.01   0.01   0.10
     6   6     0.01   0.04  -0.00    -0.00  -0.01   0.01     0.01   0.01   0.02
     7   8    -0.00  -0.03  -0.01    -0.00   0.00  -0.02    -0.01  -0.01  -0.03
     8   6    -0.01   0.02  -0.00     0.00  -0.01   0.01     0.01   0.00   0.01
     9   6     0.01   0.00  -0.01     0.05  -0.01  -0.04    -0.04  -0.01  -0.07
    10   6     0.01   0.02   0.01    -0.08  -0.02   0.04     0.04  -0.00  -0.00
    11   1    -0.15  -0.05   0.03     0.01   0.02   0.00    -0.20  -0.19   0.00
    12   1     0.44   0.46  -0.00    -0.14  -0.17  -0.01    -0.13  -0.14   0.01
    13   1    -0.29   0.14  -0.02    -0.16   0.08  -0.02     0.25  -0.15   0.07
    14   1     0.16   0.00  -0.04     0.20  -0.15   0.02    -0.17   0.15  -0.02
    15   1    -0.12  -0.01   0.02    -0.13   0.16  -0.02     0.32   0.20   0.09
    16   1     0.37  -0.19   0.01     0.23  -0.10   0.01     0.36  -0.21   0.04
    17   1    -0.30   0.17  -0.11    -0.16   0.06  -0.04    -0.31   0.15  -0.06
    18   1    -0.08  -0.02   0.02     0.06   0.01  -0.03     0.01  -0.00  -0.01
    19   1     0.08  -0.02  -0.01    -0.03   0.01  -0.02     0.00   0.01  -0.03
    20   1     0.02  -0.05  -0.00    -0.04   0.02   0.00    -0.03  -0.01   0.00
    21   1    -0.08  -0.07   0.01    -0.24  -0.26  -0.04     0.16   0.21   0.08
    22   1     0.12   0.09  -0.01     0.19   0.08  -0.04    -0.06  -0.24  -0.07
    23   1    -0.16   0.03   0.02    -0.09  -0.04   0.03    -0.33   0.10   0.02
    24   1    -0.06   0.06  -0.02     0.64  -0.30  -0.02     0.07  -0.02  -0.01
                     37                     38                     39
                      A                      A                      A
 Frequencies --   1323.2124              1344.8572              1364.7280
 Red. masses --      1.3138                 1.2817                 1.4246
 Frc consts  --      1.3553                 1.3658                 1.5633
 IR Inten    --      3.2452                 5.0496                 4.8668
  Atom  AN      X      Y      Z        X      Y      Z        X      Y      Z
     1   8     0.01   0.00   0.00     0.01   0.00   0.00    -0.02  -0.01  -0.01
     2   6    -0.00  -0.02   0.01    -0.01   0.03   0.00    -0.02   0.05   0.03
     3   6     0.03   0.01   0.04    -0.05  -0.06  -0.01     0.05   0.02   0.01
     4   6    -0.06   0.01  -0.07     0.02   0.02  -0.00    -0.04  -0.00  -0.00
     5   6    -0.07   0.05  -0.01    -0.06  -0.02  -0.02     0.01   0.03  -0.04
     6   6    -0.02  -0.02   0.04    -0.01   0.01   0.04    -0.00  -0.01  -0.00
     7   8     0.00   0.03  -0.02    -0.00   0.02  -0.00     0.01  -0.00   0.00
     8   6     0.01  -0.02   0.01     0.00  -0.01   0.00    -0.00  -0.00   0.00
     9   6     0.05  -0.00   0.03    -0.06  -0.04  -0.03    -0.00   0.05   0.01
    10   6    -0.05   0.02  -0.01     0.05  -0.01   0.03     0.13  -0.08   0.00
    11   1    -0.34  -0.21   0.05     0.18   0.14  -0.03    -0.19  -0.12   0.02
    12   1     0.18   0.09  -0.06     0.18   0.14  -0.04    -0.12  -0.15   0.00
    13   1     0.16  -0.12   0.06     0.13  -0.01  -0.04    -0.00  -0.02   0.01
    14   1     0.40  -0.01  -0.08    -0.16   0.03  -0.00     0.27  -0.08  -0.01
    15   1     0.49  -0.38  -0.04     0.46   0.05  -0.05    -0.15  -0.20  -0.04
    16   1     0.03  -0.05   0.03    -0.12   0.01   0.03    -0.03   0.03  -0.01
    17   1     0.23  -0.08  -0.00     0.36  -0.10  -0.03    -0.04   0.00  -0.00
    18   1     0.08   0.01  -0.03     0.04   0.01  -0.01     0.01   0.00  -0.00
    19   1    -0.04   0.02  -0.02    -0.01   0.01  -0.02    -0.01  -0.00   0.00
    20   1    -0.04   0.04   0.00    -0.01   0.03   0.00     0.00   0.00   0.00
    21   1    -0.06  -0.12  -0.04     0.02   0.07   0.04    -0.42  -0.30   0.02
    22   1    -0.15  -0.03   0.03     0.46   0.31  -0.04     0.19   0.10   0.01
    23   1     0.21  -0.05  -0.03    -0.35   0.06   0.05    -0.45   0.13   0.05
    24   1     0.10  -0.05   0.01     0.10  -0.01  -0.03    -0.42   0.11   0.10
                     40                     41                     42
                      A                      A                      A
 Frequencies --   1368.8901              1399.9155              1418.3741
 Red. masses --      1.4618                 1.4593                 1.5040
 Frc consts  --      1.6139                 1.6850                 1.7828
 IR Inten    --     10.3551                 0.1552                 0.0148
  Atom  AN      X      Y      Z        X      Y      Z        X      Y      Z
     1   8     0.01  -0.01   0.01     0.01  -0.00   0.00    -0.01  -0.00  -0.00
     2   6    -0.00   0.08  -0.02    -0.01   0.02   0.00     0.01   0.00   0.00
     3   6    -0.08  -0.11  -0.01     0.00  -0.06   0.01     0.00   0.02  -0.00
     4   6    -0.01   0.04   0.00    -0.12   0.08   0.02     0.08  -0.01   0.00
     5   6    -0.00   0.04   0.04     0.04  -0.11  -0.02    -0.10  -0.10   0.00
     6   6    -0.00  -0.01  -0.01     0.03   0.01   0.00    -0.01   0.02   0.02
     7   8     0.00  -0.00  -0.01    -0.01  -0.00   0.01    -0.00   0.01  -0.00
     8   6    -0.00  -0.00   0.00     0.00   0.01  -0.01    -0.00  -0.01   0.00
     9   6     0.06   0.06   0.01    -0.00   0.04  -0.02     0.08   0.09  -0.02
    10   6     0.01  -0.05  -0.01     0.00  -0.02  -0.00     0.01  -0.04  -0.00
    11   1     0.36   0.26  -0.05    -0.06   0.07   0.00    -0.01  -0.02   0.00
    12   1     0.24   0.15  -0.08     0.20   0.13  -0.01    -0.10  -0.05   0.03
    13   1     0.46  -0.12  -0.03     0.27  -0.04  -0.04    -0.38   0.14   0.04
    14   1    -0.27   0.04   0.01     0.54  -0.26  -0.01    -0.20  -0.01   0.01
    15   1    -0.02  -0.22   0.05    -0.06   0.59  -0.01     0.36   0.41  -0.02
    16   1     0.17  -0.04  -0.00    -0.21   0.03  -0.01     0.03  -0.08   0.02
    17   1    -0.15   0.04   0.01     0.01   0.01   0.01     0.31  -0.09   0.00
    18   1     0.01   0.00  -0.01    -0.03  -0.01   0.02     0.04   0.02  -0.01
    19   1    -0.00   0.00  -0.00     0.00  -0.00   0.02     0.03  -0.00  -0.03
    20   1     0.01   0.00  -0.00    -0.01  -0.01  -0.00     0.03   0.03   0.00
    21   1    -0.25  -0.22   0.00     0.07   0.10   0.00    -0.25  -0.17   0.04
    22   1    -0.27  -0.25   0.01    -0.07  -0.19  -0.02    -0.32  -0.29  -0.00
    23   1     0.06   0.02  -0.00    -0.01   0.06   0.00     0.01   0.09   0.01
    24   1    -0.10  -0.04   0.05    -0.01   0.00  -0.03    -0.18   0.05  -0.02
                     43                     44                     45
                      A                      A                      A
 Frequencies --   1442.4623              1491.3060              1501.0179
 Red. masses --      1.4173                 1.0944                 1.0867
 Frc consts  --      1.7374                 1.4341                 1.4425
 IR Inten    --     36.7161                 5.3226                 8.8090
  Atom  AN      X      Y      Z        X      Y      Z        X      Y      Z
     1   8     0.00   0.00   0.00     0.00  -0.00   0.00     0.01   0.00   0.00
     2   6    -0.00  -0.00  -0.00     0.00  -0.00  -0.00     0.00   0.00  -0.01
     3   6     0.00  -0.00  -0.00    -0.03   0.04   0.03     0.03  -0.04  -0.03
     4   6    -0.02   0.01   0.01    -0.01   0.00   0.01     0.01   0.00  -0.01
     5   6     0.09  -0.03   0.00     0.00  -0.02  -0.00    -0.01  -0.00  -0.00
     6   6    -0.15   0.01   0.01     0.00   0.00  -0.00    -0.00   0.00   0.00
     7   8    -0.01   0.03  -0.02    -0.00   0.00   0.00     0.00  -0.00  -0.00
     8   6    -0.01  -0.02   0.02    -0.00   0.00   0.00     0.02  -0.00  -0.00
     9   6    -0.02   0.00   0.01     0.01   0.01  -0.01     0.01   0.00  -0.00
    10   6     0.00  -0.00  -0.01     0.01   0.05  -0.03     0.01   0.05  -0.03
    11   1    -0.01   0.04  -0.01     0.32  -0.35   0.05    -0.30   0.38  -0.05
    12   1    -0.01   0.01   0.04     0.10  -0.12  -0.47    -0.10   0.12   0.47
    13   1     0.04  -0.01  -0.01    -0.01   0.03  -0.05    -0.01  -0.02   0.07
    14   1     0.05  -0.02   0.01     0.05   0.03   0.01    -0.05  -0.06  -0.01
    15   1    -0.31   0.02   0.02    -0.00   0.07  -0.00     0.03   0.01  -0.01
    16   1     0.63  -0.13   0.03    -0.01  -0.02   0.00     0.01   0.02   0.00
    17   1     0.53  -0.20  -0.03     0.02  -0.01   0.02     0.02   0.01  -0.03
    18   1     0.20   0.06  -0.10     0.02   0.01  -0.01    -0.08  -0.04   0.05
    19   1     0.12  -0.02  -0.12     0.02  -0.01  -0.01    -0.07   0.03   0.01
    20   1     0.16   0.08   0.01     0.02  -0.00   0.00    -0.08   0.02  -0.01
    21   1     0.06   0.07  -0.00    -0.01   0.02   0.05    -0.02   0.01   0.05
    22   1     0.01  -0.01   0.01    -0.06   0.01  -0.00    -0.06   0.02  -0.00
    23   1     0.02  -0.00  -0.00    -0.17  -0.45  -0.07    -0.14  -0.46  -0.06
    24   1    -0.04   0.01   0.01    -0.05  -0.17   0.48    -0.04  -0.16   0.46
                     46                     47                     48
                      A                      A                      A
 Frequencies --   1503.7118              1514.7881              1520.1403
 Red. masses --      1.1661                 1.0481                 1.0889
 Frc consts  --      1.5536                 1.4169                 1.4825
 IR Inten    --      3.2743                 4.9626                 3.3352
  Atom  AN      X      Y      Z        X      Y      Z        X      Y      Z
     1   8     0.00   0.00   0.00     0.00   0.00   0.00    -0.00   0.00  -0.00
     2   6    -0.00   0.00  -0.00    -0.00  -0.00   0.00     0.00  -0.01   0.00
     3   6     0.01  -0.01  -0.01    -0.00   0.00   0.00    -0.00   0.01   0.00
     4   6    -0.00  -0.00   0.00    -0.00  -0.00  -0.00     0.02   0.05  -0.04
     5   6    -0.01   0.01  -0.00     0.00   0.00   0.00     0.00   0.01  -0.00
     6   6     0.05  -0.00  -0.01     0.00  -0.00  -0.00    -0.00  -0.01   0.01
     7   8    -0.03   0.01   0.00    -0.00  -0.01  -0.01    -0.00  -0.00   0.00
     8   6    -0.10   0.01   0.02    -0.01  -0.03  -0.05    -0.01   0.00  -0.00
     9   6     0.00  -0.00  -0.00    -0.00  -0.00   0.00    -0.03   0.03   0.03
    10   6     0.00   0.01  -0.00    -0.00   0.00   0.00    -0.00   0.01  -0.00
    11   1    -0.07   0.08  -0.01     0.00  -0.00   0.00     0.03  -0.06   0.01
    12   1    -0.02   0.03   0.11     0.00  -0.00  -0.00     0.01  -0.00  -0.06
    13   1     0.01  -0.00  -0.01     0.00  -0.00   0.00    -0.05  -0.14   0.51
    14   1     0.00   0.01   0.00    -0.00   0.00  -0.00    -0.19  -0.50  -0.04
    15   1     0.04  -0.01  -0.00    -0.01  -0.01   0.00     0.00  -0.03  -0.00
    16   1    -0.18  -0.16   0.00     0.00   0.00  -0.01     0.01   0.07   0.00
    17   1    -0.13  -0.02   0.19    -0.01  -0.00  -0.00    -0.01   0.02  -0.07
    18   1     0.48   0.23  -0.30     0.15   0.43   0.57     0.03   0.01  -0.03
    19   1     0.43  -0.20  -0.01     0.39  -0.25   0.17     0.02  -0.02   0.02
    20   1     0.46  -0.16   0.06    -0.35   0.32  -0.07     0.02  -0.04   0.00
    21   1     0.00  -0.00   0.00     0.00  -0.00  -0.01     0.09  -0.07  -0.43
    22   1     0.00   0.01  -0.00     0.01  -0.01   0.00     0.29  -0.32   0.02
    23   1    -0.02  -0.06  -0.01     0.00   0.00   0.00     0.00  -0.04  -0.01
    24   1     0.01  -0.02   0.05     0.00   0.00  -0.00     0.00  -0.00   0.03
                     49                     50                     51
                      A                      A                      A
 Frequencies --   1531.2188              1535.4988              1555.4474
 Red. masses --      1.0701                 1.0807                 1.0888
 Frc consts  --      1.4783                 1.5013                 1.5521
 IR Inten    --      8.5891                 5.8347                 0.5854
  Atom  AN      X      Y      Z        X      Y      Z        X      Y      Z
     1   8    -0.00  -0.00  -0.00    -0.00  -0.00  -0.00     0.00  -0.00   0.00
     2   6     0.00   0.00   0.00     0.00   0.00   0.00    -0.00   0.00  -0.00
     3   6    -0.00   0.00   0.00    -0.00   0.01   0.00     0.00  -0.00  -0.00
     4   6     0.00   0.02  -0.01     0.01   0.04  -0.03    -0.00  -0.01   0.01
     5   6     0.01  -0.00  -0.00     0.01   0.01  -0.00    -0.01  -0.00   0.00
     6   6    -0.02  -0.03   0.03     0.01   0.01  -0.01     0.01  -0.05   0.04
     7   8     0.00   0.01  -0.00    -0.00  -0.01   0.00    -0.00  -0.01   0.01
     8   6    -0.00   0.03  -0.02    -0.01  -0.02   0.02    -0.04  -0.02   0.02
     9   6     0.02  -0.02  -0.02     0.02  -0.04  -0.03     0.00   0.01   0.00
    10   6     0.00  -0.01   0.00     0.00  -0.01   0.00    -0.00   0.00  -0.00
    11   1     0.01  -0.02   0.00     0.02  -0.04   0.00    -0.00   0.01  -0.00
    12   1     0.01  -0.00  -0.03     0.01  -0.00  -0.04    -0.00  -0.00   0.01
    13   1    -0.01  -0.05   0.17    -0.02  -0.11   0.38     0.00   0.03  -0.09
    14   1    -0.05  -0.17  -0.02    -0.11  -0.38  -0.04     0.03   0.09   0.01
    15   1     0.00   0.02  -0.00    -0.03  -0.01  -0.00     0.05   0.02  -0.00
    16   1     0.11   0.30   0.01    -0.07  -0.11  -0.00     0.05   0.58   0.01
    17   1     0.04   0.07  -0.31    -0.05  -0.02   0.12    -0.06   0.18  -0.56
    18   1     0.18   0.10  -0.11    -0.09  -0.05   0.06     0.01   0.00  -0.01
    19   1    -0.03  -0.13   0.47     0.06   0.07  -0.33     0.17   0.02  -0.34
    20   1    -0.14  -0.47   0.02     0.13   0.31  -0.01     0.26   0.27   0.01
    21   1    -0.05   0.06   0.30    -0.07   0.09   0.43     0.01  -0.00  -0.03
    22   1    -0.20   0.23  -0.01    -0.26   0.35  -0.02    -0.00  -0.04   0.00
    23   1     0.00   0.03   0.00    -0.00   0.05   0.01     0.00  -0.01  -0.00
    24   1     0.00   0.00  -0.03     0.01   0.01  -0.05    -0.00  -0.00   0.01
                     52                     53                     54
                      A                      A                      A
 Frequencies --   1818.7259              2956.7734              2984.4051
 Red. masses --     11.0087                 1.0543                 1.1007
 Frc consts  --     21.4546                 5.4307                 5.7759
 IR Inten    --    195.9257                34.7274                47.2509
  Atom  AN      X      Y      Z        X      Y      Z        X      Y      Z
     1   8    -0.44  -0.08  -0.20     0.00  -0.00   0.00     0.00   0.00   0.00
     2   6     0.68   0.11   0.31    -0.00   0.00  -0.00     0.00  -0.00  -0.00
     3   6    -0.04  -0.02  -0.02     0.00  -0.00   0.00     0.00  -0.00  -0.00
     4   6    -0.01  -0.01  -0.00    -0.00  -0.00   0.00     0.00   0.00   0.00
     5   6     0.00   0.00  -0.00    -0.00   0.00   0.00     0.00  -0.00   0.02
     6   6    -0.00   0.00   0.00     0.02   0.04  -0.05    -0.02  -0.06  -0.07
     7   8     0.00  -0.00  -0.00    -0.00   0.00  -0.00     0.00  -0.00  -0.00
     8   6    -0.00  -0.00   0.00    -0.00  -0.01   0.01     0.01   0.01  -0.01
     9   6    -0.01   0.00  -0.00    -0.00  -0.00   0.00    -0.00   0.00   0.00
    10   6    -0.05   0.00  -0.02     0.00   0.00  -0.00     0.00   0.00  -0.00
    11   1    -0.08  -0.08  -0.00    -0.00   0.00   0.00     0.00   0.00   0.02
    12   1     0.16   0.20   0.08     0.00  -0.00  -0.00    -0.00   0.00  -0.00
    13   1     0.02  -0.02  -0.03     0.01   0.02   0.01    -0.01  -0.03  -0.01
    14   1     0.05   0.02  -0.00     0.00  -0.00  -0.04     0.00  -0.00   0.00
    15   1    -0.00  -0.00  -0.00    -0.00  -0.00  -0.04    -0.01   0.00  -0.25
    16   1     0.00  -0.00   0.00    -0.01   0.04   0.79    -0.02   0.00   0.57
    17   1     0.00  -0.00  -0.00    -0.17  -0.51  -0.19     0.23   0.67   0.22
    18   1     0.00   0.00  -0.00     0.02  -0.04   0.02    -0.03   0.04  -0.02
    19   1     0.00  -0.00  -0.00     0.05   0.13   0.05    -0.04  -0.12  -0.04
    20   1     0.00   0.00   0.00    -0.00  -0.01  -0.14    -0.01   0.01   0.16
    21   1     0.01   0.02  -0.03     0.00  -0.00   0.00     0.01  -0.00   0.00
    22   1     0.05  -0.00  -0.00     0.00   0.00  -0.03     0.00   0.00  -0.00
    23   1    -0.10   0.05   0.00    -0.00  -0.00   0.01     0.00  -0.00   0.01
    24   1     0.22  -0.13   0.08     0.00  -0.00  -0.00    -0.00  -0.00  -0.00
                     55                     56                     57
                      A                      A                      A
 Frequencies --   2989.4753              3013.8817              3017.3198
 Red. masses --      1.0402                 1.0819                 1.0704
 Frc consts  --      5.4771                 5.7903                 5.7416
 IR Inten    --     85.7279                10.5772                 5.2871
  Atom  AN      X      Y      Z        X      Y      Z        X      Y      Z
     1   8     0.00  -0.00   0.00    -0.00   0.00  -0.00     0.00   0.00   0.00
     2   6    -0.00   0.00  -0.00     0.00  -0.00   0.00     0.00  -0.00  -0.00
     3   6     0.00  -0.00   0.00    -0.00   0.00   0.00    -0.01   0.01   0.04
     4   6    -0.00  -0.00   0.00     0.00  -0.00   0.02     0.00   0.00  -0.02
     5   6    -0.00  -0.00  -0.00    -0.00   0.00  -0.07     0.00  -0.00   0.01
     6   6     0.01   0.02   0.00    -0.00  -0.01  -0.02     0.00   0.00   0.00
     7   8     0.00   0.00  -0.00     0.00  -0.00   0.00    -0.00  -0.00   0.00
     8   6     0.03   0.03  -0.03    -0.00  -0.00  -0.00    -0.00  -0.00  -0.00
[...]
 1,0.00005602,-0.00006463,-0.00011322,0.00128865,-0.00084478,-0.0001435
 5,0.00928346,0.00119725,-0.02236187,-0.08608592,-0.01012652,0.07897209
 ,-0.01682570,0.01384682,0.01865203,0.00322262,-0.00080622,0.00584245,0
 .00164432,0.00077311,-0.00048893,0.00006498,0.00007262,-0.00012473,-0.
 00008524,-0.00000757,0.00011375,-0.00003614,0.00000379,0.00007491,-0.0
 0010633,0.00016758,-0.00002708,-0.00007965,0.00008237,0.00028915,-0.00
 318024,-0.00006297,-0.00385238,0.09693019,0.00008986,-0.00002524,-0.00
 000546,-0.00010199,0.00006659,0.00000920,0.00000282,-0.00002119,0.0000
 0844,-0.00049417,0.00021750,0.00043278,-0.00082169,0.00070859,-0.00099
 043,-0.01067917,-0.05498477,0.02035563,0.02476491,-0.00840760,-0.02999
 202,-0.00316219,0.00093562,-0.00476598,0.00062723,0.00008663,-0.001141
 73,-0.00000737,-0.00003738,0.00002677,0.00003466,-0.00003060,-0.000048
 83,0.00000457,-0.00000895,0.00001273,-0.00004677,0.00009626,0.00007006
 ,0.00036019,0.00010901,-0.00000945,0.00071943,0.00057746,-0.00019951,0
 .00028597,0.06069532,-0.00014132,-0.00003023,0.00003068,0.00022067,0.0
 0007099,-0.00004705,-0.00047958,0.00012351,0.00038940,0.00122504,-0.00
 083481,-0.00034227,0.00877200,0.00217143,-0.02246481,0.07975637,0.0177
 1159,-0.24769850,0.00742103,-0.00953373,-0.00260223,-0.00302867,0.0003
 3612,0.00153777,0.00175774,0.00090338,0.00054585,-0.00032142,-0.000013
 47,0.00040077,0.00019806,-0.00003551,0.00029446,-0.00015095,0.00001219
 ,-0.00005092,-0.00009562,-0.00004342,0.00003650,-0.00094883,0.00064950
 ,0.00064117,-0.00367011,-0.00020660,-0.00234784,-0.09303577,-0.0114542
 1,0.27218391,-0.00018857,0.00045471,-0.00000672,0.00041663,-0.00111243
 ,0.00014117,0.00023847,0.00060732,0.00002122,0.00029102,-0.00175524,0.
 00039130,-0.01334656,-0.01936039,0.00386703,-0.12823686,-0.11062283,0.
 01289863,0.00919740,0.02707381,-0.00337025,0.00482687,0.00300843,0.001
 93028,-0.00261596,0.00173431,-0.00456104,-0.00055209,-0.00137772,0.000
 40833,-0.00001233,-0.00003486,0.00000703,-0.00002955,0.00004356,-0.000
 02274,-0.00008955,0.00114791,-0.00034965,-0.00005718,0.00004653,0.0000
 0519,0.00119140,0.00051377,-0.00013801,-0.00579572,-0.01118820,0.00114
 499,0.13495853,-0.00002905,0.00016871,-0.00000357,0.00019737,-0.000369
 28,0.00005970,-0.00002346,0.00043426,-0.00021798,0.00057690,0.00038074
 ,0.00035371,-0.00157399,-0.00014908,0.00035599,-0.10889165,-0.20458202
 ,0.01851147,0.00279272,-0.04070955,-0.00075757,-0.00556095,0.00069357,
 -0.00423702,0.00068901,0.00072794,-0.00023225,0.00008091,0.00015097,0.
 00010784,-0.00002534,-0.00002078,-0.00000703,-0.00002417,0.00002029,-0
 .00001847,-0.00010891,0.00070760,0.00003342,0.00003819,0.00000750,-0.0
 0008587,0.00010732,0.00009833,-0.00025486,-0.00413407,-0.00025546,0.00
 138327,0.11277176,0.24119377,-0.00008952,0.00021150,0.00001138,0.00017
 104,-0.00050855,0.00003195,0.00026396,-0.00000513,-0.00008372,0.000535
 80,-0.00084005,0.00054559,-0.01506267,-0.01951942,0.00206189,0.0141637
 5,0.01928682,-0.05796279,-0.00413970,-0.00849966,0.00390237,0.00072613
 ,0.00131335,0.00007071,-0.00230573,0.00148088,-0.00320657,-0.00081093,
 -0.00109193,0.00061345,-0.00002367,-0.00000914,-0.00002533,0.00005608,
 0.00003683,0.00003453,0.00004603,0.00047736,0.00015181,-0.00005523,0.0
 0020468,-0.00001085,0.00084741,-0.00025528,0.00104966,0.01801432,0.025
 09913,-0.00273855,-0.01233777,-0.01711876,0.05535320,-0.00012915,-0.00
 005836,0.00001316,0.00016115,0.00013257,-0.00001846,-0.00010999,0.0001
 5688,0.00009426,-0.00033607,-0.00028013,-0.00050816,-0.00031992,0.0015
 8455,0.00062516,-0.00202104,-0.00220774,-0.00410543,-0.02308615,0.0248
 2222,0.00007504,-0.12015108,0.10837676,0.03488508,0.00008662,0.0001905
 8,0.00001364,-0.00000923,-0.00008000,0.00003325,0.00001374,-0.00001057
 ,-0.00000855,-0.00008384,-0.00000167,-0.00006895,0.00002407,-0.0000165
 4,-0.00000255,0.00001187,-0.00001250,0.00001932,0.00001278,-0.00001023
 ,-0.00008590,0.00011804,-0.00016507,0.00007445,0.00010911,0.00059990,-
 0.00010356,0.13848430,0.00010148,0.00000628,-0.00000895,-0.00011200,-0
 .00001296,0.00002303,0.00002405,-0.00002916,-0.00004022,0.00003111,0.0
 0008590,0.00009840,0.00000559,0.00004028,-0.00047638,-0.00047679,0.001
 92050,0.00105799,0.00300430,0.00052966,0.00314460,0.11542721,-0.233393
 00,-0.05419564,0.00006204,-0.00006822,0.00014205,0.00004186,0.00004458
 ,-0.00004492,-0.00000589,0.00000672,0.00000670,0.00002963,-0.00000359,
 0.00002062,-0.00000448,0.00000465,-0.00001126,-0.00000163,-0.00000385,
 -0.00000505,0.00000069,0.00000822,0.00004539,0.00004850,-0.00005421,-0
 .00017066,-0.00013677,0.00044817,-0.00013677,-0.12822100,0.24581348,-0
 .00004498,-0.00003085,0.00000801,0.00006353,0.00007502,-0.00000716,-0.
 00008210,0.00012025,0.00005745,-0.00027587,-0.00016882,-0.00040346,-0.
 00085851,0.00110430,0.00080607,-0.00261360,-0.00059326,-0.00291605,-0.
 02022553,0.02451565,0.00324117,0.04139206,-0.06106696,-0.06921712,0.00
 007249,0.00010537,-0.00000953,-0.00001553,-0.00004450,0.00001196,0.000
 00801,-0.00000268,-0.00000659,-0.00004933,-0.00000153,-0.00004921,0.00
 001971,-0.00001136,-0.00000130,0.00000103,-0.00001931,0.00001068,0.000
 14637,-0.00000647,0.00003756,-0.00055734,0.00015601,0.00047350,0.00008
 820,0.00003491,-0.00005734,-0.03069005,0.05751814,0.07170034,-0.000134
 94,0.00006314,0.00001983,0.00010522,-0.00014651,-0.00006265,-0.0000105
 1,0.00008884,0.00004741,-0.00010417,-0.00008924,-0.00014894,0.00007175
 ,0.00050978,0.00003608,0.00321938,-0.00720546,-0.00013518,-0.02851364,
 -0.01650951,-0.01335374,-0.12795280,-0.10834707,0.01280950,0.00014986,
 -0.00017045,0.00002140,-0.00002332,0.00020740,0.00005300,0.00000297,-0
 .00001077,-0.00000786,-0.00003344,0.00001001,-0.00002472,-0.00000126,0
 .00007285,-0.00001499,-0.00000359,-0.00000567,-0.00000065,0.00004042,-
 0.00004914,0.00005150,-0.00049319,0.00044015,0.00036379,0.00040490,0.0
 0197056,0.00010847,0.01259583,0.01347772,-0.00107689,0.14638994,-0.000
 10382,0.00002832,0.00000775,0.00010146,-0.00006383,-0.00003143,-0.0000
 2584,0.00004314,0.00004299,-0.00007703,-0.00009828,-0.00009377,0.00000
 184,0.00043915,0.00013209,0.00276884,0.00267417,-0.00024438,-0.0015159
 9,0.00721206,-0.00596584,-0.11059329,-0.21806166,0.01530225,0.00020963
 ,-0.00012469,0.00007931,0.00002537,0.00007065,0.00000883,0.00000487,-0
 .00000970,-0.00000880,-0.00003240,0.00000901,-0.00002161,0.00001227,-0
 .00000105,0.00000094,0.00000009,-0.00000246,0.00000119,0.00000874,-0.0
 0002429,-0.00001089,-0.00021983,-0.00019375,0.00030099,-0.00208522,0.0
 0088976,-0.00016821,-0.01518312,-0.01986325,0.00338105,0.12750702,0.22
 900613,-0.00011531,0.00001847,0.00002143,0.00009389,-0.00004536,-0.000
 05430,-0.00001489,0.00002706,0.00003474,0.00000505,-0.00004318,-0.0000
 9767,0.00006497,-0.00002940,0.00011991,0.00237097,-0.00399978,-0.00007
 132,-0.02697625,-0.02026808,-0.00354361,0.01327871,0.01761480,-0.05470
 948,0.00004202,-0.00007378,-0.00017991,-0.00005663,0.00008621,0.000071
 09,0.00000224,-0.00000661,-0.00000772,-0.00002382,0.00000644,-0.000017
 70,-0.00000526,0.00001406,0.00001210,0.00000265,0.00000098,0.00000365,
 0.00000148,-0.00004399,-0.00000945,-0.00023546,0.00073603,-0.00009173,
 0.00066361,0.00116389,0.00020949,-0.00449654,-0.00754778,0.00138015,-0
 .00222041,-0.01312269,0.05728415,-0.00002975,0.00000074,0.00000144,0.0
 0003140,-0.00000243,-0.00001002,-0.00000748,0.00000478,0.00002632,-0.0
 0007100,-0.00007853,0.00008594,-0.00003493,-0.00000309,-0.00024455,0.0
 0469533,-0.00336163,-0.00388581,0.00482343,0.00617120,-0.03516547,-0.0
 9418408,-0.00840782,0.09296833,0.00004743,0.00002227,0.00002315,-0.000
 00794,0.00000412,0.00001626,0.00000679,-0.00000671,-0.00000445,-0.0000
 0882,0.00000115,-0.00000823,0.00000604,-0.00000160,-0.00000048,-0.0000
 3457,0.00004581,0.00000896,-0.00011488,0.00003413,0.00016120,0.0003046
 5,-0.00066443,0.00197737,-0.00065008,0.00034655,0.00036552,-0.00532957
 ,-0.00330374,0.01472423,-0.00581346,-0.00083666,0.01757897,0.09633841,
 -0.00002000,-0.00001462,-0.00000101,0.00002858,0.00003282,0.00000425,0
 .00000289,-0.00000008,-0.00001063,-0.00000244,-0.00003170,0.00002218,0
 .00020964,-0.00001799,-0.00003001,-0.00187420,0.00084287,0.00249811,0.
 00268000,0.00250829,0.00119457,-0.00902676,-0.05751500,0.02007768,-0.0
 0001434,0.00003870,-0.00001361,-0.00000281,-0.00003469,0.00000519,-0.0
 0000562,-0.00000308,-0.00000769,-0.00000779,0.00000012,-0.00000158,0.0
 0000006,0.00000220,0.00000246,0.00003411,-0.00000840,-0.00001774,-0.00
 000225,-0.00006202,-0.00010853,-0.00008537,0.00033394,-0.00059317,-0.0
 0016603,-0.00009732,0.00003404,0.01042964,0.00455291,-0.02500178,-0.01
 215200,-0.00199112,0.02526736,0.00998223,0.05146265,-0.00018043,-0.000
 00786,0.00002835,0.00018536,0.00001566,-0.00004695,-0.00004599,0.00004
 760,0.00005752,-0.00017328,-0.00015138,-0.00012377,-0.00035448,0.00023
 515,0.00068067,0.00425398,-0.00499749,0.00017505,-0.01096914,0.0041748
 5,-0.03243553,0.08972148,0.02056195,-0.24912783,0.00016287,0.00002230,
 -0.00014875,-0.00005933,0.00001067,0.00006961,0.00001241,-0.00001312,-
 0.00000115,-0.00005004,0.00000818,-0.00004080,0.00001521,-0.00002367,-
 0.00000696,-0.00005277,0.00003863,0.00001169,0.00027781,-0.00010191,0.
 00037766,-0.00171784,0.00153991,0.00092140,-0.00013193,0.00078843,-0.0
 0000872,0.00427986,0.00057807,-0.00505739,0.00342856,0.00037382,-0.000
 43869,-0.08861355,-0.02328751,0.28507423,-0.00160587,0.00163361,0.0007
 4599,-0.00097331,-0.00434648,-0.00373373,-0.00009845,0.00015498,0.0005
 3847,-0.00262738,-0.00275644,0.00003425,0.01277283,-0.01648066,-0.0020
 3416,0.00115462,0.00017076,-0.00025387,-0.00162521,-0.00081931,-0.0004
 2562,-0.00037779,0.00030221,-0.00023478,-0.13661594,0.12727280,0.01645
 114,-0.01433313,0.01965869,-0.00046922,-0.00001403,-0.00004958,0.00001
 963,0.00006215,0.00008232,0.00010572,0.00067427,-0.00128352,-0.0000240
 6,-0.00002959,-0.00001382,-0.00014984,0.00079932,0.00072888,0.00003489
 ,-0.00013542,0.00012391,-0.00000838,0.00007899,0.00017642,0.00025543,0
 .00000725,-0.00002719,-0.00000660,0.00012187,0.00002963,0.00010178,0.0
 0006744,0.00000476,0.00014746,0.14872721,-0.00011089,0.00021036,0.0002
 2613,-0.00064544,0.00033937,-0.00058893,-0.00037091,0.00071240,-0.0001
 7071,-0.00523118,-0.00353408,0.00083242,0.01551012,-0.02269784,-0.0037
 0980,0.00203437,-0.00143565,0.00025763,0.00055938,0.00130793,0.0006001
 2,-0.00054882,0.00073607,-0.00040862,0.12419215,-0.22519444,-0.0194475
 9,-0.00148950,0.00300719,0.00006115,0.00001299,-0.00002500,0.00004505,
 0.00010984,0.00005807,0.00005492,0.00107386,-0.00164266,-0.00008786,-0
 .00007058,0.00027664,-0.00008412,0.00016906,0.00103468,0.00036928,-0.0
 0022292,0.00007545,-0.00001838,-0.00004604,0.00018158,0.00008347,-0.00
 003789,-0.00002963,-0.00005113,0.00032125,0.00005191,0.00022005,0.0000
 5373,-0.00002165,0.00015418,-0.13457222,0.24440102,-0.00229836,0.00182
 388,0.00093722,-0.00183243,-0.00365634,-0.00386098,0.00024672,-0.00008
 196,0.00032021,0.00024982,0.00030448,0.00021326,-0.00137659,0.00353421
 ,-0.00042825,0.00060209,-0.00115208,0.00001865,-0.00025485,0.00036646,
 -0.00020713,-0.00023750,0.00012209,-0.00023423,0.01606950,-0.01994694,
 -0.05275497,-0.01561448,0.02206946,-0.00044275,-0.00001592,-0.00000911
 ,0.00001967,0.00003126,0.00008351,0.00005517,-0.00003609,0.00005290,0.
 00056196,-0.00024721,0.00037184,0.00032537,-0.00060149,0.00004671,0.00
 025015,-0.00004567,0.00001471,0.00001344,-0.00005485,0.00017614,0.0000
 2489,-0.00000251,-0.00002177,0.00001348,0.00011706,0.00006604,0.000065
 15,-0.00000903,-0.00003498,-0.00002194,-0.01371137,0.02130869,0.055714
 50,-0.00016178,-0.00025187,0.00032583,0.00176408,-0.00075953,-0.000513
 44,0.00000150,0.00003686,-0.00021860,0.00031543,0.00125158,-0.00035669
 ,-0.01042535,-0.00125291,0.01830797,0.00044283,0.00045854,0.00244082,0
 .00002705,0.00010942,-0.00068806,-0.00006642,-0.00010512,0.00014598,-0
 .09401338,-0.00000030,0.09614685,0.00943054,0.00068988,-0.02414927,-0.
 00011281,0.00000199,-0.00000125,0.00006924,0.00004220,0.00004588,-0.00
 000352,0.00006323,-0.00025117,0.00063151,-0.00034607,-0.00034349,-0.00
 161491,-0.00388333,-0.00010006,-0.00007402,-0.00011057,-0.00113743,0.0
 0029481,0.00004988,-0.00039971,-0.00000397,0.00000419,-0.00000805,-0.0
 0001409,0.00001030,-0.00004689,-0.00003121,-0.00000098,-0.00011295,-0.
 00776414,-0.00104877,0.01752494,0.10345795,-0.00020782,0.00017448,-0.0
 0012950,-0.00020694,-0.00036268,0.00075747,0.00021139,-0.00012505,-0.0
 0018010,-0.00066329,0.00174644,0.00132356,-0.01330256,-0.00254190,0.02
 613501,0.00081864,0.00101684,0.00117360,0.00018568,-0.00009539,0.00001
 677,-0.00007311,0.00008376,-0.00009397,0.00044368,-0.05205088,0.004107
 85,0.00013256,-0.00008327,-0.00064219,-0.00006140,0.00009754,-0.000155
 68,0.00006440,-0.00000383,0.00003492,0.00008746,0.00033539,-0.00036894
 ,0.00035484,-0.00034937,-0.00063858,-0.00335046,-0.00443653,0.00053962
 ,0.00006151,0.00016490,-0.00075038,0.00039704,0.00007919,-0.00011292,-
 0.00001184,0.00000049,-0.00001064,0.00001701,0.00001189,0.00002960,-0.
 00000261,0.00002387,0.00003939,0.01071550,0.00164323,-0.02543790,0.004
 65269,0.05352191,-0.00132159,0.00042450,0.00037482,0.00213511,-0.00170
 042,-0.00057016,-0.00010298,0.00040050,-0.00030943,-0.00012844,-0.0005
 8405,-0.00003833,0.00209989,0.00057528,-0.00356553,-0.00063724,-0.0003
 0442,0.00051724,0.00021771,0.00004242,0.00017628,-0.00001187,0.0000721
 3,-0.00013945,0.09581431,0.00402277,-0.25285447,0.00728324,0.00106349,
 -0.02102282,0.00001668,-0.00004840,0.00015466,0.00001471,0.00011964,-0
 .00001248,-0.00018090,0.00010030,0.00035487,-0.00033216,0.00067760,0.0
 0038604,0.00001407,0.00056487,0.00102878,0.00048021,0.00008878,0.00062
 876,-0.00003705,0.00002091,0.00034121,0.00000776,-0.00000656,0.0000008
 9,0.00000636,-0.00001551,0.00003739,0.00000607,0.00000425,0.00006951,0
 .00152173,-0.00045269,-0.00262025,-0.10303861,-0.00506130,0.27852513,-
 0.00119443,0.00374986,-0.00332971,-0.01125920,-0.00019333,0.01797646,0
 .00032920,-0.00017348,-0.00115903,-0.00011396,-0.00030716,-0.00004195,
 0.00158561,0.00048735,-0.00026320,0.00004660,0.00027347,-0.00030359,0.
 00002724,0.00001746,0.00011818,-0.00003465,0.00002418,-0.00006041,0.00
 953463,-0.00298264,-0.02521353,-0.09008083,0.00794046,0.10299636,0.000
 56152,0.00039110,-0.00025811,-0.00009028,-0.00008403,-0.00032466,-0.00
 001351,-0.00000451,-0.00001574,-0.00011244,0.00006108,0.00001724,-0.00
 020326,-0.00004177,0.00041274,-0.00007542,-0.00003362,0.00020247,0.000
 02167,-0.00000095,0.00013912,0.00000331,-0.00000720,0.00000014,0.00000
 976,-0.00000071,0.00001465,0.00000635,0.00000164,0.00002497,0.00155357
 ,0.00004827,0.00091480,-0.00336286,-0.00050089,-0.00385708,0.10091051,
 0.00250446,-0.00266118,0.00356927,0.01218605,0.00129069,-0.02893415,-0
 .00138169,-0.00043565,0.00341758,0.00041416,0.00024280,0.00014920,0.00
 052223,0.00006121,-0.00099110,-0.00018266,0.00009693,0.00000928,0.0000
 8601,-0.00008446,0.00001936,-0.00005639,0.00000639,-0.00004373,-0.0008
 5105,0.00044296,0.00105296,0.00925426,-0.05386520,-0.02546711,-0.00039
 126,-0.00161230,-0.00003537,0.00008575,0.00041712,0.00041699,0.0000508
 3,-0.00001616,0.00000945,-0.00000695,0.00009146,0.00005058,-0.00022118
 ,0.00005461,0.00007071,-0.00000438,-0.00004411,0.00003864,0.00002788,-
 0.00000139,0.00000780,0.00001725,-0.00000960,0.00000552,0.00000586,0.0
 0000333,0.00000306,0.00000416,0.00000136,0.00000748,-0.00048876,0.0001
 9016,0.00041492,0.00045250,0.00100487,0.00037181,-0.01171076,0.0511026
 5,-0.00071683,-0.00063120,-0.00077431,0.00098401,-0.00004352,0.0006743
 2,0.00058729,0.00013330,-0.00067700,-0.00036898,-0.00006410,-0.0001015
 6,0.00151365,0.00060348,0.00049051,-0.00018110,0.00011086,0.00011635,-
 0.00012895,-0.00000839,0.00006444,0.00005024,-0.00000535,-0.00000579,0
 .00856669,-0.00196346,-0.02466131,0.09860343,-0.01971865,-0.24579911,-
 0.00026443,0.00002511,0.00051534,-0.00002688,-0.00017713,0.00022814,0.
 00000700,-0.00004951,0.00001619,0.00000176,0.00016056,0.00014505,-0.00
 077010,-0.00072448,0.00054378,0.00014586,0.00004341,0.00029627,-0.0001
 0623,-0.00002640,0.00005628,-0.00000575,0.00000656,-0.00000529,-0.0000
 1527,-0.00001396,0.00000101,0.00000162,0.00000431,0.00002352,0.0004833
 7,0.00041007,0.00134687,-0.00447725,-0.00022920,-0.00228881,-0.1054110
 1,0.02210892,0.27310357,0.00182669,-0.00135673,0.00013783,0.01161720,0
 .01592939,-0.00305417,-0.00214128,0.00276341,0.00044241,-0.00027211,0.
 00025909,-0.00006848,-0.00231185,0.00190774,-0.00434234,-0.00007356,-0
 .00171895,0.00047507,-0.00017117,0.00020873,-0.00008923,0.00018098,-0.
 00002976,0.00020158,-0.01304802,-0.01737806,0.00438534,-0.15218199,-0.
 13116269,0.02273458,-0.00008714,-0.00008789,-0.00003022,0.00059478,0.0
 0092215,0.00009058,0.00006286,-0.00012478,0.00003092,0.00006566,-0.000
 06356,0.00001233,0.00029149,0.00039829,0.00001568,-0.00001911,0.000021
 53,-0.00009590,-0.00045535,-0.00002497,-0.00036456,-0.00004806,0.00003
 831,-0.00001139,-0.00001349,-0.00000614,-0.00002954,-0.00000949,-0.000
 01297,-0.00004824,0.00018075,0.00031013,0.00058215,0.00121353,0.000238
 54,0.00003007,-0.00804913,-0.01031635,0.00152788,0.16284780,0.00006534
 ,0.00598983,-0.00085486,-0.02205515,-0.02661570,0.00479742,0.00495930,
 -0.00323136,-0.00077157,0.00044881,0.00026035,0.00040539,0.00062692,0.
 00096261,0.00020024,0.00022483,0.00013502,0.00022944,-0.00012876,0.000
 06015,-0.00007415,0.00003577,0.00000633,0.00005526,0.00140079,0.002197
 01,-0.00114977,-0.12665378,-0.20949273,0.02863844,0.00007947,0.0004141
 9,0.00017507,-0.00089998,-0.00150641,-0.00007415,-0.00011901,0.0000470
 6,-0.00009345,-0.00003981,-0.00000975,-0.00011180,-0.00002255,-0.00005
 161,0.00005532,-0.00001127,-0.00000402,-0.00001705,0.00005872,0.000002
 51,0.00002996,-0.00001370,0.00000563,-0.00000693,-0.00000577,-0.000005
 47,-0.00000735,-0.00000161,-0.00000205,-0.00001333,-0.00021647,0.00035
 490,-0.00041497,-0.00006383,0.00014411,-0.00037591,0.00304620,0.003723
 54,0.00004876,0.13928554,0.22661586,-0.00076819,0.00024938,-0.00115687
 ,0.00067995,-0.00264120,-0.00066535,-0.00004683,0.00025095,0.00122142,
 -0.00011367,0.00053948,-0.00008282,-0.00274431,0.00148218,-0.00371407,
 -0.00054993,-0.00142017,0.00066888,-0.00005219,0.00011196,-0.00006212,
 0.00008293,-0.00001203,0.00012599,-0.01446905,-0.02006378,0.00357431,0
 .02231839,0.02893040,-0.05506999,-0.00032342,-0.00041992,0.00022806,0.
 00009058,0.00007541,0.00037770,0.00010344,-0.00006477,0.00005263,0.000
 04215,-0.00003910,-0.00001888,-0.00027011,-0.00010911,0.00027920,0.000
 09605,0.00001403,-0.00001001,-0.00045075,-0.00002987,-0.00036453,-0.00
 002456,0.00002439,-0.00001084,-0.00000167,-0.00000016,-0.00001866,-0.0
 0000379,-0.00000617,-0.00003074,0.00061177,0.00039667,0.00069052,0.000
 90466,-0.00034648,0.00082617,0.01742089,0.02374791,-0.00330846,-0.0225
 3234,-0.03067001,0.05646848\\0.00007053,-0.00003212,0.00002636,-0.0001
 4876,0.00000358,-0.00005972,0.00010608,0.00000587,0.00006409,-0.000053
 95,-0.00004906,-0.00003327,-0.00001805,0.00003910,-0.00000369,-0.00000
 738,-0.00001252,-0.00001961,-0.00003822,0.00002409,0.00006404,0.000031
 11,-0.00002184,-0.00003520,-0.00001919,0.00008429,-0.00001119,0.000009
 65,-0.00001696,-0.00001296,0.00000399,0.00001436,-0.00000762,0.0000169
 7,0.00002699,0.00000918,0.00000194,-0.00000506,0.00000225,-0.00001183,
 0.00001367,0.00001549,-0.00000713,-0.00000424,-0.00001306,0.00000295,0
 .00002425,-0.00000344,0.00002508,-0.00001968,0.00001196,0.00002938,-0.
 00000102,0.00002514,-0.00001666,-0.00002489,0.00000197,-0.00000288,0.0
 0001142,-0.00002919,0.00000736,-0.00001329,-0.00001753,-0.00000158,-0.
 00001087,0.00002325,0.00000581,-0.00002110,-0.00000179,0.00001476,-0.0
 0001494,0.00000452\\\@


 The hours that make us happy make us wise.
                         -- John Masefield
 Job cpu time:       0 days  0 hours  1 minutes 49.1 seconds.
 Elapsed time:       0 days  0 hours 35 minutes  0.0 seconds.
 File lengths (MBytes):  RWF=     97 Int=      0 D2E=      0 Chk=      5 Scr=      1
 Normal termination of Gaussian 16 at Wed Feb 21 23:31:35 2024.
