 Entering Gaussian System, Link 0=g16
 Input=/Volumes/SSD-PMU3/b3lyp_6-31gd_freq/RGHCXQPNVVXRSE-IWSPIJDZSA-N_calculating/gaussianinput0.gjf
 Output=/Volumes/SSD-PMU3/b3lyp_6-31gd_freq/RGHCXQPNVVXRSE-IWSPIJDZSA-N_calculating/gaussianinput0.log
 Initial command:
 /Applications/g16/l1.exe "/Users/macmini_m1_2022/PycharmProjects/sphere_model/sphere_model_lib/Gau-93619.inp" -scrdir="/Users/macmini_m1_2022/PycharmProjects/sphere_model/sphere_model_lib/"
 Entering Link 1 = /Applications/g16/l1.exe PID=     93620.
  
 Copyright (c) 1988,1990,1992,1993,1995,1998,2003,2009,2016,
            Gaussian, Inc.  All Rights Reserved.
  
 This is part of the Gaussian(R) 16 program.  It is based on
 the Gaussian(R) 09 system (copyright 2009, Gaussian, Inc.),
 the Gaussian(R) 03 system (copyright 2003, Gaussian, Inc.),
 the Gaussian(R) 98 system (copyright 1998, Gaussian, Inc.),
 the Gaussian(R) 94 system (copyright 1995, Gaussian, Inc.),
 the Gaussian 92(TM) system (copyright 1992, Gaussian, Inc.),
 the Gaussian 90(TM) system (copyright 1990, Gaussian, Inc.),
 the Gaussian 88(TM) system (copyright 1988, Gaussian, Inc.),
 the Gaussian 86(TM) system (copyright 1986, Carnegie Mellon
 University), and the Gaussian 82(TM) system (copyright 1983,
 Carnegie Mellon University). Gaussian is a federally registered
 trademark of Gaussian, Inc.
  
 This software contains proprietary and confidential information,
 including trade secrets, belonging to Gaussian, Inc.
  
 This software is provided under written license and may be
 used, copied, transmitted, or stored only in accord with that
 written license.
  
 The following legend is applicable only to US Government
 contracts under FAR:
  
                    RESTRICTED RIGHTS LEGEND
  
 Use, reproduction and disclosure by the US Government is
 subject to restrictions as set forth in subparagraphs (a)
 and (c) of the Commercial Computer Software - Restricted
 Rights clause in FAR 52.227-19.
  
 Gaussian, Inc.
 340 Quinnipiac St., Bldg. 40, Wallingford CT 06492
  
  
 ---------------------------------------------------------------
 Warning -- This program may not be used in any manner that
 competes with the business of Gaussian, Inc. or will provide
 assistance to any competitor of Gaussian, Inc.  The licensee
 of this program is prohibited from giving any competitor of
 Gaussian, Inc. access to this program.  By using this program,
 the user acknowledges that Gaussian, Inc. is engaged in the
 business of creating and licensing software in the field of
 computational chemistry and represents and warrants to the
 licensee that it is not a competitor of Gaussian, Inc. and that
 it will not use this program in any manner prohibited above.
 ---------------------------------------------------------------
  

 Cite this work as:
 Gaussian 16, Revision A.03,
 M. J. Frisch, G. W. Trucks, H. B. Schlegel, G. E. Scuseria, 
 M. A. Robb, J. R. Cheeseman, G. Scalmani, V. Barone, 
 G. A. Petersson, H. Nakatsuji, X. Li, M. Caricato, A. V. Marenich, 
 J. Bloino, B. G. Janesko, R. Gomperts, B. Mennucci, H. P. Hratchian, 
 J. V. Ortiz, A. F. Izmaylov, J. L. Sonnenberg, D. Williams-Young, 
 F. Ding, F. Lipparini, F. Egidi, J. Goings, B. Peng, A. Petrone, 
 T. Henderson, D. Ranasinghe, V. G. Zakrzewski, J. Gao, N. Rega, 
 G. Zheng, W. Liang, M. Hada, M. Ehara, K. Toyota, R. Fukuda, 
 J. Hasegawa, M. Ishida, T. Nakajima, Y. Honda, O. Kitao, H. Nakai, 
 T. Vreven, K. Throssell, J. A. Montgomery, Jr., J. E. Peralta, 
 F. Ogliaro, M. J. Bearpark, J. J. Heyd, E. N. Brothers, K. N. Kudin, 
 V. N. Staroverov, T. A. Keith, R. Kobayashi, J. Normand, 
 K. Raghavachari, A. P. Rendell, J. C. Burant, S. S. Iyengar, 
 J. Tomasi, M. Cossi, J. M. Millam, M. Klene, C. Adamo, R. Cammi, 
 J. W. Ochterski, R. L. Martin, K. Morokuma, O. Farkas, 
 J. B. Foresman, and D. J. Fox, Gaussian, Inc., Wallingford CT, 2016.
 
 ******************************************
 Gaussian 16:  EM64M-G16RevA.03 25-Dec-2016
                24-Feb-2024 
 ******************************************
 %nprocshared=10
 Will use up to   10 processors via shared memory.
 %mem=12GB
 %chk= 0.chk
 ---------------------
 # freq b3lyp/6-31g(d)
 ---------------------
 1/10=4,30=1,38=1/1,3;
 2/12=2,17=6,18=5,40=1/2;
 3/5=1,6=6,7=1,11=2,25=1,30=1,71=2,74=-5,140=1/1,2,3;
 4//1;
 5/5=2,38=5,98=1/2;
 8/6=4,10=90,11=11/1;
 11/6=1,8=1,9=11,15=111,16=1/1,2,10;
 10/6=1/2;
 6/7=2,8=2,9=2,10=2,28=1/1;
 7/8=1,10=1,25=1/1,2,3,16;
 1/10=4,30=1/3;
 99//99;
 ---------
 good luck
 ---------
 Symbolic Z-matrix:
 Charge =  0 Multiplicity = 1
 O                     1.21677   0.        0. 
 C                     0.        0.        0. 
 C                    -0.81152  -1.29028   0.00147 
 C                    -1.87412  -1.27408   1.11559 
 C                    -2.74616  -0.01294   1.06057 
 O                    -3.65993   0.02537   2.15622 
 C                    -1.89328   1.26085   1.13302 
 C                    -2.74234   2.54354   1.09376 
 C                    -1.87307   3.80767   1.15715 
 C                    -0.81399   3.82184   0.04514 
 C                     0.04164   2.54774   0.06687 
 C                    -0.82729   1.28465   0.00147 
 H                    -1.30863  -1.37861  -0.97661 
 H                    -0.12612  -2.13634   0.10256 
 H                    -1.38795  -1.30846   2.09908 
 H                    -2.50515  -2.17077   1.0416 
 H                    -3.30397  -0.00303   0.10564 
 H                    -4.21832  -0.76578   2.10341 
 H                    -1.36257   1.23274   2.09817 
 H                    -3.32931   2.55091   0.16181 
 H                    -3.46142   2.52388   1.91844 
 H                    -1.37177   3.8527    2.13516 
 H                    -2.50705   4.70095   1.09169 
 H                    -0.17068   4.70545   0.14197 
 H                    -1.31542   3.90784  -0.93068 
 H                     0.64161   2.51581   0.98609 
 H                     0.75855   2.54239  -0.76118 
 H                    -1.38185   1.28607  -0.95465 
 

 GradGradGradGradGradGradGradGradGradGradGradGradGradGradGradGradGradGrad
 Berny optimization.
 Initialization pass.
 Trust Radius=3.00D-01 FncErr=1.00D-07 GrdErr=1.00D-07 EigMax=2.50D+02 EigMin=1.00D-04
 Number of steps in this run=      2 maximum allowed number of steps=      2.
 GradGradGradGradGradGradGradGradGradGradGradGradGradGradGradGradGradGrad

                          Input orientation:                          
 ---------------------------------------------------------------------
 Center     Atomic      Atomic             Coordinates (Angstroms)
 Number     Number       Type             X           Y           Z
 ---------------------------------------------------------------------
      1          8           0        1.216766    0.000000    0.000000
      2          6           0        0.000000    0.000000    0.000000
      3          6           0       -0.811522   -1.290280    0.001470
      4          6           0       -1.874118   -1.274082    1.115588
      5          6           0       -2.746164   -0.012943    1.060568
      6          8           0       -3.659925    0.025367    2.156223
      7          6           0       -1.893276    1.260853    1.133020
      8          6           0       -2.742336    2.543543    1.093762
      9          6           0       -1.873073    3.807672    1.157145
     10          6           0       -0.813989    3.821839    0.045139
     11          6           0        0.041639    2.547739    0.066870
     12          6           0       -0.827294    1.284654    0.001470
     13          1           0       -1.308631   -1.378613   -0.976611
     14          1           0       -0.126121   -2.136344    0.102562
     15          1           0       -1.387948   -1.308464    2.099075
     16          1           0       -2.505154   -2.170769    1.041603
     17          1           0       -3.303973   -0.003028    0.105643
     18          1           0       -4.218323   -0.765784    2.103406
     19          1           0       -1.362565    1.232741    2.098172
     20          1           0       -3.329308    2.550905    0.161806
     21          1           0       -3.461418    2.523876    1.918438
     22          1           0       -1.371771    3.852704    2.135162
     23          1           0       -2.507053    4.700953    1.091690
     24          1           0       -0.170675    4.705453    0.141970
     25          1           0       -1.315417    3.907844   -0.930680
     26          1           0        0.641606    2.515813    0.986092
     27          1           0        0.758545    2.542385   -0.761183
     28          1           0       -1.381849    1.286068   -0.954652
 ---------------------------------------------------------------------
                    Distance matrix (angstroms):
                    1          2          3          4          5
     1  O    0.000000
     2  C    1.216766   0.000000
     3  C    2.403909   1.524268   0.000000
     4  C    3.524399   2.525894   1.539686   0.000000
     5  C    4.102412   2.943873   2.548748   1.534263   0.000000
     6  O    5.332172   4.247940   3.806217   2.441433   1.427195
     7  C    3.542012   2.541255   2.993138   2.535067   1.534674
     8  C    4.831192   3.896965   4.429373   3.915168   2.556704
     9  C    5.038299   4.398381   5.334003   5.081924   3.920295
    10  C    4.328101   3.907822   5.112306   5.313958   4.412477
    11  C    2.806487   2.548957   3.932245   4.401846   3.913614
    12  C    2.414233   1.527990   2.574982   2.980642   2.547059
    13  H    3.038416   2.137021   1.100710   2.169792   2.842825
    14  H    2.525437   2.142520   1.093535   2.196636   3.505885
    15  H    3.592037   2.836299   2.175441   1.097629   2.145139
    16  H    4.432817   3.474618   2.173828   1.098967   2.171326
    17  H    4.521974   3.305663   2.807166   2.163343   1.105953
    18  H    5.878004   4.775457   4.037267   2.594118   1.954874
    19  H    3.546114   2.789007   3.326476   2.740679   2.131360
    20  H    5.215370   4.197331   4.595613   4.202119   2.778695
    21  H    5.651173   4.693801   5.024391   4.193873   2.771819
    22  H    5.109087   4.613459   5.596142   5.251268   4.241101
    23  H    6.095701   5.438388   6.321256   6.008512   4.720059
    24  H    4.907793   4.710687   6.031520   6.293210   5.453460
    25  H    4.748617   4.227024   5.305027   5.599260   4.624357
    26  H    2.762698   2.777292   4.191349   4.550708   4.228137
    27  H    2.693156   2.760165   4.211421   5.001860   4.704409
    28  H    3.052561   2.115381   2.806601   3.329052   2.758604
                    6          7          8          9         10
     6  O    0.000000
     7  C    2.386298   0.000000
     8  C    2.883055   1.538745   0.000000
     9  C    4.300794   2.547013   1.535467   0.000000
    10  C    5.193190   2.984459   2.540113   1.535714   0.000000
    11  C    4.942604   2.556687   2.967329   2.538159   1.534895
    12  C    3.775257   1.554763   2.538757   2.965613   2.537596
    13  H    4.161057   3.429159   4.661037   5.636405   5.322908
    14  H    4.623666   3.965555   5.452376   6.284530   5.998033
    15  H    2.635195   2.791059   4.205113   5.224694   5.555906
    16  H    2.720090   3.486944   4.720563   6.012872   6.305896
    17  H    2.081439   2.154754   2.788698   4.204113   4.564350
    18  H    0.969803   3.233381   3.761591   5.226099   6.072251
    19  H    2.595955   1.101800   2.151932   2.788623   3.349524
    20  H    3.235019   2.160944   1.101423   2.165822   2.820588
    21  H    2.517637   2.161291   1.094329   2.179573   3.493256
    22  H    4.459215   2.827357   2.162606   1.099931   2.163393
    23  H    4.931881   3.494670   2.170203   1.097345   2.175908
    24  H    6.175377   3.976783   3.491877   2.175948   1.097271
    25  H    5.486284   3.405780   2.827681   2.163337   1.100477
    26  H    5.106339   2.832338   3.385768   2.832273   2.170220
    27  H    5.862552   3.501783   3.961943   3.493758   2.181747
    28  H    4.056666   2.149551   2.761914   3.325579   2.784274
                   11         12         13         14         15
    11  C    0.000000
    12  C    1.534505   0.000000
    13  H    4.281159   2.877728   0.000000
    14  H    4.687222   3.493578   1.771186   0.000000
    15  H    4.587361   3.382091   3.077508   2.502730   0.000000
    16  H    5.449824   3.979578   2.476361   2.557886   1.763510
    17  H    4.207260   2.793370   2.654223   3.827504   3.057628
    18  H    5.768378   4.485700   4.281165   4.756882   2.881934
    19  H    2.797713   2.164571   4.034398   4.106335   2.541332
    20  H    3.372285   2.808767   4.562920   5.677519   4.734619
    21  H    3.962358   3.485548   5.314623   6.011594   4.361048
    22  H    2.824623   3.382895   6.087183   6.446069   5.161320
    23  H    3.490332   3.959958   6.532626   7.307246   6.195185
    24  H    2.169435   3.486080   6.289835   6.842056   6.440436
    25  H    2.164854   2.826357   5.286661   6.246137   6.032789
    26  H    1.098157   2.154739   4.777257   4.797144   4.470225
    27  H    1.095287   2.162964   4.437775   4.839338   5.255240
    28  H    2.159083   1.105307   2.665777   3.795716   4.007104
                   16         17         18         19         20
    16  H    0.000000
    17  H    2.492636   0.000000
    18  H    2.456900   2.325702   0.000000
    19  H    3.742423   3.044070   3.485611   0.000000
    20  H    4.873138   2.554676   3.944691   3.058619   0.000000
    21  H    4.870623   3.113882   3.380678   2.470732   1.761800
    22  H    6.225966   4.766447   5.425339   2.620240   3.069327
    23  H    6.871905   4.871838   5.816978   3.788318   2.482639
    24  H    7.317210   5.655853   7.082734   4.160175   3.823537
    25  H    6.500378   4.508130   6.282940   4.041329   2.662812
    26  H    5.645284   4.763123   5.969605   2.626727   4.055717
    27  H    6.009625   4.871814   6.627146   3.793440   4.190766
    28  H    4.146875   2.545693   4.648376   3.053351   2.576604
                   21         22         23         24         25
    21  H    0.000000
    22  H    2.485835   0.000000
    23  H    2.516742   1.759894   0.000000
    24  H    4.329446   2.478432   2.522033   0.000000
    25  H    3.825985   3.066856   2.477700   1.759884   0.000000
    26  H    4.207629   2.676065   3.834063   2.483317   3.072736
    27  H    4.998880   3.826748   4.330899   2.521507   2.488880
    28  H    3.756517   4.016799   4.137033   3.789685   2.622727
                   26         27         28
    26  H    0.000000
    27  H    1.751385   0.000000
    28  H    3.061557   2.489387   0.000000
 Stoichiometry    C10H16O2
 Framework group  C1[X(C10H16O2)]
 Deg. of freedom    78
 Full point group                 C1      NOp   1
 Largest Abelian subgroup         C1      NOp   1
 Largest concise Abelian subgroup C1      NOp   1
                         Standard orientation:                         
 ---------------------------------------------------------------------
 Center     Atomic      Atomic             Coordinates (Angstroms)
 Number     Number       Type             X           Y           Z
 ---------------------------------------------------------------------
      1          8           0       -0.806033    2.727792   -0.505595
      2          6           0       -0.907548    1.636623    0.023144
      3          6           0       -2.258709    1.039393    0.398739
      4          6           0       -2.399261   -0.394957   -0.143033
      5          6           0       -1.214275   -1.281490    0.261724
      6          8           0       -1.319289   -2.576665   -0.328514
      7          6           0        0.119430   -0.677323   -0.198100
      8          6           0        1.326807   -1.552222    0.182070
      9          6           0        2.652816   -0.928482   -0.276521
     10          6           0        2.823148    0.498722    0.264304
     11          6           0        1.625933    1.386186   -0.103099
     12          6           0        0.301113    0.763504    0.357145
     13          1           0       -2.328336    1.023783    1.497134
     14          1           0       -3.049229    1.696515    0.025792
     15          1           0       -2.452935   -0.379010   -1.239233
     16          1           0       -3.339274   -0.837845    0.214671
     17          1           0       -1.192657   -1.371494    1.363796
     18          1           0       -2.149564   -2.974257   -0.023421
     19          1           0        0.076828   -0.614175   -1.297263
     20          1           0        1.342050   -1.678011    1.276181
     21          1           0        1.196910   -2.550224   -0.247670
     22          1           0        2.679727   -0.904682   -1.375865
     23          1           0        3.492414   -1.559637    0.041103
     24          1           0        3.749788    0.944112   -0.119061
     25          1           0        2.926427    0.460543    1.359259
     26          1           0        1.588119    1.531609   -1.190928
     27          1           0        1.730967    2.386234    0.331098
     28          1           0        0.314619    0.677798    1.459041
 ---------------------------------------------------------------------
 Rotational constants (GHZ):           1.1550787           0.9199142           0.5448110
 Standard basis: 6-31G(d) (6D, 7F)
 There are   212 symmetry adapted cartesian basis functions of A   symmetry.
 There are   212 symmetry adapted basis functions of A   symmetry.
   212 basis functions,   400 primitive gaussians,   212 cartesian basis functions
    46 alpha electrons       46 beta electrons
       nuclear repulsion energy       760.9351022927 Hartrees.
 NAtoms=   28 NActive=   28 NUniq=   28 SFac= 1.00D+00 NAtFMM=   60 NAOKFM=F Big=F
 Integral buffers will be    131072 words long.
 Raffenetti 2 integral format.
 Two-electron integral symmetry is turned on.
 One-electron integrals computed using PRISM.
 NBasis=   212 RedAO= T EigKep=  2.34D-03  NBF=   212
 NBsUse=   212 1.00D-06 EigRej= -1.00D+00 NBFU=   212
 ExpMin= 1.61D-01 ExpMax= 5.48D+03 ExpMxC= 8.25D+02 IAcc=3 IRadAn=         5 AccDes= 0.00D+00
 Harris functional with IExCor=  402 and IRadAn=       5 diagonalized for initial guess.
 HarFok:  IExCor=  402 AccDes= 0.00D+00 IRadAn=         5 IDoV= 1 UseB2=F ITyADJ=14
 ICtDFT=  3500011 ScaDFX=  1.000000  1.000000  1.000000  1.000000
 FoFCou: FMM=F IPFlag=           0 FMFlag=      100000 FMFlg1=           0
         NFxFlg=           0 DoJE=T BraDBF=F KetDBF=T FulRan=T
         wScrn=  0.000000 ICntrl=       500 IOpCl=  0 I1Cent=   200000004 NGrid=           0
         NMat0=    1 NMatS0=      1 NMatT0=    0 NMatD0=    1 NMtDS0=    0 NMtDT0=    0
 Petite list used in FoFCou.
 Requested convergence on RMS density matrix=1.00D-08 within 128 cycles.
 Requested convergence on MAX density matrix=1.00D-06.
 Requested convergence on             energy=1.00D-06.
 No special actions if energy rises.
 Integral accuracy reduced to 1.0D-05 until final iterations.
 Initial convergence to 1.0D-05 achieved.  Increase integral accuracy.
 SCF Done:  E(RB3LYP) =  -541.153496181     A.U. after   14 cycles
            NFock= 14  Conv=0.37D-08     -V/T= 2.0095
 DoSCS=F DFT=T ScalE2(SS,OS)=  1.000000  1.000000
 Range of M.O.s used for correlation:     1   212
 NBasis=   212 NAE=    46 NBE=    46 NFC=     0 NFV=     0
 NROrb=    212 NOA=    46 NOB=    46 NVA=   166 NVB=   166
 Symmetrizing basis deriv contribution to polar:
 IMax=3 JMax=2 DiffMx= 0.00D+00
 G2DrvN: will do    29 centers at a time, making    1 passes.
 Calling FoFCou, ICntrl=  3107 FMM=F I1Cent=   0 AccDes= 0.00D+00.
 End of G2Drv F.D. properties file   721 does not exist.
 End of G2Drv F.D. properties file   722 does not exist.
 End of G2Drv F.D. properties file   788 does not exist.
          IDoAtm=1111111111111111111111111111
          Differentiating once with respect to electric field.
                with respect to dipole field.
          Differentiating once with respect to nuclear coordinates.
 Keep R1 ints in memory in canonical form, NReq=265313316.
          There are    87 degrees of freedom in the 1st order CPHF.  IDoFFX=6 NUNeed=     3.
     84 vectors produced by pass  0 Test12= 8.78D-15 1.15D-09 XBig12= 7.56D+01 2.39D+00.
 AX will form    84 AO Fock derivatives at one time.
     84 vectors produced by pass  1 Test12= 8.78D-15 1.15D-09 XBig12= 1.11D+01 8.58D-01.
     84 vectors produced by pass  2 Test12= 8.78D-15 1.15D-09 XBig12= 8.96D-02 2.79D-02.
     84 vectors produced by pass  3 Test12= 8.78D-15 1.15D-09 XBig12= 2.81D-04 1.59D-03.
     84 vectors produced by pass  4 Test12= 8.78D-15 1.15D-09 XBig12= 3.72D-07 4.88D-05.
     41 vectors produced by pass  5 Test12= 8.78D-15 1.15D-09 XBig12= 2.57D-10 1.49D-06.
      3 vectors produced by pass  6 Test12= 8.78D-15 1.15D-09 XBig12= 1.48D-13 3.85D-08.
      1 vectors produced by pass  7 Test12= 8.78D-15 1.15D-09 XBig12= 9.65D-17 1.59D-09.
 InvSVY:  IOpt=1 It=  1 EMax= 1.07D-14
 Solved reduced A of dimension   465 with    87 vectors.
 Isotropic polarizability for W=    0.000000      104.08 Bohr**3.
 End of Minotr F.D. properties file   721 does not exist.
 End of Minotr F.D. properties file   722 does not exist.
 End of Minotr F.D. properties file   788 does not exist.

 **********************************************************************

            Population analysis using the SCF density.

 **********************************************************************

 Orbital symmetries:
       Occupied  (A) (A) (A) (A) (A) (A) (A) (A) (A) (A) (A) (A)
                 (A) (A) (A) (A) (A) (A) (A) (A) (A) (A) (A) (A)
                 (A) (A) (A) (A) (A) (A) (A) (A) (A) (A) (A) (A)
                 (A) (A) (A) (A) (A) (A) (A) (A) (A) (A)
       Virtual   (A) (A) (A) (A) (A) (A) (A) (A) (A) (A) (A) (A)
                 (A) (A) (A) (A) (A) (A) (A) (A) (A) (A) (A) (A)
                 (A) (A) (A) (A) (A) (A) (A) (A) (A) (A) (A) (A)
                 (A) (A) (A) (A) (A) (A) (A) (A) (A) (A) (A) (A)
                 (A) (A) (A) (A) (A) (A) (A) (A) (A) (A) (A) (A)
                 (A) (A) (A) (A) (A) (A) (A) (A) (A) (A) (A) (A)
                 (A) (A) (A) (A) (A) (A) (A) (A) (A) (A) (A) (A)
                 (A) (A) (A) (A) (A) (A) (A) (A) (A) (A) (A) (A)
                 (A) (A) (A) (A) (A) (A) (A) (A) (A) (A) (A) (A)
                 (A) (A) (A) (A) (A) (A) (A) (A) (A) (A) (A) (A)
                 (A) (A) (A) (A) (A) (A) (A) (A) (A) (A) (A) (A)
                 (A) (A) (A) (A) (A) (A) (A) (A) (A) (A) (A) (A)
                 (A) (A) (A) (A) (A) (A) (A) (A) (A) (A) (A) (A)
                 (A) (A) (A) (A) (A) (A) (A) (A) (A) (A)
 The electronic state is 1-A.
 Alpha  occ. eigenvalues --  -19.14957 -19.13596 -10.26914 -10.24132 -10.19594
 Alpha  occ. eigenvalues --  -10.19523 -10.19489 -10.19360 -10.17758 -10.17730
 Alpha  occ. eigenvalues --  -10.17668 -10.17629  -1.03460  -1.02322  -0.84508
 Alpha  occ. eigenvalues --   -0.80142  -0.74955  -0.74386  -0.69804  -0.62596
 Alpha  occ. eigenvalues --   -0.62086  -0.58106  -0.55949  -0.53511  -0.50937
 Alpha  occ. eigenvalues --   -0.47276  -0.46539  -0.45066  -0.44586  -0.43923
 Alpha  occ. eigenvalues --   -0.41851  -0.41553  -0.39971  -0.39291  -0.37667
 Alpha  occ. eigenvalues --   -0.36593  -0.35627  -0.35125  -0.34409  -0.33827
 Alpha  occ. eigenvalues --   -0.33188  -0.31875  -0.30467  -0.29590  -0.27098
 Alpha  occ. eigenvalues --   -0.23633
 Alpha virt. eigenvalues --   -0.01466   0.07065   0.08693   0.09659   0.10084
 Alpha virt. eigenvalues --    0.12996   0.13753   0.14119   0.15450   0.15828
 Alpha virt. eigenvalues --    0.16318   0.17305   0.17984   0.18434   0.18733
 Alpha virt. eigenvalues --    0.19381   0.19674   0.20516   0.21577   0.22088
 Alpha virt. eigenvalues --    0.22607   0.24413   0.26232   0.26862   0.27502
 Alpha virt. eigenvalues --    0.29905   0.30280   0.30823   0.34908   0.37269
 Alpha virt. eigenvalues --    0.50653   0.51956   0.52422   0.53213   0.54485
 Alpha virt. eigenvalues --    0.56104   0.56970   0.57223   0.60884   0.61742
 Alpha virt. eigenvalues --    0.63188   0.63621   0.64990   0.66424   0.67631
 Alpha virt. eigenvalues --    0.70401   0.70786   0.71580   0.72904   0.73919
 Alpha virt. eigenvalues --    0.77083   0.77324   0.78985   0.80413   0.82479
 Alpha virt. eigenvalues --    0.82990   0.84112   0.85195   0.86084   0.86837
 Alpha virt. eigenvalues --    0.87561   0.88282   0.89455   0.89990   0.90786
 Alpha virt. eigenvalues --    0.92658   0.93317   0.93808   0.94409   0.95019
 Alpha virt. eigenvalues --    0.95848   0.96615   0.98179   0.99673   1.03688
 Alpha virt. eigenvalues --    1.05448   1.09504   1.10679   1.12180   1.19161
 Alpha virt. eigenvalues --    1.19802   1.21602   1.24720   1.27112   1.30841
 Alpha virt. eigenvalues --    1.33870   1.36213   1.41474   1.42892   1.48351
 Alpha virt. eigenvalues --    1.49742   1.55291   1.56579   1.58896   1.64855
 Alpha virt. eigenvalues --    1.66792   1.68073   1.71382   1.72326   1.72935
 Alpha virt. eigenvalues --    1.74340   1.77804   1.78202   1.80128   1.83992
 Alpha virt. eigenvalues --    1.86337   1.86619   1.88403   1.90802   1.91205
 Alpha virt. eigenvalues --    1.93296   1.93680   1.95998   1.96416   1.98121
 Alpha virt. eigenvalues --    1.99323   2.00295   2.02484   2.05180   2.06478
 Alpha virt. eigenvalues --    2.08265   2.09213   2.11065   2.12393   2.16814
 Alpha virt. eigenvalues --    2.21865   2.22734   2.28636   2.29031   2.33019
 Alpha virt. eigenvalues --    2.33361   2.36197   2.38336   2.39827   2.41004
 Alpha virt. eigenvalues --    2.44026   2.46538   2.47009   2.52247   2.53340
 Alpha virt. eigenvalues --    2.57900   2.60284   2.61336   2.62233   2.64835
 Alpha virt. eigenvalues --    2.70830   2.73617   2.76369   2.80373   2.86186
 Alpha virt. eigenvalues --    2.88099   2.95667   2.99076   3.05207   3.82223
 Alpha virt. eigenvalues --    4.03200   4.14143   4.21484   4.25434   4.31381
 Alpha virt. eigenvalues --    4.35909   4.53626   4.55543   4.59195   4.63047
 Alpha virt. eigenvalues --    4.71106
          Condensed to atoms (all electrons):
               1          2          3          4          5          6
     1  O    8.004108   0.587272  -0.075093   0.001215   0.000156   0.000000
     2  C    0.587272   4.517432   0.344936  -0.030473  -0.012079   0.000142
     3  C   -0.075093   0.344936   5.326285   0.284326  -0.032808   0.003590
     4  C    0.001215  -0.030473   0.284326   5.178098   0.362724  -0.040877
     5  C    0.000156  -0.012079  -0.032808   0.362724   4.784992   0.227886
     6  O    0.000000   0.000142   0.003590  -0.040877   0.227886   8.286461
     7  C    0.000405  -0.016988  -0.007406  -0.038205   0.362076  -0.049243
     8  C   -0.000057   0.002579  -0.000234   0.005424  -0.032396  -0.002133
     9  C   -0.000011  -0.000026  -0.000026  -0.000102   0.003550   0.000164
    10  C    0.000623   0.004365  -0.000070  -0.000024   0.000130  -0.000005
    11  C    0.006541  -0.027506   0.006033   0.000020   0.003615  -0.000040
    12  C   -0.093126   0.281974  -0.137654  -0.001197  -0.030394   0.002323
    13  H    0.001229  -0.030559   0.350701  -0.036315  -0.003285  -0.000013
    14  H    0.005481  -0.023087   0.340656  -0.020418   0.003174  -0.000050
    15  H    0.000393  -0.003106  -0.034769   0.362153  -0.032234   0.003029
    16  H   -0.000062   0.003574  -0.025853   0.356382  -0.030584  -0.000945
    17  H   -0.000009  -0.001958   0.003801  -0.069456   0.361085  -0.039445
    18  H   -0.000000   0.000008  -0.000030  -0.003664  -0.023039   0.229726
    19  H    0.000385  -0.003556   0.001003  -0.010027  -0.040722   0.001627
    20  H   -0.000000  -0.000008  -0.000011   0.000043  -0.005202  -0.000141
    21  H    0.000000  -0.000073  -0.000008   0.000219  -0.006956   0.010170
    22  H   -0.000000  -0.000035  -0.000000   0.000004   0.000033   0.000001
    23  H    0.000000   0.000007  -0.000000   0.000002  -0.000117  -0.000001
    24  H    0.000002  -0.000077   0.000002  -0.000000   0.000007  -0.000000
    25  H   -0.000003  -0.000062  -0.000000   0.000001  -0.000020   0.000000
    26  H    0.003771  -0.004532   0.000255  -0.000046   0.000052  -0.000001
    27  H    0.005047  -0.003154   0.000214  -0.000008  -0.000134   0.000000
    28  H    0.001198  -0.036210   0.002591  -0.002003  -0.004957  -0.000028
               7          8          9         10         11         12
     1  O    0.000405  -0.000057  -0.000011   0.000623   0.006541  -0.093126
     2  C   -0.016988   0.002579  -0.000026   0.004365  -0.027506   0.281974
     3  C   -0.007406  -0.000234  -0.000026  -0.000070   0.006033  -0.137654
     4  C   -0.038205   0.005424  -0.000102  -0.000024   0.000020  -0.001197
     5  C    0.362076  -0.032396   0.003550   0.000130   0.003615  -0.030394
     6  O   -0.049243  -0.002133   0.000164  -0.000005  -0.000040   0.002323
     7  C    5.045131   0.373564  -0.033659  -0.012866  -0.032985   0.328865
     8  C    0.373564   5.033721   0.374259  -0.045567  -0.011979  -0.034614
     9  C   -0.033659   0.374259   5.006619   0.377661  -0.042030  -0.013814
    10  C   -0.012866  -0.045567   0.377661   5.027347   0.357476  -0.033943
    11  C   -0.032985  -0.011979  -0.042030   0.357476   5.009923   0.354996
    12  C    0.328865  -0.034614  -0.013814  -0.033943   0.354996   5.338991
    13  H   -0.001397  -0.000019   0.000001  -0.000003  -0.000104   0.003729
    14  H   -0.000143   0.000012   0.000000   0.000001  -0.000157   0.006727
    15  H   -0.010430  -0.000042  -0.000001  -0.000001  -0.000056   0.000974
    16  H    0.005342  -0.000162   0.000002   0.000000   0.000010  -0.000391
    17  H   -0.055993  -0.009150  -0.000020  -0.000028  -0.000051  -0.001481
    18  H    0.007656   0.000109   0.000003   0.000000   0.000003  -0.000268
    19  H    0.359303  -0.046174  -0.003890  -0.000533  -0.004445  -0.047558
    20  H   -0.042523   0.365200  -0.040704  -0.004691  -0.000540  -0.007760
    21  H   -0.031868   0.369589  -0.030693   0.004457  -0.000021   0.004879
    22  H   -0.005723  -0.039897   0.371888  -0.041040  -0.004033  -0.001152
    23  H    0.004401  -0.032212   0.368610  -0.032875   0.004627   0.000239
    24  H    0.000185   0.004647  -0.032550   0.370563  -0.033103   0.004361
    25  H   -0.001016  -0.004207  -0.041458   0.368771  -0.038532  -0.006071
    26  H   -0.006272  -0.000754  -0.004525  -0.039578   0.375583  -0.041907
    27  H    0.004278   0.000042   0.004610  -0.032490   0.370902  -0.033711
    28  H   -0.043297  -0.007909  -0.000746  -0.002745  -0.041234   0.343931
              13         14         15         16         17         18
     1  O    0.001229   0.005481   0.000393  -0.000062  -0.000009  -0.000000
     2  C   -0.030559  -0.023087  -0.003106   0.003574  -0.001958   0.000008
     3  C    0.350701   0.340656  -0.034769  -0.025853   0.003801  -0.000030
     4  C   -0.036315  -0.020418   0.362153   0.356382  -0.069456  -0.003664
     5  C   -0.003285   0.003174  -0.032234  -0.030584   0.361085  -0.023039
     6  O   -0.000013  -0.000050   0.003029  -0.000945  -0.039445   0.229726
     7  C   -0.001397  -0.000143  -0.010430   0.005342  -0.055993   0.007656
     8  C   -0.000019   0.000012  -0.000042  -0.000162  -0.009150   0.000109
     9  C    0.000001   0.000000  -0.000001   0.000002  -0.000020   0.000003
    10  C   -0.000003   0.000001  -0.000001   0.000000  -0.000028   0.000000
    11  C   -0.000104  -0.000157  -0.000056   0.000010  -0.000051   0.000003
    12  C    0.003729   0.006727   0.000974  -0.000391  -0.001481  -0.000268
    13  H    0.582927  -0.026816   0.005501  -0.006263   0.004962  -0.000009
    14  H   -0.026816   0.554957  -0.003491  -0.003024  -0.000156  -0.000005
    15  H    0.005501  -0.003491   0.580356  -0.037706   0.007029  -0.000765
    16  H   -0.006263  -0.003024  -0.037706   0.609821  -0.005679   0.005405
    17  H    0.004962  -0.000156   0.007029  -0.005679   0.687169  -0.004801
    18  H   -0.000009  -0.000005  -0.000765   0.005405  -0.004801   0.399551
    19  H    0.000105  -0.000057   0.006067  -0.000049   0.007639  -0.000182
    20  H   -0.000006  -0.000000   0.000007   0.000003   0.005845  -0.000060
    21  H    0.000000  -0.000000   0.000008  -0.000002   0.000303  -0.000409
    22  H   -0.000000  -0.000000  -0.000002   0.000000   0.000005  -0.000000
    23  H   -0.000000   0.000000   0.000000  -0.000000  -0.000000  -0.000000
    24  H   -0.000000  -0.000000  -0.000000   0.000000  -0.000000   0.000000
    25  H   -0.000001   0.000000  -0.000000  -0.000000  -0.000006  -0.000000
    26  H   -0.000004   0.000000  -0.000011   0.000000   0.000004   0.000000
    27  H   -0.000016  -0.000004   0.000000   0.000000   0.000005  -0.000000
    28  H    0.001508  -0.000135   0.000116  -0.000028   0.006468   0.000002
              19         20         21         22         23         24
     1  O    0.000385  -0.000000   0.000000  -0.000000   0.000000   0.000002
     2  C   -0.003556  -0.000008  -0.000073  -0.000035   0.000007  -0.000077
     3  C    0.001003  -0.000011  -0.000008  -0.000000  -0.000000   0.000002
     4  C   -0.010027   0.000043   0.000219   0.000004   0.000002  -0.000000
     5  C   -0.040722  -0.005202  -0.006956   0.000033  -0.000117   0.000007
     6  O    0.001627  -0.000141   0.010170   0.000001  -0.000001  -0.000000
     7  C    0.359303  -0.042523  -0.031868  -0.005723   0.004401   0.000185
     8  C   -0.046174   0.365200   0.369589  -0.039897  -0.032212   0.004647
     9  C   -0.003890  -0.040704  -0.030693   0.371888   0.368610  -0.032550
    10  C   -0.000533  -0.004691   0.004457  -0.041040  -0.032875   0.370563
    11  C   -0.004445  -0.000540  -0.000021  -0.004033   0.004627  -0.033103
    12  C   -0.047558  -0.007760   0.004879  -0.001152   0.000239   0.004361
    13  H    0.000105  -0.000006   0.000000  -0.000000  -0.000000  -0.000000
    14  H   -0.000057  -0.000000  -0.000000  -0.000000   0.000000  -0.000000
    15  H    0.006067   0.000007   0.000008  -0.000002   0.000000  -0.000000
    16  H   -0.000049   0.000003  -0.000002   0.000000  -0.000000   0.000000
    17  H    0.007639   0.005845   0.000303   0.000005  -0.000000  -0.000000
    18  H   -0.000182  -0.000060  -0.000409  -0.000000  -0.000000   0.000000
    19  H    0.627070   0.006391  -0.003631   0.004984  -0.000056  -0.000029
    20  H    0.006391   0.626228  -0.034076   0.006032  -0.004409  -0.000051
    21  H   -0.003631  -0.034076   0.563444  -0.003993  -0.001986  -0.000145
    22  H    0.004984   0.006032  -0.003993   0.611518  -0.036816  -0.004345
    23  H   -0.000056  -0.004409  -0.001986  -0.036816   0.605497  -0.002223
    24  H   -0.000029  -0.000051  -0.000145  -0.004345  -0.002223   0.602046
    25  H    0.000149   0.004908  -0.000049   0.006070  -0.004466  -0.037122
    26  H    0.005128   0.000148  -0.000022   0.004612  -0.000056  -0.004113
    27  H   -0.000018  -0.000022   0.000013  -0.000051  -0.000151  -0.002107
    28  H    0.007027   0.005961  -0.000018   0.000180  -0.000045  -0.000051
              25         26         27         28
     1  O   -0.000003   0.003771   0.005047   0.001198
     2  C   -0.000062  -0.004532  -0.003154  -0.036210
     3  C   -0.000000   0.000255   0.000214   0.002591
     4  C    0.000001  -0.000046  -0.000008  -0.002003
     5  C   -0.000020   0.000052  -0.000134  -0.004957
     6  O    0.000000  -0.000001   0.000000  -0.000028
     7  C   -0.001016  -0.006272   0.004278  -0.043297
     8  C   -0.004207  -0.000754   0.000042  -0.007909
     9  C   -0.041458  -0.004525   0.004610  -0.000746
    10  C    0.368771  -0.039578  -0.032490  -0.002745
    11  C   -0.038532   0.375583   0.370902  -0.041234
    12  C   -0.006071  -0.041907  -0.033711   0.343931
    13  H   -0.000001  -0.000004  -0.000016   0.001508
    14  H    0.000000   0.000000  -0.000004  -0.000135
    15  H   -0.000000  -0.000011   0.000000   0.000116
    16  H   -0.000000   0.000000   0.000000  -0.000028
    17  H   -0.000006   0.000004   0.000005   0.006468
    18  H   -0.000000   0.000000  -0.000000   0.000002
    19  H    0.000149   0.005128  -0.000018   0.007027
    20  H    0.004908   0.000148  -0.000022   0.005961
    21  H   -0.000049  -0.000022   0.000013  -0.000018
    22  H    0.006070   0.004612  -0.000051   0.000180
    23  H   -0.004466  -0.000056  -0.000151  -0.000045
    24  H   -0.037122  -0.004113  -0.002107  -0.000051
    25  H    0.621111   0.005743  -0.004123   0.005076
    26  H    0.005743   0.592005  -0.033523   0.006183
    27  H   -0.004123  -0.033523   0.581464  -0.003875
    28  H    0.005076   0.006183  -0.003875   0.627841
 Mulliken charges:
               1
     1  O   -0.449465
     2  C    0.451199
     3  C   -0.350432
     4  C   -0.297796
     5  C    0.145448
     6  O   -0.632199
     7  C   -0.101192
     8  C   -0.261641
     9  C   -0.263112
    10  C   -0.264935
    11  C   -0.252913
    12  C   -0.186947
    13  H    0.154145
    14  H    0.166535
    15  H    0.156979
    16  H    0.130210
    17  H    0.103918
    18  H    0.390770
    19  H    0.134051
    20  H    0.119438
    21  H    0.160865
    22  H    0.131761
    23  H    0.132029
    24  H    0.134106
    25  H    0.125309
    26  H    0.141857
    27  H    0.146812
    28  H    0.135199
 Sum of Mulliken charges =  -0.00000
 Mulliken charges with hydrogens summed into heavy atoms:
               1
     1  O   -0.449465
     2  C    0.451199
     3  C   -0.029752
     4  C   -0.010607
     5  C    0.249366
     6  O   -0.241429
     7  C    0.032858
     8  C    0.018662
     9  C    0.000678
    10  C   -0.005520
    11  C    0.035756
    12  C   -0.051747
 APT charges:
               1
     1  O   -0.638219
     2  C    0.722900
     3  C   -0.055784
     4  C    0.077968
     5  C    0.501405
     6  O   -0.599314
     7  C    0.064511
     8  C    0.092782
     9  C    0.124165
    10  C    0.126324
    11  C    0.098088
    12  C   -0.068297
    13  H   -0.010373
    14  H   -0.026096
    15  H   -0.025050
    16  H   -0.067222
    17  H   -0.102046
    18  H    0.228348
    19  H   -0.044139
    20  H   -0.051425
    21  H   -0.021310
    22  H   -0.048833
    23  H   -0.064189
    24  H   -0.062822
    25  H   -0.053615
    26  H   -0.030481
    27  H   -0.035087
    28  H   -0.032190
 Sum of APT charges =   0.00000
 APT charges with hydrogens summed into heavy atoms:
               1
     1  O   -0.638219
     2  C    0.722900
     3  C   -0.092253
     4  C   -0.014304
     5  C    0.399359
     6  O   -0.370966
     7  C    0.020373
     8  C    0.020046
     9  C    0.011143
    10  C    0.009887
    11  C    0.032521
    12  C   -0.100487
 Electronic spatial extent (au):  <R**2>=           2128.6299
 Charge=             -0.0000 electrons
 Dipole moment (field-independent basis, Debye):
    X=             -1.1534    Y=             -2.1413    Z=              1.8533  Tot=              3.0578
 Quadrupole moment (field-independent basis, Debye-Ang):
   XX=            -66.0276   YY=            -83.4424   ZZ=            -72.3637
   XY=              5.0845   XZ=             -2.4110   YZ=              0.7686
 Traceless Quadrupole moment (field-independent basis, Debye-Ang):
   XX=              7.9170   YY=             -9.4979   ZZ=              1.5809
   XY=              5.0845   XZ=             -2.4110   YZ=              0.7686
 Octapole moment (field-independent basis, Debye-Ang**2):
  XXX=            -28.0456  YYY=            -34.1077  ZZZ=             -2.4750  XYY=             -6.7692
  XXY=            -13.4566  XXZ=              1.1823  XZZ=             -3.1914  YZZ=              0.7727
  YYZ=             13.4944  XYZ=              0.9403
 Hexadecapole moment (field-independent basis, Debye-Ang**3):
 XXXX=          -1489.4843 YYYY=          -1127.6795 ZZZZ=           -172.0156 XXXY=             43.4081
 XXXZ=             -3.0863 YYYX=             76.3850 YYYZ=              9.1501 ZZZX=              1.1016
 ZZZY=             -2.0440 XXYY=           -386.6655 XXZZ=           -285.7649 YYZZ=           -211.0099
 XXYZ=             -6.2055 YYXZ=            -14.1537 ZZXY=              1.4495
 N-N= 7.609351022927D+02 E-N=-2.780396251146D+03  KE= 5.360833719394D+02
  Exact polarizability: 117.074   1.176 109.684  -1.356  -2.333  85.490
 Approx polarizability: 143.040   2.450 157.139  -1.985  -7.592 142.554
 Calling FoFJK, ICntrl=    100127 FMM=F ISym2X=0 I1Cent= 0 IOpClX= 0 NMat=1 NMatS=1 NMatT=0.
 Full mass-weighted force constant matrix:
 Low frequencies ---   -4.1809    0.0009    0.0009    0.0011    5.1769   13.7540
 Low frequencies ---   74.3243   91.8195  150.3986
 Diagonal vibrational polarizability:
       15.7033208      18.2655321      40.8146912
 Harmonic frequencies (cm**-1), IR intensities (KM/Mole), Raman scattering
 activities (A**4/AMU), depolarization ratios for plane and unpolarized
 incident light, reduced masses (AMU), force constants (mDyne/A),
 and normal coordinates:
                      1                      2                      3
                      A                      A                      A
 Frequencies --     74.3226                91.8168               150.3982
 Red. masses --      5.5185                 3.1166                 2.6323
 Frc consts  --      0.0180                 0.0155                 0.0351
 IR Inten    --      3.7474                 0.6914                 0.8404
  Atom  AN      X      Y      Z        X      Y      Z        X      Y      Z
     1   8     0.03   0.20   0.37     0.06   0.01   0.00    -0.03   0.06   0.05
     2   6    -0.01   0.04   0.03     0.01   0.00  -0.03    -0.00   0.01  -0.04
     3   6    -0.04  -0.03  -0.20    -0.03   0.02  -0.15     0.02   0.01   0.04
     4   6     0.03  -0.04  -0.18    -0.01  -0.03  -0.03    -0.02  -0.01   0.10
     5   6    -0.01  -0.01  -0.00     0.01   0.02   0.05     0.03   0.00  -0.02
     6   8     0.03  -0.07   0.13     0.01  -0.05   0.20    -0.04  -0.02   0.04
     7   6     0.00  -0.04   0.01    -0.02   0.02  -0.04    -0.00  -0.01  -0.14
     8   6    -0.00  -0.00   0.10     0.00  -0.01  -0.18    -0.00  -0.02  -0.13
     9   6    -0.01  -0.05   0.03    -0.02   0.05  -0.14     0.07   0.01   0.13
    10   6    -0.00   0.01  -0.13    -0.01  -0.04   0.08    -0.04   0.01   0.15
    11   6    -0.02  -0.03  -0.16     0.01   0.03   0.17     0.02  -0.02  -0.11
    12   6    -0.00  -0.01  -0.07    -0.02  -0.01   0.04     0.00  -0.01  -0.15
    13   1    -0.20  -0.01  -0.21    -0.15   0.12  -0.15     0.10   0.04   0.05
    14   1     0.00  -0.03  -0.30     0.01  -0.01  -0.28    -0.01  -0.01   0.08
    15   1     0.15  -0.08  -0.18    -0.00  -0.13  -0.03    -0.15  -0.04   0.10
    16   1    -0.01  -0.03  -0.27    -0.00  -0.02   0.01     0.03  -0.01   0.22
    17   1    -0.09   0.11   0.01     0.04   0.14   0.06     0.15   0.03  -0.02
    18   1     0.00  -0.03   0.11     0.01  -0.01   0.24     0.00  -0.01   0.17
    19   1     0.04  -0.11   0.01    -0.09   0.08  -0.03    -0.06  -0.03  -0.14
    20   1     0.00   0.11   0.11     0.04  -0.15  -0.20    -0.14  -0.16  -0.15
    21   1    -0.00  -0.05   0.20    -0.01   0.04  -0.30     0.06   0.02  -0.26
    22   1    -0.02  -0.17   0.03    -0.06   0.23  -0.14     0.29   0.03   0.13
    23   1    -0.00  -0.01   0.09    -0.01   0.00  -0.28     0.01   0.01   0.28
    24   1    -0.02  -0.02  -0.21     0.00   0.02   0.17     0.04   0.01   0.34
    25   1     0.04   0.13  -0.13    -0.04  -0.21   0.08    -0.27   0.04   0.18
    26   1    -0.06  -0.12  -0.17     0.05   0.18   0.19     0.14  -0.16  -0.13
    27   1    -0.02   0.01  -0.25     0.00  -0.04   0.31    -0.05   0.03  -0.22
    28   1     0.06   0.04  -0.07    -0.10  -0.07   0.03     0.03  -0.03  -0.15
                      4                      5                      6
                      A                      A                      A
 Frequencies --    201.7842               232.7855               276.5056
 Red. masses --      2.5230                 4.8450                 1.7141
 Frc consts  --      0.0605                 0.1547                 0.0772
 IR Inten    --      1.3168                 2.2124                36.8082
  Atom  AN      X      Y      Z        X      Y      Z        X      Y      Z
     1   8     0.08   0.06   0.03    -0.19   0.09  -0.02    -0.05   0.05   0.01
     2   6     0.01   0.01  -0.07    -0.05   0.07  -0.03    -0.01   0.01  -0.06
     3   6    -0.03   0.05  -0.14    -0.01  -0.04   0.01     0.03  -0.01   0.03
     4   6    -0.06  -0.09   0.21    -0.02  -0.05   0.02    -0.01   0.00   0.00
     5   6     0.02  -0.06   0.06     0.05   0.06   0.01     0.01  -0.01  -0.06
     6   8     0.02   0.02  -0.14     0.30   0.04   0.00    -0.08  -0.03  -0.01
     7   6    -0.01  -0.01   0.04    -0.02   0.13   0.01     0.02  -0.03  -0.08
     8   6     0.01   0.01   0.04    -0.13  -0.01  -0.01     0.01   0.03   0.09
     9   6    -0.01   0.00  -0.01    -0.09  -0.17  -0.02    -0.01  -0.01  -0.02
    10   6    -0.00   0.00  -0.01    -0.00  -0.20   0.03     0.04  -0.02  -0.01
    11   6    -0.01  -0.00   0.02     0.10  -0.03   0.00     0.04   0.03   0.09
    12   6    -0.02  -0.00  -0.00     0.01   0.13  -0.01    -0.01  -0.01  -0.09
    13   1    -0.14   0.35  -0.14     0.04  -0.05   0.01     0.13  -0.05   0.04
    14   1     0.01  -0.04  -0.37    -0.06  -0.06   0.06    -0.01  -0.01   0.13
    15   1    -0.28  -0.31   0.22    -0.06  -0.06   0.02    -0.06   0.02   0.01
    16   1     0.03  -0.04   0.49     0.01  -0.07   0.06     0.01  -0.01   0.04
    17   1     0.10  -0.22   0.04     0.05   0.06   0.01     0.06   0.01  -0.06
    18   1     0.08  -0.08  -0.10     0.37  -0.12  -0.03     0.25  -0.25   0.59
    19   1    -0.03  -0.04   0.04    -0.03   0.14   0.01     0.08  -0.11  -0.08
    20   1     0.03   0.06   0.05    -0.14  -0.01  -0.01     0.01   0.25   0.11
    21   1     0.00  -0.01   0.09    -0.29   0.02  -0.01     0.03  -0.05   0.27
    22   1    -0.06   0.00  -0.01    -0.08  -0.17  -0.01    -0.10  -0.01  -0.02
    23   1     0.00   0.00  -0.04    -0.14  -0.24  -0.01     0.01  -0.02  -0.08
    24   1    -0.01   0.01  -0.04     0.06  -0.27   0.11     0.03  -0.02  -0.04
    25   1     0.03  -0.00  -0.02    -0.07  -0.26   0.03     0.11  -0.06  -0.01
    26   1    -0.01   0.02   0.02     0.15  -0.02   0.00     0.11   0.25   0.12
    27   1    -0.01  -0.01   0.03     0.25  -0.05   0.02     0.03  -0.05   0.29
    28   1    -0.06   0.04   0.00    -0.01   0.16  -0.01    -0.09  -0.06  -0.09
                      7                      8                      9
                      A                      A                      A
 Frequencies --    286.8084               303.3492               333.8215
 Red. masses --      1.4085                 1.7918                 3.9946
 Frc consts  --      0.0683                 0.0971                 0.2623
 IR Inten    --     52.9058                11.0068                17.4645
  Atom  AN      X      Y      Z        X      Y      Z        X      Y      Z
     1   8     0.07  -0.05  -0.01     0.04   0.03  -0.00     0.22  -0.02   0.01
     2   6     0.01  -0.01   0.05     0.02   0.02  -0.02     0.09  -0.02  -0.02
     3   6    -0.02   0.02  -0.01     0.04   0.01   0.02     0.11  -0.02   0.08
     4   6    -0.03   0.01  -0.02     0.05   0.02  -0.02    -0.07  -0.01   0.01
     5   6    -0.01   0.02  -0.02    -0.01  -0.04   0.04    -0.03  -0.02  -0.07
     6   8     0.04   0.02  -0.03     0.02  -0.01  -0.04     0.19  -0.10   0.06
     7   6    -0.02   0.03   0.00    -0.01  -0.04   0.09    -0.08   0.00  -0.12
     8   6    -0.03  -0.01  -0.05     0.03  -0.01   0.04    -0.14   0.05   0.04
     9   6     0.00  -0.01   0.05    -0.06   0.06  -0.10    -0.16   0.05   0.04
    10   6    -0.01   0.03  -0.04    -0.09  -0.02   0.10    -0.09   0.06  -0.01
    11   6    -0.04  -0.01  -0.02    -0.02  -0.03  -0.08    -0.06   0.06   0.02
    12   6    -0.00  -0.01   0.07    -0.01   0.01  -0.02    -0.01  -0.05  -0.07
    13   1    -0.09   0.03  -0.01     0.09  -0.03   0.03     0.31  -0.13   0.09
    14   1     0.01   0.04  -0.06     0.01   0.01   0.08     0.05   0.03   0.29
    15   1    -0.02   0.02  -0.01     0.15   0.06  -0.03    -0.21   0.04   0.01
    16   1    -0.02   0.01  -0.02    -0.01   0.04  -0.13    -0.05   0.06   0.13
    17   1    -0.01   0.01  -0.02    -0.08  -0.09   0.03    -0.00   0.06  -0.06
    18   1     0.48  -0.37   0.65     0.21  -0.21   0.23    -0.03   0.01  -0.38
    19   1    -0.02   0.10   0.01    -0.01  -0.08   0.08    -0.05  -0.04  -0.12
    20   1    -0.08  -0.11  -0.06     0.14   0.02   0.04    -0.23   0.20   0.06
    21   1    -0.04   0.03  -0.14     0.01  -0.02   0.07    -0.08  -0.00   0.16
    22   1     0.11  -0.08   0.05    -0.26   0.26  -0.10    -0.19   0.03   0.04
    23   1    -0.03   0.01   0.16     0.02   0.04  -0.35    -0.16   0.05   0.02
    24   1    -0.04   0.02  -0.11     0.00   0.01   0.35    -0.08   0.00  -0.06
    25   1     0.05   0.10  -0.04    -0.33  -0.15   0.12    -0.05   0.09  -0.01
    26   1    -0.11  -0.07  -0.03     0.03  -0.21  -0.11    -0.04   0.19   0.03
    27   1    -0.03   0.02  -0.09    -0.05   0.04  -0.23    -0.14   0.02   0.14
    28   1     0.04  -0.03   0.07     0.03   0.10  -0.01    -0.02  -0.14  -0.08
                     10                     11                     12
                      A                      A                      A
 Frequencies --    379.6294               390.2266               433.4090
 Red. masses --      3.5302                 3.1301                 3.7083
 Frc consts  --      0.2998                 0.2808                 0.4104
 IR Inten    --      1.4150                 2.1154                 3.2193
  Atom  AN      X      Y      Z        X      Y      Z        X      Y      Z
     1   8     0.02   0.10  -0.03     0.02  -0.12   0.04    -0.03  -0.09   0.05
     2   6    -0.06   0.09  -0.06    -0.05  -0.09   0.07     0.05  -0.11  -0.00
     3   6    -0.00   0.10   0.05    -0.14   0.06   0.01     0.04  -0.09  -0.06
     4   6     0.17   0.08   0.03    -0.03   0.06   0.02     0.07  -0.05   0.00
     5   6     0.11  -0.03   0.04     0.08   0.14  -0.07     0.06   0.07   0.05
     6   8     0.06   0.00  -0.01     0.07   0.13   0.04    -0.07   0.14  -0.02
     7   6     0.06  -0.09   0.00     0.08  -0.01  -0.12     0.07  -0.02   0.03
     8   6     0.05  -0.14  -0.02     0.06   0.02   0.08    -0.08  -0.16   0.02
     9   6     0.02  -0.09   0.03     0.03  -0.03  -0.06    -0.17   0.00   0.05
    10   6    -0.16  -0.02  -0.08    -0.06  -0.05   0.03    -0.10   0.05  -0.02
    11   6    -0.17   0.01   0.07    -0.05  -0.05  -0.03     0.05   0.22  -0.04
    12   6    -0.12  -0.04  -0.04    -0.02  -0.09  -0.05     0.13   0.03  -0.07
    13   1     0.07   0.12   0.06    -0.32   0.14   0.00    -0.04  -0.04  -0.06
    14   1    -0.10  -0.01   0.07    -0.03   0.08  -0.17     0.11  -0.06  -0.14
    15   1     0.31   0.15   0.02    -0.13   0.07   0.03     0.12  -0.13   0.00
    16   1     0.13   0.05  -0.14     0.06  -0.08   0.10     0.08  -0.10  -0.01
    17   1     0.12  -0.06   0.04     0.16   0.23  -0.06     0.08   0.05   0.05
    18   1     0.05   0.01  -0.04     0.03   0.18  -0.01    -0.00   0.13   0.13
    19   1     0.05  -0.13  -0.00     0.16  -0.06  -0.13     0.07  -0.08   0.02
    20   1     0.03  -0.24  -0.03     0.07   0.33   0.11    -0.12  -0.35  -0.00
    21   1     0.02  -0.10  -0.11     0.05  -0.09   0.35    -0.07  -0.07  -0.18
    22   1     0.12  -0.22   0.03    -0.07   0.01  -0.06    -0.24  -0.00   0.05
    23   1     0.07   0.06   0.19     0.07  -0.00  -0.14    -0.07   0.09  -0.02
    24   1    -0.21   0.04  -0.13    -0.03   0.02   0.19     0.01  -0.14   0.03
    25   1    -0.08   0.01  -0.08    -0.20  -0.15   0.04    -0.18   0.08  -0.01
    26   1    -0.20   0.25   0.11    -0.02  -0.07  -0.03     0.09   0.44  -0.01
    27   1    -0.14  -0.08   0.28    -0.06  -0.05  -0.04     0.03   0.12   0.20
    28   1    -0.22  -0.02  -0.03     0.01  -0.21  -0.06     0.21   0.06  -0.07
                     13                     14                     15
                      A                      A                      A
 Frequencies --    454.3929               497.3625               512.1582
 Red. masses --      3.2269                 2.2055                 3.4706
 Frc consts  --      0.3926                 0.3214                 0.5364
 IR Inten    --      6.0055                 0.3790                 5.8151
  Atom  AN      X      Y      Z        X      Y      Z        X      Y      Z
     1   8     0.04  -0.01  -0.04    -0.06  -0.03  -0.01     0.07  -0.01   0.04
     2   6     0.02   0.06   0.10     0.00   0.00   0.07    -0.02  -0.08  -0.13
     3   6     0.04  -0.05  -0.02    -0.04   0.09   0.02     0.03  -0.14  -0.02
     4   6     0.19  -0.08   0.03     0.10   0.06   0.03     0.07  -0.07  -0.02
     5   6     0.15  -0.05  -0.04    -0.00  -0.06   0.09     0.01   0.06   0.17
     6   8    -0.13  -0.07  -0.01     0.04  -0.02  -0.03    -0.02   0.22  -0.02
     7   6     0.01   0.12  -0.10    -0.08  -0.06  -0.06    -0.08   0.04   0.01
     8   6    -0.08   0.14  -0.00    -0.08   0.03  -0.02    -0.04   0.13  -0.05
     9   6    -0.05  -0.04  -0.01    -0.07   0.05   0.04     0.03   0.01  -0.01
    10   6    -0.08  -0.05  -0.00     0.10   0.03   0.03     0.04  -0.01   0.01
    11   6    -0.04   0.00  -0.02     0.06  -0.02   0.00    -0.05  -0.11   0.04
    12   6    -0.01   0.07   0.10     0.01  -0.06  -0.09    -0.08  -0.06  -0.06
    13   1    -0.13   0.01  -0.03    -0.36   0.27   0.00     0.32  -0.26   0.00
    14   1     0.02  -0.17  -0.18     0.07   0.03  -0.32    -0.10  -0.14   0.26
    15   1     0.22  -0.10   0.03     0.39   0.14   0.02     0.34  -0.14  -0.03
    16   1     0.19  -0.11  -0.01    -0.02   0.06  -0.27     0.01  -0.11  -0.22
    17   1     0.30  -0.07  -0.05     0.05  -0.13   0.08     0.02   0.02   0.17
    18   1    -0.19   0.15   0.13     0.06  -0.10  -0.08     0.07   0.08   0.03
    19   1     0.03   0.25  -0.09    -0.19  -0.16  -0.06    -0.27  -0.04   0.01
    20   1    -0.14   0.37   0.03    -0.15   0.06  -0.01    -0.03   0.22  -0.04
    21   1    -0.17   0.06   0.21     0.02   0.02  -0.00    -0.05   0.09   0.05
    22   1     0.02  -0.10  -0.01    -0.12   0.13   0.04     0.16  -0.02  -0.00
    23   1    -0.11  -0.06   0.09    -0.10  -0.04  -0.07    -0.07  -0.07   0.12
    24   1    -0.04  -0.05   0.11     0.07  -0.03  -0.12    -0.04   0.07  -0.08
    25   1    -0.18  -0.09   0.01     0.22   0.10   0.02     0.14  -0.01  -0.00
    26   1    -0.12  -0.11  -0.03     0.15  -0.01  -0.00    -0.01  -0.11   0.04
    27   1     0.06   0.04  -0.14    -0.04  -0.02   0.02    -0.10  -0.10   0.03
    28   1     0.05  -0.04   0.09     0.05  -0.16  -0.09    -0.19  -0.02  -0.05
                     16                     17                     18
                      A                      A                      A
 Frequencies --    529.3300               579.6892               699.8440
 Red. masses --      1.7949                 3.4673                 3.8587
 Frc consts  --      0.2963                 0.6865                 1.1135
 IR Inten    --      0.9748                 8.1618                 7.8368
  Atom  AN      X      Y      Z        X      Y      Z        X      Y      Z
     1   8     0.05  -0.03   0.00    -0.20  -0.03   0.03    -0.00   0.11  -0.13
     2   6    -0.00  -0.01   0.04     0.15  -0.08   0.01     0.06   0.24   0.23
     3   6    -0.05   0.01   0.03     0.27   0.05  -0.11     0.02  -0.09  -0.03
     4   6    -0.04  -0.00  -0.01     0.01   0.09   0.00    -0.03  -0.13  -0.06
     5   6    -0.07  -0.05   0.07    -0.05   0.01   0.01    -0.05   0.02   0.06
     6   8     0.01  -0.03  -0.02     0.03   0.02   0.00     0.01   0.12   0.00
     7   6    -0.04   0.01   0.03    -0.04  -0.02  -0.01    -0.06  -0.12  -0.10
     8   6     0.03   0.06  -0.03     0.00   0.05  -0.02     0.03  -0.10   0.01
     9   6     0.09  -0.05  -0.04     0.03   0.00  -0.03     0.02   0.01   0.00
    10   6    -0.05  -0.04  -0.03    -0.09   0.01  -0.03    -0.02   0.03  -0.00
    11   6     0.04   0.11  -0.04    -0.09  -0.05   0.03    -0.01  -0.02   0.00
    12   6     0.02   0.04  -0.06     0.05  -0.08   0.06     0.05  -0.05   0.02
    13   1    -0.14   0.02   0.02     0.16   0.15  -0.12    -0.17  -0.36  -0.04
    14   1    -0.01   0.02  -0.05     0.43   0.18  -0.23    -0.04  -0.12   0.03
    15   1     0.12   0.04  -0.01    -0.08  -0.00   0.01    -0.14  -0.35  -0.05
    16   1    -0.11   0.02  -0.17    -0.03   0.28   0.14     0.01  -0.05   0.16
    17   1    -0.12  -0.10   0.07    -0.07   0.01   0.01    -0.05   0.08   0.07
    18   1     0.02  -0.11  -0.07     0.06  -0.06  -0.02     0.06  -0.02  -0.04
    19   1    -0.15  -0.05   0.03    -0.09   0.02  -0.01    -0.16  -0.23  -0.09
    20   1     0.11   0.21  -0.01     0.04   0.24   0.00     0.00   0.09   0.03
    21   1    -0.02   0.00   0.13     0.01  -0.03   0.17     0.16  -0.18   0.17
    22   1     0.33  -0.23  -0.04     0.20  -0.12  -0.03    -0.00   0.03   0.00
    23   1     0.02  -0.00   0.27    -0.01   0.05   0.19     0.08   0.07  -0.03
    24   1     0.06  -0.01   0.28    -0.08   0.09   0.11    -0.01   0.03   0.03
    25   1    -0.33  -0.17  -0.01    -0.20  -0.07  -0.02    -0.06   0.04   0.00
    26   1     0.08   0.39   0.00    -0.18   0.00   0.04    -0.03   0.05   0.01
    27   1     0.09  -0.02   0.24    -0.12  -0.06   0.07    -0.05  -0.04   0.06
    28   1     0.11   0.06  -0.06     0.03  -0.13   0.06     0.24  -0.34  -0.01
                     19                     20                     21
                      A                      A                      A
 Frequencies --    791.8220               824.1566               845.0238
 Red. masses --      1.9304                 2.0559                 2.4648
 Frc consts  --      0.7131                 0.8227                 1.0370
 IR Inten    --      0.3840                 1.7729                 7.7588
  Atom  AN      X      Y      Z        X      Y      Z        X      Y      Z
     1   8    -0.00   0.02   0.01     0.02  -0.01  -0.00    -0.01   0.09  -0.02
     2   6    -0.02  -0.02  -0.08     0.07  -0.01   0.02     0.09   0.01  -0.10
     3   6    -0.05   0.02  -0.01     0.07  -0.08   0.06    -0.05  -0.06   0.10
     4   6    -0.03   0.01   0.02    -0.06  -0.05   0.03    -0.08  -0.07   0.05
     5   6    -0.01  -0.01   0.04    -0.07   0.00   0.01    -0.02   0.02  -0.05
     6   8     0.01   0.00  -0.00    -0.00   0.01   0.01    -0.00   0.02   0.01
     7   6     0.01  -0.06  -0.09     0.00   0.07  -0.06     0.04  -0.01   0.00
     8   6    -0.02  -0.11  -0.05     0.05  -0.06   0.01     0.02   0.03   0.01
     9   6    -0.03  -0.04  -0.05     0.08  -0.07   0.00    -0.08   0.12   0.01
    10   6     0.01   0.06   0.03    -0.07  -0.02   0.05    -0.07  -0.01  -0.08
    11   6     0.04   0.12   0.04    -0.06   0.02   0.04     0.05  -0.11   0.03
    12   6     0.05   0.01   0.12    -0.03   0.13  -0.08     0.11  -0.07   0.06
    13   1     0.17   0.03   0.00    -0.25   0.21   0.04    -0.19   0.30   0.09
    14   1    -0.11   0.02   0.13     0.24  -0.08  -0.31     0.03  -0.13  -0.21
    15   1     0.16   0.05   0.01     0.18   0.16   0.02     0.21   0.27   0.03
    16   1    -0.09  -0.01  -0.17    -0.19  -0.01  -0.26    -0.14  -0.26  -0.37
    17   1     0.08  -0.04   0.04    -0.00   0.01   0.01     0.05   0.04  -0.04
    18   1     0.02  -0.05  -0.04     0.01  -0.04  -0.03    -0.01   0.04   0.02
    19   1    -0.08   0.04  -0.07     0.01   0.04  -0.06     0.15   0.06  -0.00
    20   1     0.01   0.36   0.01     0.01   0.00   0.02     0.03  -0.05  -0.00
    21   1     0.01  -0.30   0.37    -0.07  -0.07   0.06     0.17   0.05  -0.08
    22   1     0.16  -0.09  -0.04    -0.09   0.14   0.00     0.08  -0.10   0.02
    23   1    -0.03   0.04   0.12     0.22  -0.00  -0.24    -0.10   0.22   0.26
    24   1     0.05  -0.04   0.00    -0.24   0.06  -0.28    -0.01  -0.03   0.06
    25   1     0.07  -0.01   0.02     0.27   0.12   0.02    -0.20  -0.11  -0.07
    26   1    -0.07  -0.31  -0.01     0.04  -0.16   0.01    -0.06  -0.03   0.04
    27   1     0.02   0.30  -0.36     0.01   0.09  -0.13     0.10  -0.15   0.10
    28   1    -0.04  -0.07   0.11    -0.14   0.12  -0.07     0.01  -0.02   0.06
                     22                     23                     24
                      A                      A                      A
 Frequencies --    859.1721               864.2862               913.9164
 Red. masses --      1.7497                 1.9213                 1.7503
 Frc consts  --      0.7610                 0.8456                 0.8613
 IR Inten    --      1.9134                 1.1864                14.3143
  Atom  AN      X      Y      Z        X      Y      Z        X      Y      Z
     1   8    -0.00   0.03  -0.00    -0.01  -0.01   0.01    -0.01   0.03  -0.01
     2   6     0.00   0.00  -0.04    -0.01  -0.01  -0.00     0.04   0.01  -0.03
     3   6     0.01  -0.02   0.00    -0.03   0.07  -0.07    -0.05   0.02   0.03
     4   6    -0.01  -0.02   0.04    -0.09   0.01  -0.00    -0.00  -0.02  -0.02
     5   6    -0.02   0.00  -0.01     0.03  -0.04   0.11     0.04   0.02  -0.01
     6   8     0.00   0.01   0.01    -0.01  -0.03  -0.02    -0.01  -0.03  -0.01
     7   6    -0.04   0.04  -0.05     0.04   0.05  -0.09     0.02   0.04   0.09
     8   6    -0.06  -0.04   0.06     0.07   0.03  -0.01    -0.06  -0.04  -0.07
     9   6     0.10  -0.07   0.00     0.01   0.01   0.10     0.03  -0.05  -0.02
    10   6     0.12   0.07  -0.03    -0.08  -0.08  -0.02    -0.02   0.06   0.08
    11   6    -0.04   0.02  -0.05     0.00  -0.04  -0.04    -0.05  -0.06  -0.04
    12   6    -0.01  -0.05   0.07     0.05   0.00   0.05     0.10  -0.06  -0.02
    13   1     0.06   0.13   0.01     0.27  -0.14  -0.04    -0.04   0.02   0.03
    14   1    -0.02  -0.08  -0.04    -0.07   0.23   0.28    -0.04   0.04   0.03
    15   1     0.17   0.10   0.03     0.19  -0.13  -0.02    -0.05   0.00  -0.01
    16   1    -0.08  -0.03  -0.17    -0.19   0.08  -0.19     0.06  -0.14   0.01
    17   1     0.08   0.01  -0.01     0.18  -0.11   0.09    -0.04  -0.01  -0.02
    18   1     0.01  -0.01  -0.01    -0.01  -0.05  -0.04    -0.03   0.07   0.05
    19   1     0.02   0.12  -0.04    -0.05   0.12  -0.08    -0.04   0.17   0.10
    20   1    -0.25  -0.16   0.05    -0.12   0.03  -0.00     0.07   0.30  -0.03
    21   1    -0.11   0.02  -0.06     0.15   0.04  -0.03    -0.28  -0.16   0.27
    22   1    -0.25   0.00  -0.01    -0.26   0.23   0.09     0.14   0.22  -0.01
    23   1     0.16  -0.15  -0.32     0.15   0.03  -0.24    -0.01  -0.12  -0.08
    24   1     0.23   0.18   0.38    -0.11  -0.13  -0.15    -0.14   0.10  -0.16
    25   1    -0.32   0.02   0.02    -0.02   0.15  -0.02     0.13   0.31   0.07
    26   1    -0.24   0.21  -0.01    -0.05   0.15  -0.01     0.09   0.22  -0.00
    27   1    -0.12  -0.04   0.11     0.18  -0.14   0.15    -0.23  -0.17   0.25
    28   1    -0.01  -0.09   0.06     0.17  -0.09   0.03     0.30   0.15  -0.00
                     25                     26                     27
                      A                      A                      A
 Frequencies --    921.7208               967.3256               992.4288
 Red. masses --      1.9602                 2.3761                 2.0255
 Frc consts  --      0.9812                 1.3099                 1.1754
 IR Inten    --      5.3819                 4.6017                 6.8527
  Atom  AN      X      Y      Z        X      Y      Z        X      Y      Z
     1   8     0.02  -0.01   0.01    -0.00   0.04  -0.02    -0.01  -0.02   0.01
     2   6    -0.07  -0.02  -0.04     0.02   0.01  -0.01     0.05  -0.02  -0.00
     3   6     0.02  -0.07  -0.00     0.03  -0.02   0.03     0.03   0.12   0.08
     4   6     0.11   0.06   0.04    -0.04  -0.03  -0.01    -0.05  -0.12  -0.09
     5   6    -0.07   0.01  -0.07    -0.01  -0.03  -0.01     0.09  -0.03  -0.01
     6   8     0.01   0.03   0.02    -0.00   0.04   0.02     0.00   0.03   0.00
     7   6    -0.09  -0.05  -0.02     0.07  -0.06   0.02    -0.06  -0.05   0.01
     8   6     0.04  -0.05  -0.05     0.10   0.13  -0.08    -0.01  -0.06  -0.03
     9   6     0.02   0.05   0.07    -0.08  -0.09   0.06    -0.01   0.04   0.03
    10   6    -0.02  -0.06  -0.01     0.07  -0.08   0.06     0.05  -0.00  -0.03
    11   6     0.05  -0.01  -0.07    -0.10   0.13  -0.06     0.02  -0.02  -0.03
    12   6    -0.04   0.04   0.09    -0.02  -0.06   0.03    -0.10   0.07   0.02
    13   1     0.00   0.11  -0.00    -0.05   0.13   0.03    -0.07   0.10   0.07
    14   1    -0.12  -0.32  -0.14     0.07  -0.04  -0.10     0.33   0.44   0.02
    15   1    -0.10   0.18   0.05    -0.04   0.11  -0.01    -0.03  -0.20  -0.09
    16   1     0.14   0.08   0.15    -0.04  -0.07  -0.06     0.06  -0.32  -0.05
    17   1    -0.17   0.08  -0.06    -0.08   0.01  -0.01     0.11  -0.00  -0.01
    18   1     0.04  -0.06  -0.02     0.01  -0.00  -0.01    -0.03   0.16   0.09
    19   1    -0.19   0.13  -0.00     0.08  -0.07   0.02    -0.14   0.05   0.02
    20   1    -0.01   0.23  -0.01     0.22   0.10  -0.08    -0.01   0.12  -0.00
    21   1     0.23  -0.18   0.20     0.17   0.12  -0.08     0.12  -0.15   0.14
    22   1    -0.03   0.29   0.07    -0.08   0.11   0.06     0.03   0.10   0.03
    23   1     0.09   0.05  -0.12    -0.28  -0.43  -0.08    -0.02   0.02   0.00
    24   1     0.01  -0.18  -0.09     0.17  -0.39  -0.06     0.13  -0.07   0.09
    25   1    -0.05   0.19  -0.00     0.08   0.13   0.06    -0.12   0.05  -0.01
    26   1    -0.02   0.24  -0.03    -0.26   0.14  -0.05    -0.10   0.11  -0.01
    27   1     0.27  -0.14   0.16    -0.25   0.14  -0.05     0.14  -0.07   0.06
    28   1     0.01   0.14   0.09    -0.01  -0.08   0.03    -0.33   0.26   0.04
                     28                     29                     30
                      A                      A                      A
 Frequencies --   1014.6197              1042.5000              1062.3709
 Red. masses --      1.8920                 1.8994                 1.8755
 Frc consts  --      1.1476                 1.2162                 1.2471
 IR Inten    --      1.5367                 3.2204                18.7658
  Atom  AN      X      Y      Z        X      Y      Z        X      Y      Z
     1   8     0.01  -0.02  -0.01     0.01   0.02  -0.00     0.00  -0.00   0.00
     2   6    -0.07   0.03   0.08     0.04  -0.01  -0.03    -0.02   0.00   0.01
     3   6     0.07  -0.04  -0.08    -0.02  -0.11   0.03     0.01  -0.01  -0.01
     4   6    -0.08   0.01   0.07    -0.04   0.13  -0.04    -0.04   0.01   0.00
     5   6     0.02  -0.01  -0.04     0.05   0.01   0.11     0.01  -0.10  -0.03
     6   8     0.01   0.01   0.01    -0.00  -0.04  -0.03     0.01   0.07   0.04
     7   6     0.02   0.03   0.01     0.09   0.00  -0.01     0.08  -0.12   0.00
     8   6     0.01  -0.08   0.00     0.00  -0.03  -0.05    -0.09   0.07  -0.01
     9   6    -0.08   0.05  -0.04    -0.05  -0.00   0.03     0.04  -0.04  -0.03
    10   6     0.08   0.01   0.03     0.05   0.04  -0.04    -0.06   0.06   0.01
    11   6    -0.02  -0.05  -0.06    -0.01  -0.06   0.02     0.08  -0.02  -0.01
    12   6    -0.09   0.02  -0.01     0.00   0.04  -0.02    -0.03   0.03   0.04
    13   1     0.19   0.01  -0.07    -0.44  -0.36  -0.01     0.04   0.03  -0.01
    14   1     0.02  -0.06   0.01     0.08  -0.06  -0.11     0.01  -0.00  -0.00
    15   1     0.26   0.10   0.06    -0.16  -0.03  -0.03    -0.03   0.10   0.00
    16   1    -0.31   0.24  -0.25    -0.08   0.36   0.16    -0.08   0.07  -0.05
    17   1     0.31  -0.05  -0.04     0.08  -0.04   0.10     0.06  -0.09  -0.02
    18   1    -0.02   0.08   0.03    -0.01  -0.02  -0.00     0.03  -0.01  -0.02
    19   1     0.27   0.13   0.00    -0.02   0.05  -0.01     0.26  -0.32  -0.01
    20   1     0.25   0.03   0.01    -0.08   0.16  -0.03     0.02  -0.02  -0.03
    21   1     0.01  -0.12   0.10     0.05  -0.10   0.10    -0.28   0.11  -0.06
    22   1     0.24  -0.01  -0.03    -0.09  -0.00   0.03     0.09   0.15  -0.02
    23   1    -0.19   0.03   0.22    -0.10  -0.09  -0.02    -0.10  -0.25  -0.08
    24   1     0.11  -0.07   0.02     0.12   0.06   0.16    -0.18   0.27  -0.04
    25   1     0.06  -0.01   0.03    -0.21   0.07  -0.01    -0.11   0.35   0.02
    26   1     0.12   0.18  -0.03    -0.22   0.01   0.04     0.01   0.03   0.00
    27   1    -0.12  -0.14   0.16     0.04  -0.07   0.04     0.48  -0.07   0.02
    28   1     0.08   0.12  -0.01    -0.30   0.20   0.00    -0.12  -0.09   0.03
                     31                     32                     33
                      A                      A                      A
 Frequencies --   1076.4431              1087.3583              1094.6633
 Red. masses --      1.4807                 2.4594                 2.0575
 Frc consts  --      1.0109                 1.7133                 1.4527
 IR Inten    --      1.2007                41.7130                25.6963
  Atom  AN      X      Y      Z        X      Y      Z        X      Y      Z
     1   8     0.00  -0.01   0.01    -0.01   0.02  -0.01    -0.00  -0.02   0.01
     2   6     0.01  -0.01  -0.00     0.07   0.00   0.00     0.01   0.00   0.02
     3   6    -0.02   0.00  -0.02    -0.03  -0.10  -0.05     0.01   0.01  -0.02
     4   6     0.00   0.01   0.01    -0.09   0.10   0.03     0.03  -0.04   0.04
     5   6     0.01  -0.02  -0.03     0.17   0.07  -0.02    -0.05   0.22   0.05
     6   8     0.01   0.02   0.01     0.02  -0.06  -0.04    -0.01  -0.12  -0.06
     7   6    -0.05  -0.07  -0.03    -0.15  -0.09   0.05     0.00  -0.00  -0.02
     8   6     0.06   0.03  -0.00    -0.04   0.02   0.04     0.03  -0.01   0.00
     9   6    -0.04  -0.06  -0.01     0.07   0.02  -0.01    -0.04  -0.02  -0.01
    10   6     0.01   0.06   0.02    -0.01  -0.07   0.01     0.02   0.04   0.01
    11   6    -0.04  -0.05   0.02    -0.02   0.06  -0.01     0.00  -0.04   0.00
    12   6     0.05   0.10   0.01     0.00   0.02   0.02    -0.01   0.06   0.00
    13   1     0.08   0.03  -0.01     0.02  -0.10  -0.04     0.17   0.09  -0.01
    14   1    -0.04   0.02   0.04    -0.00  -0.02   0.02    -0.01   0.02   0.05
    15   1    -0.00   0.07   0.01    -0.01   0.30   0.03     0.17  -0.07   0.04
    16   1     0.03  -0.07  -0.03    -0.07  -0.06  -0.12     0.11  -0.27  -0.04
    17   1     0.04  -0.01  -0.03     0.28  -0.04  -0.04    -0.11   0.29   0.04
    18   1     0.00   0.04   0.02    -0.11   0.46   0.29    -0.01  -0.14  -0.08
    19   1    -0.15   0.03  -0.02    -0.32  -0.36   0.04     0.04  -0.29  -0.04
    20   1    -0.07  -0.04  -0.01     0.02  -0.12   0.02     0.32  -0.05  -0.01
    21   1     0.46  -0.01  -0.06    -0.01   0.06  -0.06     0.02   0.00  -0.01
    22   1    -0.22  -0.32  -0.02     0.11   0.14  -0.01     0.11   0.09  -0.00
    23   1    -0.20  -0.28  -0.00     0.08   0.01  -0.04    -0.23  -0.25   0.03
    24   1    -0.15   0.42   0.06    -0.04  -0.11  -0.09    -0.00   0.10   0.04
    25   1     0.04  -0.09   0.01     0.10  -0.04   0.00    -0.14   0.27   0.03
    26   1     0.16   0.00   0.02    -0.08   0.01  -0.02    -0.21   0.04   0.02
    27   1    -0.06  -0.06   0.06     0.02   0.07  -0.05     0.25  -0.08   0.03
    28   1     0.27   0.31   0.02     0.05  -0.08   0.01    -0.13  -0.21  -0.02
                     34                     35                     36
                      A                      A                      A
 Frequencies --   1106.1339              1127.5460              1155.4370
 Red. masses --      2.6477                 1.7318                 2.3233
 Frc consts  --      1.9087                 1.2972                 1.8275
 IR Inten    --      3.4343                22.0778                 2.1258
  Atom  AN      X      Y      Z        X      Y      Z        X      Y      Z
     1   8    -0.00   0.01  -0.01    -0.02   0.01   0.00     0.01   0.04  -0.00
     2   6    -0.01   0.01   0.01     0.14  -0.03  -0.03    -0.07  -0.02  -0.08
     3   6     0.02  -0.01   0.00    -0.08   0.02  -0.01     0.06  -0.01   0.10
     4   6    -0.02   0.01  -0.01     0.06   0.04   0.06    -0.02  -0.01  -0.09
     5   6     0.05  -0.02  -0.02    -0.07  -0.02  -0.07     0.03   0.06   0.10
     6   8     0.01  -0.00  -0.00     0.00   0.02   0.03    -0.01  -0.04  -0.04
     7   6    -0.10   0.12   0.05    -0.09   0.00  -0.03    -0.01  -0.04  -0.07
     8   6     0.14  -0.01  -0.02     0.02   0.01   0.05    -0.01   0.02   0.07
     9   6    -0.07  -0.13   0.01     0.00  -0.02  -0.04     0.01   0.00  -0.08
    10   6    -0.08   0.13  -0.01    -0.02  -0.01   0.04    -0.03  -0.00   0.08
    11   6     0.16   0.01   0.01     0.01   0.02  -0.03     0.03   0.03  -0.11
    12   6    -0.08  -0.14  -0.01     0.00  -0.01   0.02    -0.06  -0.06   0.13
    13   1    -0.01   0.02  -0.00    -0.25  -0.47  -0.02    -0.23   0.08   0.07
    14   1     0.01  -0.05  -0.04    -0.07   0.11   0.13     0.19  -0.02  -0.19
    15   1    -0.05   0.08  -0.01     0.23  -0.33   0.04    -0.11  -0.15  -0.08
    16   1    -0.06   0.08  -0.02     0.03   0.06   0.03    -0.03   0.18   0.11
    17   1     0.03  -0.10  -0.03     0.29  -0.04  -0.07     0.23   0.26   0.11
    18   1    -0.06   0.26   0.17     0.04  -0.14  -0.09     0.01  -0.14  -0.09
    19   1    -0.28   0.21   0.06     0.23   0.14  -0.03     0.07   0.09  -0.06
    20   1     0.29  -0.01  -0.02     0.26  -0.16   0.03    -0.06  -0.18   0.05
    21   1     0.05  -0.00   0.00     0.02   0.06  -0.07     0.06   0.09  -0.11
    22   1    -0.23  -0.22   0.01     0.14   0.05  -0.03     0.08  -0.16  -0.08
    23   1     0.01  -0.06  -0.06    -0.06  -0.06   0.03    -0.05   0.01   0.09
    24   1    -0.02   0.04   0.01    -0.03  -0.08  -0.08    -0.16   0.08  -0.14
    25   1    -0.18   0.31   0.01     0.04   0.15   0.03     0.26  -0.04   0.05
    26   1     0.27  -0.09  -0.00    -0.04   0.07  -0.02     0.37   0.19  -0.09
    27   1     0.09   0.04  -0.04    -0.03   0.00   0.02     0.04  -0.06   0.11
    28   1    -0.23  -0.34  -0.02    -0.22   0.16   0.03     0.18   0.02   0.13
                     37                     38                     39
                      A                      A                      A
 Frequencies --   1169.5326              1197.3087              1234.1693
 Red. masses --      2.0195                 1.5481                 1.3971
 Frc consts  --      1.6275                 1.3075                 1.2538
 IR Inten    --      4.5950                33.8334                17.6013
  Atom  AN      X      Y      Z        X      Y      Z        X      Y      Z
     1   8    -0.01   0.00  -0.01     0.01   0.00   0.00     0.01  -0.01   0.00
     2   6     0.04   0.03   0.06    -0.09  -0.00  -0.03    -0.06   0.00  -0.00
     3   6     0.02  -0.02  -0.05     0.05   0.05   0.05     0.02   0.00   0.01
     4   6    -0.02  -0.00   0.08     0.01  -0.06  -0.00    -0.01  -0.01  -0.03
     5   6    -0.03   0.11  -0.02    -0.03   0.05  -0.05     0.02   0.01  -0.00
     6   8    -0.00  -0.04  -0.02     0.02  -0.02  -0.01    -0.01   0.00  -0.00
     7   6     0.07  -0.11   0.07    -0.03  -0.01   0.05    -0.06  -0.06  -0.01
     8   6    -0.03   0.05  -0.08    -0.04   0.00  -0.01     0.01   0.04  -0.02
     9   6     0.04  -0.01   0.04     0.04   0.02   0.03    -0.00  -0.05   0.03
    10   6    -0.04   0.01  -0.03    -0.01  -0.03  -0.04    -0.02   0.04  -0.05
    11   6     0.05   0.05  -0.01    -0.01   0.03   0.05     0.03  -0.04   0.07
    12   6    -0.09  -0.10  -0.01     0.07  -0.03  -0.03     0.04   0.03   0.00
    13   1     0.01  -0.15  -0.05    -0.16  -0.05   0.03     0.03   0.09   0.01
    14   1     0.02   0.05   0.06    -0.03  -0.12  -0.07     0.03  -0.02  -0.04
    15   1     0.23  -0.05   0.06     0.20  -0.40  -0.02    -0.02  -0.03  -0.03
    16   1    -0.02  -0.16  -0.12    -0.23   0.45   0.00    -0.02   0.07   0.02
    17   1     0.05   0.17  -0.02     0.13  -0.04  -0.06     0.38   0.24   0.01
    18   1     0.01  -0.10  -0.07    -0.06   0.29   0.18     0.04  -0.21  -0.15
    19   1     0.14   0.28   0.09     0.08   0.00   0.04     0.07  -0.15  -0.02
    20   1    -0.39   0.20  -0.05     0.03   0.03  -0.01     0.24  -0.01  -0.03
    21   1     0.07  -0.01   0.04     0.25  -0.05   0.03    -0.24   0.08  -0.02
    22   1    -0.22  -0.09   0.03     0.03   0.16   0.03    -0.05   0.09   0.03
    23   1     0.11   0.00  -0.12    -0.12  -0.24  -0.07     0.18   0.14  -0.08
    24   1    -0.05   0.05  -0.00    -0.08   0.16   0.03     0.18  -0.29   0.04
    25   1     0.03  -0.16  -0.04    -0.06  -0.02  -0.03    -0.19   0.13  -0.03
    26   1     0.35  -0.05  -0.03    -0.12  -0.11   0.03     0.04  -0.13   0.06
    27   1    -0.02   0.07  -0.05     0.15   0.07  -0.09    -0.34   0.04  -0.01
    28   1    -0.19   0.37   0.04     0.12  -0.01  -0.03     0.21   0.31   0.02
                     40                     41                     42
                      A                      A                      A
 Frequencies --   1250.3747              1254.2652              1279.3423
 Red. masses --      1.3688                 1.3381                 1.4686
 Frc consts  --      1.2608                 1.2402                 1.4162
 IR Inten    --     17.6889                 8.1107                 4.4523
  Atom  AN      X      Y      Z        X      Y      Z        X      Y      Z
     1   8    -0.00   0.01  -0.01     0.02   0.04  -0.01     0.02   0.01  -0.01
     2   6     0.00   0.01   0.02    -0.09  -0.01  -0.05    -0.10   0.02   0.02
     3   6    -0.01  -0.03  -0.01     0.01  -0.06   0.00     0.02  -0.04  -0.02
     4   6    -0.01   0.03  -0.04     0.01   0.05   0.05     0.00   0.01   0.03
     5   6     0.04  -0.04   0.04    -0.02   0.00  -0.05     0.00   0.00  -0.00
     6   8    -0.03   0.01   0.01    -0.00   0.00   0.02     0.00  -0.00   0.00
     7   6    -0.04   0.04   0.03    -0.00   0.02   0.02     0.01  -0.01  -0.01
     8   6    -0.04  -0.03   0.02     0.00  -0.01  -0.03    -0.02   0.02   0.06
     9   6     0.02   0.03   0.03    -0.01   0.00   0.04     0.02  -0.01  -0.10
    10   6    -0.00  -0.04  -0.05     0.01   0.00  -0.02    -0.03   0.00   0.04
    11   6    -0.01   0.05   0.03    -0.01  -0.00   0.00     0.04  -0.01   0.03
    12   6     0.00  -0.06  -0.05    -0.01   0.02   0.02     0.06  -0.03  -0.04
    13   1     0.09   0.10  -0.01    -0.18  -0.27  -0.02     0.00  -0.05  -0.02
    14   1     0.05   0.05  -0.00     0.48   0.49  -0.04     0.25   0.26  -0.00
    15   1    -0.18   0.24  -0.02     0.14  -0.07   0.05     0.02   0.08   0.03
    16   1     0.11  -0.17   0.03     0.11  -0.21  -0.01     0.04  -0.10  -0.01
    17   1     0.30   0.17   0.06    -0.03  -0.14  -0.06    -0.13  -0.05  -0.00
    18   1     0.06  -0.33  -0.21     0.02  -0.09  -0.06    -0.00   0.01   0.01
    19   1     0.12   0.33   0.04    -0.00  -0.12   0.01    -0.10   0.20   0.01
    20   1     0.17  -0.04   0.02     0.10   0.05  -0.02    -0.34  -0.10   0.05
    21   1     0.21  -0.07   0.04    -0.07  -0.03   0.04     0.33   0.03  -0.08
    22   1     0.13   0.25   0.03    -0.07   0.01   0.04     0.18  -0.03  -0.10
    23   1    -0.20  -0.30  -0.03     0.02   0.01  -0.02    -0.03  -0.02   0.04
    24   1    -0.10   0.22   0.03     0.00   0.08   0.04     0.06  -0.29  -0.09
    25   1    -0.06  -0.05  -0.04     0.01  -0.12  -0.02    -0.10   0.42   0.06
    26   1    -0.00  -0.10   0.01     0.12  -0.02  -0.00    -0.31  -0.03   0.04
    27   1     0.15   0.08  -0.10     0.03  -0.00  -0.00    -0.08   0.02  -0.01
    28   1     0.05  -0.03  -0.05     0.30  -0.31  -0.01    -0.11   0.20  -0.01
                     43                     44                     45
                      A                      A                      A
 Frequencies --   1301.8200              1324.7213              1332.7259
 Red. masses --      1.2756                 1.2886                 1.3492
 Frc consts  --      1.2737                 1.3324                 1.4120
[...]
 01585,0.00000153,0.00000240,-0.00000387,0.00000479,-0.00008272,-0.0000
 0827,0.00003189,-0.00005798,0.00005345,-0.00019831,0.00016332,0.000030
 63,-0.00001988,-0.00049206,0.00074599,0.01775195,0.00027649,-0.0212476
 0,-0.14263871,-0.00375704,0.21863208,0.00010919,-0.00004614,0.00002390
 ,-0.00004801,0.00012945,-0.00006652,-0.00001607,0.00001549,0.00002232,
 -0.00002992,-0.00002807,0.00007452,0.00004350,0.00004422,0.00010846,0.
 00001146,-0.00010905,0.00015442,0.00026030,0.00119625,0.00010003,-0.01
 090307,-0.00137899,-0.01806808,-0.10231794,-0.00177338,-0.10210590,0.0
 1050231,0.00075616,0.02272826,0.00142309,-0.00061820,0.00016384,-0.000
 06807,-0.00007858,0.00008608,-0.00000558,0.00000584,0.00000477,0.00001
 185,-0.00000317,-0.00000335,0.00002101,-0.00003511,0.00000374,-0.00000
 155,-0.00003201,-0.00000771,0.00010421,0.00018051,0.00011369,0.0000016
 3,0.00001548,-0.00002460,0.00065226,-0.00047931,0.00034787,-0.00141912
 ,-0.00412928,0.00011999,0.00027638,0.00061852,0.00011458,0.11247631,0.
 00010122,0.00004118,0.00003012,-0.00006041,-0.00001657,-0.00005822,-0.
 00000097,0.00001135,0.00000112,0.00006105,0.00001725,0.00008943,-0.000
 28549,-0.00002388,0.00008881,0.00011236,-0.00006511,0.00006393,-0.0007
 0364,0.00180606,-0.00124536,-0.01414127,-0.00226281,-0.02577355,-0.001
 57867,-0.05154026,-0.00755137,0.00040363,-0.00052335,0.00133763,-0.000
 48439,0.00011611,-0.00082053,0.00004001,-0.00025589,0.00000263,-0.0000
 0236,0.00000625,0.00000655,0.00000708,0.00000693,-0.00000323,0.0000285
 7,-0.00004976,0.00001824,-0.00000494,0.00002104,0.00000008,0.00018922,
 0.00008197,0.00020225,-0.00001178,0.00002103,-0.00001439,0.00041428,-0
 .00041472,0.00052122,-0.00333241,-0.00453909,-0.00050825,0.00066622,0.
 00117270,0.00042609,0.00648433,0.05365335,0.00012287,-0.00006827,0.000
 03874,-0.00017014,0.00005859,-0.00001951,0.00002436,-0.00003138,-0.000
 00757,-0.00004654,-0.00004769,-0.00001514,0.00017399,-0.00010134,0.000
 27406,0.00000734,-0.00008496,0.00004975,-0.00003918,0.00040099,-0.0001
 4832,-0.00084579,-0.00021376,-0.00086064,-0.10190623,-0.00793696,-0.24
 525741,-0.01088251,-0.00002934,-0.02410565,-0.00148102,0.00058886,0.00
 062981,0.00027553,-0.00017360,0.00005429,0.00000135,0.00000442,0.00000
 706,-0.00000399,-0.00001956,0.00000038,0.00000384,-0.00002185,0.000016
 79,0.00000692,-0.00002180,0.00000719,0.00007445,0.00017036,0.00001014,
 0.00000140,-0.00000072,-0.00001247,0.00036872,-0.00061552,0.00024598,-
 0.00001639,0.00003701,0.00134178,-0.00021068,-0.00039131,0.00075617,0.
 11037320,0.00783152,0.26950700,0.00022290,0.00024515,0.00001015,-0.000
 16149,-0.00013077,-0.00009195,-0.00005073,0.00013556,0.00004725,-0.000
 38054,-0.00028395,0.00002788,0.00099144,-0.00089042,0.00005151,0.00005
 484,0.00011374,-0.00003301,-0.00264655,-0.00300495,-0.00033723,0.01250
 639,-0.01784410,0.00146700,-0.13601746,0.12183795,-0.01152514,-0.01352
 238,0.01891214,-0.00292050,-0.00243080,-0.00181655,0.00473710,-0.00033
 916,-0.00051458,-0.00002573,0.00000402,0.00001023,-0.00000839,0.000029
 15,0.00003648,-0.00001988,0.00000043,0.00000585,0.00000041,0.00009927,
 -0.00016229,-0.00000963,0.00000433,0.00004576,-0.00005231,0.00000789,0
 .00000318,-0.00000564,0.00003548,-0.00002650,0.00016934,0.00087035,0.0
 0080175,0.00006241,0.00080339,0.00086724,0.00011915,-0.00920089,0.0121
 3705,-0.00121552,0.14798423,0.00029213,-0.00005983,0.00003363,-0.00027
 177,0.00026868,-0.00005072,-0.00004496,0.00005728,0.00008053,-0.000626
 21,-0.00039356,-0.00002100,0.00195893,-0.00080163,-0.00016864,-0.00020
 275,0.00006580,0.00015115,-0.00561457,-0.00300093,-0.00063384,0.016354
 10,-0.02288875,0.00244559,0.12138767,-0.21766059,0.01454573,-0.0011486
 1,0.00167005,-0.00036491,-0.00030022,0.00106124,-0.00011427,-0.0003712
 9,0.00028935,0.00035569,-0.00001079,0.00001057,-0.00001026,0.00003614,
 -0.00001236,-0.00002361,0.00002279,0.00001855,0.00001120,0.00012927,-0
 .00027324,0.00001243,-0.00006802,-0.00003552,-0.00008901,0.00005582,-0
 .00003824,-0.00002517,-0.00010731,0.00031182,0.00011929,0.00014340,0.0
 0109400,-0.00060067,0.00000404,0.00085389,0.00052379,-0.00085957,0.001
 47272,0.00075814,-0.13104256,0.23732073,-0.00013581,-0.00015334,0.0000
 3393,0.00010743,0.00003042,0.00004519,0.00002592,-0.00005198,-0.000015
 14,0.00002755,-0.00000855,-0.00003943,0.00002004,0.00000364,0.00041438
 ,-0.00003027,-0.00002227,-0.00002333,-0.00005565,0.00011437,0.00034371
 ,0.00062509,-0.00230072,-0.00074231,-0.01204454,0.01533474,-0.05157480
 ,0.01540707,-0.02191016,0.00136921,0.00289710,0.00148688,-0.00391022,0
 .00006308,0.00052738,0.00004679,-0.00000439,-0.00000844,-0.00000046,-0
 .00001736,-0.00002035,0.00000445,-0.00001059,-0.00000127,0.00000618,-0
 .00001741,0.00000474,0.00000015,0.00005216,0.00007330,-0.00000847,-0.0
 0001166,-0.00000375,0.00002292,0.00032589,-0.00038952,0.00023374,0.000
 49131,-0.00009820,0.00025693,-0.00022874,0.00029536,-0.00001762,-0.017
 16095,0.02459879,-0.00176138,0.01004302,-0.01621767,0.05321464,0.,-0.0
 0016093,0.00001503,0.00103932,0.00087361,0.00001921,-0.00030849,0.0003
 3625,-0.00001617,-0.00011485,-0.00007586,0.00006618,0.00000806,-0.0000
 0244,0.00000088,0.00012019,-0.00015824,-0.00002419,-0.00039246,0.00052
 017,0.00013906,-0.00244840,0.00163690,0.00475052,-0.01368316,-0.018596
 12,-0.00356665,-0.13879618,-0.12234852,-0.01602551,0.01249014,0.017325
 65,0.00201040,-0.00239221,0.00307831,-0.00021926,-0.00000987,-0.000010
 39,0.00000486,0.00008067,0.00014236,-0.00001856,0.00000866,-0.00000185
 ,-0.00000915,0.00003714,-0.00004315,-0.00001494,0.00000039,0.00000354,
 -0.00000396,0.00002488,-0.00001578,-0.00004488,0.00007124,-0.00008546,
 -0.00001530,0.00036826,0.00043828,-0.00002751,-0.00061961,-0.00150886,
 0.00008925,0.00117079,0.00030184,0.00003109,0.00018207,0.00033355,-0.0
 0068780,0.15088531,0.00060767,0.00003230,-0.00001873,-0.00243929,-0.00
 052315,0.00012900,0.00054211,-0.00049123,0.00001747,0.00006157,0.00006
 802,-0.00011830,0.00014154,0.00017017,-0.00001915,-0.00020243,-0.00004
 504,0.00013312,0.00045195,0.00033684,-0.00046184,0.00025412,0.00111778
 ,0.00023487,0.00076901,0.00109610,0.00042802,-0.12177191,-0.21396621,-
 0.02023678,-0.01662518,-0.02281757,-0.00308008,0.00557437,-0.00342461,
 0.00042232,-0.00001555,0.00000293,-0.00000800,-0.00011140,-0.00024321,
 0.00000893,0.00000111,0.00000898,0.00002335,-0.00005373,-0.00002267,0.
 00003064,-0.00001124,-0.00001083,-0.00000265,0.00001911,-0.00001365,-0
 .00000695,-0.00004555,-0.00002257,0.00008741,-0.00001191,-0.00003679,-
 0.00007581,0.00002918,0.00002714,-0.00017845,0.00001446,0.00013045,0.0
 0044093,-0.00030440,0.00052795,0.00038869,0.13157501,0.23335667,0.0000
 9571,-0.00007799,-0.00010128,-0.00015179,0.00010888,0.00043085,0.00000
 129,-0.00005582,-0.00008606,0.00007632,0.00004136,-0.00001390,-0.00001
 170,-0.00000097,-0.00007122,-0.00008142,0.00010849,0.00003808,0.000114
 42,-0.00046658,-0.00001880,0.00294737,-0.00132853,-0.00397301,0.015635
 72,0.02171464,0.00220234,-0.01657863,-0.02101006,-0.05293174,0.0001349
 1,0.00149520,-0.00069712,0.00014675,-0.00029704,0.00060400,-0.00000893
 ,-0.00002325,0.00000624,-0.00000916,-0.00001111,0.00000175,-0.00000139
 ,0.00000153,0.00000361,-0.00002431,0.00002288,0.00000375,0.00000870,-0
 .00000180,0.00002208,-0.00001918,0.00001430,0.00002113,-0.00005127,0.0
 0003688,-0.00001746,0.00028999,0.00008426,0.00025830,0.00092728,0.0012
 0911,0.00022837,-0.00083491,0.00027604,0.00095630,-0.00069454,-0.00039
 108,0.00081037,0.01498695,0.02248762,0.05467537,0.00028219,0.00025730,
 0.00008733,-0.00038343,-0.00010074,0.00024545,0.00001135,0.00003977,-0
 .00006018,-0.00001136,0.00000101,0.00002128,-0.00000728,-0.00007585,-0
 .00003482,0.00007929,0.00004067,-0.00004453,-0.00011750,0.00007423,0.0
 0016221,0.00145668,0.00060533,0.00018681,0.01046226,-0.00168974,0.0226
 3937,-0.10188480,0.00590814,-0.10118236,-0.01078738,0.00206678,-0.0178
 9765,0.00031664,-0.00135435,0.00021592,0.00001243,0.00000438,0.0000022
 7,0.00000641,0.00001872,-0.00001270,-0.00000572,-0.00000279,0.00000510
 ,0.00002279,0.00000876,-0.00000826,0.00001112,-0.00000081,-0.00000447,
 -0.00000712,0.00000788,-0.00000497,-0.00013689,0.00001021,-0.00000762,
 -0.00016668,0.00002507,-0.00040905,0.00007041,0.00030018,-0.00021077,-
 0.00279078,-0.00052093,0.00427701,0.00117304,-0.00000533,-0.00084973,-
 0.00932554,0.00159413,-0.01745095,0.11198181,-0.00047429,-0.00034926,-
 0.00012904,0.00080321,0.00002438,-0.00035380,-0.00005646,0.00004173,0.
 00008068,0.00000421,-0.00001843,-0.00001782,-0.00001638,0.00000651,0.0
 0007190,-0.00002242,0.00001956,-0.00002501,-0.00000116,-0.00022267,-0.
 00002516,0.00055266,0.00010038,0.00079092,-0.00015757,-0.00048701,-0.0
 0079630,0.00578728,-0.05263354,0.01554707,0.01419737,-0.00323803,0.026
 17594,0.00066695,0.00196934,0.00118981,-0.00001488,-0.00000785,-0.0000
 1439,-0.00000230,0.00002153,0.00000473,0.00000130,0.00000819,-0.000010
 74,-0.00001407,0.00000660,0.00000487,-0.00003722,-0.00002190,-0.000030
 57,-0.00000353,-0.00000422,0.00001514,-0.00000780,0.00003901,-0.000197
 06,-0.00020321,0.00009517,0.00003827,-0.00003953,-0.00001820,-0.000125
 62,0.00041049,0.00097520,-0.00010912,-0.00032036,0.00016309,-0.0002925
 1,-0.01191834,0.00250185,-0.02424127,-0.01111971,0.05475960,0.00020361
 ,-0.00003479,-0.00005240,-0.00004751,0.00029008,0.00022421,-0.00004285
 ,0.00002391,-0.00007882,0.00004143,0.00003032,0.00000915,-0.00009761,0
 .00001948,-0.00008233,0.00002164,0.00001509,0.00004222,0.00023128,0.00
 012353,0.00009820,-0.00154248,-0.00060814,0.00057341,-0.01100799,0.000
 98528,-0.02430888,-0.10104473,0.01578268,-0.24278232,-0.00030779,-0.00
 001395,0.00006510,0.00012097,-0.00043672,0.00011360,0.00000644,0.00000
 041,0.00001504,0.00000777,0.00002012,0.00000363,0.00000072,-0.00000963
 ,0.00001020,-0.00000098,0.00002443,-0.00000375,0.00004208,0.00003817,0
 .00004536,-0.00000853,0.00001525,-0.00001164,0.00000101,-0.00021727,0.
 00007053,0.00088779,0.00082512,0.00063116,0.00026373,-0.00017375,0.000
 45342,0.00436157,0.00018498,-0.00278506,0.00003515,-0.00047027,0.00093
 999,-0.00172462,-0.00059109,-0.00278322,0.10944469,-0.01669193,0.26720
 419,0.00085458,0.00016192,0.00013074,-0.00070926,0.00116262,0.00032555
 ,-0.00001217,-0.00016709,-0.00007054,0.00005014,0.00002994,-0.00010430
 ,0.00014124,-0.00017062,0.00007103,-0.00002886,-0.00000740,0.00014995,
 0.00056642,0.00076313,-0.00168341,-0.00022600,-0.00000176,0.00028014,0
 .00037954,-0.00076914,-0.00131404,-0.01038174,0.00123450,-0.01544397,-
 0.12369139,0.00307672,-0.11429085,-0.01168044,-0.00180273,-0.01664919,
 0.00002825,0.00004331,0.00007134,0.00000228,-0.00005341,0.00005517,0.0
 0000013,-0.00003397,0.00004600,-0.00001753,0.00001465,0.00003211,0.000
 15349,0.00014188,0.00016487,0.00000070,0.00000527,-0.00000403,-0.00017
 336,-0.00017105,0.00085411,0.00025399,0.00001174,0.00010477,-0.0000652
 9,0.00001489,0.00003302,-0.00017346,0.00015814,0.00084214,0.00036087,-
 0.00000617,0.00029590,0.00087027,-0.00017942,0.00045886,-0.00118662,0.
 00309688,0.00010829,0.13403613,0.00135441,-0.00002793,0.00041750,-0.00
 221197,0.00117991,-0.00092354,0.00003617,-0.00004033,-0.00000564,0.000
 02304,0.00008612,-0.00002426,0.00010186,-0.00008621,-0.00017979,-0.000
 01486,-0.00004516,0.00017698,0.00085811,0.00102121,-0.00115658,-0.0000
 0275,-0.00019710,0.00001380,-0.00099742,0.00101537,0.00086302,0.016342
 22,-0.00215070,0.02555419,0.00328260,-0.04798409,0.00676036,-0.0156702
 3,-0.00129144,-0.02441739,0.00013084,0.00009493,0.00012527,0.00004878,
 -0.00007347,0.00006887,-0.00001559,-0.00003037,0.00004716,0.00002068,-
 0.00001280,-0.00000054,0.00011651,0.00006647,0.00019090,-0.00000681,0.
 00001015,-0.00001040,0.00002306,0.00010807,0.00063780,-0.00001657,-0.0
 0013725,0.00000516,-0.00001017,0.00012859,-0.00000385,0.00000179,0.000
 13913,-0.00080793,-0.00044618,-0.00002959,-0.00009543,-0.00079784,0.00
 109077,0.00016927,0.00404572,-0.00457334,-0.00021464,-0.00310410,0.056
 74305,0.00146201,0.00096297,0.00075412,-0.00239271,0.00064038,0.000101
 88,0.00031680,-0.00020271,-0.00021754,0.00002244,0.00005771,-0.0000046
 8,0.00014445,0.00014408,0.00032756,-0.00007497,-0.00014466,0.00002882,
 0.00049839,0.00011214,0.00047269,-0.00001805,0.00005595,0.00012049,0.0
 0044852,-0.00020054,0.00071760,0.00023364,0.00066303,-0.00049230,-0.11
 404542,0.00530360,-0.23098714,-0.00045173,-0.00132654,-0.00170274,0.00
 004112,0.00003728,0.00003035,-0.00003295,-0.00009853,0.00000629,-0.000
 00847,-0.00001361,0.00002800,0.00003735,-0.00001021,-0.00000796,0.0001
 2994,0.00011587,-0.00005219,-0.00003361,-0.00000550,0.00000754,-0.0002
 9023,0.00007136,0.00056574,0.00008056,-0.00000089,-0.00012653,-0.00002
 816,-0.00000329,-0.00001375,-0.00040724,-0.00004659,0.00052105,-0.0000
 4780,0.00005537,0.00022390,0.00003819,0.00060212,0.00027807,0.00040716
 ,0.00015316,0.00137948,0.12775158,-0.00711006,0.24877601,0.00109977,0.
 00077630,-0.00041226,-0.00101005,0.00080851,-0.00015599,-0.00001137,-0
 .00000074,0.00014961,-0.00010166,0.00005112,-0.00000637,-0.00003977,0.
 00087371,0.00096906,-0.00039738,-0.00049908,0.00009483,-0.00110000,-0.
 00353461,-0.00190807,0.00062063,-0.00004417,-0.00018538,-0.00070085,0.
 00359770,-0.00152434,-0.01206482,0.00021206,0.01352466,-0.15800956,-0.
 00060991,0.12924428,-0.01338555,-0.00189632,0.01486461,-0.00001259,0.0
 0003177,-0.00002408,0.00005280,-0.00003267,-0.00003046,0.00001232,-0.0
 0001805,-0.00000126,0.00002497,-0.00006357,0.00000192,-0.00001848,0.00
 000939,-0.00007019,-0.00009592,-0.00001440,0.00009588,0.00010484,-0.00
 004148,0.00020486,-0.00007289,-0.00000101,-0.00004362,-0.00000379,0.00
 002106,0.00001939,0.00007672,0.00002848,0.00023646,-0.00062796,-0.0000
 5634,0.00091216,0.00075568,0.00000718,-0.00023420,0.00025899,-0.000645
 00,-0.00025726,0.01232257,0.00017208,-0.01374552,0.17200977,0.00148506
 ,-0.00018368,-0.00049415,-0.00205933,0.00070138,0.00087112,0.00005323,
 0.00010102,-0.00001348,-0.00004218,0.00021012,0.00008477,-0.00064145,0
 .00117822,0.00115366,-0.00059359,-0.00067767,0.00014865,-0.00230234,-0
 .00562867,-0.00163610,0.00007326,-0.00051645,-0.00012178,0.00254767,-0
 .00530174,0.00174532,0.01865382,0.00051022,-0.02324457,0.00021675,-0.0
 4783450,-0.00198334,-0.01779170,-0.00057072,0.02254329,0.00001143,0.00
 003918,0.00001089,0.00006602,-0.00000570,-0.00004341,0.00002930,-0.000
 01693,-0.00000114,0.00005908,-0.00004921,-0.00003441,-0.00004933,-0.00
 005696,-0.00009783,-0.00017476,-0.00004512,0.00016712,0.00026220,-0.00
 001556,-0.00016113,0.00000140,0.00013414,0.00001316,-0.00000265,0.0001
 6965,0.00002801,-0.00029334,-0.00002279,0.00015308,0.00155049,0.000043
 25,-0.00124334,-0.00086056,0.00085048,-0.00024704,-0.00060090,0.001178
 06,0.00044075,-0.00029245,-0.00020242,0.00057358,0.00025215,0.05492539
 ,-0.00138078,-0.00128728,0.00050059,0.00224251,-0.00027150,0.00017438,
 -0.00035896,0.00011011,-0.00015832,0.00004477,-0.00005981,-0.00007567,
 0.00012039,-0.00032609,0.00027474,-0.00002081,0.00005845,-0.00000988,-
 0.00007697,-0.00014488,0.00065423,-0.00022564,0.00002978,-0.00001835,-
 0.00025721,-0.00017545,0.00093228,-0.00284477,0.00017558,0.00182586,0.
 12933686,-0.00013092,-0.20414755,-0.00306561,0.00034862,0.00195783,-0.
 00005984,-0.00008193,-0.00002358,0.00001788,0.00009050,-0.00000050,-0.
 00000367,-0.00000640,0.00001361,-0.00003208,0.00002832,0.00003282,0.00
 006440,0.00010356,0.00001541,-0.00001898,-0.00002271,0.00000870,-0.000
 20008,-0.00008953,0.00047552,0.00004230,0.00001261,-0.00000055,0.00002
 110,-0.00000582,-0.00003884,-0.00023645,0.00011921,0.00047226,0.000213
 14,0.00016795,0.00014956,0.00008158,-0.00051352,-0.00005421,0.00016566
 ,-0.00048042,0.00081768,0.01792254,0.00011021,-0.02184355,-0.14159437,
 0.00170169,0.21727403,-0.00121147,0.00352233,0.00268292,-0.01306338,-0
 .00018644,-0.01839770,0.00037874,-0.00025903,0.00111311,-0.00011250,-0
 .00028079,0.00001029,0.00101068,-0.00007078,0.00069002,-0.00002664,0.0
 0020854,-0.00013583,0.00937326,-0.00073517,0.02181483,0.00160441,-0.00
 031987,0.00020687,-0.00003765,0.00001706,0.00007326,0.00052679,0.00119
 047,0.00025086,-0.01103017,-0.00116747,-0.01702372,-0.10394763,0.00177
 834,-0.10860132,0.00066117,0.00042774,0.00033907,-0.00006960,-0.000109
 07,0.00041061,-0.00011118,0.00004742,0.00002484,-0.00002701,-0.0000155
 7,0.00001842,-0.00015338,0.00005345,-0.00016604,0.00003050,0.00001113,
 -0.00015672,-0.00285236,-0.00004846,0.00335417,-0.00012276,-0.00011226
 ,-0.00033908,0.00019487,-0.00037501,-0.00014051,-0.00016656,-0.0000062
 3,-0.00000266,0.00004789,0.00001863,-0.00003882,-0.00002229,0.00012950
 ,0.00032810,0.00066566,-0.00046612,0.00030416,-0.00167448,-0.00326340,
 -0.00003531,0.00031359,0.00044273,0.00010309,0.11982149,0.00298049,-0.
 00324316,-0.00351905,0.01395526,0.00306409,0.02670325,-0.00153367,-0.0
 0051203,-0.00317110,0.00032435,0.00019620,-0.00012135,0.00037449,0.000
 12158,0.00119742,-0.00000801,-0.00002963,-0.00025238,-0.00077204,0.000
 57852,0.00039447,-0.00057900,0.00013641,-0.00105678,0.00007676,-0.0002
 1168,0.00011015,-0.00052336,0.00166912,-0.00118908,-0.01532354,-0.0013
 5497,-0.02466382,0.00378648,-0.05069753,0.00736307,-0.00027155,-0.0016
 9219,0.00013745,0.00004428,0.00051664,-0.00028986,-0.00000391,0.000105
 48,-0.00005589,0.00004076,-0.00003420,-0.00002781,-0.00027396,0.000065
 82,-0.00006424,0.00001921,-0.00001974,0.00002514,-0.00007474,0.0006159
 0,-0.00033947,0.00017355,0.00016032,-0.00001072,0.00000227,-0.00001740
 ,0.00007528,-0.00000880,0.00004149,0.00023119,0.00008504,-0.00003475,-
 0.00004081,0.00001886,0.00029906,0.00038210,0.00046287,-0.00033578,0.0
 0064256,-0.00315627,-0.00480158,-0.00038547,0.00061585,0.00108699,0.00
 053967,-0.00043166,0.05432701,0.00062239,0.00058077,-0.00083039,-0.001
 29255,-0.00055424,-0.00044907,-0.00047982,-0.00020060,-0.00067565,0.00
 029340,0.00022714,-0.00003222,-0.00167843,-0.00082987,-0.00070147,0.00
 018663,-0.00013643,0.00083039,-0.01033362,0.00106706,-0.02776104,-0.00
 199716,0.00078829,0.00109820,0.00019992,-0.00026201,0.00003300,-0.0000
 0874,0.00039935,0.00004508,-0.00122004,-0.00020119,-0.00144887,-0.1044
 9465,0.00230546,-0.21922516,0.00029830,-0.00000450,0.00069015,0.000087
 71,0.00018368,0.00029616,0.00001499,-0.00019874,0.00017556,-0.00000049
 ,0.00005532,0.00000370,0.00089989,0.00064614,0.00075238,0.00008401,0.0
 0010397,0.00004004,0.00424024,0.00005421,-0.00297959,0.00086640,-0.000
 74350,0.00061478,0.00015926,0.00034876,0.00042358,0.00001448,0.0002228
 4,0.00008438,0.00000375,-0.00007935,-0.00002287,0.00016531,-0.00012313
 ,0.00020741,0.00031781,-0.00053172,0.00019184,-0.00013779,-0.00019044,
 0.00110879,-0.00012434,-0.00031335,0.00079151,0.11331311,-0.00261393,0
 .24673941\\0.00001249,0.00004481,-0.00002824,-0.00003674,0.00004123,0.
 00000024,-0.00010758,-0.00002657,0.00007955,0.00000411,-0.00001470,0.0
 0000038,0.00003718,0.00001103,-0.00005935,0.00001678,-0.00005038,-0.00
 000276,-0.00001744,-0.00001324,0.00005278,-0.00000500,0.00001143,-0.00
 001199,0.00000640,0.00002159,0.00001312,0.00002983,-0.00000095,0.00000
 410,0.00002432,-0.00000010,-0.00000581,0.00001541,-0.00001590,0.000000
 86,0.00000934,-0.00001344,-0.00000434,-0.00000070,0.00000484,0.0000003
 2,0.00000706,0.00000873,-0.00000709,-0.00000288,0.00000787,-0.00000739
 ,0.00000533,-0.00000823,0.00000872,-0.00002255,-0.00000911,0.00000077,
 -0.00001176,0.00000262,-0.00000182,0.00001613,0.00000592,0.00000162,0.
 00001604,-0.00000390,-0.00000608,0.00000180,0.00001069,-0.00001037,0.0
 0000618,-0.00000781,-0.00000524,0.00000347,-0.00000674,-0.00000141,0.0
 0000963,-0.00000036,-0.00000387,-0.00000706,0.00001029,0.00000244,-0.0
 0001211,-0.00001467,0.00000523,0.00000231,0.00000504,-0.00001439\\\@


 TO DRY ONE'S EYES AND LAUGH AT A FALL
 AND BAFFLED, GET UP AND BEGIN AGAIN.
           R. BROWNING
 Job cpu time:       0 days  0 hours  2 minutes 45.0 seconds.
 Elapsed time:       0 days  0 hours  2 minutes 49.0 seconds.
 File lengths (MBytes):  RWF=    153 Int=      0 D2E=      0 Chk=     16 Scr=      1
 Normal termination of Gaussian 16 at Sat Feb 24 04:52:36 2024.
