 Entering Gaussian System, Link 0=g16
 Input=/Volumes/SSD-PMU3/b3lyp_6-31gd_freq/TZBDEVBNMSLVKT-RAFNTYLNSA-N_calculating/gaussianinput0.gjf
 Output=/Volumes/SSD-PMU3/b3lyp_6-31gd_freq/TZBDEVBNMSLVKT-RAFNTYLNSA-N_calculating/gaussianinput0.log
 Initial command:
 /Applications/g16/l1.exe "/Users/macmini_m1_2022/PycharmProjects/sphere_model/sphere_model_lib/Gau-62778.inp" -scrdir="/Users/macmini_m1_2022/PycharmProjects/sphere_model/sphere_model_lib/"
 Entering Link 1 = /Applications/g16/l1.exe PID=     62779.
  
 Copyright (c) 1988,1990,1992,1993,1995,1998,2003,2009,2016,
            Gaussian, Inc.  All Rights Reserved.
  
 This is part of the Gaussian(R) 16 program.  It is based on
 the Gaussian(R) 09 system (copyright 2009, Gaussian, Inc.),
 the Gaussian(R) 03 system (copyright 2003, Gaussian, Inc.),
 the Gaussian(R) 98 system (copyright 1998, Gaussian, Inc.),
 the Gaussian(R) 94 system (copyright 1995, Gaussian, Inc.),
 the Gaussian 92(TM) system (copyright 1992, Gaussian, Inc.),
 the Gaussian 90(TM) system (copyright 1990, Gaussian, Inc.),
 the Gaussian 88(TM) system (copyright 1988, Gaussian, Inc.),
 the Gaussian 86(TM) system (copyright 1986, Carnegie Mellon
 University), and the Gaussian 82(TM) system (copyright 1983,
 Carnegie Mellon University). Gaussian is a federally registered
 trademark of Gaussian, Inc.
  
 This software contains proprietary and confidential information,
 including trade secrets, belonging to Gaussian, Inc.
  
 This software is provided under written license and may be
 used, copied, transmitted, or stored only in accord with that
 written license.
  
 The following legend is applicable only to US Government
 contracts under FAR:
  
                    RESTRICTED RIGHTS LEGEND
  
 Use, reproduction and disclosure by the US Government is
 subject to restrictions as set forth in subparagraphs (a)
 and (c) of the Commercial Computer Software - Restricted
 Rights clause in FAR 52.227-19.
  
 Gaussian, Inc.
 340 Quinnipiac St., Bldg. 40, Wallingford CT 06492
  
  
 ---------------------------------------------------------------
 Warning -- This program may not be used in any manner that
 competes with the business of Gaussian, Inc. or will provide
 assistance to any competitor of Gaussian, Inc.  The licensee
 of this program is prohibited from giving any competitor of
 Gaussian, Inc. access to this program.  By using this program,
 the user acknowledges that Gaussian, Inc. is engaged in the
 business of creating and licensing software in the field of
 computational chemistry and represents and warrants to the
 licensee that it is not a competitor of Gaussian, Inc. and that
 it will not use this program in any manner prohibited above.
 ---------------------------------------------------------------
  

 Cite this work as:
 Gaussian 16, Revision A.03,
 M. J. Frisch, G. W. Trucks, H. B. Schlegel, G. E. Scuseria, 
 M. A. Robb, J. R. Cheeseman, G. Scalmani, V. Barone, 
 G. A. Petersson, H. Nakatsuji, X. Li, M. Caricato, A. V. Marenich, 
 J. Bloino, B. G. Janesko, R. Gomperts, B. Mennucci, H. P. Hratchian, 
 J. V. Ortiz, A. F. Izmaylov, J. L. Sonnenberg, D. Williams-Young, 
 F. Ding, F. Lipparini, F. Egidi, J. Goings, B. Peng, A. Petrone, 
 T. Henderson, D. Ranasinghe, V. G. Zakrzewski, J. Gao, N. Rega, 
 G. Zheng, W. Liang, M. Hada, M. Ehara, K. Toyota, R. Fukuda, 
 J. Hasegawa, M. Ishida, T. Nakajima, Y. Honda, O. Kitao, H. Nakai, 
 T. Vreven, K. Throssell, J. A. Montgomery, Jr., J. E. Peralta, 
 F. Ogliaro, M. J. Bearpark, J. J. Heyd, E. N. Brothers, K. N. Kudin, 
 V. N. Staroverov, T. A. Keith, R. Kobayashi, J. Normand, 
 K. Raghavachari, A. P. Rendell, J. C. Burant, S. S. Iyengar, 
 J. Tomasi, M. Cossi, J. M. Millam, M. Klene, C. Adamo, R. Cammi, 
 J. W. Ochterski, R. L. Martin, K. Morokuma, O. Farkas, 
 J. B. Foresman, and D. J. Fox, Gaussian, Inc., Wallingford CT, 2016.
 
 ******************************************
 Gaussian 16:  EM64M-G16RevA.03 25-Dec-2016
                22-Feb-2024 
 ******************************************
 %nprocshared=8
 Will use up to    8 processors via shared memory.
 %mem=8GB
 %chk= 0.chk
 ---------------------
 # freq b3lyp/6-31g(d)
 ---------------------
 1/10=4,30=1,38=1/1,3;
 2/12=2,17=6,18=5,40=1/2;
 3/5=1,6=6,7=1,11=2,25=1,30=1,71=2,74=-5,140=1/1,2,3;
 4//1;
 5/5=2,38=5,98=1/2;
 8/6=4,10=90,11=11/1;
 11/6=1,8=1,9=11,15=111,16=1/1,2,10;
 10/6=1/2;
 6/7=2,8=2,9=2,10=2,28=1/1;
 7/8=1,10=1,25=1/1,2,3,16;
 1/10=4,30=1/3;
 99//99;
 ---------
 good luck
 ---------
 Symbolic Z-matrix:
 Charge =  0 Multiplicity = 1
 O                     1.21585   0.        0. 
 C                     0.        0.        0. 
 C                    -0.84889  -1.27052  -0.00129 
 C                    -1.74949  -1.25735   1.25876 
 C                    -1.74365  -1.25773  -1.26684 
 C                    -2.63652   0.       -1.25999 
 C                    -1.74365   1.25773  -1.26684 
 C                    -0.84889   1.27052  -0.00129 
 C                    -1.74949   1.25735   1.25876 
 C                    -2.64444  0.         1.26158 
 O                    -3.53284  0.         2.37756 
 C                    -3.5237    0.        0.00204 
 H                    -0.17891  -2.13591   0.00158 
 H                    -2.38288  -2.15301   1.28082 
 H                    -1.13022  -1.27494   2.16761 
 H                    -2.36034  -2.16624  -1.28419 
 H                    -1.11848  -1.27649  -2.16891 
 H                    -3.27311  0.        -2.15368 
 H                    -2.36034   2.16624  -1.28419 
 H                    -1.11848   1.27649  -2.16891 
 H                    -0.17891   2.13591   0.00158 
 H                    -2.38288   2.15301   1.28082 
 H                    -1.13022   1.27494   2.16761 
 H                    -2.99117   0.        3.18389 
 H                    -4.17523  -0.88267   0.02111 
 H                    -4.17523   0.88267   0.02111 
 

 GradGradGradGradGradGradGradGradGradGradGradGradGradGradGradGradGradGrad
 Berny optimization.
 Initialization pass.
 Trust Radius=3.00D-01 FncErr=1.00D-07 GrdErr=1.00D-07 EigMax=2.50D+02 EigMin=1.00D-04
 Number of steps in this run=      2 maximum allowed number of steps=      2.
 GradGradGradGradGradGradGradGradGradGradGradGradGradGradGradGradGradGrad

                          Input orientation:                          
 ---------------------------------------------------------------------
 Center     Atomic      Atomic             Coordinates (Angstroms)
 Number     Number       Type             X           Y           Z
 ---------------------------------------------------------------------
      1          8           0        1.215850    0.000000    0.000000
      2          6           0        0.000000    0.000000    0.000000
      3          6           0       -0.848889   -1.270522   -0.001286
      4          6           0       -1.749490   -1.257347    1.258755
      5          6           0       -1.743654   -1.257732   -1.266838
      6          6           0       -2.636521    0.000000   -1.259988
      7          6           0       -1.743654    1.257731   -1.266838
      8          6           0       -0.848889    1.270522   -0.001286
      9          6           0       -1.749490    1.257346    1.258755
     10          6           0       -2.644441   -0.000001    1.261582
     11          8           0       -3.532841   -0.000001    2.377561
     12          6           0       -3.523703    0.000000    0.002038
     13          1           0       -0.178905   -2.135907    0.001578
     14          1           0       -2.382881   -2.153009    1.280824
     15          1           0       -1.130223   -1.274942    2.167609
     16          1           0       -2.360343   -2.166240   -1.284193
     17          1           0       -1.118485   -1.276492   -2.168909
     18          1           0       -3.273105   -0.000001   -2.153676
     19          1           0       -2.360344    2.166239   -1.284193
     20          1           0       -1.118485    1.276491   -2.168909
     21          1           0       -0.178905    2.135907    0.001578
     22          1           0       -2.382882    2.153008    1.280824
     23          1           0       -1.130223    1.274941    2.167609
     24          1           0       -2.991173    0.000000    3.183887
     25          1           0       -4.175229   -0.882674    0.021110
     26          1           0       -4.175230    0.882673    0.021109
 ---------------------------------------------------------------------
                    Distance matrix (angstroms):
                    1          2          3          4          5
     1  O    0.000000
     2  C    1.215850   0.000000
     3  C    2.424330   1.528018   0.000000
     4  C    3.458125   2.495216   1.548857   0.000000
     5  C    3.456216   2.495415   1.549964   2.525600   0.000000
     6  C    4.053188   2.922125   2.528673   2.951578   1.542449
     7  C    3.456216   2.495415   2.965517   3.564305   2.515463
     8  C    2.424330   1.528018   2.541044   2.964609   2.965518
     9  C    3.458124   2.495215   2.964608   2.514693   3.564305
    10  C    4.061211   2.929959   2.536349   1.543329   2.964155
    11  O    5.310637   4.258375   3.804830   2.452139   4.250261
    12  C    4.739553   3.523704   2.961227   2.511591   2.522005
    13  H    2.550969   2.143387   1.094430   2.195245   2.197387
    14  H    4.384840   3.457467   2.185342   1.097215   2.775016
    15  H    3.439195   2.757065   2.187070   1.099917   3.488842
    16  H    4.373889   3.451517   2.175466   2.768720   1.098177
    17  H    3.432596   2.754016   2.184332   3.485314   1.097689
    18  H    4.978859   3.918104   3.481929   3.942969   2.169698
    19  H    4.373889   3.451517   3.967578   4.308209   3.479107
    20  H    3.432596   2.754016   3.355376   4.308989   2.761676
    21  H    2.550969   2.143387   3.471692   3.944795   3.946404
    22  H    4.384840   3.457467   3.964530   3.468745   4.304921
    23  H    3.439195   2.757065   3.355985   2.760795   4.311166
    24  H    5.276000   4.368553   4.043381   2.613203   4.790318
    25  H    5.462901   4.267563   3.348950   2.748882   2.777055
    26  H    5.462902   4.267564   3.962486   3.463476   3.486073
                    6          7          8          9         10
     6  C    0.000000
     7  C    1.542448   0.000000
     8  C    2.528673   1.549964   0.000000
     9  C    2.951577   2.525600   1.548857   0.000000
    10  C    2.521582   2.964155   2.536350   1.543330   0.000000
    11  O    3.746352   4.250262   3.804831   2.452140   1.426416
    12  C    1.542661   2.522005   2.961227   2.511591   1.536084
    13  H    3.491923   3.946403   3.471692   3.944794   3.496938
    14  H    3.339986   4.304920   3.964530   3.468745   2.168923
    15  H    3.955102   4.311166   3.355986   2.760795   2.176974
    16  H    2.183908   3.479107   3.967578   4.308209   3.354739
    17  H    2.181743   2.761676   3.355377   4.308989   3.965632
    18  H    1.097232   2.169699   3.481930   3.942970   3.472637
    19  H    2.183907   1.098178   2.175467   2.768721   3.354740
    20  H    2.181742   1.097689   2.184332   3.485314   3.965633
    21  H    3.491923   2.197387   1.094430   2.195245   3.496939
    22  H    3.339985   2.775016   2.185343   1.097216   2.168924
    23  H    3.955102   3.488842   2.187070   1.099917   2.176975
    24  H    4.458004   4.790318   4.043381   2.613203   1.953325
    25  H    2.188138   3.486072   3.962486   3.463475   2.158980
    26  H    2.188138   2.777056   3.348951   2.748884   2.158982
                   11         12         13         14         15
    11  O    0.000000
    12  C    2.375541   0.000000
    13  H    4.632092   3.968598   0.000000
    14  H    2.675945   2.751766   2.548386   0.000000
    15  H    2.728026   3.470435   2.517530   1.768203   0.000000
    16  H    4.413138   2.774958   2.532350   2.565150   3.771279
    17  H    5.303672   3.482458   2.516430   3.777253   4.336534
    18  H    4.538675   2.170231   4.333738   4.150148   4.989080
    19  H    4.413138   2.774957   4.992028   5.023517   5.026914
    20  H    5.303672   3.482458   4.151901   5.026015   5.031435
    21  H    4.632093   3.968598   4.271814   4.988866   4.150974
    22  H    2.675946   2.751765   4.988865   4.306017   3.755847
    23  H    2.728027   3.470435   4.150973   3.755846   2.549883
    24  H    0.971373   3.226105   4.753740   2.937195   2.474153
    25  H    2.597044   1.097253   4.188267   2.532418   3.746117
    26  H    2.597045   1.097252   5.008275   3.743630   4.305210
                   16         17         18         19         20
    16  H    0.000000
    17  H    1.765385   0.000000
    18  H    2.506337   2.504406   0.000000
    19  H    4.332479   3.765280   2.506338   0.000000
    20  H    3.765280   2.552983   2.504406   1.765386   0.000000
    21  H    4.992028   4.151902   4.333739   2.532351   2.516430
    22  H    5.023517   5.026015   4.150149   2.565150   3.777253
    23  H    5.026913   5.031435   4.989081   3.771279   4.336534
    24  H    5.005425   5.812815   5.345004   5.005425   5.812815
    25  H    2.577822   3.780868   2.514485   3.780674   4.336111
    26  H    3.780674   4.336111   2.514485   2.577822   3.780868
                   21         22         23         24         25
    21  H    0.000000
    22  H    2.548387   0.000000
    23  H    2.517530   1.768204   0.000000
    24  H    4.753740   2.937194   2.474152   0.000000
    25  H    5.008275   3.743628   4.305209   3.490596   0.000000
    26  H    4.188268   2.532419   3.746119   3.490597   1.765347
                   26
    26  H    0.000000
 Stoichiometry    C10H14O2
 Framework group  C1[X(C10H14O2)]
 Deg. of freedom    72
 Full point group                 C1      NOp   1
 Largest Abelian subgroup         C1      NOp   1
 Largest concise Abelian subgroup C1      NOp   1
                         Standard orientation:                         
 ---------------------------------------------------------------------
 Center     Atomic      Atomic             Coordinates (Angstroms)
 Number     Number       Type             X           Y           Z
 ---------------------------------------------------------------------
      1          8           0       -2.601272   -1.322004    0.000000
      2          6           0       -1.562458   -0.690216   -0.000000
      3          6           0       -0.837840   -0.248012    1.270522
      4          6           0        0.586378   -0.856606    1.257346
      5          6           0       -0.730974    1.298211    1.257732
      6          6           0        0.035445    1.756316    0.000000
      7          6           0       -0.730974    1.298212   -1.257731
      8          6           0       -0.837841   -0.248011   -1.270522
      9          6           0        0.586377   -0.856606   -1.257347
     10          6           0        1.352487   -0.393981    0.000000
     11          8           0        2.691423   -0.885830   -0.000000
     12          6           0        1.449230    1.139053   -0.000000
     13          1           0       -1.408782   -0.598601    2.135907
     14          1           0        1.139011   -0.546335    2.153008
     15          1           0        0.529545   -1.954913    1.274941
     16          1           0       -0.213097    1.633487    2.166240
     17          1           0       -1.733854    1.744080    1.276492
     18          1           0        0.114954    2.850664    0.000001
     19          1           0       -0.213097    1.633488   -2.166239
     20          1           0       -1.733855    1.744081   -1.276491
     21          1           0       -1.408783   -0.598600   -2.135907
     22          1           0        1.139011   -0.546334   -2.153009
     23          1           0        0.529545   -1.954912   -1.274942
     24          1           0        2.647613   -1.856215   -0.000001
     25          1           0        2.015800    1.461308    0.882673
     26          1           0        2.015800    1.461310   -0.882674
 ---------------------------------------------------------------------
 Rotational constants (GHZ):           1.4560552           0.9755013           0.8966924
 Standard basis: 6-31G(d) (6D, 7F)
 There are   208 symmetry adapted cartesian basis functions of A   symmetry.
 There are   208 symmetry adapted basis functions of A   symmetry.
   208 basis functions,   392 primitive gaussians,   208 cartesian basis functions
    45 alpha electrons       45 beta electrons
       nuclear repulsion energy       781.1729126131 Hartrees.
 NAtoms=   26 NActive=   26 NUniq=   26 SFac= 1.00D+00 NAtFMM=   60 NAOKFM=F Big=F
 Integral buffers will be    131072 words long.
 Raffenetti 2 integral format.
 Two-electron integral symmetry is turned on.
 One-electron integrals computed using PRISM.
 NBasis=   208 RedAO= T EigKep=  2.32D-03  NBF=   208
 NBsUse=   208 1.00D-06 EigRej= -1.00D+00 NBFU=   208
 ExpMin= 1.61D-01 ExpMax= 5.48D+03 ExpMxC= 8.25D+02 IAcc=3 IRadAn=         5 AccDes= 0.00D+00
 Harris functional with IExCor=  402 and IRadAn=       5 diagonalized for initial guess.
 HarFok:  IExCor=  402 AccDes= 0.00D+00 IRadAn=         5 IDoV= 1 UseB2=F ITyADJ=14
 ICtDFT=  3500011 ScaDFX=  1.000000  1.000000  1.000000  1.000000
 FoFCou: FMM=F IPFlag=           0 FMFlag=      100000 FMFlg1=           0
         NFxFlg=           0 DoJE=T BraDBF=F KetDBF=T FulRan=T
         wScrn=  0.000000 ICntrl=       500 IOpCl=  0 I1Cent=   200000004 NGrid=           0
         NMat0=    1 NMatS0=      1 NMatT0=    0 NMatD0=    1 NMtDS0=    0 NMtDT0=    0
 Petite list used in FoFCou.
 Requested convergence on RMS density matrix=1.00D-08 within 128 cycles.
 Requested convergence on MAX density matrix=1.00D-06.
 Requested convergence on             energy=1.00D-06.
 No special actions if energy rises.
 Integral accuracy reduced to 1.0D-05 until final iterations.
 Initial convergence to 1.0D-05 achieved.  Increase integral accuracy.
 SCF Done:  E(RB3LYP) =  -539.950051099     A.U. after   14 cycles
            NFock= 14  Conv=0.31D-08     -V/T= 2.0093
 DoSCS=F DFT=T ScalE2(SS,OS)=  1.000000  1.000000
 Range of M.O.s used for correlation:     1   208
 NBasis=   208 NAE=    45 NBE=    45 NFC=     0 NFV=     0
 NROrb=    208 NOA=    45 NOB=    45 NVA=   163 NVB=   163
 Symmetrizing basis deriv contribution to polar:
 IMax=3 JMax=2 DiffMx= 0.00D+00
 G2DrvN: will do    27 centers at a time, making    1 passes.
 Calling FoFCou, ICntrl=  3107 FMM=F I1Cent=   0 AccDes= 0.00D+00.
 End of G2Drv F.D. properties file   721 does not exist.
 End of G2Drv F.D. properties file   722 does not exist.
 End of G2Drv F.D. properties file   788 does not exist.
          IDoAtm=11111111111111111111111111
          Differentiating once with respect to electric field.
                with respect to dipole field.
          Differentiating once with respect to nuclear coordinates.
 Keep R1 ints in memory in canonical form, NReq=244543355.
          There are    81 degrees of freedom in the 1st order CPHF.  IDoFFX=6 NUNeed=     3.
     78 vectors produced by pass  0 Test12= 9.06D-15 1.23D-09 XBig12= 7.48D+01 2.75D+00.
 AX will form    78 AO Fock derivatives at one time.
     78 vectors produced by pass  1 Test12= 9.06D-15 1.23D-09 XBig12= 9.87D+00 7.55D-01.
     78 vectors produced by pass  2 Test12= 9.06D-15 1.23D-09 XBig12= 1.14D-01 3.87D-02.
     78 vectors produced by pass  3 Test12= 9.06D-15 1.23D-09 XBig12= 5.49D-04 6.42D-03.
     78 vectors produced by pass  4 Test12= 9.06D-15 1.23D-09 XBig12= 8.50D-07 1.24D-04.
     45 vectors produced by pass  5 Test12= 9.06D-15 1.23D-09 XBig12= 6.80D-10 3.15D-06.
      5 vectors produced by pass  6 Test12= 9.06D-15 1.23D-09 XBig12= 4.53D-13 7.58D-08.
      1 vectors produced by pass  7 Test12= 9.06D-15 1.23D-09 XBig12= 3.89D-16 2.16D-09.
 InvSVY:  IOpt=1 It=  1 EMax= 8.88D-15
 Solved reduced A of dimension   441 with    81 vectors.
 Isotropic polarizability for W=    0.000000       98.78 Bohr**3.
 End of Minotr F.D. properties file   721 does not exist.
 End of Minotr F.D. properties file   722 does not exist.
 End of Minotr F.D. properties file   788 does not exist.

 **********************************************************************

            Population analysis using the SCF density.

 **********************************************************************

 Orbital symmetries:
       Occupied  (A) (A) (A) (A) (A) (A) (A) (A) (A) (A) (A) (A)
                 (A) (A) (A) (A) (A) (A) (A) (A) (A) (A) (A) (A)
                 (A) (A) (A) (A) (A) (A) (A) (A) (A) (A) (A) (A)
                 (A) (A) (A) (A) (A) (A) (A) (A) (A)
       Virtual   (A) (A) (A) (A) (A) (A) (A) (A) (A) (A) (A) (A)
                 (A) (A) (A) (A) (A) (A) (A) (A) (A) (A) (A) (A)
                 (A) (A) (A) (A) (A) (A) (A) (A) (A) (A) (A) (A)
                 (A) (A) (A) (A) (A) (A) (A) (A) (A) (A) (A) (A)
                 (A) (A) (A) (A) (A) (A) (A) (A) (A) (A) (A) (A)
                 (A) (A) (A) (A) (A) (A) (A) (A) (A) (A) (A) (A)
                 (A) (A) (A) (A) (A) (A) (A) (A) (A) (A) (A) (A)
                 (A) (A) (A) (A) (A) (A) (A) (A) (A) (A) (A) (A)
                 (A) (A) (A) (A) (A) (A) (A) (A) (A) (A) (A) (A)
                 (A) (A) (A) (A) (A) (A) (A) (A) (A) (A) (A) (A)
                 (A) (A) (A) (A) (A) (A) (A) (A) (A) (A) (A) (A)
                 (A) (A) (A) (A) (A) (A) (A) (A) (A) (A) (A) (A)
                 (A) (A) (A) (A) (A) (A) (A) (A) (A) (A) (A) (A)
                 (A) (A) (A) (A) (A) (A) (A)
 The electronic state is 1-A.
 Alpha  occ. eigenvalues --  -19.14663 -19.13536 -10.26641 -10.24500 -10.19831
 Alpha  occ. eigenvalues --  -10.19753 -10.19752 -10.19372 -10.19371 -10.19230
 Alpha  occ. eigenvalues --  -10.19229 -10.18332  -1.03365  -1.02244  -0.87198
 Alpha  occ. eigenvalues --   -0.78372  -0.77317  -0.75596  -0.68130  -0.65085
 Alpha  occ. eigenvalues --   -0.60752  -0.59851  -0.57288  -0.51870  -0.49382
 Alpha  occ. eigenvalues --   -0.46393  -0.46104  -0.44677  -0.44598  -0.43885
 Alpha  occ. eigenvalues --   -0.42436  -0.41794  -0.40568  -0.40395  -0.36931
 Alpha  occ. eigenvalues --   -0.36629  -0.36502  -0.35486  -0.34312  -0.33148
 Alpha  occ. eigenvalues --   -0.31790  -0.31600  -0.29570  -0.26532  -0.23248
 Alpha virt. eigenvalues --   -0.01298   0.06416   0.07500   0.11748   0.12020
 Alpha virt. eigenvalues --    0.12967   0.13309   0.13377   0.14107   0.15967
 Alpha virt. eigenvalues --    0.16433   0.17837   0.18476   0.19242   0.19301
 Alpha virt. eigenvalues --    0.19618   0.20867   0.21163   0.22037   0.22227
 Alpha virt. eigenvalues --    0.24181   0.24915   0.27762   0.28031   0.28730
 Alpha virt. eigenvalues --    0.29065   0.31910   0.33735   0.36575   0.50849
 Alpha virt. eigenvalues --    0.51187   0.53283   0.53395   0.54335   0.57247
 Alpha virt. eigenvalues --    0.58111   0.59618   0.61211   0.63356   0.63562
 Alpha virt. eigenvalues --    0.63816   0.66099   0.66539   0.68360   0.69184
 Alpha virt. eigenvalues --    0.70885   0.72675   0.73154   0.74717   0.75855
 Alpha virt. eigenvalues --    0.77226   0.79183   0.80247   0.83223   0.84310
 Alpha virt. eigenvalues --    0.84620   0.85917   0.86124   0.86470   0.87651
 Alpha virt. eigenvalues --    0.88040   0.88769   0.91091   0.92216   0.93592
 Alpha virt. eigenvalues --    0.94062   0.95622   0.96334   0.98923   0.99472
 Alpha virt. eigenvalues --    1.01847   1.05984   1.06359   1.10736   1.12760
 Alpha virt. eigenvalues --    1.16246   1.18134   1.20238   1.22328   1.23875
 Alpha virt. eigenvalues --    1.28748   1.29357   1.34154   1.38004   1.41307
 Alpha virt. eigenvalues --    1.43197   1.49228   1.52689   1.55785   1.60617
 Alpha virt. eigenvalues --    1.62783   1.65434   1.66890   1.66905   1.72095
 Alpha virt. eigenvalues --    1.72362   1.76429   1.76810   1.77247   1.80312
 Alpha virt. eigenvalues --    1.81090   1.84008   1.84482   1.84870   1.86395
 Alpha virt. eigenvalues --    1.88936   1.91118   1.93653   1.93723   1.97771
 Alpha virt. eigenvalues --    2.00861   2.01286   2.05885   2.07232   2.08520
 Alpha virt. eigenvalues --    2.10463   2.12975   2.14976   2.19636   2.20345
 Alpha virt. eigenvalues --    2.21667   2.24445   2.25173   2.28263   2.29241
 Alpha virt. eigenvalues --    2.31953   2.32341   2.35138   2.38374   2.38889
 Alpha virt. eigenvalues --    2.42100   2.42744   2.46941   2.47401   2.49582
 Alpha virt. eigenvalues --    2.52321   2.57702   2.63216   2.67642   2.68232
 Alpha virt. eigenvalues --    2.70065   2.70621   2.71589   2.73901   2.75087
 Alpha virt. eigenvalues --    2.75232   2.81827   2.82360   3.01012   3.02910
 Alpha virt. eigenvalues --    3.03987   3.89313   4.10446   4.17142   4.27125
 Alpha virt. eigenvalues --    4.28156   4.31218   4.49029   4.56232   4.69905
 Alpha virt. eigenvalues --    4.78541   4.82272   4.83510
          Condensed to atoms (all electrons):
               1          2          3          4          5          6
     1  O    8.010398   0.578229  -0.073208   0.000882   0.000998   0.000052
     2  C    0.578229   4.522536   0.330046  -0.029816  -0.029997  -0.021218
     3  C   -0.073208   0.330046   5.250524   0.289916   0.341083  -0.028571
     4  C    0.000882  -0.029816   0.289916   5.239539  -0.040767  -0.011089
     5  C    0.000998  -0.029997   0.341083  -0.040767   5.099133   0.371084
     6  C    0.000052  -0.021218  -0.028571  -0.011089   0.371084   4.956005
     7  C    0.000998  -0.029997  -0.008202  -0.002555  -0.050087   0.371084
     8  C   -0.073208   0.330046  -0.127542   0.000219  -0.008202  -0.028571
     9  C    0.000882  -0.029816   0.000219  -0.076432  -0.002555  -0.011089
    10  C    0.000100  -0.018907  -0.016204   0.370231  -0.017205  -0.019312
    11  O   -0.000000   0.000165   0.003075  -0.045180   0.000060   0.002439
    12  C   -0.000031  -0.002072  -0.012086  -0.063564  -0.043766   0.345439
    13  H    0.004200  -0.031560   0.342501  -0.026455  -0.031030   0.004237
    14  H   -0.000078   0.003416  -0.025964   0.353378  -0.006013  -0.000404
    15  H    0.000720  -0.000916  -0.035436   0.353078   0.005228  -0.000061
    16  H   -0.000080   0.003568  -0.031230  -0.005595   0.361450  -0.033175
    17  H    0.000687  -0.000972  -0.039341   0.005162   0.367048  -0.034617
    18  H   -0.000000   0.000327   0.004515   0.000056  -0.037434   0.368768
    19  H   -0.000080   0.003568  -0.000292   0.000094   0.005249  -0.033175
    20  H    0.000687  -0.000972   0.000042   0.000053  -0.004352  -0.034617
    21  H    0.004200  -0.031560   0.007027  -0.000191  -0.000065   0.004237
    22  H   -0.000078   0.003416  -0.000489   0.006571   0.000113  -0.000404
    23  H    0.000720  -0.000916   0.000579  -0.007951   0.000006  -0.000061
    24  H    0.000000  -0.000022   0.000022  -0.006047   0.000010  -0.000331
    25  H    0.000000   0.000140  -0.000608  -0.007456  -0.003829  -0.032099
    26  H    0.000000   0.000140  -0.000195   0.006293   0.004993  -0.032099
               7          8          9         10         11         12
     1  O    0.000998  -0.073208   0.000882   0.000100  -0.000000  -0.000031
     2  C   -0.029997   0.330046  -0.029816  -0.018907   0.000165  -0.002072
     3  C   -0.008202  -0.127542   0.000219  -0.016204   0.003075  -0.012086
     4  C   -0.002555   0.000219  -0.076432   0.370231  -0.045180  -0.063564
     5  C   -0.050087  -0.008202  -0.002555  -0.017205   0.000060  -0.043766
     6  C    0.371084  -0.028571  -0.011089  -0.019312   0.002439   0.345439
     7  C    5.099133   0.341083  -0.040767  -0.017205   0.000060  -0.043767
     8  C    0.341083   5.250524   0.289916  -0.016204   0.003075  -0.012086
     9  C   -0.040767   0.289916   5.239539   0.370231  -0.045180  -0.063564
    10  C   -0.017205  -0.016204   0.370231   4.631580   0.226866   0.384421
    11  O    0.000060   0.003075  -0.045180   0.226866   8.331616  -0.052605
    12  C   -0.043767  -0.012086  -0.063564   0.384421  -0.052605   5.151065
    13  H   -0.000065   0.007027  -0.000191   0.003086  -0.000050   0.000014
    14  H    0.000113  -0.000489   0.006571  -0.029285   0.002008  -0.007253
    15  H    0.000006   0.000579  -0.007951  -0.032308  -0.001361   0.006039
    16  H    0.005249  -0.000292   0.000094  -0.001304  -0.000025  -0.003195
    17  H   -0.004352   0.000042   0.000053   0.000287   0.000002   0.004846
    18  H   -0.037434   0.004515   0.000056   0.004242  -0.000046  -0.036259
    19  H    0.361450  -0.031230  -0.005595  -0.001304  -0.000025  -0.003195
    20  H    0.367048  -0.039341   0.005162   0.000287   0.000002   0.004846
    21  H   -0.031030   0.342501  -0.026455   0.003086  -0.000050   0.000014
    22  H   -0.006013  -0.025964   0.353378  -0.029285   0.002008  -0.007253
    23  H    0.005228  -0.035436   0.353078  -0.032308  -0.001361   0.006039
    24  H    0.000010   0.000022  -0.006047  -0.020760   0.224869   0.008856
    25  H    0.004993  -0.000195   0.006293  -0.030739   0.001339   0.357593
    26  H   -0.003829  -0.000608  -0.007456  -0.030739   0.001339   0.357593
              13         14         15         16         17         18
     1  O    0.004200  -0.000078   0.000720  -0.000080   0.000687  -0.000000
     2  C   -0.031560   0.003416  -0.000916   0.003568  -0.000972   0.000327
     3  C    0.342501  -0.025964  -0.035436  -0.031230  -0.039341   0.004515
     4  C   -0.026455   0.353378   0.353078  -0.005595   0.005162   0.000056
     5  C   -0.031030  -0.006013   0.005228   0.361450   0.367048  -0.037434
     6  C    0.004237  -0.000404  -0.000061  -0.033175  -0.034617   0.368768
     7  C   -0.000065   0.000113   0.000006   0.005249  -0.004352  -0.037434
     8  C    0.007027  -0.000489   0.000579  -0.000292   0.000042   0.004515
     9  C   -0.000191   0.006571  -0.007951   0.000094   0.000053   0.000056
    10  C    0.003086  -0.029285  -0.032308  -0.001304   0.000287   0.004242
    11  O   -0.000050   0.002008  -0.001361  -0.000025   0.000002  -0.000046
    12  C    0.000014  -0.007253   0.006039  -0.003195   0.004846  -0.036259
    13  H    0.597101  -0.003915  -0.003135  -0.004055  -0.002255  -0.000147
    14  H   -0.003915   0.585372  -0.036155   0.005427  -0.000030  -0.000102
    15  H   -0.003135  -0.036155   0.610565  -0.000070  -0.000160   0.000018
    16  H   -0.004055   0.005427  -0.000070   0.595768  -0.034570  -0.003324
    17  H   -0.002255  -0.000030  -0.000160  -0.034570   0.591717  -0.003172
    18  H   -0.000147  -0.000102   0.000018  -0.003324  -0.003172   0.619505
    19  H    0.000022  -0.000005   0.000000  -0.000200   0.000019  -0.003324
    20  H   -0.000075   0.000001  -0.000005   0.000019   0.004177  -0.003172
    21  H   -0.000186   0.000025  -0.000100   0.000022  -0.000075  -0.000147
    22  H    0.000025  -0.000212  -0.000065  -0.000005   0.000001  -0.000102
    23  H   -0.000100  -0.000065   0.005019   0.000000  -0.000005   0.000018
    24  H   -0.000004  -0.000699   0.005633   0.000001  -0.000001   0.000006
    25  H   -0.000085   0.005455  -0.000086   0.004321  -0.000015  -0.003680
    26  H    0.000018  -0.000103  -0.000188  -0.000070  -0.000150  -0.003680
              19         20         21         22         23         24
     1  O   -0.000080   0.000687   0.004200  -0.000078   0.000720   0.000000
     2  C    0.003568  -0.000972  -0.031560   0.003416  -0.000916  -0.000022
     3  C   -0.000292   0.000042   0.007027  -0.000489   0.000579   0.000022
     4  C    0.000094   0.000053  -0.000191   0.006571  -0.007951  -0.006047
     5  C    0.005249  -0.004352  -0.000065   0.000113   0.000006   0.000010
     6  C   -0.033175  -0.034617   0.004237  -0.000404  -0.000061  -0.000331
     7  C    0.361450   0.367048  -0.031030  -0.006013   0.005228   0.000010
     8  C   -0.031230  -0.039341   0.342501  -0.025964  -0.035436   0.000022
     9  C   -0.005595   0.005162  -0.026455   0.353378   0.353078  -0.006047
    10  C   -0.001304   0.000287   0.003086  -0.029285  -0.032308  -0.020760
    11  O   -0.000025   0.000002  -0.000050   0.002008  -0.001361   0.224869
    12  C   -0.003195   0.004846   0.000014  -0.007253   0.006039   0.008856
    13  H    0.000022  -0.000075  -0.000186   0.000025  -0.000100  -0.000004
    14  H   -0.000005   0.000001   0.000025  -0.000212  -0.000065  -0.000699
    15  H    0.000000  -0.000005  -0.000100  -0.000065   0.005019   0.005633
    16  H   -0.000200   0.000019   0.000022  -0.000005   0.000000   0.000001
    17  H    0.000019   0.004177  -0.000075   0.000001  -0.000005  -0.000001
    18  H   -0.003324  -0.003172  -0.000147  -0.000102   0.000018   0.000006
    19  H    0.595768  -0.034570  -0.004055   0.005427  -0.000070   0.000001
    20  H   -0.034570   0.591717  -0.002255  -0.000030  -0.000160  -0.000001
    21  H   -0.004055  -0.002255   0.597100  -0.003915  -0.003135  -0.000004
    22  H    0.005427  -0.000030  -0.003915   0.585372  -0.036155  -0.000699
    23  H   -0.000070  -0.000160  -0.003135  -0.036155   0.610565   0.005633
    24  H    0.000001  -0.000001  -0.000004  -0.000699   0.005633   0.404886
    25  H   -0.000070  -0.000150   0.000018  -0.000103  -0.000188  -0.000226
    26  H    0.004321  -0.000015  -0.000085   0.005454  -0.000086  -0.000226
              25         26
     1  O    0.000000   0.000000
     2  C    0.000140   0.000140
     3  C   -0.000608  -0.000195
     4  C   -0.007456   0.006293
     5  C   -0.003829   0.004993
     6  C   -0.032099  -0.032099
     7  C    0.004993  -0.003829
     8  C   -0.000195  -0.000608
     9  C    0.006293  -0.007456
    10  C   -0.030739  -0.030739
    11  O    0.001339   0.001339
    12  C    0.357593   0.357593
    13  H   -0.000085   0.000018
    14  H    0.005455  -0.000103
    15  H   -0.000086  -0.000188
    16  H    0.004321  -0.000070
    17  H   -0.000015  -0.000150
    18  H   -0.003680  -0.003680
    19  H   -0.000070   0.004321
    20  H   -0.000150  -0.000015
    21  H    0.000018  -0.000085
    22  H   -0.000103   0.005454
    23  H   -0.000188  -0.000086
    24  H   -0.000226  -0.000226
    25  H    0.590734  -0.033729
    26  H   -0.033729   0.590734
 Mulliken charges:
               1
     1  O   -0.456991
     2  C    0.453147
     3  C   -0.170179
     4  C   -0.302370
     5  C   -0.281152
     6  C   -0.102453
     7  C   -0.281152
     8  C   -0.170179
     9  C   -0.302370
    10  C    0.318656
    11  O   -0.653040
    12  C   -0.276068
    13  H    0.145081
    14  H    0.149006
    15  H    0.131110
    16  H    0.141273
    17  H    0.145674
    18  H    0.130000
    19  H    0.141273
    20  H    0.145674
    21  H    0.145081
    22  H    0.149006
    23  H    0.131110
    24  H    0.385118
    25  H    0.142372
    26  H    0.142372
 Sum of Mulliken charges =  -0.00000
 Mulliken charges with hydrogens summed into heavy atoms:
               1
     1  O   -0.456991
     2  C    0.453147
     3  C   -0.025098
     4  C   -0.022254
     5  C    0.005794
     6  C    0.027547
     7  C    0.005794
     8  C   -0.025097
     9  C   -0.022254
    10  C    0.318656
    11  O   -0.267922
    12  C    0.008677
 APT charges:
               1
     1  O   -0.634558
     2  C    0.692494
     3  C   -0.044744
     4  C    0.060631
     5  C    0.113733
     6  C    0.107485
     7  C    0.113733
     8  C   -0.044744
     9  C    0.060631
    10  C    0.467621
    11  O   -0.604515
    12  C    0.058177
    13  H   -0.046911
    14  H   -0.036076
    15  H   -0.049696
    16  H   -0.045065
    17  H   -0.040343
    18  H   -0.065273
    19  H   -0.045065
    20  H   -0.040343
    21  H   -0.046911
    22  H   -0.036076
    23  H   -0.049696
    24  H    0.225598
    25  H   -0.035044
    26  H   -0.035044
 Sum of APT charges =   0.00000
 APT charges with hydrogens summed into heavy atoms:
               1
     1  O   -0.634558
     2  C    0.692494
     3  C   -0.091655
     4  C   -0.025141
     5  C    0.028325
     6  C    0.042213
     7  C    0.028325
     8  C   -0.091655
     9  C   -0.025141
    10  C    0.467621
    11  O   -0.378917
    12  C   -0.011911
 Electronic spatial extent (au):  <R**2>=           1619.6512
 Charge=             -0.0000 electrons
 Dipole moment (field-independent basis, Debye):
    X=              1.3726    Y=              0.9383    Z=             -0.0000  Tot=              1.6627
 Quadrupole moment (field-independent basis, Debye-Ang):
   XX=            -85.7161   YY=            -68.2001   ZZ=            -68.9144
   XY=             -7.6244   XZ=             -0.0000   YZ=              0.0000
 Traceless Quadrupole moment (field-independent basis, Debye-Ang):
   XX=            -11.4392   YY=              6.0768   ZZ=              5.3625
   XY=             -7.6244   XZ=             -0.0000   YZ=              0.0000
 Octapole moment (field-independent basis, Debye-Ang**2):
  XXX=              8.5986  YYY=            -14.7577  ZZZ=              0.0000  XYY=             18.8043
  XXY=              9.7443  XXZ=             -0.0000  XZZ=              0.1239  YZZ=             -2.0722
  YYZ=             -0.0000  XYZ=              0.0000
 Hexadecapole moment (field-independent basis, Debye-Ang**3):
 XXXX=          -1073.3987 YYYY=           -588.2240 ZZZZ=           -509.0307 XXXY=            -58.7765
 XXXZ=             -0.0000 YYYX=            -36.4405 YYYZ=              0.0000 ZZZX=              0.0000
 ZZZY=              0.0000 XXYY=           -249.5505 XXZZ=           -239.3637 YYZZ=           -188.9288
 XXYZ=              0.0000 YYXZ=             -0.0000 ZZXY=              4.4838
 N-N= 7.811729126131D+02 E-N=-2.818245033922D+03  KE= 5.349798990525D+02
  Exact polarizability: 103.208   1.780  98.314  -0.000  -0.000  94.814
 Approx polarizability: 154.971   8.805 145.163  -0.000  -0.000 137.717
 Calling FoFJK, ICntrl=    100127 FMM=F ISym2X=0 I1Cent= 0 IOpClX= 0 NMat=1 NMatS=1 NMatT=0.
 Full mass-weighted force constant matrix:
 Low frequencies ---   -9.7910    0.0005    0.0009    0.0010    4.1823   11.0643
 Low frequencies ---   98.4816  250.7501  275.8871
 Diagonal vibrational polarizability:
       10.5840774      12.1543233      32.5884922
 Harmonic frequencies (cm**-1), IR intensities (KM/Mole), Raman scattering
 activities (A**4/AMU), depolarization ratios for plane and unpolarized
 incident light, reduced masses (AMU), force constants (mDyne/A),
 and normal coordinates:
                      1                      2                      3
                      A                      A                      A
 Frequencies --     98.4814               250.7500               275.8870
 Red. masses --      8.1736                 2.4166                 2.3212
 Frc consts  --      0.0467                 0.0895                 0.1041
 IR Inten    --      4.6003                 0.3960                 5.6712
  Atom  AN      X      Y      Z        X      Y      Z        X      Y      Z
     1   8    -0.31   0.47   0.00    -0.00  -0.00  -0.02     0.00  -0.00   0.14
     2   6    -0.02  -0.01   0.00    -0.00   0.00  -0.02    -0.00   0.00   0.05
     3   6     0.07  -0.16  -0.00    -0.01   0.02  -0.01     0.01   0.05   0.00
     4   6     0.11  -0.06  -0.02    -0.05  -0.03  -0.06    -0.07  -0.11  -0.09
     5   6    -0.04  -0.14   0.01     0.14   0.01   0.06    -0.01   0.05  -0.05
     6   6    -0.09  -0.08  -0.00     0.00   0.00  -0.03    -0.00   0.00  -0.05
     7   6    -0.04  -0.14  -0.01    -0.14  -0.01   0.06     0.01  -0.05  -0.05
     8   6     0.07  -0.16   0.00     0.01  -0.02  -0.01    -0.01  -0.05   0.00
     9   6     0.11  -0.06   0.02     0.05   0.03  -0.06     0.07   0.11  -0.09
    10   6     0.08   0.03  -0.00    -0.00   0.00  -0.01    -0.00  -0.00  -0.01
    11   8     0.13   0.16  -0.00     0.00   0.00   0.18     0.00   0.00   0.03
    12   6    -0.05   0.03   0.00    -0.00   0.00  -0.13    -0.00   0.00   0.13
    13   1     0.09  -0.19   0.00    -0.02   0.03  -0.01     0.02   0.08   0.02
    14   1     0.08  -0.04  -0.00    -0.04  -0.13  -0.04    -0.01  -0.35  -0.05
    15   1     0.20  -0.06  -0.04    -0.09  -0.04  -0.15    -0.23  -0.11  -0.29
    16   1    -0.04  -0.11   0.00     0.34  -0.12  -0.00    -0.03   0.11  -0.07
    17   1    -0.07  -0.23   0.04     0.20   0.13   0.26    -0.03   0.01  -0.08
    18   1    -0.18  -0.08  -0.00     0.00   0.00  -0.05    -0.00   0.00  -0.11
    19   1    -0.04  -0.11  -0.00    -0.34   0.12  -0.00     0.03  -0.11  -0.07
    20   1    -0.07  -0.23  -0.04    -0.20  -0.13   0.26     0.03  -0.01  -0.08
    21   1     0.09  -0.19  -0.00     0.02  -0.03  -0.01    -0.02  -0.08   0.02
    22   1     0.08  -0.04   0.00     0.04   0.13  -0.04     0.01   0.35  -0.05
    23   1     0.20  -0.06   0.04     0.09   0.04  -0.15     0.23   0.11  -0.29
    24   1     0.23   0.15  -0.00     0.00   0.00   0.40     0.00   0.00  -0.20
    25   1    -0.07   0.08  -0.00     0.08   0.07  -0.20    -0.18  -0.06   0.27
    26   1    -0.07   0.08   0.00    -0.08  -0.07  -0.20     0.18   0.06   0.27
                      4                      5                      6
                      A                      A                      A
 Frequencies --    304.2419               306.1096               367.6353
 Red. masses --      3.0548                 1.1342                 3.5502
 Frc consts  --      0.1666                 0.0626                 0.2827
 IR Inten    --      3.5238                72.5246                24.6577
  Atom  AN      X      Y      Z        X      Y      Z        X      Y      Z
     1   8    -0.01  -0.05  -0.00     0.00   0.00   0.04     0.00   0.00   0.13
     2   6    -0.07   0.05  -0.00     0.00  -0.00   0.00     0.00   0.00   0.03
     3   6    -0.03   0.02  -0.01     0.02  -0.02  -0.01     0.06  -0.12  -0.01
     4   6    -0.08  -0.13  -0.05     0.02  -0.01  -0.02     0.06  -0.02  -0.05
     5   6     0.11   0.01   0.04    -0.03  -0.02  -0.02    -0.07  -0.13  -0.07
     6   6     0.04   0.01   0.00    -0.00  -0.00   0.00    -0.00   0.00  -0.00
     7   6     0.11   0.01  -0.04     0.03   0.02  -0.02     0.07   0.13  -0.07
     8   6    -0.03   0.02   0.01    -0.02   0.02  -0.01    -0.06   0.12  -0.01
     9   6    -0.08  -0.13   0.05    -0.02   0.01  -0.02    -0.06   0.02  -0.05
    10   6    -0.04  -0.03   0.00     0.00   0.00  -0.02    -0.00  -0.00  -0.03
    11   8     0.06   0.25  -0.00    -0.00  -0.00  -0.02    -0.00  -0.00   0.26
    12   6    -0.03  -0.04   0.00     0.00   0.00   0.02    -0.00  -0.00  -0.13
    13   1    -0.04   0.05   0.00     0.04  -0.04  -0.01     0.08  -0.14  -0.01
    14   1    -0.08  -0.31   0.01     0.03  -0.01  -0.02     0.08   0.02  -0.08
    15   1    -0.20  -0.13  -0.21     0.02  -0.01  -0.03     0.16  -0.03  -0.05
    16   1     0.24  -0.08  -0.01    -0.08   0.01  -0.00    -0.22  -0.03  -0.02
    17   1     0.15   0.10   0.18    -0.05  -0.07  -0.06    -0.12  -0.24  -0.21
    18   1     0.06   0.01   0.00    -0.00  -0.00   0.03    -0.00   0.00   0.14
    19   1     0.24  -0.08   0.01     0.08  -0.01  -0.00     0.22   0.03  -0.02
    20   1     0.15   0.10  -0.18     0.05   0.07  -0.06     0.12   0.24  -0.21
    21   1    -0.04   0.05  -0.00    -0.04   0.04  -0.01    -0.08   0.14  -0.01
    22   1    -0.08  -0.31  -0.01    -0.03   0.01  -0.02    -0.08  -0.02  -0.08
    23   1    -0.20  -0.13   0.21    -0.02   0.01  -0.03    -0.16   0.03  -0.05
    24   1     0.31   0.24   0.00    -0.00  -0.00   0.97     0.00  -0.00  -0.41
    25   1     0.00  -0.09  -0.00    -0.02  -0.03   0.05     0.13   0.05  -0.23
    26   1     0.00  -0.09   0.00     0.02   0.03   0.05    -0.13  -0.05  -0.23
                      7                      8                      9
                      A                      A                      A
 Frequencies --    367.7754               392.8646               405.9515
 Red. masses --      5.9175                 4.2831                 2.2370
 Frc consts  --      0.4716                 0.3895                 0.2172
 IR Inten    --      1.0034                 0.7871                 2.0286
  Atom  AN      X      Y      Z        X      Y      Z        X      Y      Z
     1   8     0.25   0.15  -0.00    -0.00  -0.00   0.04    -0.02  -0.01  -0.00
     2   6     0.24   0.14  -0.00    -0.00  -0.00   0.02    -0.02  -0.01  -0.00
     3   6     0.11   0.06   0.08    -0.08   0.10   0.01    -0.01   0.04  -0.03
     4   6     0.01  -0.12   0.05    -0.07   0.13  -0.16    -0.00  -0.02   0.02
     5   6    -0.09   0.05   0.07    -0.14   0.08   0.13    -0.10   0.05  -0.11
     6   6    -0.19   0.01   0.00     0.00  -0.00   0.19     0.09  -0.01  -0.00
     7   6    -0.09   0.05  -0.07     0.14  -0.08   0.13    -0.10   0.05   0.11
     8   6     0.11   0.06  -0.08     0.08  -0.10   0.01    -0.01   0.04   0.03
     9   6     0.01  -0.12  -0.05     0.07  -0.13  -0.16    -0.00  -0.02  -0.02
    10   6    -0.09  -0.15   0.00     0.00  -0.00  -0.19     0.04  -0.09   0.00
    11   8    -0.04  -0.01  -0.00     0.00   0.00   0.05     0.12   0.07  -0.00
    12   6    -0.24  -0.12   0.00     0.00  -0.00  -0.06     0.04  -0.12   0.00
    13   1    -0.00  -0.02  -0.03    -0.00  -0.03   0.01    -0.01   0.08  -0.01
    14   1     0.16  -0.22  -0.01     0.03   0.16  -0.23    -0.01   0.01   0.01
    15   1    -0.18  -0.12   0.04    -0.09   0.14  -0.09    -0.08  -0.02   0.09
    16   1    -0.07   0.21   0.01    -0.28   0.08   0.21    -0.36   0.17   0.00
    17   1    -0.16  -0.12   0.11    -0.14   0.09  -0.03    -0.14  -0.03  -0.40
    18   1    -0.07   0.00  -0.00     0.00  -0.00   0.11     0.19  -0.01  -0.00
    19   1    -0.07   0.21  -0.01     0.28  -0.08   0.21    -0.36   0.17  -0.00
    20   1    -0.16  -0.12  -0.11     0.14  -0.09  -0.03    -0.14  -0.03   0.40
    21   1    -0.00  -0.02   0.03     0.00   0.03   0.01    -0.01   0.08   0.01
    22   1     0.16  -0.22   0.01    -0.03  -0.16  -0.23    -0.01   0.01  -0.01
    23   1    -0.18  -0.12  -0.04     0.09  -0.14  -0.09    -0.08  -0.02  -0.09
    24   1     0.06  -0.01   0.00     0.00   0.00  -0.00     0.29   0.06   0.00
    25   1    -0.23  -0.12  -0.01     0.19  -0.16  -0.12     0.06  -0.14  -0.00
    26   1    -0.23  -0.12   0.01    -0.19   0.16  -0.12     0.06  -0.14   0.00
                     10                     11                     12
                      A                      A                      A
 Frequencies --    450.7922               454.8223               480.2505
 Red. masses --      2.0264                 2.2921                 3.1555
 Frc consts  --      0.2426                 0.2794                 0.4288
 IR Inten    --      3.9890                14.9755                 1.0993
  Atom  AN      X      Y      Z        X      Y      Z        X      Y      Z
     1   8    -0.01   0.01   0.00     0.00  -0.00   0.11     0.00   0.00   0.22
     2   6     0.01  -0.02  -0.00    -0.00   0.00  -0.11     0.00  -0.00  -0.11
     3   6    -0.03  -0.01   0.03     0.03   0.01  -0.13    -0.07   0.00  -0.12
     4   6     0.00   0.07   0.12     0.04   0.09  -0.03    -0.10  -0.03   0.07
     5   6     0.05  -0.02   0.03     0.06  -0.01   0.01    -0.03  -0.04   0.02
     6   6     0.03  -0.06   0.00    -0.00   0.00   0.01     0.00  -0.00   0.06
     7   6     0.05  -0.02  -0.03    -0.06   0.01   0.01     0.03   0.04   0.02
     8   6    -0.03  -0.01  -0.03    -0.03  -0.01  -0.13     0.07  -0.00  -0.12
     9   6     0.00   0.07  -0.12    -0.04  -0.09  -0.03     0.10   0.03   0.07
    10   6    -0.07  -0.07  -0.00     0.00   0.00  -0.04    -0.00  -0.00   0.11
    11   8    -0.03   0.10   0.00     0.00  -0.00   0.06    -0.00   0.00  -0.11
    12   6    -0.03  -0.11   0.00     0.00   0.00   0.13    -0.00  -0.00  -0.08
    13   1    -0.07   0.01   0.01    -0.00  -0.05  -0.18    -0.21  -0.04  -0.24
    14   1     0.02   0.39   0.00     0.00   0.29  -0.07    -0.23  -0.09   0.17
    15   1     0.13   0.07   0.43     0.15   0.09   0.16    -0.14  -0.03   0.01
    16   1     0.14  -0.07  -0.00     0.17  -0.14  -0.00    -0.05  -0.14   0.06
    17   1     0.09   0.07   0.10     0.08   0.04   0.15    -0.01   0.01   0.02
    18   1     0.08  -0.07  -0.00    -0.00   0.00  -0.01     0.00  -0.00   0.08
    19   1     0.14  -0.07   0.00    -0.17   0.14  -0.00     0.05   0.14   0.06
    20   1     0.09   0.07  -0.10    -0.08  -0.04   0.15     0.01  -0.01   0.02
    21   1    -0.07   0.01  -0.01     0.00   0.05  -0.18     0.21   0.04  -0.24
    22   1     0.02   0.39  -0.00    -0.00  -0.29  -0.07     0.23   0.09   0.17
    23   1     0.13   0.07  -0.43    -0.15  -0.09   0.16     0.14   0.03   0.01
    24   1     0.14   0.09  -0.00    -0.00  -0.00  -0.12    -0.00   0.00   0.02
    25   1    -0.00  -0.15  -0.00    -0.21  -0.15   0.33     0.23   0.17  -0.29
    26   1    -0.00  -0.15   0.00     0.21   0.15   0.33    -0.23  -0.17  -0.29
                     13                     14                     15
                      A                      A                      A
 Frequencies --    523.3181               613.8833               633.1843
 Red. masses --      4.7505                 5.5741                 3.5481
 Frc consts  --      0.7665                 1.2377                 0.8381
 IR Inten    --      2.4973                 0.1076                 1.9576
  Atom  AN      X      Y      Z        X      Y      Z        X      Y      Z
     1   8    -0.06  -0.07   0.00    -0.19  -0.08   0.00    -0.00  -0.00  -0.05
     2   6    -0.15   0.09   0.00    -0.06  -0.24   0.00    -0.00  -0.00  -0.13
     3   6    -0.06   0.07  -0.00     0.13  -0.01  -0.05     0.18   0.09  -0.10
     4   6     0.03   0.04  -0.01     0.11  -0.09   0.04     0.13  -0.06   0.03
     5   6    -0.04   0.06   0.12     0.06   0.14  -0.07    -0.01   0.14   0.08
     6   6    -0.17  -0.04   0.00    -0.05   0.32  -0.00    -0.00   0.00   0.08
     7   6    -0.04   0.06  -0.12     0.06   0.14   0.07     0.01  -0.14   0.08
     8   6    -0.06   0.07   0.00     0.13  -0.01   0.05    -0.18  -0.09  -0.10
     9   6     0.03   0.04   0.01     0.11  -0.09  -0.04    -0.13   0.06   0.03
    10   6     0.19  -0.09   0.00    -0.07  -0.10  -0.00     0.00  -0.00   0.09
    11   8     0.30  -0.14  -0.00    -0.05  -0.03  -0.00     0.00  -0.00   0.05
    12   6    -0.08  -0.05  -0.00    -0.19   0.01  -0.00    -0.00   0.00   0.02
    13   1     0.04  -0.02   0.02     0.21   0.20   0.09     0.13   0.02  -0.17
    14   1    -0.05   0.11   0.02     0.18   0.05  -0.06     0.15  -0.24   0.09
    15   1    -0.03   0.04   0.12     0.12  -0.09   0.19    -0.02  -0.05  -0.11
    16   1     0.23  -0.04  -0.00     0.12   0.05  -0.06    -0.20   0.23   0.15
    17   1     0.00   0.16   0.40     0.02   0.02   0.12    -0.09  -0.04  -0.10
    18   1    -0.05  -0.04   0.00     0.08   0.32   0.00    -0.00   0.00  -0.18
    19   1     0.23  -0.04   0.00     0.12   0.05   0.06     0.20  -0.23   0.15
    20   1     0.00   0.16  -0.40     0.02   0.02  -0.12     0.09   0.04  -0.10
    21   1     0.04  -0.02  -0.02     0.21   0.20  -0.09    -0.13  -0.02  -0.17
    22   1    -0.05   0.11  -0.02     0.18   0.05   0.06    -0.15   0.24   0.09
    23   1    -0.03   0.04  -0.12     0.12  -0.09  -0.19     0.02   0.05  -0.11
    24   1     0.27  -0.14   0.00    -0.05  -0.03   0.00    -0.00  -0.00  -0.02
    25   1    -0.14   0.07  -0.01    -0.13  -0.06  -0.01     0.21   0.12  -0.16
    26   1    -0.14   0.07   0.01    -0.13  -0.06   0.01    -0.21  -0.12  -0.16
                     16                     17                     18
                      A                      A                      A
 Frequencies --    714.5831               721.8830               789.9072
 Red. masses --      3.3496                 4.3798                 3.6979
 Frc consts  --      1.0077                 1.3447                 1.3594
 IR Inten    --      0.3342                 0.4697                 0.1715
  Atom  AN      X      Y      Z        X      Y      Z        X      Y      Z
     1   8    -0.10  -0.08   0.00    -0.02   0.01   0.00     0.02  -0.07  -0.00
     2   6    -0.13   0.01  -0.00     0.05  -0.09   0.00    -0.21   0.31   0.00
     3   6     0.05   0.02   0.19    -0.07  -0.03   0.15     0.03   0.02   0.01
     4   6     0.10   0.01  -0.01    -0.06  -0.11   0.23     0.05  -0.09   0.05
     5   6    -0.02   0.06   0.12    -0.01   0.02   0.04     0.09  -0.09  -0.09
     6   6     0.04  -0.12  -0.00     0.02   0.11  -0.00    -0.03  -0.03   0.00
     7   6    -0.02   0.06  -0.12    -0.01   0.02  -0.04     0.09  -0.09   0.09
     8   6     0.05   0.02  -0.19    -0.07  -0.03  -0.15     0.03   0.02  -0.01
     9   6     0.10   0.01   0.01    -0.06  -0.11  -0.23     0.05  -0.09  -0.05
    10   6    -0.02   0.05  -0.00     0.03   0.01   0.00    -0.01  -0.02  -0.00
    11   8    -0.09   0.04   0.00     0.10  -0.04  -0.00    -0.02  -0.01  -0.00
    12   6     0.05  -0.07  -0.00     0.13   0.22  -0.00    -0.07   0.12  -0.00
    13   1     0.16  -0.06   0.24    -0.28   0.06   0.06     0.01   0.14   0.04
    14   1     0.28  -0.18  -0.05    -0.02  -0.21   0.25    -0.00   0.15   0.00
    15   1     0.05   0.01  -0.19    -0.11  -0.11   0.15     0.17  -0.09   0.24
    16   1    -0.12   0.32   0.08    -0.07   0.09   0.06    -0.10   0.14  -0.07
    17   1    -0.05   0.01  -0.08    -0.01   0.01  -0.03     0.01  -0.24  -0.28
    18   1     0.12  -0.13  -0.00    -0.19   0.12   0.00    -0.25  -0.01   0.00
    19   1    -0.12   0.32  -0.08    -0.07   0.09  -0.06    -0.10   0.14   0.07
    20   1    -0.05   0.01   0.08    -0.01   0.01   0.03     0.01  -0.24   0.28
    21   1     0.16  -0.06  -0.24    -0.28   0.06  -0.06     0.01   0.14  -0.04
    22   1     0.28  -0.18   0.05    -0.02  -0.21  -0.25    -0.00   0.15  -0.00
    23   1     0.05   0.01   0.19    -0.11  -0.11  -0.15     0.17  -0.09  -0.24
    24   1    -0.11   0.04  -0.00     0.07  -0.04  -0.00    -0.05  -0.01   0.00
    25   1     0.05  -0.07   0.00     0.13   0.23   0.00    -0.10   0.16   0.00
    26   1     0.05  -0.07  -0.00     0.13   0.23  -0.00    -0.10   0.16  -0.00
                     19                     20                     21
                      A                      A                      A
 Frequencies --    803.6813               858.0257               902.2190
 Red. masses --      2.8028                 2.6450                 1.5607
 Frc consts  --      1.0666                 1.1473                 0.7485
 IR Inten    --      1.4510                 1.4632                 3.6872
  Atom  AN      X      Y      Z        X      Y      Z        X      Y      Z
     1   8     0.03  -0.01   0.00     0.00  -0.00  -0.04     0.00  -0.00  -0.01
     2   6    -0.05   0.13  -0.00    -0.00   0.00   0.05    -0.00   0.00   0.05
     3   6    -0.01  -0.08  -0.05     0.10   0.12  -0.02    -0.00   0.01  -0.01
     4   6     0.02  -0.04  -0.04    -0.06   0.10  -0.00     0.05   0.03  -0.03
     5   6    -0.07   0.01   0.14     0.07  -0.13  -0.06    -0.10  -0.00  -0.05
     6   6     0.05   0.21  -0.00     0.00   0.00   0.11    -0.00  -0.00  -0.00
     7   6    -0.07   0.01  -0.14    -0.07   0.13  -0.06     0.10   0.00  -0.05
     8   6    -0.01  -0.08   0.05    -0.10  -0.12  -0.02     0.00  -0.01  -0.01
     9   6     0.02  -0.04   0.04     0.06  -0.10  -0.00    -0.05  -0.03  -0.03
    10   6    -0.03  -0.05  -0.00     0.00  -0.00   0.04     0.00   0.00   0.05
    11   8    -0.03   0.02   0.00    -0.00   0.00  -0.01    -0.00   0.00  -0.00
    12   6     0.13  -0.01  -0.00     0.00  -0.00   0.03     0.00  -0.00   0.10
    13   1     0.00  -0.23  -0.11     0.21   0.26   0.11     0.12  -0.02   0.06
    14   1    -0.05   0.19  -0.08    -0.09  -0.09   0.07     0.05  -0.09   0.02
    15   1     0.18  -0.05   0.14    -0.29   0.11  -0.09    -0.04   0.04  -0.12
    16   1    -0.20  -0.07   0.25    -0.07  -0.10   0.01     0.27  -0.22  -0.18
    17   1    -0.13  -0.13   0.12     0.02  -0.24  -0.14    -0.01   0.17   0.35
    18   1     0.05   0.21  -0.00     0.00   0.00   0.39     0.00  -0.00   0.02
    19   1    -0.20  -0.07  -0.25     0.07   0.10   0.01    -0.27   0.22  -0.18
    20   1    -0.13  -0.13  -0.12    -0.02   0.24  -0.14     0.01  -0.17   0.35
    21   1     0.00  -0.23   0.11    -0.21  -0.26   0.11    -0.12   0.02   0.06
    22   1    -0.05   0.19   0.08     0.09   0.09   0.07    -0.05   0.09   0.02
    23   1     0.18  -0.05  -0.14     0.29  -0.11  -0.09     0.04  -0.04  -0.12
    24   1     0.07   0.01   0.00    -0.00   0.00  -0.02    -0.00   0.00  -0.00
    25   1     0.23  -0.16  -0.00     0.08  -0.01  -0.02     0.29   0.13  -0.14
    26   1     0.23  -0.16   0.00    -0.08   0.01  -0.02    -0.29  -0.13  -0.14
                     22                     23                     24
                      A                      A                      A
 Frequencies --    908.2467               910.3458               942.5310
 Red. masses --      1.5818                 2.2657                 3.1376
 Frc consts  --      0.7688                 1.1063                 1.6423
 IR Inten    --      2.7108                 7.0114                20.3900
  Atom  AN      X      Y      Z        X      Y      Z        X      Y      Z
     1   8     0.00   0.00  -0.01    -0.04  -0.02  -0.00    -0.01  -0.01   0.00
     2   6     0.00   0.00   0.05    -0.02  -0.04   0.00    -0.03   0.04  -0.00
     3   6     0.00   0.00  -0.02     0.12   0.08   0.02     0.00   0.07  -0.09
     4   6    -0.04  -0.09  -0.05    -0.09   0.06  -0.00     0.11  -0.05   0.09
     5   6     0.05   0.03  -0.04     0.01  -0.10   0.02    -0.11   0.01  -0.06
     6   6     0.00  -0.00   0.06    -0.06   0.04   0.00    -0.11  -0.06   0.00
     7   6    -0.05  -0.03  -0.04     0.01  -0.10  -0.02    -0.11   0.01   0.06
     8   6    -0.00  -0.00  -0.02     0.12   0.08  -0.02     0.00   0.07   0.09
     9   6     0.04   0.09  -0.05    -0.09   0.06   0.00     0.11  -0.05  -0.09
    10   6     0.00   0.00  -0.00    -0.03  -0.07   0.00     0.07  -0.02  -0.00
    11   8     0.00  -0.00  -0.00     0.01   0.01  -0.00    -0.13   0.05   0.00
    12   6    -0.00  -0.00   0.11     0.10   0.01   0.00     0.19  -0.02  -0.00
    13   1     0.03   0.13   0.06     0.27   0.15   0.14    -0.07   0.15  -0.11
    14   1    -0.07   0.33  -0.17    -0.04  -0.00  -0.01     0.13  -0.18   0.13
    15   1     0.15  -0.09   0.34    -0.34   0.08   0.07    -0.03  -0.05  -0.02
    16   1    -0.03   0.05  -0.00    -0.04  -0.04   0.03     0.22  -0.22  -0.16
    17   1     0.02  -0.03  -0.09    -0.08  -0.30   0.08    -0.03   0.15   0.31
    18   1     0.00  -0.00   0.01    -0.29   0.06   0.00    -0.17  -0.06   0.00
    19   1     0.03  -0.05  -0.00    -0.04  -0.04  -0.03     0.22  -0.22   0.16
    20   1    -0.02   0.03  -0.09    -0.08  -0.30  -0.08    -0.03   0.15  -0.31
    21   1    -0.03  -0.13   0.06     0.27   0.15  -0.14    -0.07   0.15   0.11
    22   1     0.07  -0.33  -0.17    -0.04  -0.00   0.01     0.13  -0.18  -0.13
    23   1    -0.15   0.09   0.34    -0.34   0.08  -0.07    -0.03  -0.05   0.02
    24   1    -0.00  -0.00   0.02     0.19  -0.00   0.00    -0.04   0.05  -0.00
    25   1     0.32   0.16  -0.15     0.15  -0.08   0.00     0.19  -0.04   0.01
    26   1    -0.32  -0.16  -0.15     0.15  -0.08  -0.00     0.19  -0.04  -0.01
                     25                     26                     27
                      A                      A                      A
 Frequencies --    950.7916               981.6707               988.9423
 Red. masses --      2.0962                 2.1245                 2.6529
 Frc consts  --      1.1165                 1.2063                 1.5287
 IR Inten    --      3.6151                 1.2914                13.9729
  Atom  AN      X      Y      Z        X      Y      Z        X      Y      Z
     1   8     0.00   0.00   0.01     0.02   0.02  -0.00     0.03   0.01   0.00
     2   6     0.00  -0.00  -0.04     0.03  -0.02  -0.00    -0.02   0.06  -0.00
     3   6    -0.09   0.08   0.01    -0.04  -0.02   0.08    -0.07  -0.01   0.10
     4   6     0.10  -0.06   0.06    -0.01  -0.03  -0.12     0.05   0.06   0.01
     5   6     0.02  -0.03  -0.07    -0.01   0.04  -0.07    -0.01  -0.09  -0.09
     6   6    -0.00   0.00   0.11    -0.08  -0.02  -0.00    -0.01   0.18  -0.00
     7   6    -0.02   0.03  -0.07    -0.01   0.04   0.07    -0.01  -0.09   0.09
     8   6     0.09  -0.08   0.01    -0.04  -0.02  -0.08    -0.07  -0.01  -0.10
     9   6    -0.10   0.06   0.06    -0.01  -0.03   0.12     0.05   0.06  -0.01
    10   6    -0.00  -0.00  -0.10    -0.07  -0.09  -0.00    -0.07   0.07  -0.00
    11   8     0.00  -0.00   0.02     0.01  -0.00  -0.00     0.08  -0.03  -0.00
    12   6     0.00   0.00  -0.01     0.11   0.07  -0.00    -0.02  -0.12   0.00
    13   1    -0.31   0.28  -0.06     0.02  -0.04   0.11    -0.15   0.15   0.12
    14   1     0.30  -0.12  -0.04     0.13   0.22  -0.30     0.23  -0.15  -0.03
    15   1     0.09  -0.06  -0.03     0.13  -0.04   0.14     0.08   0.05  -0.27
    16   1     0.03  -0.10  -0.05     0.17   0.14  -0.21     0.07  -0.22  -0.08
    17   1     0.09   0.13  -0.08     0.04   0.16   0.01     0.01  -0.06   0.10
    18   1    -0.00   0.00   0.35    -0.38   0.00  -0.00    -0.06   0.18  -0.00
    19   1    -0.03   0.10  -0.05     0.17   0.14   0.21     0.07  -0.22   0.08
    20   1    -0.09  -0.13  -0.08     0.04   0.16  -0.01     0.01  -0.06  -0.10
    21   1     0.31  -0.28  -0.06     0.02  -0.04  -0.11    -0.15   0.15  -0.12
    22   1    -0.30   0.12  -0.04     0.13   0.22   0.30     0.23  -0.15   0.03
    23   1    -0.09   0.06  -0.03     0.13  -0.04  -0.14     0.08   0.05   0.27
    24   1     0.00  -0.00   0.02     0.28  -0.02  -0.00    -0.08  -0.02   0.00
    25   1     0.07  -0.22   0.02     0.13   0.01   0.01     0.10  -0.33  -0.01
    26   1    -0.07   0.22   0.02     0.13   0.01  -0.01     0.10  -0.33   0.01
                     28                     29                     30
                      A                      A                      A
 Frequencies --   1019.6030              1043.4438              1063.4411
 Red. masses --      2.0193                 2.0735                 1.9045
 Frc consts  --      1.2368                 1.3301                 1.2690
 IR Inten    --      0.1423                 2.3402                 5.7429
  Atom  AN      X      Y      Z        X      Y      Z        X      Y      Z
     1   8     0.00   0.00   0.01    -0.01   0.01   0.00    -0.00  -0.00   0.00
     2   6    -0.00   0.00  -0.01     0.03  -0.05  -0.00    -0.00   0.00  -0.05
     3   6    -0.07  -0.08   0.02    -0.06   0.10  -0.01     0.08  -0.08   0.02
     4   6     0.04   0.09  -0.05     0.07  -0.01  -0.04    -0.08   0.01   0.06
     5   6     0.10   0.04  -0.04    -0.02  -0.07   0.05     0.00   0.06  -0.05
     6   6    -0.00   0.00   0.06     0.11  -0.02   0.00     0.00   0.00   0.08
     7   6    -0.10  -0.04  -0.04    -0.02  -0.07  -0.05    -0.00  -0.06  -0.05
     8   6     0.07   0.08   0.02    -0.06   0.10   0.01    -0.08   0.08   0.02
     9   6    -0.04  -0.09  -0.05     0.07  -0.01   0.04     0.08  -0.01   0.06
    10   6     0.00   0.00   0.09    -0.04  -0.09   0.00    -0.00  -0.00  -0.11
    11   8     0.00   0.00  -0.01    -0.01  -0.01  -0.00     0.00  -0.00   0.01
    12   6     0.00  -0.00   0.08    -0.06   0.10   0.00    -0.00  -0.00   0.00
    13   1    -0.03  -0.18   0.00    -0.11   0.16  -0.02     0.02  -0.16  -0.05
    14   1    -0.05  -0.11   0.08     0.35  -0.02  -0.21    -0.07  -0.06   0.08
    15   1     0.16   0.08  -0.35    -0.09  -0.00   0.05    -0.15   0.01   0.04
    16   1    -0.08   0.16   0.02    -0.16  -0.31   0.22     0.18   0.21  -0.21
    17   1     0.15   0.16  -0.35     0.04   0.07  -0.07     0.01   0.07   0.06
    18   1    -0.00   0.00   0.15     0.05  -0.01   0.00     0.00   0.00   0.13
    19   1     0.08  -0.16   0.02    -0.16  -0.31  -0.22    -0.18  -0.21  -0.21
    20   1    -0.15  -0.16  -0.35     0.04   0.07   0.07    -0.01  -0.07   0.06
    21   1     0.03   0.18   0.00    -0.11   0.16   0.02    -0.02   0.16  -0.05
    22   1     0.05   0.11   0.08     0.35  -0.02   0.21     0.07   0.06   0.08
    23   1    -0.16  -0.08  -0.35    -0.09  -0.00  -0.05     0.15  -0.01   0.04
    24   1    -0.00   0.00  -0.02     0.19  -0.02  -0.00     0.00  -0.00  -0.01
    25   1     0.14   0.11  -0.05    -0.10   0.17   0.00     0.26  -0.43  -0.00
    26   1    -0.14  -0.11  -0.05    -0.10   0.17  -0.00    -0.26   0.43  -0.00
                     31                     32                     33
                      A                      A                      A
 Frequencies --   1071.4323              1088.7630              1116.5614
 Red. masses --      1.7411                 1.7737                 1.4620
 Frc consts  --      1.1776                 1.2388                 1.0739
 IR Inten    --     33.1148                20.2042                 0.7336
  Atom  AN      X      Y      Z        X      Y      Z        X      Y      Z
     1   8     0.00   0.00  -0.02     0.02  -0.01   0.00     0.02   0.01   0.00
     2   6     0.00   0.00   0.15    -0.04   0.08  -0.00     0.01  -0.01  -0.00
     3   6    -0.00  -0.03  -0.08     0.04  -0.08   0.04     0.01   0.03   0.06
     4   6     0.02  -0.03   0.00    -0.01   0.05   0.02    -0.04  -0.07  -0.04
     5   6    -0.01   0.06  -0.03    -0.06   0.00  -0.06    -0.05  -0.02  -0.02
     6   6     0.00   0.00   0.08     0.10   0.03  -0.00     0.04   0.00   0.00
     7   6     0.01  -0.06  -0.03    -0.06   0.00   0.06    -0.05  -0.02   0.02
     8   6     0.00   0.03  -0.08     0.04  -0.08  -0.04     0.01   0.03  -0.06
     9   6    -0.02   0.03   0.00    -0.01   0.05  -0.02    -0.04  -0.07   0.04
    10   6     0.00  -0.00   0.02     0.02  -0.08   0.00     0.07   0.06   0.00
    11   8    -0.00   0.00   0.00    -0.03   0.00  -0.00    -0.01   0.01   0.00
    12   6    -0.00  -0.00  -0.09    -0.03   0.05   0.00     0.01  -0.02  -0.00
    13   1     0.21   0.11   0.11     0.25  -0.28   0.10     0.11   0.28   0.23
    14   1    -0.34   0.02   0.21     0.04  -0.10   0.04    -0.16   0.17  -0.04
    15   1     0.15  -0.04  -0.05    -0.27   0.06   0.02     0.17  -0.07   0.14
    16   1    -0.07  -0.26   0.12     0.12  -0.20  -0.08     0.04  -0.16  -0.01
    17   1     0.05   0.20  -0.04     0.05   0.23   0.09    -0.08  -0.09   0.21
    18   1     0.00   0.00  -0.00     0.26   0.02  -0.00     0.45  -0.03   0.00
    19   1     0.07   0.26   0.12     0.12  -0.20   0.08     0.04  -0.16   0.01
    20   1    -0.05  -0.20  -0.04     0.05   0.23  -0.09    -0.08  -0.09  -0.21
    21   1    -0.21  -0.11   0.11     0.25  -0.28  -0.10     0.11   0.28  -0.23
    22   1     0.34  -0.02   0.21     0.04  -0.10  -0.04    -0.16   0.17   0.04
    23   1    -0.15   0.04  -0.05    -0.27   0.06  -0.02     0.17  -0.07  -0.14
    24   1     0.00  -0.00   0.00     0.21  -0.01  -0.00    -0.22   0.02  -0.00
    25   1    -0.14  -0.24   0.09    -0.10   0.18  -0.00    -0.06   0.12  -0.00
    26   1     0.14   0.24   0.09    -0.10   0.18   0.00    -0.06   0.12   0.00
                     34                     35                     36
                      A                      A                      A
 Frequencies --   1129.4064              1148.0746              1156.0653
 Red. masses --      1.1409                 4.0097                 1.1831
 Frc consts  --      0.8575                 3.1138                 0.9316
 IR Inten    --      0.3309                97.4740                 0.3001
  Atom  AN      X      Y      Z        X      Y      Z        X      Y      Z
     1   8    -0.00  -0.00   0.00     0.01   0.01   0.00    -0.00  -0.00   0.00
     2   6    -0.00  -0.00  -0.02     0.03  -0.03  -0.00    -0.00   0.00  -0.03
     3   6     0.02   0.01   0.01    -0.10  -0.01   0.06    -0.01   0.05   0.01
     4   6    -0.00  -0.03  -0.02     0.03   0.06  -0.04     0.01  -0.02  -0.04
     5   6    -0.02   0.01  -0.01     0.08  -0.03  -0.00    -0.02  -0.01   0.01
     6   6     0.00   0.00   0.04    -0.07   0.12  -0.00     0.00  -0.00   0.01
     7   6     0.02  -0.01  -0.01     0.08  -0.03   0.00     0.02   0.01   0.01
     8   6    -0.02  -0.01   0.01    -0.10  -0.01  -0.06     0.01  -0.05   0.01
     9   6     0.00   0.03  -0.02     0.03   0.06   0.04    -0.01   0.02  -0.04
    10   6     0.00  -0.00   0.05     0.33  -0.18   0.00    -0.00   0.00   0.06
    11   8    -0.00   0.00  -0.00    -0.19   0.04  -0.00     0.00  -0.00  -0.00
    12   6    -0.00   0.00  -0.05    -0.02  -0.07  -0.00    -0.00   0.00  -0.04
    13   1     0.14  -0.21  -0.01    -0.17   0.07   0.05    -0.01   0.03   0.00
    14   1     0.09   0.05  -0.10    -0.18  -0.06   0.14    -0.24   0.08   0.09
    15   1    -0.16  -0.01   0.18     0.06   0.05  -0.13     0.32  -0.03  -0.11
    16   1     0.07   0.05  -0.08    -0.08   0.16   0.02     0.15   0.33  -0.21
    17   1     0.10   0.30  -0.10    -0.01  -0.22  -0.08    -0.09  -0.18   0.15
    18   1    -0.00  -0.00   0.51    -0.01   0.12   0.00    -0.00  -0.00   0.34
    19   1    -0.07  -0.05  -0.08    -0.08   0.16  -0.02    -0.15  -0.33  -0.21
    20   1    -0.10  -0.30  -0.10    -0.01  -0.22   0.08     0.09   0.18   0.15
    21   1    -0.14   0.21  -0.01    -0.17   0.07  -0.05     0.01  -0.03   0.00
    22   1    -0.09  -0.05  -0.10    -0.18  -0.06  -0.14     0.24  -0.08   0.09
    23   1     0.16   0.01   0.18     0.06   0.05   0.13    -0.32   0.03  -0.11
    24   1     0.00  -0.00   0.00     0.48   0.02  -0.00    -0.00  -0.00  -0.00
    25   1    -0.24   0.19   0.04    -0.11   0.17  -0.02    -0.04  -0.09   0.03
    26   1     0.24  -0.19   0.04    -0.11   0.17   0.02     0.04   0.09   0.03
                     37                     38                     39
                      A                      A                      A
 Frequencies --   1184.8135              1228.9007              1238.0732
 Red. masses --      1.2183                 1.1043                 1.8658
 Frc consts  --      1.0076                 0.9826                 1.6851
 IR Inten    --      3.7865                 4.0932                 2.9771
  Atom  AN      X      Y      Z        X      Y      Z        X      Y      Z
     1   8    -0.01  -0.01   0.00     0.02   0.01  -0.00    -0.00  -0.00  -0.03
     2   6    -0.01   0.01   0.00     0.00  -0.00   0.00     0.00  -0.00   0.16
     3   6     0.03  -0.02  -0.02    -0.00  -0.00  -0.01    -0.03   0.06  -0.04
     4   6    -0.02   0.03   0.02     0.01   0.00   0.02     0.07  -0.02   0.01
     5   6     0.00   0.02  -0.01    -0.01   0.01   0.01     0.02  -0.04   0.04
     6   6    -0.01  -0.02  -0.00     0.00  -0.02  -0.00     0.00   0.00  -0.10
     7   6     0.00   0.02   0.01    -0.01   0.01  -0.01    -0.02   0.04   0.04
     8   6     0.03  -0.02   0.02    -0.00  -0.00   0.01     0.03  -0.06  -0.04
     9   6    -0.02   0.03  -0.02     0.01   0.00  -0.02    -0.07   0.02   0.01
    10   6    -0.09  -0.02   0.00    -0.06  -0.01  -0.00     0.00   0.00  -0.09
    11   8     0.01  -0.02  -0.00    -0.01  -0.03   0.00     0.00   0.00   0.02
    12   6     0.04   0.01  -0.00    -0.01   0.01   0.00     0.00  -0.00   0.05
    13   1    -0.19   0.11  -0.11     0.22   0.16   0.20    -0.08  -0.40  -0.26
    14   1     0.11  -0.03  -0.05    -0.25  -0.02   0.19    -0.23  -0.01   0.19
    15   1     0.16   0.02  -0.18     0.28  -0.01  -0.19    -0.23   0.00   0.12
    16   1     0.05   0.09  -0.06    -0.07  -0.14   0.11    -0.00   0.14  -0.02
    17   1    -0.12  -0.25   0.16     0.05   0.15  -0.06     0.03  -0.01  -0.11
    18   1     0.42  -0.05  -0.00    -0.21  -0.01   0.00     0.00   0.00   0.13
    19   1     0.05   0.09   0.06    -0.07  -0.14  -0.11     0.00  -0.14  -0.02
    20   1    -0.12  -0.25  -0.16     0.05   0.15   0.06    -0.03   0.01  -0.11
    21   1    -0.19   0.11   0.11     0.22   0.16  -0.20     0.08   0.40  -0.26
    22   1     0.11  -0.03   0.05    -0.25  -0.02  -0.19     0.23   0.01   0.19
    23   1     0.16   0.02   0.18     0.28  -0.01   0.19     0.23  -0.00   0.12
    24   1     0.45  -0.04   0.00     0.40  -0.04   0.00    -0.00   0.00  -0.00
    25   1    -0.08   0.20   0.01     0.01  -0.06   0.01     0.15  -0.04  -0.04
    26   1    -0.08   0.20  -0.01     0.01  -0.06  -0.01    -0.15   0.04  -0.04
                     40                     41                     42
                      A                      A                      A
 Frequencies --   1263.0163              1292.9797              1302.3818
 Red. masses --      1.5154                 1.6743                 1.5529
 Frc consts  --      1.4243                 1.6492                 1.5519
 IR Inten    --      7.7614                 0.7120                 5.2994
  Atom  AN      X      Y      Z        X      Y      Z        X      Y      Z
     1   8     0.00   0.00  -0.03    -0.02  -0.00   0.00    -0.00   0.00  -0.01
     2   6     0.00   0.00   0.15     0.02  -0.04  -0.00     0.00  -0.00   0.06
     3   6     0.06  -0.03  -0.03    -0.02   0.10   0.02     0.00   0.05   0.01
     4   6    -0.04   0.03   0.01     0.05  -0.02  -0.01    -0.03  -0.01  -0.03
     5   6    -0.00   0.05  -0.02    -0.04  -0.07  -0.00     0.01  -0.01  -0.02
     6   6    -0.00  -0.00   0.04     0.10   0.02   0.00     0.00   0.00   0.00
     7   6     0.00  -0.05  -0.02    -0.04  -0.07   0.00    -0.01   0.01  -0.02
     8   6    -0.06   0.03  -0.03    -0.02   0.10  -0.02    -0.00  -0.05   0.01
     9   6     0.04  -0.03   0.01     0.05  -0.02   0.01     0.03   0.01  -0.03
    10   6     0.00  -0.00  -0.01    -0.04  -0.01  -0.00    -0.00  -0.00   0.19
    11   8    -0.00  -0.00  -0.01    -0.00  -0.01   0.00     0.00  -0.00  -0.02
    12   6    -0.00   0.00  -0.01    -0.05   0.05   0.00    -0.00   0.00  -0.05
    13   1    -0.44   0.06  -0.32     0.03  -0.33  -0.12    -0.07  -0.30  -0.18
    14   1     0.10  -0.00  -0.07    -0.28   0.03   0.17     0.25   0.05  -0.22
    15   1     0.09   0.02  -0.12     0.09  -0.02  -0.02     0.07  -0.01   0.02
    16   1     0.03  -0.02  -0.01     0.18   0.29  -0.25    -0.02  -0.11   0.03
    17   1    -0.06  -0.09   0.11    -0.05  -0.10   0.11     0.00  -0.04  -0.02
    18   1     0.00  -0.00   0.23     0.09   0.02   0.00     0.00   0.00  -0.17
    19   1    -0.03   0.02  -0.01     0.18   0.29   0.25     0.02   0.11   0.03
    20   1     0.06   0.09   0.11    -0.05  -0.10  -0.11    -0.00   0.04  -0.02
    21   1     0.44  -0.06  -0.32     0.03  -0.33   0.12     0.07   0.30  -0.18
    22   1    -0.10   0.00  -0.07    -0.28   0.03  -0.17    -0.25  -0.05  -0.22
    23   1    -0.09  -0.02  -0.12     0.09  -0.02   0.02    -0.07   0.01   0.02
    24   1     0.00  -0.00   0.01     0.13  -0.02   0.00     0.00  -0.00   0.00
    25   1    -0.16   0.25   0.00     0.05  -0.11  -0.01     0.12  -0.42   0.04
    26   1     0.16  -0.25   0.00     0.05  -0.11   0.01    -0.12   0.42   0.04
                     43                     44                     45
                      A                      A                      A
 Frequencies --   1323.0356              1323.4455              1349.2273
 Red. masses --      1.8714                 1.6306                 1.5003
 Frc consts  --      1.9300                 1.6827                 1.6092
 IR Inten    --     18.7865                 7.1997                 5.3316
  Atom  AN      X      Y      Z        X      Y      Z        X      Y      Z
     1   8    -0.04  -0.03  -0.00    -0.00  -0.00  -0.00     0.01   0.00  -0.00
     2   6    -0.01   0.01   0.00    -0.00   0.00  -0.05    -0.00   0.01   0.00
     3   6     0.13   0.01   0.05     0.09   0.06   0.06    -0.00  -0.07  -0.01
     4   6    -0.07  -0.00  -0.01    -0.06  -0.01   0.01     0.04   0.02  -0.03
     5   6    -0.05  -0.01  -0.00    -0.04  -0.04   0.02    -0.02   0.01   0.02
     6   6     0.08   0.00   0.00     0.00  -0.00  -0.07     0.02  -0.05   0.00
     7   6    -0.05  -0.01   0.00     0.04   0.04   0.02    -0.02   0.01  -0.02
     8   6     0.13   0.01  -0.05    -0.09  -0.06   0.06    -0.00  -0.07   0.01
     9   6    -0.07  -0.00   0.01     0.06   0.01   0.01     0.04   0.02   0.03
    10   6     0.10   0.03   0.00     0.00   0.00  -0.05     0.02  -0.01   0.00
    11   8    -0.02  -0.01  -0.00    -0.00  -0.00   0.00    -0.01  -0.01  -0.00
    12   6    -0.06  -0.00  -0.00    -0.00  -0.00   0.04    -0.07   0.13  -0.00
    13   1    -0.39   0.05  -0.27    -0.09  -0.07  -0.11    -0.13   0.35   0.07
    14   1     0.01   0.06  -0.08    -0.16   0.05   0.06    -0.07  -0.02   0.05
    15   1     0.21  -0.02  -0.05     0.38  -0.04  -0.16    -0.24   0.04   0.09
    16   1     0.04  -0.12  -0.01    -0.05  -0.21   0.09     0.06   0.11  -0.06
    17   1     0.05   0.22  -0.00     0.14   0.37  -0.17    -0.05  -0.06   0.05
    18   1    -0.37   0.03   0.00    -0.00  -0.00   0.02     0.18  -0.06  -0.00
    19   1     0.04  -0.12   0.01     0.05   0.21   0.09     0.06   0.11   0.06
    20   1     0.05   0.22   0.00    -0.14  -0.37  -0.17    -0.05  -0.06  -0.05
    21   1    -0.39   0.05   0.27     0.09   0.07  -0.11    -0.13   0.35  -0.07
    22   1     0.01   0.06   0.08     0.16  -0.05   0.06    -0.07  -0.02  -0.05
    23   1     0.21  -0.02   0.05    -0.38   0.04  -0.16    -0.24   0.04  -0.09
    24   1     0.21  -0.02  -0.00     0.00  -0.00   0.01     0.09  -0.01   0.00
    25   1     0.04  -0.13  -0.01     0.09   0.01  -0.03     0.24  -0.38  -0.01
    26   1     0.04  -0.13   0.01    -0.09  -0.01  -0.03     0.24  -0.38   0.01
                     46                     47                     48
                      A                      A                      A
 Frequencies --   1356.2401              1368.0345              1378.1394
 Red. masses --      1.6148                 1.5444                 1.5673
 Frc consts  --      1.7500                 1.7029                 1.7539
 IR Inten    --      0.4163                 7.2245                 5.1924
  Atom  AN      X      Y      Z        X      Y      Z        X      Y      Z
     1   8     0.00   0.00  -0.00    -0.01  -0.00   0.00     0.00   0.00  -0.01
     2   6     0.00  -0.00   0.04     0.00  -0.00   0.00    -0.00  -0.00   0.07
     3   6    -0.04  -0.00  -0.07     0.02   0.03   0.02     0.01  -0.05  -0.07
     4   6    -0.06  -0.00   0.07     0.01  -0.03  -0.01    -0.01   0.01  -0.00
     5   6     0.01   0.04   0.03     0.02  -0.05   0.01    -0.04  -0.07   0.08
     6   6     0.00  -0.00  -0.13    -0.16   0.04  -0.00    -0.00   0.00  -0.04
     7   6    -0.01  -0.04   0.03     0.02  -0.05  -0.01     0.04   0.07   0.08
     8   6     0.04   0.00  -0.07     0.02   0.03  -0.02    -0.01   0.05  -0.07
     9   6     0.06   0.00   0.07     0.01  -0.03   0.01     0.01  -0.01  -0.00
    10   6    -0.00  -0.00  -0.04    -0.00   0.10  -0.00     0.00   0.00   0.05
    11   8     0.00   0.00  -0.00    -0.02  -0.03   0.00    -0.00  -0.00  -0.01
    12   6    -0.00  -0.00   0.03     0.02   0.01   0.00     0.00  -0.00   0.00
    13   1     0.29  -0.04   0.13    -0.03  -0.10  -0.07    -0.08   0.35   0.03
    14   1     0.29  -0.06  -0.12    -0.03   0.06  -0.01     0.13   0.02  -0.10
    15   1     0.21  -0.02  -0.14    -0.09  -0.02   0.10    -0.06   0.02  -0.02
    16   1    -0.06  -0.02   0.09    -0.05  -0.04   0.04     0.13   0.31  -0.16
    17   1    -0.05  -0.09   0.02     0.15   0.27  -0.24     0.12   0.29  -0.22
    18   1    -0.00  -0.00   0.58     0.61  -0.02   0.00     0.00   0.00  -0.13
    19   1     0.06   0.02   0.09    -0.05  -0.04  -0.04    -0.13  -0.31  -0.16
    20   1     0.05   0.09   0.02     0.15   0.27   0.24    -0.12  -0.29  -0.22
    21   1    -0.29   0.04   0.13    -0.03  -0.10   0.07     0.08  -0.35   0.03
    22   1    -0.29   0.06  -0.12    -0.03   0.06   0.01    -0.13  -0.02  -0.10
    23   1    -0.21   0.02  -0.14    -0.09  -0.02  -0.10     0.06  -0.02  -0.02
    24   1    -0.00   0.00   0.00     0.40  -0.04   0.00     0.00  -0.00   0.00
    25   1     0.10  -0.04  -0.02     0.09  -0.09  -0.00     0.08  -0.13   0.00
    26   1    -0.10   0.04  -0.02     0.09  -0.09   0.00    -0.08   0.13   0.00
                     49                     50                     51
[...]
 232084,-0.00292475,0.00035005,0.01197336,-0.01690611,0.00094080,-0.130
 70923,0.12020719,0.00149414,-0.01278460,0.01777523,-0.00321828,0.00075
 621,-0.00042390,0.00167938,-0.00018039,-0.00010355,-0.00013374,0.00019
 666,0.00004308,-0.00004305,0.00118845,-0.00030149,-0.00041683,0.000086
 74,0.00012235,0.00013225,0.00006795,0.00001679,-0.00006501,-0.00001538
 ,0.00000096,0.00004812,0.00088831,-0.00114509,0.00001317,-0.00000360,-
 0.00002586,-0.00019628,0.00083393,0.00084055,-0.00003260,0.14150612,0.
 00005484,-0.00005792,0.00022665,-0.00026691,0.00087609,-0.00048819,-0.
 00028966,0.00063931,-0.00025332,0.00009500,0.00006630,-0.00020599,-0.0
 0555095,-0.00351041,-0.00006597,0.01605281,-0.02251271,0.00026317,0.11
 868179,-0.22204440,0.00211496,-0.00026016,0.00145527,-0.00037039,-0.00
 016235,0.00014735,-0.00016535,-0.00013216,-0.00020507,0.00005961,-0.00
 007257,0.00016896,0.00014453,0.00167970,0.00056468,-0.00066980,0.00009
 458,0.00002677,0.00012314,-0.00000685,0.00003647,-0.00002988,-0.000067
 19,0.00004845,0.00011689,0.00114509,-0.00171911,0.00016638,-0.00008810
 ,0.00036768,-0.00005519,-0.00000661,0.00085520,-0.00046656,-0.12925682
 ,0.24214551,-0.00223245,0.00174429,0.00127191,-0.00085878,-0.00404703,
 -0.00543689,0.00034131,-0.00015001,0.00064186,-0.00019076,-0.00009336,
 0.00030693,-0.00003213,0.00007158,0.00025634,0.00085681,-0.00021522,-0
 .00106874,0.00168850,0.00161400,-0.04925959,-0.01727718,0.02493154,-0.
 00431247,-0.00073171,0.00115600,0.00199043,-0.00002031,-0.00002397,-0.
 00024496,0.00009724,-0.00004386,0.00000193,-0.00040468,0.00077693,0.00
 017390,0.00008435,0.00009641,0.00008703,0.00006639,-0.00002208,-0.0000
 7591,0.00000109,-0.00004350,0.00001877,0.00001317,-0.00016638,0.000661
 98,-0.00036712,0.00030986,0.00024725,0.00030036,-0.00017809,0.00007386
 ,0.00208889,-0.00134813,0.05264362,0.00014583,-0.00041181,0.00026201,0
 .00131117,-0.00005539,-0.00037891,0.00002024,-0.00001016,-0.00011817,-
 0.00005287,0.00004416,0.00010299,0.00037056,0.00129129,-0.00002418,-0.
 01204529,0.00044606,0.01648094,-0.13407285,0.00038217,0.12130591,0.012
 02477,0.00068135,-0.01737833,-0.00267077,0.00052667,-0.00323552,-0.000
 72851,-0.00040961,-0.00077165,0.00036066,0.00022692,0.00026653,-0.0015
 6685,-0.00419348,-0.00126582,0.00004732,0.00001653,0.00002857,-0.00000
 598,0.00007899,-0.00000004,0.00008418,-0.00007807,0.00003714,-0.000003
 60,0.00008810,-0.00036712,0.00069723,-0.00040249,-0.00028930,0.0001510
 9,0.00058351,-0.00026324,-0.01065883,-0.00030183,0.01510588,0.14504727
 ,-0.00008545,0.00007979,-0.00011381,-0.00030294,-0.00010410,0.00075497
 ,0.00025431,-0.00013859,-0.00008817,-0.00006927,0.00015186,0.00001003,
 -0.00078622,0.00152532,0.00111793,-0.01548364,-0.00103707,0.02330573,0
 .00111053,-0.05140029,0.00155129,0.00064734,-0.00072310,0.00021440,-0.
 00012019,0.00047504,-0.00046225,-0.00045100,-0.00008843,-0.00070916,0.
 00021887,0.00012661,0.00010830,-0.00233594,-0.00489891,-0.00100786,0.0
 0004085,-0.00000845,0.00002320,0.00000313,0.00004120,-0.00004265,0.000
 07650,-0.00007316,-0.00003664,0.00002586,0.00036768,-0.00030986,0.0004
 0249,-0.00047218,-0.00048224,0.00060348,0.00104957,-0.00041466,0.01538
 169,0.00093307,-0.02288763,0.00217710,0.05313361,-0.00138849,0.0001249
 4,0.00049349,0.00259774,-0.00109048,-0.00060887,-0.00016366,0.00026778
 ,-0.00036664,0.00017691,-0.00001219,0.00000189,-0.00008829,-0.00039796
 ,-0.00010419,-0.00053356,0.00004952,0.00110357,0.12069056,0.00211712,-
 0.22048583,0.01394212,0.00115794,-0.02131249,-0.00475316,0.00041560,-0
 .00356935,-0.00069493,-0.00082653,0.00032561,0.00033095,0.00031134,0.0
 0001579,-0.00021872,-0.00008750,0.00118801,0.00001464,0.00010210,-0.00
 000380,-0.00004450,0.00010450,0.00000641,-0.00001716,-0.00002731,0.000
 07128,-0.00019628,0.00005519,0.00024725,-0.00028930,0.00048224,0.00036
 435,0.00025337,0.00045964,0.00062488,-0.00013795,-0.00068355,0.0009038
 4,-0.13031568,-0.00195606,0.24118099,0.00220179,-0.00169826,-0.0000541
 9,0.01129387,0.01660850,0.00007019,-0.00209992,0.00289706,0.00002169,-
 0.00023069,0.00004193,0.00012761,-0.00029543,0.00017696,-0.00019437,-0
 .00115506,0.00140914,-0.00371417,-0.01063200,-0.01442544,0.00008011,-0
 .14782856,-0.13046691,-0.00049815,-0.01114754,-0.01501858,0.00031937,0
 .00021618,0.00266943,0.00291779,-0.00131402,-0.00126013,0.00074425,0.0
 0066323,0.00042820,-0.00008772,0.00065712,0.00092615,-0.00002306,0.000
 05516,-0.00011231,-0.00005458,0.00002788,-0.00003754,-0.00001580,0.000
 08674,-0.00009457,0.00008435,0.00004732,-0.00004085,0.00001464,-0.0005
 7661,-0.00107819,-0.00005291,0.00015762,0.00024081,0.00060931,0.000831
 29,0.00028597,0.00002681,0.15805282,0.00035206,0.00583640,0.00002761,-
 0.02135769,-0.02642269,-0.00004993,0.00486603,-0.00324172,0.00002524,0
 .00045328,0.00047408,-0.00044264,0.00046789,0.00030658,0.00050216,0.00
 055223,0.00100529,0.00031378,0.00175537,0.00245504,-0.00048817,-0.1258
 1287,-0.21618736,-0.00064520,0.00175667,0.00268331,0.00060316,0.000633
 62,0.00076603,-0.00045758,0.00010992,0.00023186,-0.00012218,0.00010906
 ,0.00004804,0.00001334,-0.00092614,-0.00148211,-0.00006190,-0.00012976
 ,0.00001592,0.00010221,-0.00001024,0.00000077,0.00010911,-0.00012235,0
 .00002677,-0.00009641,-0.00001653,-0.00000845,-0.00010210,0.00007274,0
 .00014952,0.00011905,-0.00021891,0.00055818,-0.00044290,-0.00010329,0.
 00006584,-0.00046882,0.13790690,0.23221479,0.00007092,0.00005253,-0.00
 117522,-0.00010362,-0.00004643,-0.00016398,0.00010869,0.00028879,0.001
 30220,-0.00009458,-0.00045754,0.00012012,-0.00016536,0.00065938,-0.000
 05707,-0.00257059,0.00165572,-0.00496960,-0.01655860,-0.02292026,0.000
 30382,-0.00040705,-0.00059627,-0.04926663,0.01714605,0.02366378,0.0000
 5131,0.00077957,-0.00329420,-0.00411442,0.00230108,0.00186840,-0.00112
 660,0.00005746,0.00001162,-0.00049951,-0.00002306,0.00006190,0.0002681
 4,-0.00011187,0.00012874,0.00003870,-0.00001349,0.00002048,0.00001146,
 0.00013225,-0.00012314,0.00008703,0.00002857,-0.00002320,-0.00000380,-
 0.00109478,-0.00146251,0.00006338,0.00052799,0.00046003,0.00098804,0.0
 0093156,-0.00022008,0.00088192,0.00044494,0.00068713,0.05472701,-0.001
 33233,0.00133206,-0.00059860,-0.00015460,-0.00397650,0.00353186,-0.000
 19287,0.00025749,-0.00042524,-0.00203866,-0.00294085,0.00009359,-0.000
 19625,-0.00006605,-0.00017373,-0.00004243,-0.00003080,0.00031596,0.000
 75391,-0.00044352,-0.00177531,-0.01245343,0.01717282,0.00302181,-0.135
 93208,0.12415283,-0.00115199,0.01062282,-0.01660343,-0.00025807,0.0016
 7191,0.00103665,-0.00136909,0.00121243,-0.00037866,0.00027648,0.000055
 16,0.00012976,-0.00011186,0.00087938,-0.00107661,0.00002435,0.00002323
 ,-0.00010368,0.00018400,0.00006795,0.00000685,0.00006639,-0.00000598,-
 0.00000313,-0.00004450,0.00007143,0.00004589,-0.00004867,0.00082920,-0
 .00026419,0.00061202,-0.00003198,-0.00040251,-0.00018888,0.00016278,-0
 .00022192,-0.00051386,0.14675352,0.00001573,0.00001820,-0.00025805,-0.
 00038487,0.00068167,0.00070226,-0.00027701,0.00069565,0.00022100,-0.00
 539513,-0.00361200,0.00005447,0.00010647,0.00001652,0.00024430,-0.0002
 0837,-0.00009628,-0.00024356,-0.00012291,0.00015587,0.00006908,-0.0009
 5790,0.00234282,0.00032782,0.12122305,-0.21948805,-0.00195646,0.017668
 80,-0.02490891,-0.00125237,0.00014885,0.00375082,-0.00017243,0.0017243
 3,0.00055949,0.00095845,0.00011231,0.00001592,-0.00012874,0.00107661,-
 0.00177707,-0.00008296,-0.00006484,0.00032041,0.00006745,-0.00001679,0
 .00003647,0.00002208,-0.00007899,0.00004120,-0.00010450,0.00001664,0.0
 0001355,-0.00006333,-0.00021889,0.00006512,-0.00058014,-0.00018702,0.0
 0018865,-0.00004945,0.00025434,0.00051432,-0.00051243,-0.13279001,0.23
 900363,0.00214063,-0.00169922,0.00121174,0.00095800,0.00386893,-0.0052
 1822,-0.00032424,0.00001952,0.00057711,-0.00001893,0.00008591,0.000025
 87,0.00021858,0.00007415,0.00029502,-0.00015156,0.00008283,-0.00025737
 ,0.00066977,-0.00121170,0.00207423,0.01672497,-0.02422255,-0.00377152,
 -0.00141581,-0.00247736,-0.04926455,-0.00001960,-0.00063507,-0.0009719
 4,-0.00043901,-0.00000896,0.00007541,0.00052549,-0.00081532,0.00004596
 ,-0.00005458,-0.00010221,0.00003870,0.00002435,0.00008296,0.00067280,0
 .00030513,-0.00029552,0.00028188,-0.00006501,0.00002988,-0.00007591,-0
 .00000004,0.00004265,0.00000641,-0.00006835,-0.00004718,-0.00001977,-0
 .00056939,0.00065881,-0.00036532,-0.00002585,0.00040247,0.00038724,-0.
 00056669,0.00045408,0.00091972,-0.00167663,0.00267955,0.05271881,0.000
 14526,-0.00046807,-0.00024748,0.00132108,0.00003661,0.00035190,0.00003
 455,0.00002288,0.00009428,0.00004556,0.00143063,0.00032336,-0.00002335
 ,0.00004743,-0.00006751,-0.00030794,-0.00011683,0.00049540,-0.00272973
 ,0.00037241,0.00337399,0.01218191,0.00076004,0.01736374,-0.13098017,0.
 00062730,-0.11833863,-0.01230452,0.00027528,-0.01765219,0.00172124,0.0
 0123477,0.00027022,-0.00185024,-0.00414515,0.00130159,0.00002788,0.000
 01024,-0.00001349,0.00002323,0.00006484,0.00030513,0.00069735,-0.00031
 016,0.00041310,-0.00001538,0.00006719,0.00000109,0.00008418,-0.0000765
 0,-0.00001716,0.00011775,0.00009231,-0.00012308,-0.00003977,-0.0001731
 7,0.00003973,0.00086604,-0.00002335,0.00113723,0.00088675,-0.00010445,
 -0.00092634,-0.01051084,-0.00050921,-0.01556833,0.14146604,-0.00012987
 ,0.00010820,0.00010585,-0.00023186,-0.00020804,-0.00077002,0.00015972,
 -0.00014287,0.00012621,-0.00082746,0.00169760,-0.00091082,-0.00005776,
 0.00018380,-0.00001137,-0.00015380,-0.00001331,0.00052053,-0.00019080,
 0.00052413,0.00074823,0.00103793,-0.00055228,0.00012321,0.00057424,-0.
 05180044,-0.00095611,-0.01647777,-0.00134739,-0.02428540,0.00253172,0.
 00111446,-0.00086588,-0.00256475,-0.00461512,0.00122820,0.00003754,0.0
 0000077,-0.00002048,0.00010368,0.00032041,0.00029552,0.00031016,-0.000
 49371,0.00051238,-0.00000096,0.00004845,0.00004350,0.00007807,-0.00007
 316,0.00002731,0.00011982,0.00005726,-0.00004912,-0.00039574,0.0001997
 1,-0.00044260,0.00002764,0.00043334,0.00029820,0.00034377,0.00007206,0
 .00021036,0.01491479,0.00095102,0.02271519,0.00223522,0.05301562,0.001
 49346,-0.00017343,0.00047166,-0.00268794,0.00122956,-0.00060316,0.0002
 3223,-0.00023879,-0.00033009,-0.00009942,0.00038248,-0.00008296,-0.000
 25148,0.00010527,0.00000512,0.00027003,0.00042048,0.00025473,0.0052461
 4,-0.00021844,-0.00351847,-0.01395301,-0.00133907,-0.02144285,-0.11736
 759,-0.00144417,-0.21649423,0.00027773,0.00033408,-0.00247401,-0.00005
 769,-0.00006086,0.00278604,0.00072375,-0.00041787,0.00143662,-0.000015
 80,-0.00010911,0.00001146,0.00018400,-0.00006745,0.00028188,0.00041310
 ,-0.00051238,0.00047253,0.00004812,-0.00011689,0.00001877,0.00003714,0
 .00003664,0.00007128,-0.00005899,-0.00010121,-0.00001126,0.00019125,0.
 00005052,0.00041079,-0.00118294,-0.00025268,-0.00149431,-0.00004986,0.
 00044905,0.00094527,-0.00009182,0.00046581,0.00054162,0.12760429,0.001
 86101,0.23859453,0.00015446,0.,-0.00001889,-0.00019808,0.,0.00002204,-
 0.00042244,0.00003420,-0.00023250,0.00165349,-0.00024538,0.00218273,0.
 00036454,-0.00008592,-0.00015496,0.00051981,0.,0.00105248,0.00036454,0
 .00008592,-0.00015496,-0.00042244,-0.00003420,-0.00023250,0.00165349,0
 .00024538,0.00218273,0.01053107,0.00000003,0.02874225,-0.19438245,-0.0
 0000032,-0.23494006,-0.00161292,0.,0.00256064,0.00001973,-0.00000591,0
 .00000214,-0.00015757,-0.00010103,-0.00031863,-0.00068457,0.00006393,-
 0.00085760,-0.00001400,0.00000247,0.00002344,-0.00003335,-0.00000431,-
 0.00011081,-0.00016672,0.,0.00020235,-0.00001400,-0.00000247,0.0000234
 4,-0.00003335,0.00000431,-0.00011081,0.00001973,0.00000591,0.00000214,
 -0.00015757,0.00010103,-0.00031863,-0.00068457,-0.00006393,-0.00085760
 ,0.18373503,0.,-0.00060402,0.,0.,0.00154174,0.,0.00024651,-0.00028367,
 0.00034605,-0.00173133,0.00032132,-0.00164343,-0.00040202,0.00004373,0
 .00018777,0.,0.00079806,0.,0.00040202,0.00004373,-0.00018777,-0.000246
 51,-0.00028368,-0.00034605,0.00173134,0.00032133,0.00164343,-0.0000000
 1,-0.00160535,0.00000002,-0.00000029,-0.00289572,-0.00000045,0.,-0.000
 21490,0.,-0.00008929,-0.00006549,0.00012691,-0.00009968,-0.00047979,-0
 .00030349,0.00095354,0.00019890,0.00038780,-0.00001395,-0.00005701,-0.
 00004518,0.00007361,0.00001192,0.00015301,0.,-0.00010495,0.,0.00001395
 ,-0.00005701,0.00004518,-0.00007361,0.00001192,-0.00015301,0.00008929,
 -0.00006549,-0.00012691,0.00009968,-0.00047979,0.00030349,-0.00095354,
 0.00019891,-0.00038780,0.00000029,0.00352947,-0.00039806,0.,-0.0000971
 9,0.00050734,0.,0.00009059,-0.00016349,0.00066343,0.00007195,-0.000990
 18,-0.00070445,0.00234188,-0.00024958,0.00010793,-0.00006587,-0.002435
 54,0.,-0.00080623,-0.00024958,-0.00010793,-0.00006587,-0.00016350,-0.0
 0066343,0.00007195,-0.00099018,0.00070445,0.00234189,-0.02367218,-0.00
 000003,-0.03388364,-0.18266335,-0.00000039,-0.33453844,0.00739723,0.,-
 0.00490268,-0.00017050,0.00003115,0.00032888,0.00011549,-0.00001246,-0
 .00000748,0.00094922,-0.00097768,0.00014402,0.00004909,-0.00000372,0.0
 0001155,0.00013760,-0.00010389,0.00012458,0.00056380,0.,-0.00057507,0.
 00004909,0.00000372,0.00001155,0.00013760,0.00010389,0.00012458,-0.000
 17050,-0.00003115,0.00032888,0.00011549,0.00001246,-0.00000748,0.00094
 923,0.00097768,0.00014401,0.20104537,0.00000041,0.36793424,-0.00000643
 ,0.00038292,-0.00000694,0.00021122,-0.00097525,0.00000426,-0.00009793,
 0.00051039,-0.00000520,0.00031392,-0.00147555,0.00071136,0.00026124,-0
 .00133627,-0.00074140,-0.01142667,-0.01419617,0.00015204,-0.00094327,0
 .00153810,0.00351252,0.00042071,0.00039122,-0.00008495,-0.00126581,0.0
 0162774,-0.00360928,-0.01406396,-0.01732706,0.00001740,0.00151402,0.00
 110572,0.00118556,-0.13775813,-0.11962232,0.00107369,-0.00005466,0.000
 03821,0.00000891,-0.00014232,0.00101303,-0.00029044,0.00041272,0.00025
 352,0.00003556,-0.00006748,0.00089583,0.00020349,0.00041267,0.00018334
 ,0.00000346,0.00079480,0.00035636,-0.00002078,0.00009323,-0.00024679,-
 0.00001683,-0.00049944,-0.00098858,-0.00003242,-0.00002579,0.00002066,
 0.00004306,0.00008762,-0.00022320,0.00000618,-0.00058502,-0.00112607,-
 0.00008266,-0.00001592,0.00015216,0.00015005,0.14987954,-0.00017576,0.
 00016110,0.00000863,0.00026284,-0.00039977,-0.00002611,-0.00011965,0.0
 0005890,0.00005680,0.00086388,0.00052742,0.00019844,0.00059024,0.00059
 242,-0.00030140,0.00124652,0.00001465,0.00044827,0.00050536,0.00100811
 ,0.00048358,0.00011029,0.00009689,-0.00004960,0.00011742,0.00106553,-0
 .00059224,-0.00015080,-0.00156237,0.00044400,0.00058766,0.00050248,-0.
 00034168,-0.12127466,-0.22028579,0.00268100,-0.00000033,0.00001603,-0.
 00000010,-0.00002638,0.00055483,0.00014428,0.00003392,0.00014983,-0.00
 010965,-0.00017113,0.00053110,-0.00006961,0.00003382,0.00021412,0.0000
 9695,-0.00004554,0.00011543,0.00051991,0.00012889,0.00042141,-0.000130
 50,-0.00030993,0.00014667,-0.00009630,-0.00004601,-0.00003302,0.000014
 00,0.00012666,0.00043594,0.00015897,-0.00036279,0.00017077,-0.00000438
 ,0.00022078,0.00008793,-0.00010252,0.13345136,0.23652577,-0.00001838,-
 0.00002258,-0.00001762,0.00002222,0.00006995,-0.00006296,0.00003109,-0
 .00006951,-0.00024319,0.00069986,-0.00110414,0.00087515,-0.00066258,0.
 00100910,0.00110706,0.01696057,0.02366380,0.00013375,0.00320412,-0.001
 40340,-0.00508256,0.00016834,0.00012544,-0.00044010,-0.00277250,0.0009
 4638,-0.00514203,-0.01749811,-0.02390848,-0.00040387,0.00047592,0.0004
 9968,0.00222927,0.00256084,0.00396283,-0.04782892,0.00000096,-0.000005
 33,0.00007823,0.00002787,0.00066503,0.00007828,0.00033382,0.00003600,-
 0.00001821,-0.00005771,-0.00070607,0.00009004,-0.00043729,0.00004076,-
 0.00007930,-0.00088250,0.00018425,0.00098370,-0.00024248,-0.00029216,-
 0.00001619,0.00139493,0.00143229,0.00010368,0.00001999,-0.00000227,0.0
 0026160,0.00015844,0.00024471,0.00000129,-0.00140389,-0.00144558,0.000
 02323,0.00013311,0.00017321,0.00043970,-0.00190961,-0.00376234,0.05303
 810,-0.00000643,-0.00038292,-0.00000694,0.00021122,0.00097525,0.000004
 26,0.00042071,-0.00039122,-0.00008495,-0.00126580,-0.00162774,-0.00360
 928,-0.00094327,-0.00153810,0.00351252,-0.01142668,0.01419617,0.000152
 06,0.00026124,0.00133628,-0.00074140,-0.00009793,-0.00051039,-0.000005
 20,0.00031392,0.00147555,0.00071136,-0.01406390,0.01732700,0.00001748,
 0.00151402,-0.00110572,0.00118555,-0.13775859,0.11962273,0.00107357,-0
 .00002579,-0.00002066,0.00004306,0.00008762,0.00022320,0.00000618,-0.0
 0058502,0.00112607,-0.00008265,0.00009323,0.00024679,-0.00001683,-0.00
 049944,0.00098858,-0.00003242,0.00079480,-0.00035636,-0.00002078,-0.00
 006748,-0.00089584,0.00020349,0.00041267,-0.00018334,0.00000346,-0.000
 05466,-0.00003821,0.00000892,-0.00014232,-0.00101303,-0.00029044,0.000
 41272,-0.00025352,0.00003556,-0.00001592,-0.00015216,0.00015005,0.0125
 5115,-0.01559668,-0.00030703,0.14987993,0.00017576,0.00016110,-0.00000
 863,-0.00026284,-0.00039977,0.00002611,-0.00011029,0.00009689,0.000049
 60,-0.00011743,0.00106553,0.00059223,-0.00050535,0.00100811,-0.0004835
 9,-0.00124651,0.00001464,-0.00044828,-0.00059024,0.00059242,0.00030140
 ,0.00011965,0.00005890,-0.00005680,-0.00086387,0.00052742,-0.00019843,
 0.00015073,-0.00156233,-0.00044401,-0.00058766,0.00050248,0.00034169,0
 .12127505,-0.22028581,-0.00268086,0.00004601,-0.00003302,-0.00001400,-
 0.00012666,0.00043594,-0.00015897,0.00036279,0.00017077,0.00000438,-0.
 00012890,0.00042140,0.00013050,0.00030993,0.00014667,0.00009630,0.0000
 4554,0.00011543,-0.00051991,0.00017113,0.00053109,0.00006961,-0.000033
 82,0.00021411,-0.00009695,0.00000033,0.00001603,0.00000010,0.00002637,
 0.00055483,-0.00014428,-0.00003392,0.00014983,0.00010965,-0.00022078,0
 .00008793,0.00010252,0.01559671,-0.02111634,-0.00033159,-0.13345174,0.
 23652577,-0.00001838,0.00002258,-0.00001762,0.00002222,-0.00006995,-0.
 00006296,0.00016834,-0.00012544,-0.00044010,-0.00277249,-0.00094638,-0
 .00514203,0.00320412,0.00140340,-0.00508256,0.01696059,-0.02366379,0.0
 0013375,-0.00066259,-0.00100910,0.00110706,0.00003109,0.00006951,-0.00
 024319,0.00069986,0.00110414,0.00087514,-0.01749804,0.02390845,-0.0004
 0382,0.00047593,-0.00049968,0.00222927,0.00256071,-0.00396268,-0.04782
 890,0.00001999,0.00000227,0.00026160,0.00015844,-0.00024471,0.00000129
 ,-0.00140388,0.00144558,0.00002323,-0.00024248,0.00029216,-0.00001619,
 0.00139493,-0.00143229,0.00010368,-0.00088250,-0.00018425,0.00098370,-
 0.00005771,0.00070607,0.00009004,-0.00043729,-0.00004076,-0.00007930,0
 .00000096,0.00000533,0.00007823,0.00002787,-0.00066503,0.00007828,0.00
 033382,-0.00003600,-0.00001821,0.00013311,-0.00017321,0.00043970,-0.00
 030703,0.00033159,-0.00010812,-0.00190957,0.00376221,0.05303802\\0.000
 07359,0.00000001,0.00003987,-0.00007738,-0.00000001,0.00005310,0.00000
 534,0.00001682,-0.00010428,-0.00001216,-0.00001485,0.00004992,0.000022
 70,-0.00003181,0.00000372,0.00001484,0.00000045,0.00003096,0.00002287,
 0.00003118,0.00000382,0.00000541,-0.00001654,-0.00010431,-0.00001184,0
 .00001472,0.00004983,-0.00008106,-0.00000050,0.00010373,0.00003532,0.,
 -0.00004227,0.00000247,0.00000037,-0.00001353,-0.00000351,0.00000765,0
 .00000231,0.00000581,0.00000700,-0.00000672,-0.00000234,0.00000194,-0.
 00001634,-0.00000580,0.00001359,-0.00001171,-0.00000445,0.00000571,0.0
 0000335,0.00000171,-0.00000011,0.00000214,-0.00000607,-0.00001338,-0.0
 0001167,-0.00000444,-0.00000575,0.00000335,-0.00000346,-0.00000766,0.0
 0000232,0.00000559,-0.00000669,-0.00000676,-0.00000234,-0.00000198,-0.
 00001634,0.00000405,0.,0.00000417,0.00000760,0.00000259,-0.00000925,0.
 00000756,-0.00000273,-0.00000944\\\@


 ... A MOLECULAR SYSTEM ... (PASSES) ... FROM ONE STATE OF EQUILIBRIUM 
 TO ANOTHER ... BY MEANS OF ALL POSSIBLE INTERMEDIATE PATHS, 
 BUT THE PATH MOST ECONOMICAL OF ENERGY WILL BE THE MORE OFTEN TRAVELED.

                      -- HENRY EYRING, 1945
 Job cpu time:       0 days  0 hours  3 minutes  7.3 seconds.
 Elapsed time:       0 days  0 hours  3 minutes 16.0 seconds.
 File lengths (MBytes):  RWF=    139 Int=      0 D2E=      0 Chk=      6 Scr=      1
 Normal termination of Gaussian 16 at Thu Feb 22 11:19:46 2024.
