 Entering Gaussian System, Link 0=g16
 Input=/Volumes/SSD-PMU3/b3lyp_6-31gd_freq/RTJWWQAUAUJINN-KQJSWNCZSA-N_calculating/gaussianinput0.gjf
 Output=/Volumes/SSD-PMU3/b3lyp_6-31gd_freq/RTJWWQAUAUJINN-KQJSWNCZSA-N_calculating/gaussianinput0.log
 Initial command:
 /Applications/g16/l1.exe "/Users/macmini_m1_2022/PycharmProjects/sphere_model/sphere_model_lib/Gau-87162.inp" -scrdir="/Users/macmini_m1_2022/PycharmProjects/sphere_model/sphere_model_lib/"
 Entering Link 1 = /Applications/g16/l1.exe PID=     87163.
  
 Copyright (c) 1988,1990,1992,1993,1995,1998,2003,2009,2016,
            Gaussian, Inc.  All Rights Reserved.
  
 This is part of the Gaussian(R) 16 program.  It is based on
 the Gaussian(R) 09 system (copyright 2009, Gaussian, Inc.),
 the Gaussian(R) 03 system (copyright 2003, Gaussian, Inc.),
 the Gaussian(R) 98 system (copyright 1998, Gaussian, Inc.),
 the Gaussian(R) 94 system (copyright 1995, Gaussian, Inc.),
 the Gaussian 92(TM) system (copyright 1992, Gaussian, Inc.),
 the Gaussian 90(TM) system (copyright 1990, Gaussian, Inc.),
 the Gaussian 88(TM) system (copyright 1988, Gaussian, Inc.),
 the Gaussian 86(TM) system (copyright 1986, Carnegie Mellon
 University), and the Gaussian 82(TM) system (copyright 1983,
 Carnegie Mellon University). Gaussian is a federally registered
 trademark of Gaussian, Inc.
  
 This software contains proprietary and confidential information,
 including trade secrets, belonging to Gaussian, Inc.
  
 This software is provided under written license and may be
 used, copied, transmitted, or stored only in accord with that
 written license.
  
 The following legend is applicable only to US Government
 contracts under FAR:
  
                    RESTRICTED RIGHTS LEGEND
  
 Use, reproduction and disclosure by the US Government is
 subject to restrictions as set forth in subparagraphs (a)
 and (c) of the Commercial Computer Software - Restricted
 Rights clause in FAR 52.227-19.
  
 Gaussian, Inc.
 340 Quinnipiac St., Bldg. 40, Wallingford CT 06492
  
  
 ---------------------------------------------------------------
 Warning -- This program may not be used in any manner that
 competes with the business of Gaussian, Inc. or will provide
 assistance to any competitor of Gaussian, Inc.  The licensee
 of this program is prohibited from giving any competitor of
 Gaussian, Inc. access to this program.  By using this program,
 the user acknowledges that Gaussian, Inc. is engaged in the
 business of creating and licensing software in the field of
 computational chemistry and represents and warrants to the
 licensee that it is not a competitor of Gaussian, Inc. and that
 it will not use this program in any manner prohibited above.
 ---------------------------------------------------------------
  

 Cite this work as:
 Gaussian 16, Revision A.03,
 M. J. Frisch, G. W. Trucks, H. B. Schlegel, G. E. Scuseria, 
 M. A. Robb, J. R. Cheeseman, G. Scalmani, V. Barone, 
 G. A. Petersson, H. Nakatsuji, X. Li, M. Caricato, A. V. Marenich, 
 J. Bloino, B. G. Janesko, R. Gomperts, B. Mennucci, H. P. Hratchian, 
 J. V. Ortiz, A. F. Izmaylov, J. L. Sonnenberg, D. Williams-Young, 
 F. Ding, F. Lipparini, F. Egidi, J. Goings, B. Peng, A. Petrone, 
 T. Henderson, D. Ranasinghe, V. G. Zakrzewski, J. Gao, N. Rega, 
 G. Zheng, W. Liang, M. Hada, M. Ehara, K. Toyota, R. Fukuda, 
 J. Hasegawa, M. Ishida, T. Nakajima, Y. Honda, O. Kitao, H. Nakai, 
 T. Vreven, K. Throssell, J. A. Montgomery, Jr., J. E. Peralta, 
 F. Ogliaro, M. J. Bearpark, J. J. Heyd, E. N. Brothers, K. N. Kudin, 
 V. N. Staroverov, T. A. Keith, R. Kobayashi, J. Normand, 
 K. Raghavachari, A. P. Rendell, J. C. Burant, S. S. Iyengar, 
 J. Tomasi, M. Cossi, J. M. Millam, M. Klene, C. Adamo, R. Cammi, 
 J. W. Ochterski, R. L. Martin, K. Morokuma, O. Farkas, 
 J. B. Foresman, and D. J. Fox, Gaussian, Inc., Wallingford CT, 2016.
 
 ******************************************
 Gaussian 16:  EM64M-G16RevA.03 25-Dec-2016
                24-Feb-2024 
 ******************************************
 %nprocshared=10
 Will use up to   10 processors via shared memory.
 %mem=12GB
 %chk= 0.chk
 ---------------------
 # freq b3lyp/6-31g(d)
 ---------------------
 1/10=4,30=1,38=1/1,3;
 2/12=2,17=6,18=5,40=1/2;
 3/5=1,6=6,7=1,11=2,25=1,30=1,71=2,74=-5,140=1/1,2,3;
 4//1;
 5/5=2,38=5,98=1/2;
 8/6=4,10=90,11=11/1;
 11/6=1,8=1,9=11,15=111,16=1/1,2,10;
 10/6=1/2;
 6/7=2,8=2,9=2,10=2,28=1/1;
 7/8=1,10=1,25=1/1,2,3,16;
 1/10=4,30=1/3;
 99//99;
 ---------
 good luck
 ---------
 Symbolic Z-matrix:
 Charge =  0 Multiplicity = 1
 O                     1.20748   0.        0. 
 C                     0.        0.        0. 
 C                    -1.0048   -1.15828   0.01256 
 C                    -1.81882  -0.80812   1.30048 
 C                    -1.81882   0.80812   1.30048 
 C                    -1.0048    1.15828   0.01256 
 C                    -1.85081   0.78497  -1.22277 
 C                    -3.40787   0.80638  -1.06732 
 C                    -3.90867   1.48218   0.16745 
 C                    -3.17356   1.46484   1.28497 
 C                    -1.85081  -0.78497  -1.22277 
 C                    -3.40787  -0.80638  -1.06732 
 C                    -3.90867  -1.48219   0.16745 
 C                    -3.17356  -1.46484   1.28497 
 H                    -0.57688  -2.16108   0.01664 
 H                    -1.25794  -1.14155   2.1795 
 H                    -1.25794   1.14154   2.1795 
 H                    -0.57688   2.16108   0.01664 
 H                    -1.48206   1.27262  -2.12902 
 H                    -3.91256   1.18978  -1.95904 
 H                    -4.88843   1.95542   0.1496 
 H                    -3.53009   1.93897   2.19683 
 H                    -1.48206  -1.27262  -2.12902 
 H                    -3.91256  -1.18978  -1.95904 
 H                    -4.88843  -1.95542   0.1496 
 H                    -3.53009  -1.93898   2.19683 
 

 GradGradGradGradGradGradGradGradGradGradGradGradGradGradGradGradGradGrad
 Berny optimization.
 Initialization pass.
 Trust Radius=3.00D-01 FncErr=1.00D-07 GrdErr=1.00D-07 EigMax=2.50D+02 EigMin=1.00D-04
 Number of steps in this run=      2 maximum allowed number of steps=      2.
 GradGradGradGradGradGradGradGradGradGradGradGradGradGradGradGradGradGrad

                          Input orientation:                          
 ---------------------------------------------------------------------
 Center     Atomic      Atomic             Coordinates (Angstroms)
 Number     Number       Type             X           Y           Z
 ---------------------------------------------------------------------
      1          8           0        1.207477    0.000000    0.000000
      2          6           0        0.000000    0.000000    0.000000
      3          6           0       -1.004802   -1.158282    0.012556
      4          6           0       -1.818819   -0.808116    1.300482
      5          6           0       -1.818819    0.808116    1.300482
      6          6           0       -1.004802    1.158282    0.012556
      7          6           0       -1.850806    0.784974   -1.222765
      8          6           0       -3.407865    0.806377   -1.067319
      9          6           0       -3.908668    1.482184    0.167446
     10          6           0       -3.173559    1.464836    1.284969
     11          6           0       -1.850806   -0.784974   -1.222765
     12          6           0       -3.407865   -0.806377   -1.067319
     13          6           0       -3.908668   -1.482185    0.167446
     14          6           0       -3.173559   -1.464836    1.284968
     15          1           0       -0.576884   -2.161083    0.016640
     16          1           0       -1.257935   -1.141545    2.179497
     17          1           0       -1.257935    1.141544    2.179497
     18          1           0       -0.576884    2.161083    0.016640
     19          1           0       -1.482059    1.272623   -2.129022
     20          1           0       -3.912559    1.189775   -1.959039
     21          1           0       -4.888428    1.955419    0.149604
     22          1           0       -3.530086    1.938974    2.196825
     23          1           0       -1.482059   -1.272624   -2.129022
     24          1           0       -3.912559   -1.189775   -1.959040
     25          1           0       -4.888428   -1.955419    0.149603
     26          1           0       -3.530086   -1.938975    2.196825
 ---------------------------------------------------------------------
                    Distance matrix (angstroms):
                    1          2          3          4          5
     1  O    0.000000
     2  C    1.207477   0.000000
     3  C    2.497189   1.533428   0.000000
     4  C    3.391574   2.377479   1.563328   0.000000
     5  C    3.391574   2.377479   2.487589   1.616232   0.000000
     6  C    2.497189   1.533428   2.316564   2.487589   1.563328
     7  C    3.385917   2.353045   2.453158   2.984248   2.523556
     8  C    4.805288   3.661005   3.286446   3.276910   2.851588
     9  C    5.329151   4.183610   3.927912   3.301017   2.470953
    10  C    4.794827   3.724026   3.633633   2.646105   1.505604
    11  C    3.385917   2.353045   1.543081   2.523556   2.984248
    12  C    4.805288   3.661005   2.657946   2.851588   3.276910
    13  C    5.329151   4.183610   2.925977   2.470953   3.301018
    14  C    4.794827   3.724025   2.533084   1.505604   2.646105
    15  H    2.802588   2.236817   1.090294   2.240797   3.465082
    16  H    3.483043   2.763283   2.181740   1.094730   2.210981
    17  H    3.483043   2.763283   3.170001   2.210980   1.094729
    18  H    2.802588   2.236817   3.346836   3.465082   2.240797
    19  H    3.658676   2.889430   3.274665   4.025466   3.477164
    20  H    5.609649   4.534481   4.225590   4.358875   3.892799
    21  H    6.403601   5.267141   4.979605   4.287674   3.473230
    22  H    5.570472   4.587719   4.554238   3.358328   2.238460
    23  H    3.658676   2.889430   2.197090   3.477164   4.025467
    24  H    5.609650   4.534481   3.513294   3.892800   4.358876
    25  H    6.403601   5.267141   3.966959   3.473230   4.287674
    26  H    5.570473   4.587720   3.428932   2.238461   3.358329
                    6          7          8          9         10
     6  C    0.000000
     7  C    1.543081   0.000000
     8  C    2.657946   1.564945   0.000000
     9  C    2.925977   2.579454   1.494043   0.000000
    10  C    2.533085   2.915582   2.453921   1.337738   0.000000
    11  C    2.453158   1.569948   2.231814   3.362661   3.619399
    12  C    3.286446   2.231814   1.612754   2.648199   3.278196
    13  C    3.927912   3.362662   2.648200   2.964369   3.236383
    14  C    3.633633   3.619398   3.278195   3.236382   2.929672
    15  H    3.346836   3.440676   4.242080   4.939324   4.636666
    16  H    3.170002   3.954536   4.354126   4.237769   3.356042
    17  H    2.181740   3.471891   3.908497   3.345261   2.138764
    18  H    1.090294   2.247816   3.320339   3.403591   2.972564
    19  H    2.197090   1.093196   2.247961   3.347553   3.814899
    20  H    3.513293   2.226385   1.094018   2.146499   3.338468
    21  H    3.966959   3.532773   2.234562   1.088209   2.114356
    22  H    3.428931   3.980615   3.457217   2.114323   1.087842
    23  H    3.274666   2.278373   3.026250   4.330261   4.691502
    24  H    4.225590   2.948315   2.243770   3.414868   4.256369
    25  H    4.979605   4.315124   3.361619   3.574544   3.990987
    26  H    4.554239   4.683319   4.266911   3.995752   3.541825
                   11         12         13         14         15
    11  C    0.000000
    12  C    1.564945   0.000000
    13  C    2.579455   1.494043   0.000000
    14  C    2.915581   2.453920   1.337738   0.000000
    15  H    2.247816   3.320339   3.403591   2.972564   0.000000
    16  H    3.471891   3.908497   3.345261   2.138765   2.486210
    17  H    3.954536   4.354126   4.237769   3.356041   4.006136
    18  H    3.440676   4.242080   4.939325   4.636665   4.322166
    19  H    2.278373   3.026249   4.330261   4.691501   4.148921
    20  H    2.948315   2.243770   3.414868   4.256367   5.124284
    21  H    4.315124   3.361619   3.574545   3.990986   5.962607
    22  H    4.683318   4.266911   3.995752   3.541824   5.503188
    23  H    1.093197   2.247961   3.347553   3.814898   2.492502
    24  H    2.226385   1.094018   2.146500   3.338468   3.996683
    25  H    3.532773   2.234561   1.088209   2.114356   4.318494
    26  H    3.980615   3.457217   2.114323   1.087843   3.677491
                   16         17         18         19         20
    16  H    0.000000
    17  H    2.283089   0.000000
    18  H    4.006137   2.486210   0.000000
    19  H    4.943862   4.316335   2.492502   0.000000
    20  H    5.441467   4.916995   3.996683   2.437845   0.000000
    21  H    5.185762   4.238318   4.318494   4.154720   2.446407
    22  H    3.827867   2.408083   3.677491   4.832328   4.240140
    23  H    4.316335   4.943862   4.148922   2.545247   3.464049
    24  H    4.916995   5.441467   5.124284   3.464048   2.379550
    25  H    4.238318   5.185762   5.962607   5.216870   3.910363
    26  H    2.408083   3.827867   5.503189   5.763829   5.215992
                   21         22         23         24         25
    21  H    0.000000
    22  H    2.456924   0.000000
    23  H    5.216871   5.763829   0.000000
    24  H    3.910364   5.215992   2.437845   0.000000
    25  H    3.910838   4.604618   4.154719   2.446407   0.000000
    26  H    4.604618   3.877949   4.832328   4.240142   2.456925
                   26
    26  H    0.000000
 Stoichiometry    C13H12O
 Framework group  C1[X(C13H12O)]
 Deg. of freedom    72
 Full point group                 C1      NOp   1
 Largest Abelian subgroup         C1      NOp   1
 Largest concise Abelian subgroup C1      NOp   1
                         Standard orientation:                         
 ---------------------------------------------------------------------
 Center     Atomic      Atomic             Coordinates (Angstroms)
 Number     Number       Type             X           Y           Z
 ---------------------------------------------------------------------
      1          8           0       -3.285720   -0.000000    0.026414
      2          6           0       -2.078337   -0.000000    0.041508
      3          6           0       -1.073457   -1.158282    0.041512
      4          6           0       -0.243404   -0.808115   -1.236138
      5          6           0       -0.243405    0.808117   -1.236137
      6          6           0       -1.073457    1.158282    0.041514
      7          6           0       -0.242961    0.784973    1.287313
      8          6           0        1.315920    0.806377    1.151342
      9          6           0        1.832118    1.482184   -0.077066
     10          6           0        1.111036    1.464837   -1.203690
     11          6           0       -0.242961   -0.784975    1.287312
     12          6           0        1.315920   -0.806377    1.151342
     13          6           0        1.832118   -1.482185   -0.077067
     14          6           0        1.111036   -1.464835   -1.203691
     15          1           0       -1.501290   -2.161083    0.032079
     16          1           0       -0.793257   -1.141544   -2.122095
     17          1           0       -0.793257    1.141545   -2.122094
     18          1           0       -1.501291    2.161083    0.032081
     19          1           0       -0.623007    1.272622    2.188890
     20          1           0        1.809428    1.189774    2.049302
     21          1           0        2.811578    1.955419   -0.046978
     22          1           0        1.478933    1.938975   -2.111018
     23          1           0       -0.623007   -1.272625    2.188889
     24          1           0        1.809428   -1.189776    2.049301
     25          1           0        2.811579   -1.955419   -0.046979
     26          1           0        1.478933   -1.938974   -2.111020
 ---------------------------------------------------------------------
 Rotational constants (GHZ):           1.2782729           0.8157729           0.7703791
 Standard basis: 6-31G(d) (6D, 7F)
 There are   234 symmetry adapted cartesian basis functions of A   symmetry.
 There are   234 symmetry adapted basis functions of A   symmetry.
   234 basis functions,   440 primitive gaussians,   234 cartesian basis functions
    49 alpha electrons       49 beta electrons
       nuclear repulsion energy       915.2046746126 Hartrees.
 NAtoms=   26 NActive=   26 NUniq=   26 SFac= 1.00D+00 NAtFMM=   60 NAOKFM=F Big=F
 Integral buffers will be    131072 words long.
 Raffenetti 2 integral format.
 Two-electron integral symmetry is turned on.
 One-electron integrals computed using PRISM.
 NBasis=   234 RedAO= T EigKep=  3.99D-04  NBF=   234
 NBsUse=   234 1.00D-06 EigRej= -1.00D+00 NBFU=   234
 ExpMin= 1.61D-01 ExpMax= 5.48D+03 ExpMxC= 8.25D+02 IAcc=3 IRadAn=         5 AccDes= 0.00D+00
 Harris functional with IExCor=  402 and IRadAn=       5 diagonalized for initial guess.
 HarFok:  IExCor=  402 AccDes= 0.00D+00 IRadAn=         5 IDoV= 1 UseB2=F ITyADJ=14
 ICtDFT=  3500011 ScaDFX=  1.000000  1.000000  1.000000  1.000000
 FoFCou: FMM=F IPFlag=           0 FMFlag=      100000 FMFlg1=           0
         NFxFlg=           0 DoJE=T BraDBF=F KetDBF=T FulRan=T
         wScrn=  0.000000 ICntrl=       500 IOpCl=  0 I1Cent=   200000004 NGrid=           0
         NMat0=    1 NMatS0=      1 NMatT0=    0 NMatD0=    1 NMtDS0=    0 NMtDT0=    0
 Petite list used in FoFCou.
 Requested convergence on RMS density matrix=1.00D-08 within 128 cycles.
 Requested convergence on MAX density matrix=1.00D-06.
 Requested convergence on             energy=1.00D-06.
 No special actions if energy rises.
 Integral accuracy reduced to 1.0D-05 until final iterations.
 Initial convergence to 1.0D-05 achieved.  Increase integral accuracy.
 SCF Done:  E(RB3LYP) =  -577.747940390     A.U. after   14 cycles
            NFock= 14  Conv=0.89D-08     -V/T= 2.0094
 DoSCS=F DFT=T ScalE2(SS,OS)=  1.000000  1.000000
 Range of M.O.s used for correlation:     1   234
 NBasis=   234 NAE=    49 NBE=    49 NFC=     0 NFV=     0
 NROrb=    234 NOA=    49 NOB=    49 NVA=   185 NVB=   185
 Symmetrizing basis deriv contribution to polar:
 IMax=3 JMax=2 DiffMx= 0.00D+00
 G2DrvN: will do    27 centers at a time, making    1 passes.
 Calling FoFCou, ICntrl=  3107 FMM=F I1Cent=   0 AccDes= 0.00D+00.
 End of G2Drv F.D. properties file   721 does not exist.
 End of G2Drv F.D. properties file   722 does not exist.
 End of G2Drv F.D. properties file   788 does not exist.
          IDoAtm=11111111111111111111111111
          Differentiating once with respect to electric field.
                with respect to dipole field.
          Differentiating once with respect to nuclear coordinates.
 Keep R1 ints in memory in canonical form, NReq=388624319.
          There are    81 degrees of freedom in the 1st order CPHF.  IDoFFX=6 NUNeed=     3.
     78 vectors produced by pass  0 Test12= 1.12D-14 1.23D-09 XBig12= 1.14D+02 4.37D+00.
 AX will form    78 AO Fock derivatives at one time.
     78 vectors produced by pass  1 Test12= 1.12D-14 1.23D-09 XBig12= 1.74D+01 9.14D-01.
     78 vectors produced by pass  2 Test12= 1.12D-14 1.23D-09 XBig12= 2.33D-01 7.24D-02.
     78 vectors produced by pass  3 Test12= 1.12D-14 1.23D-09 XBig12= 1.46D-03 5.92D-03.
     78 vectors produced by pass  4 Test12= 1.12D-14 1.23D-09 XBig12= 3.43D-06 2.59D-04.
     61 vectors produced by pass  5 Test12= 1.12D-14 1.23D-09 XBig12= 4.12D-09 8.11D-06.
      5 vectors produced by pass  6 Test12= 1.12D-14 1.23D-09 XBig12= 3.29D-12 2.14D-07.
      2 vectors produced by pass  7 Test12= 1.12D-14 1.23D-09 XBig12= 3.01D-15 5.75D-09.
 InvSVY:  IOpt=1 It=  1 EMax= 1.42D-14
 Solved reduced A of dimension   458 with    81 vectors.
 Isotropic polarizability for W=    0.000000      114.39 Bohr**3.
 End of Minotr F.D. properties file   721 does not exist.
 End of Minotr F.D. properties file   722 does not exist.
 End of Minotr F.D. properties file   788 does not exist.

 **********************************************************************

            Population analysis using the SCF density.

 **********************************************************************

 Orbital symmetries:
       Occupied  (A) (A) (A) (A) (A) (A) (A) (A) (A) (A) (A) (A)
                 (A) (A) (A) (A) (A) (A) (A) (A) (A) (A) (A) (A)
                 (A) (A) (A) (A) (A) (A) (A) (A) (A) (A) (A) (A)
                 (A) (A) (A) (A) (A) (A) (A) (A) (A) (A) (A) (A)
                 (A)
       Virtual   (A) (A) (A) (A) (A) (A) (A) (A) (A) (A) (A) (A)
                 (A) (A) (A) (A) (A) (A) (A) (A) (A) (A) (A) (A)
                 (A) (A) (A) (A) (A) (A) (A) (A) (A) (A) (A) (A)
                 (A) (A) (A) (A) (A) (A) (A) (A) (A) (A) (A) (A)
                 (A) (A) (A) (A) (A) (A) (A) (A) (A) (A) (A) (A)
                 (A) (A) (A) (A) (A) (A) (A) (A) (A) (A) (A) (A)
                 (A) (A) (A) (A) (A) (A) (A) (A) (A) (A) (A) (A)
                 (A) (A) (A) (A) (A) (A) (A) (A) (A) (A) (A) (A)
                 (A) (A) (A) (A) (A) (A) (A) (A) (A) (A) (A) (A)
                 (A) (A) (A) (A) (A) (A) (A) (A) (A) (A) (A) (A)
                 (A) (A) (A) (A) (A) (A) (A) (A) (A) (A) (A) (A)
                 (A) (A) (A) (A) (A) (A) (A) (A) (A) (A) (A) (A)
                 (A) (A) (A) (A) (A) (A) (A) (A) (A) (A) (A) (A)
                 (A) (A) (A) (A) (A) (A) (A) (A) (A) (A) (A) (A)
                 (A) (A) (A) (A) (A) (A) (A) (A) (A) (A) (A) (A)
                 (A) (A) (A) (A) (A)
 The electronic state is 1-A.
 Alpha  occ. eigenvalues --  -19.14003 -10.26719 -10.20422 -10.20411 -10.19729
 Alpha  occ. eigenvalues --  -10.19718 -10.19501 -10.19485 -10.19327 -10.19325
 Alpha  occ. eigenvalues --  -10.18398 -10.18396 -10.18226 -10.18225  -1.03821
 Alpha  occ. eigenvalues --   -0.90107  -0.81016  -0.79587  -0.78938  -0.71564
 Alpha  occ. eigenvalues --   -0.67516  -0.67310  -0.64931  -0.57239  -0.55551
 Alpha  occ. eigenvalues --   -0.53903  -0.53318  -0.52356  -0.47987  -0.47221
 Alpha  occ. eigenvalues --   -0.46106  -0.45422  -0.44288  -0.41401  -0.40358
 Alpha  occ. eigenvalues --   -0.39574  -0.38338  -0.37960  -0.37064  -0.36274
 Alpha  occ. eigenvalues --   -0.34976  -0.34746  -0.34236  -0.30803  -0.29183
 Alpha  occ. eigenvalues --   -0.28970  -0.25109  -0.23685  -0.22432
 Alpha virt. eigenvalues --   -0.00909   0.00449   0.01861   0.05782   0.10687
 Alpha virt. eigenvalues --    0.11400   0.11529   0.13097   0.14264   0.15645
 Alpha virt. eigenvalues --    0.16773   0.16949   0.17020   0.17871   0.18382
 Alpha virt. eigenvalues --    0.19569   0.19804   0.21200   0.21385   0.21455
 Alpha virt. eigenvalues --    0.22528   0.25872   0.26389   0.28243   0.28973
 Alpha virt. eigenvalues --    0.30411   0.31191   0.35154   0.36666   0.37457
 Alpha virt. eigenvalues --    0.39646   0.46959   0.48569   0.49314   0.50677
 Alpha virt. eigenvalues --    0.51592   0.53988   0.54346   0.55782   0.56580
 Alpha virt. eigenvalues --    0.57761   0.58450   0.59978   0.61681   0.61804
 Alpha virt. eigenvalues --    0.62158   0.63810   0.64438   0.64701   0.65258
 Alpha virt. eigenvalues --    0.67169   0.68623   0.70018   0.70341   0.73777
 Alpha virt. eigenvalues --    0.74286   0.75390   0.76186   0.78864   0.79016
 Alpha virt. eigenvalues --    0.81708   0.82329   0.83124   0.83569   0.84364
 Alpha virt. eigenvalues --    0.84889   0.85845   0.86089   0.87623   0.87740
 Alpha virt. eigenvalues --    0.88446   0.90092   0.90324   0.90460   0.92677
 Alpha virt. eigenvalues --    0.94226   0.94507   0.95582   1.02085   1.03406
 Alpha virt. eigenvalues --    1.05128   1.06239   1.10110   1.10111   1.11660
 Alpha virt. eigenvalues --    1.16627   1.16854   1.25358   1.28593   1.34306
 Alpha virt. eigenvalues --    1.35409   1.37488   1.38544   1.42535   1.42756
 Alpha virt. eigenvalues --    1.43236   1.48088   1.49832   1.50133   1.53919
 Alpha virt. eigenvalues --    1.54544   1.60673   1.63936   1.68855   1.69179
 Alpha virt. eigenvalues --    1.69847   1.70453   1.71441   1.74465   1.74939
 Alpha virt. eigenvalues --    1.75614   1.76734   1.78867   1.79148   1.81932
 Alpha virt. eigenvalues --    1.83903   1.87259   1.90401   1.91040   1.92508
 Alpha virt. eigenvalues --    1.93715   1.93762   1.97755   1.98091   1.99789
 Alpha virt. eigenvalues --    2.01882   2.04085   2.07218   2.09789   2.12408
 Alpha virt. eigenvalues --    2.13969   2.13981   2.15751   2.19643   2.20523
 Alpha virt. eigenvalues --    2.21766   2.22789   2.28518   2.29781   2.33419
 Alpha virt. eigenvalues --    2.34963   2.36972   2.40558   2.41021   2.45313
 Alpha virt. eigenvalues --    2.46436   2.48956   2.50031   2.53438   2.56351
 Alpha virt. eigenvalues --    2.57974   2.60705   2.62304   2.63872   2.65565
 Alpha virt. eigenvalues --    2.65784   2.69641   2.69960   2.70683   2.72043
 Alpha virt. eigenvalues --    2.73811   2.75169   2.80977   2.87304   2.89658
 Alpha virt. eigenvalues --    2.93122   2.95711   2.98519   3.04996   3.07337
 Alpha virt. eigenvalues --    3.31817   4.05704   4.11027   4.20399   4.24038
 Alpha virt. eigenvalues --    4.28463   4.43576   4.47727   4.53709   4.53926
 Alpha virt. eigenvalues --    4.63138   4.82896   4.85349   4.92827   5.24666
          Condensed to atoms (all electrons):
               1          2          3          4          5          6
     1  O    7.963693   0.595621  -0.062105   0.001071   0.001071  -0.062105
     2  C    0.595621   4.645746   0.296015  -0.055698  -0.055698   0.296015
     3  C   -0.062105   0.296015   5.274597   0.342081  -0.038705  -0.169063
     4  C    0.001071  -0.055698   0.342081   5.110799   0.312382  -0.038705
     5  C    0.001071  -0.055698  -0.038705   0.312382   5.110799   0.342081
     6  C   -0.062105   0.296015  -0.169063  -0.038705   0.342081   5.274597
     7  C    0.001485  -0.056401  -0.040740  -0.027758  -0.015657   0.340821
     8  C   -0.000056   0.002833  -0.003268   0.003828  -0.022234  -0.024280
     9  C    0.000000   0.000612   0.003320  -0.013638  -0.030025  -0.020915
    10  C   -0.000056   0.003354  -0.000970  -0.040465   0.376334  -0.028460
    11  C    0.001485  -0.056401   0.340821  -0.015657  -0.027758  -0.040740
    12  C   -0.000056   0.002833  -0.024280  -0.022234   0.003828  -0.003268
    13  C    0.000000   0.000612  -0.020915  -0.030025  -0.013638   0.003320
    14  C   -0.000056   0.003354  -0.028460   0.376334  -0.040465  -0.000970
    15  H    0.000549  -0.029987   0.356561  -0.033143   0.005343   0.006700
    16  H    0.000543   0.001544  -0.042116   0.361227  -0.036371   0.004260
    17  H    0.000543   0.001544   0.004260  -0.036371   0.361227  -0.042116
    18  H    0.000549  -0.029987   0.006700   0.005343  -0.033143   0.356561
    19  H    0.000266   0.002240   0.004392   0.000102   0.004342  -0.037671
    20  H    0.000000  -0.000096  -0.000381  -0.000096   0.000051   0.003669
    21  H    0.000000   0.000015  -0.000013  -0.000090   0.006092   0.000131
    22  H    0.000000  -0.000118  -0.000076   0.003166  -0.049916   0.003648
    23  H    0.000266   0.002240  -0.037671   0.004342   0.000102   0.004392
    24  H    0.000000  -0.000096   0.003669   0.000051  -0.000096  -0.000381
    25  H    0.000000   0.000015   0.000131   0.006092  -0.000090  -0.000013
    26  H    0.000000  -0.000118   0.003648  -0.049916   0.003166  -0.000076
               7          8          9         10         11         12
     1  O    0.001485  -0.000056   0.000000  -0.000056   0.001485  -0.000056
     2  C   -0.056401   0.002833   0.000612   0.003354  -0.056401   0.002833
     3  C   -0.040740  -0.003268   0.003320  -0.000970   0.340821  -0.024280
     4  C   -0.027758   0.003828  -0.013638  -0.040465  -0.015657  -0.022234
     5  C   -0.015657  -0.022234  -0.030025   0.376334  -0.027758   0.003828
     6  C    0.340821  -0.024280  -0.020915  -0.028460  -0.040740  -0.003268
     7  C    5.148381   0.335110  -0.023171  -0.033408   0.336967  -0.128391
     8  C    0.335110   5.055678   0.398626  -0.030160  -0.128391   0.351256
     9  C   -0.023171   0.398626   4.859095   0.665399  -0.002726  -0.037557
    10  C   -0.033408  -0.030160   0.665399   4.903392   0.005136  -0.011176
    11  C    0.336967  -0.128391  -0.002726   0.005136   5.148381   0.335109
    12  C   -0.128391   0.351256  -0.037557  -0.011176   0.335109   5.055678
    13  C   -0.002726  -0.037557  -0.008357   0.002811  -0.023171   0.398626
    14  C    0.005136  -0.011176   0.002811   0.004548  -0.033408  -0.030160
    15  H    0.005581  -0.000104  -0.000050   0.000005  -0.030342   0.001389
    16  H    0.000175  -0.000199  -0.000039   0.003568   0.005240   0.000255
    17  H    0.005240   0.000255   0.005642  -0.035897   0.000175  -0.000199
    18  H   -0.030342   0.001389   0.000571   0.000067   0.005581  -0.000104
    19  H    0.358794  -0.031896   0.002180   0.000585  -0.031023   0.008607
    20  H   -0.034424   0.353726  -0.034498   0.006199   0.010610  -0.037126
    21  H    0.004429  -0.048656   0.360297  -0.046473  -0.000331   0.002609
    22  H    0.000256   0.005589  -0.041555   0.363783  -0.000047   0.000062
    23  H   -0.031023   0.008607  -0.000237  -0.000127   0.358794  -0.031896
    24  H    0.010610  -0.037126   0.004227  -0.000020  -0.034424   0.353726
    25  H   -0.000331   0.002609   0.000267  -0.000135   0.004429  -0.048656
    26  H   -0.000047   0.000062  -0.000125   0.000316   0.000256   0.005589
              13         14         15         16         17         18
     1  O    0.000000  -0.000056   0.000549   0.000543   0.000543   0.000549
     2  C    0.000612   0.003354  -0.029987   0.001544   0.001544  -0.029987
     3  C   -0.020915  -0.028460   0.356561  -0.042116   0.004260   0.006700
     4  C   -0.030025   0.376334  -0.033143   0.361227  -0.036371   0.005343
     5  C   -0.013638  -0.040465   0.005343  -0.036371   0.361227  -0.033143
     6  C    0.003320  -0.000970   0.006700   0.004260  -0.042116   0.356561
     7  C   -0.002726   0.005136   0.005581   0.000175   0.005240  -0.030342
     8  C   -0.037557  -0.011176  -0.000104  -0.000199   0.000255   0.001389
     9  C   -0.008357   0.002811  -0.000050  -0.000039   0.005642   0.000571
    10  C    0.002811   0.004548   0.000005   0.003568  -0.035897   0.000067
    11  C   -0.023171  -0.033408  -0.030342   0.005240   0.000175   0.005581
    12  C    0.398626  -0.030160   0.001389   0.000255  -0.000199  -0.000104
    13  C    4.859094   0.665399   0.000571   0.005642  -0.000039  -0.000050
    14  C    0.665399   4.903392   0.000067  -0.035897   0.003568   0.000005
    15  H    0.000571   0.000067   0.583246  -0.003815  -0.000235  -0.000138
    16  H    0.005642  -0.035897  -0.003815   0.612924  -0.010929  -0.000235
    17  H   -0.000039   0.003568  -0.000235  -0.010929   0.612924  -0.003815
    18  H   -0.000050   0.000005  -0.000138  -0.000235  -0.003815   0.583246
    19  H   -0.000237  -0.000127  -0.000124   0.000012  -0.000178  -0.005016
    20  H    0.004227  -0.000020   0.000004   0.000001   0.000007  -0.000043
    21  H    0.000267  -0.000135  -0.000001   0.000005  -0.000169  -0.000021
    22  H   -0.000125   0.000316   0.000002  -0.000037  -0.006785   0.000074
    23  H    0.002180   0.000585  -0.005016  -0.000178   0.000012  -0.000124
    24  H   -0.034498   0.006199  -0.000043   0.000007   0.000001   0.000004
    25  H    0.360297  -0.046473  -0.000021  -0.000169   0.000005  -0.000001
    26  H   -0.041555   0.363783   0.000074  -0.006785  -0.000037   0.000002
              19         20         21         22         23         24
     1  O    0.000266   0.000000   0.000000   0.000000   0.000266   0.000000
     2  C    0.002240  -0.000096   0.000015  -0.000118   0.002240  -0.000096
     3  C    0.004392  -0.000381  -0.000013  -0.000076  -0.037671   0.003669
     4  C    0.000102  -0.000096  -0.000090   0.003166   0.004342   0.000051
     5  C    0.004342   0.000051   0.006092  -0.049916   0.000102  -0.000096
     6  C   -0.037671   0.003669   0.000131   0.003648   0.004392  -0.000381
     7  C    0.358794  -0.034424   0.004429   0.000256  -0.031023   0.010610
     8  C   -0.031896   0.353726  -0.048656   0.005589   0.008607  -0.037126
     9  C    0.002180  -0.034498   0.360297  -0.041555  -0.000237   0.004227
    10  C    0.000585   0.006199  -0.046473   0.363783  -0.000127  -0.000020
    11  C   -0.031023   0.010610  -0.000331  -0.000047   0.358794  -0.034424
    12  C    0.008607  -0.037126   0.002609   0.000062  -0.031896   0.353726
    13  C   -0.000237   0.004227   0.000267  -0.000125   0.002180  -0.034498
    14  C   -0.000127  -0.000020  -0.000135   0.000316   0.000585   0.006199
    15  H   -0.000124   0.000004  -0.000001   0.000002  -0.005016  -0.000043
    16  H    0.000012   0.000001   0.000005  -0.000037  -0.000178   0.000007
    17  H   -0.000178   0.000007  -0.000169  -0.006785   0.000012   0.000001
    18  H   -0.005016  -0.000043  -0.000021   0.000074  -0.000124   0.000004
    19  H    0.598662  -0.007777  -0.000107   0.000016  -0.007664  -0.000429
    20  H   -0.007777   0.623738  -0.006766  -0.000183  -0.000429  -0.009404
    21  H   -0.000107  -0.006766   0.611427  -0.007826   0.000009  -0.000027
    22  H    0.000016  -0.000183  -0.007826   0.602611  -0.000001   0.000005
    23  H   -0.007664  -0.000429   0.000009  -0.000001   0.598662  -0.007777
    24  H   -0.000429  -0.009404  -0.000027   0.000005  -0.007777   0.623738
    25  H    0.000009  -0.000027  -0.000147  -0.000001  -0.000107  -0.006766
    26  H   -0.000001   0.000005  -0.000001  -0.000156   0.000016  -0.000183
              25         26
     1  O    0.000000   0.000000
     2  C    0.000015  -0.000118
     3  C    0.000131   0.003648
     4  C    0.006092  -0.049916
     5  C   -0.000090   0.003166
     6  C   -0.000013  -0.000076
     7  C   -0.000331  -0.000047
     8  C    0.002609   0.000062
     9  C    0.000267  -0.000125
    10  C   -0.000135   0.000316
    11  C    0.004429   0.000256
    12  C   -0.048656   0.005589
    13  C    0.360297  -0.041555
    14  C   -0.046473   0.363783
    15  H   -0.000021   0.000074
    16  H   -0.000169  -0.006785
    17  H    0.000005  -0.000037
    18  H   -0.000001   0.000002
    19  H    0.000009  -0.000001
    20  H   -0.000027   0.000005
    21  H   -0.000147  -0.000001
    22  H   -0.000001  -0.000156
    23  H   -0.000107   0.000016
    24  H   -0.006766  -0.000183
    25  H    0.611427  -0.007826
    26  H   -0.007826   0.602611
 Mulliken charges:
               1
     1  O   -0.442712
     2  C    0.430010
     3  C   -0.167432
     4  C   -0.163023
     5  C   -0.163023
     6  C   -0.167432
     7  C   -0.128565
     8  C   -0.144466
     9  C   -0.090153
    10  C   -0.108151
    11  C   -0.128565
    12  C   -0.144466
    13  C   -0.090153
    14  C   -0.108151
    15  H    0.142924
    16  H    0.141366
    17  H    0.141366
    18  H    0.142924
    19  H    0.142043
    20  H    0.129033
    21  H    0.125481
    22  H    0.127295
    23  H    0.142043
    24  H    0.129033
    25  H    0.125481
    26  H    0.127295
 Sum of Mulliken charges =  -0.00000
 Mulliken charges with hydrogens summed into heavy atoms:
               1
     1  O   -0.442712
     2  C    0.430010
     3  C   -0.024509
     4  C   -0.021658
     5  C   -0.021658
     6  C   -0.024509
     7  C    0.013478
     8  C   -0.015433
     9  C    0.035328
    10  C    0.019144
    11  C    0.013478
    12  C   -0.015433
    13  C    0.035328
    14  C    0.019144
 APT charges:
               1
     1  O   -0.698652
     2  C    0.800030
     3  C   -0.106897
     4  C    0.113616
     5  C    0.113616
     6  C   -0.106897
     7  C    0.072096
     8  C    0.080842
     9  C   -0.015339
    10  C   -0.009137
    11  C    0.072096
    12  C    0.080843
    13  C   -0.015340
    14  C   -0.009136
    15  H   -0.023726
    16  H   -0.052805
    17  H   -0.052805
    18  H   -0.023726
    19  H   -0.044728
    20  H   -0.059808
    21  H   -0.002982
    22  H   -0.001821
    23  H   -0.044728
    24  H   -0.059808
    25  H   -0.002982
    26  H   -0.001821
 Sum of APT charges =   0.00000
 APT charges with hydrogens summed into heavy atoms:
               1
     1  O   -0.698652
     2  C    0.800030
     3  C   -0.130623
     4  C    0.060811
     5  C    0.060811
     6  C   -0.130623
     7  C    0.027368
     8  C    0.021034
     9  C   -0.018321
    10  C   -0.010958
    11  C    0.027368
    12  C    0.021034
    13  C   -0.018322
    14  C   -0.010958
 Electronic spatial extent (au):  <R**2>=           1856.3978
 Charge=             -0.0000 electrons
 Dipole moment (field-independent basis, Debye):
    X=              3.0069    Y=              0.0000    Z=              0.1638  Tot=              3.0114
 Quadrupole moment (field-independent basis, Debye-Ang):
   XX=            -91.8526   YY=            -79.4882   ZZ=            -74.6101
   XY=              0.0000   XZ=              1.3135   YZ=             -0.0000
 Traceless Quadrupole moment (field-independent basis, Debye-Ang):
   XX=             -9.8690   YY=              2.4954   ZZ=              7.3736
   XY=              0.0000   XZ=              1.3135   YZ=             -0.0000
 Octapole moment (field-independent basis, Debye-Ang**2):
  XXX=             48.1885  YYY=              0.0000  ZZZ=             -1.3683  XYY=             -4.9264
  XXY=              0.0000  XXZ=              2.3396  XZZ=             -4.1197  YZZ=              0.0000
  YYZ=             -1.4342  XYZ=             -0.0000
 Hexadecapole moment (field-independent basis, Debye-Ang**3):
 XXXX=          -1342.7707 YYYY=           -706.7972 ZZZZ=           -570.5984 XXXY=             -0.0000
 XXXZ=              8.4785 YYYX=              0.0000 YYYZ=             -0.0000 ZZZX=              0.4633
 ZZZY=             -0.0000 XXYY=           -289.9020 XXZZ=           -284.0727 YYZZ=           -201.7385
 XXYZ=             -0.0000 YYXZ=             -3.9220 ZZXY=              0.0000
 N-N= 9.152046746126D+02 E-N=-3.171307956269D+03  KE= 5.723592400446D+02
  Exact polarizability: 127.493  -0.000 101.498   6.858  -0.000 114.171
 Approx polarizability: 200.853  -0.000 151.035  24.585  -0.000 194.658
 Calling FoFJK, ICntrl=    100127 FMM=F ISym2X=0 I1Cent= 0 IOpClX= 0 NMat=1 NMatS=1 NMatT=0.
 Full mass-weighted force constant matrix:
 Low frequencies ---   -7.1015    0.0004    0.0006    0.0009    4.3070    8.7766
 Low frequencies ---  124.5791  227.9057  259.9630
 Diagonal vibrational polarizability:
        4.0448446       6.0880507       6.5938788
 Harmonic frequencies (cm**-1), IR intensities (KM/Mole), Raman scattering
 activities (A**4/AMU), depolarization ratios for plane and unpolarized
 incident light, reduced masses (AMU), force constants (mDyne/A),
 and normal coordinates:
                      1                      2                      3
                      A                      A                      A
 Frequencies --    124.5767               227.9052               259.9630
 Red. masses --      7.5438                 4.5099                 2.7733
 Frc consts  --      0.0690                 0.1380                 0.1104
 IR Inten    --      3.2720                 0.6436                 0.0907
  Atom  AN      X      Y      Z        X      Y      Z        X      Y      Z
     1   8    -0.01  -0.00   0.53    -0.00   0.17   0.00     0.02   0.00   0.01
     2   6    -0.00  -0.00  -0.04    -0.00   0.03   0.00     0.02   0.00  -0.01
     3   6    -0.00  -0.00  -0.19    -0.06  -0.06   0.04     0.02   0.00  -0.01
     4   6     0.10   0.00  -0.11    -0.08  -0.15  -0.00     0.04  -0.00  -0.01
     5   6     0.10  -0.00  -0.11     0.08  -0.15   0.00     0.04   0.00  -0.01
     6   6    -0.00   0.00  -0.19     0.06  -0.06  -0.04     0.02  -0.00  -0.01
     7   6    -0.10   0.00  -0.11    -0.04  -0.04   0.03     0.01  -0.00  -0.01
     8   6    -0.09   0.00   0.03    -0.05   0.08   0.10     0.02   0.00  -0.04
     9   6     0.01  -0.01   0.07    -0.07   0.16   0.15    -0.05   0.18   0.03
    10   6     0.10  -0.01   0.01     0.07  -0.12   0.06    -0.05   0.19   0.03
    11   6    -0.10  -0.00  -0.11     0.04  -0.04  -0.03     0.01   0.00  -0.01
    12   6    -0.09  -0.00   0.03     0.05   0.08  -0.10     0.02  -0.00  -0.04
    13   6     0.01   0.01   0.07     0.07   0.16  -0.15    -0.05  -0.18   0.03
    14   6     0.10   0.01   0.01    -0.07  -0.12  -0.06    -0.05  -0.19   0.03
    15   1    -0.00  -0.00  -0.21    -0.12  -0.03   0.11     0.02   0.00  -0.02
    16   1     0.18  -0.00  -0.16    -0.13  -0.12   0.02     0.02   0.03  -0.01
    17   1     0.18   0.00  -0.16     0.13  -0.12  -0.02     0.02  -0.03  -0.01
    18   1    -0.00   0.00  -0.21     0.12  -0.03  -0.11     0.02  -0.00  -0.02
    19   1    -0.19   0.00  -0.15    -0.16  -0.07  -0.00     0.02   0.01  -0.01
    20   1    -0.17   0.00   0.07    -0.10   0.02   0.16     0.01  -0.05  -0.02
    21   1     0.01  -0.01   0.14    -0.15   0.33   0.21    -0.16   0.41   0.11
    22   1     0.19  -0.02   0.03     0.11  -0.17   0.05    -0.17   0.41   0.10
    23   1    -0.19  -0.00  -0.15     0.16  -0.07   0.00     0.02  -0.01  -0.01
    24   1    -0.17  -0.00   0.07     0.10   0.02  -0.16     0.01   0.05  -0.02
    25   1     0.01   0.01   0.14     0.15   0.33  -0.21    -0.16  -0.41   0.11
    26   1     0.19   0.02   0.03    -0.11  -0.17  -0.05    -0.17  -0.41   0.10
                      4                      5                      6
                      A                      A                      A
 Frequencies --    272.2344               383.4918               424.7491
 Red. masses --      5.1411                 2.5544                 5.8836
 Frc consts  --      0.2245                 0.2213                 0.6254
 IR Inten    --      0.2515                 3.2695                 0.4708
  Atom  AN      X      Y      Z        X      Y      Z        X      Y      Z
     1   8    -0.00   0.31   0.00    -0.00  -0.03  -0.00     0.24   0.00  -0.00
     2   6    -0.00   0.07   0.00    -0.00  -0.01   0.00     0.22  -0.00   0.02
     3   6    -0.03  -0.06  -0.04    -0.02  -0.01   0.12     0.13   0.01   0.02
     4   6     0.09  -0.07   0.02    -0.04  -0.06   0.07    -0.03   0.05  -0.08
     5   6    -0.09  -0.07  -0.02     0.04  -0.06  -0.07    -0.03  -0.05  -0.08
     6   6     0.03  -0.06   0.04     0.02  -0.01  -0.12     0.13  -0.01   0.02
     7   6     0.02  -0.12   0.02     0.05   0.05  -0.09    -0.02   0.00   0.11
     8   6    -0.01  -0.07  -0.05     0.06  -0.11  -0.02    -0.09   0.04   0.05
     9   6    -0.14  -0.00  -0.10     0.03   0.02   0.04    -0.22   0.12   0.02
    10   6    -0.19   0.07  -0.08    -0.01   0.09   0.06    -0.01  -0.17  -0.12
    11   6    -0.02  -0.12  -0.02    -0.05   0.05   0.09    -0.02  -0.00   0.11
    12   6     0.01  -0.07   0.05    -0.06  -0.11   0.02    -0.09  -0.04   0.05
    13   6     0.14  -0.00   0.10    -0.03   0.02  -0.04    -0.22  -0.12   0.02
    14   6     0.19   0.07   0.08     0.01   0.09  -0.06    -0.01   0.17  -0.12
    15   1    -0.08  -0.03  -0.07    -0.03  -0.01   0.16     0.10   0.02   0.00
    16   1     0.21  -0.15  -0.03    -0.11  -0.10   0.13    -0.12  -0.05   0.00
    17   1    -0.21  -0.15   0.03     0.11  -0.10  -0.13    -0.12   0.05   0.00
    18   1     0.08  -0.03   0.07     0.03  -0.01  -0.16     0.10  -0.02   0.00
    19   1     0.03  -0.14   0.03     0.07   0.18  -0.15    -0.10   0.06   0.04
    20   1     0.05  -0.00  -0.12     0.03  -0.15   0.01    -0.00  -0.00   0.02
    21   1    -0.20   0.12  -0.10    -0.08   0.25   0.11    -0.28   0.24   0.05
    22   1    -0.29   0.24  -0.03    -0.13   0.39   0.17     0.10  -0.29  -0.13
    23   1    -0.03  -0.14  -0.03    -0.07   0.18   0.15    -0.10  -0.06   0.04
    24   1    -0.05  -0.00   0.12    -0.03  -0.15  -0.01    -0.00   0.00   0.02
    25   1     0.20   0.12   0.10     0.08   0.25  -0.11    -0.28  -0.24   0.05
    26   1     0.29   0.24   0.03     0.13   0.39  -0.17     0.10   0.29  -0.13
                      7                      8                      9
                      A                      A                      A
 Frequencies --    472.4167               476.7195               506.7483
 Red. masses --      5.1066                 3.7145                 5.0490
 Frc consts  --      0.6715                 0.4974                 0.7639
 IR Inten    --      0.1987                 7.0698                 2.1055
  Atom  AN      X      Y      Z        X      Y      Z        X      Y      Z
     1   8     0.19  -0.00   0.00     0.00   0.18   0.00    -0.00   0.05  -0.00
     2   6     0.18   0.00  -0.01     0.00  -0.13  -0.00    -0.00   0.04   0.00
     3   6     0.06  -0.00  -0.05     0.09  -0.12   0.12     0.11   0.06   0.02
     4   6    -0.07  -0.05  -0.10     0.01   0.10   0.05     0.12  -0.05  -0.02
     5   6    -0.07   0.05  -0.10    -0.01   0.10  -0.05    -0.12  -0.05   0.02
     6   6     0.06   0.00  -0.05    -0.09  -0.12  -0.12    -0.11   0.06  -0.02
     7   6     0.01   0.00  -0.02    -0.08  -0.06  -0.10    -0.03   0.19   0.01
     8   6     0.00  -0.06   0.11    -0.10   0.03  -0.02    -0.03  -0.01   0.11
     9   6    -0.04  -0.23   0.00     0.04  -0.05   0.02    -0.09  -0.14   0.10
    10   6    -0.16   0.15   0.07     0.04   0.07   0.02    -0.18  -0.07   0.16
    11   6     0.01  -0.00  -0.02     0.08  -0.06   0.10     0.03   0.19  -0.01
    12   6     0.00   0.06   0.11     0.10   0.03   0.02     0.03  -0.01  -0.11
    13   6    -0.04   0.23   0.00    -0.04  -0.05  -0.02     0.09  -0.14  -0.10
    14   6    -0.16  -0.15   0.07    -0.04   0.07  -0.02     0.18  -0.07  -0.16
    15   1    -0.02   0.03  -0.03     0.28  -0.20   0.01     0.17   0.04   0.17
    16   1    -0.12  -0.05  -0.07    -0.07   0.08   0.10     0.07  -0.10   0.03
    17   1    -0.12   0.05  -0.07     0.07   0.08  -0.10    -0.07  -0.10  -0.03
    18   1    -0.02  -0.03  -0.03    -0.28  -0.20  -0.01    -0.17   0.04  -0.17
    19   1    -0.07  -0.00  -0.05    -0.15  -0.01  -0.16    -0.06   0.20  -0.00
    20   1     0.01   0.09   0.05    -0.23   0.09   0.02     0.01  -0.09   0.12
    21   1     0.02  -0.34  -0.07     0.15  -0.29   0.03     0.01  -0.33  -0.07
    22   1    -0.13   0.33   0.18     0.15  -0.06  -0.00    -0.07  -0.17   0.15
    23   1    -0.07   0.00  -0.05     0.15  -0.01   0.16     0.06   0.20   0.00
    24   1     0.01  -0.09   0.05     0.23   0.09  -0.02    -0.01  -0.09  -0.12
    25   1     0.02   0.34  -0.07    -0.15  -0.29  -0.03    -0.01  -0.33   0.07
    26   1    -0.13  -0.33   0.18    -0.15  -0.06   0.00     0.07  -0.17  -0.15
                     10                     11                     12
                      A                      A                      A
 Frequencies --    510.8321               526.6654               633.3223
 Red. masses --      6.2422                 4.9564                 5.2712
 Frc consts  --      0.9597                 0.8100                 1.2457
 IR Inten    --      0.5247                 2.4423                 1.1672
  Atom  AN      X      Y      Z        X      Y      Z        X      Y      Z
     1   8    -0.10  -0.00  -0.02     0.00  -0.13  -0.00     0.23  -0.00  -0.00
     2   6    -0.09   0.00   0.03     0.00   0.20  -0.00     0.19  -0.00   0.00
     3   6    -0.01   0.01  -0.09    -0.04   0.16   0.11    -0.10  -0.08  -0.01
     4   6    -0.14   0.05  -0.12     0.01   0.08   0.14    -0.09  -0.04   0.17
     5   6    -0.14  -0.05  -0.12    -0.01   0.08  -0.14    -0.09   0.04   0.17
     6   6    -0.01  -0.01  -0.09     0.04   0.16  -0.11    -0.10   0.08  -0.01
     7   6     0.17  -0.03  -0.15    -0.06  -0.11  -0.03    -0.02   0.02  -0.20
     8   6     0.20   0.04   0.15    -0.14  -0.08   0.02    -0.04   0.03  -0.09
     9   6    -0.04   0.08   0.11    -0.18  -0.04   0.04     0.08   0.09   0.03
    10   6    -0.08  -0.16   0.12     0.01  -0.01  -0.08    -0.04  -0.05   0.11
    11   6     0.17   0.03  -0.15     0.06  -0.11   0.03    -0.02  -0.02  -0.20
    12   6     0.20  -0.04   0.15     0.14  -0.08  -0.02    -0.04  -0.03  -0.09
    13   6    -0.04  -0.08   0.11     0.18  -0.04  -0.04     0.08  -0.09   0.03
    14   6    -0.08   0.16   0.12    -0.01  -0.01   0.08    -0.04   0.05   0.11
    15   1     0.06  -0.02  -0.05    -0.25   0.25  -0.01    -0.34   0.03   0.01
    16   1    -0.01  -0.08  -0.15    -0.02  -0.02   0.19     0.01   0.04   0.09
    17   1    -0.01   0.08  -0.15     0.02  -0.02  -0.19     0.01  -0.04   0.09
    18   1     0.06   0.02  -0.05     0.25   0.25   0.01    -0.34  -0.03   0.01
    19   1     0.08  -0.12  -0.14    -0.13  -0.12  -0.06    -0.00  -0.13  -0.11
    20   1     0.08   0.12   0.18    -0.17  -0.02   0.02    -0.19  -0.04   0.02
    21   1    -0.13   0.27  -0.07    -0.14  -0.12   0.12     0.14  -0.05  -0.06
    22   1    -0.03  -0.13   0.15     0.20  -0.07  -0.03    -0.07  -0.29  -0.03
    23   1     0.08   0.12  -0.14     0.13  -0.12   0.06    -0.00   0.13  -0.11
    24   1     0.08  -0.12   0.18     0.17  -0.02  -0.02    -0.19   0.04   0.02
    25   1    -0.13  -0.27  -0.07     0.14  -0.12  -0.12     0.14   0.05  -0.06
    26   1    -0.03   0.13   0.15    -0.20  -0.07   0.03    -0.07   0.29  -0.03
                     13                     14                     15
                      A                      A                      A
 Frequencies --    675.1010               687.0068               709.7351
 Red. masses --      3.2017                 2.2920                 2.4333
 Frc consts  --      0.8597                 0.6374                 0.7222
 IR Inten    --      3.0088                 3.6976                29.8269
  Atom  AN      X      Y      Z        X      Y      Z        X      Y      Z
     1   8     0.00  -0.05  -0.00     0.02   0.00   0.00    -0.00  -0.02   0.00
     2   6     0.00   0.11  -0.00     0.01  -0.00  -0.02    -0.00  -0.05  -0.00
     3   6    -0.08   0.00   0.02     0.01   0.01  -0.01    -0.13  -0.07   0.05
     4   6    -0.05  -0.12  -0.03     0.04   0.12   0.07     0.03   0.04   0.04
     5   6     0.05  -0.12   0.03     0.04  -0.12   0.07    -0.03   0.04  -0.04
     6   6     0.08   0.00  -0.02     0.01  -0.01  -0.01     0.13  -0.07  -0.05
     7   6    -0.06  -0.06   0.02    -0.02   0.01  -0.02     0.10  -0.01  -0.01
     8   6    -0.05   0.13   0.01     0.00  -0.09  -0.06     0.08   0.03   0.08
     9   6     0.11  -0.09  -0.03     0.00  -0.09  -0.01    -0.04   0.06   0.02
    10   6    -0.05   0.12   0.07    -0.03  -0.11   0.03    -0.05   0.06   0.01
    11   6     0.06  -0.06  -0.02    -0.02  -0.01  -0.02    -0.10  -0.01   0.01
    12   6     0.05   0.13  -0.01     0.00   0.09  -0.06    -0.08   0.03  -0.08
    13   6    -0.11  -0.09   0.03     0.00   0.09  -0.01     0.04   0.06  -0.02
    14   6     0.05   0.12  -0.07    -0.03   0.11   0.03     0.05   0.06  -0.01
    15   1    -0.32   0.10   0.09     0.06  -0.00  -0.11    -0.17  -0.05  -0.01
    16   1    -0.03  -0.11  -0.04     0.08   0.12   0.04     0.09   0.01   0.02
    17   1     0.03  -0.11   0.04     0.08  -0.12   0.04    -0.09   0.01  -0.02
    18   1     0.32   0.10  -0.09     0.06   0.00  -0.11     0.17  -0.05   0.01
    19   1    -0.17  -0.13   0.01     0.03   0.05  -0.02    -0.01   0.06  -0.10
    20   1    -0.09   0.19   0.01     0.02  -0.09  -0.07     0.14  -0.07   0.08
    21   1     0.19  -0.26  -0.06    -0.21   0.34   0.11     0.16  -0.34  -0.20
    22   1    -0.14   0.20   0.08    -0.30   0.31   0.15     0.20  -0.35  -0.10
    23   1     0.17  -0.13  -0.01     0.03  -0.05  -0.02     0.01   0.06   0.10
    24   1     0.09   0.19  -0.01     0.02   0.09  -0.07    -0.14  -0.07  -0.08
    25   1    -0.19  -0.26   0.06    -0.21  -0.34   0.11    -0.16  -0.34   0.20
    26   1     0.14   0.20  -0.08    -0.30  -0.31   0.15    -0.20  -0.35   0.10
                     16                     17                     18
                      A                      A                      A
 Frequencies --    725.9615               744.6799               762.6891
 Red. masses --      4.2749                 3.7787                 3.2221
 Frc consts  --      1.3274                 1.2346                 1.1043
 IR Inten    --      2.5465                 0.2717                 0.4606
  Atom  AN      X      Y      Z        X      Y      Z        X      Y      Z
     1   8     0.01  -0.00  -0.07     0.00   0.02   0.00    -0.05   0.00  -0.04
     2   6     0.01  -0.00   0.36     0.00  -0.12  -0.00    -0.05  -0.00   0.19
     3   6    -0.04  -0.03   0.07    -0.06  -0.05  -0.00     0.14   0.03   0.00
     4   6    -0.04  -0.06  -0.15    -0.07   0.00   0.07     0.07   0.10   0.07
     5   6    -0.04   0.06  -0.15     0.07   0.00  -0.07     0.07  -0.10   0.07
     6   6    -0.04   0.03   0.07     0.06  -0.05   0.00     0.14  -0.03   0.00
     7   6     0.02   0.02  -0.07    -0.05   0.12   0.16     0.04  -0.04  -0.13
     8   6    -0.07  -0.09  -0.08    -0.00   0.01   0.11    -0.09   0.04  -0.01
     9   6     0.01  -0.04   0.07    -0.09  -0.12  -0.00    -0.07  -0.01   0.01
    10   6     0.12  -0.02  -0.01     0.08   0.07  -0.12    -0.05   0.05   0.01
    11   6     0.02  -0.02  -0.07     0.05   0.12  -0.16     0.04   0.04  -0.13
    12   6    -0.07   0.09  -0.08     0.00   0.01  -0.11    -0.09  -0.04  -0.01
    13   6     0.01   0.04   0.07     0.09  -0.12   0.00    -0.07   0.01   0.01
    14   6     0.12   0.02  -0.01    -0.08   0.07   0.12    -0.05  -0.05   0.01
    15   1    -0.12   0.00   0.16     0.11  -0.12   0.12     0.40  -0.08  -0.05
    16   1    -0.00  -0.19  -0.13     0.04  -0.04   0.02    -0.00   0.17   0.09
    17   1    -0.00   0.19  -0.13    -0.04  -0.04  -0.02    -0.00  -0.17   0.09
    18   1    -0.12  -0.00   0.16    -0.11  -0.12  -0.12     0.40   0.08  -0.05
    19   1     0.12   0.01  -0.03    -0.21  -0.03   0.18    -0.04  -0.14  -0.12
    20   1    -0.10  -0.17  -0.04     0.26  -0.04  -0.02    -0.17   0.07   0.02
    21   1    -0.09   0.14   0.29    -0.12  -0.05   0.14     0.07  -0.30  -0.03
    22   1     0.15   0.23   0.13     0.10   0.36   0.04     0.02  -0.16  -0.07
    23   1     0.12  -0.01  -0.03     0.21  -0.03  -0.18    -0.04   0.14  -0.12
    24   1    -0.10   0.17  -0.04    -0.26  -0.04   0.02    -0.17  -0.07   0.02
    25   1    -0.09  -0.14   0.29     0.12  -0.05  -0.14     0.07   0.30  -0.03
    26   1     0.15  -0.23   0.13    -0.10   0.36  -0.04     0.02   0.16  -0.07
                     19                     20                     21
                      A                      A                      A
 Frequencies --    789.3664               790.3030               816.1103
 Red. masses --      3.2645                 2.5635                 3.1926
 Frc consts  --      1.1985                 0.9434                 1.2528
 IR Inten    --      0.1077                 3.1521                 7.0049
  Atom  AN      X      Y      Z        X      Y      Z        X      Y      Z
     1   8    -0.00   0.01   0.00     0.02  -0.00  -0.02     0.04   0.00  -0.04
     2   6    -0.00   0.04  -0.00     0.02  -0.00   0.11     0.03   0.00   0.20
     3   6     0.12   0.05   0.06    -0.04  -0.03   0.02    -0.07   0.09  -0.07
     4   6     0.04   0.01   0.12     0.02   0.02   0.01     0.03   0.13  -0.07
     5   6    -0.04   0.01  -0.12     0.02  -0.02   0.01     0.03  -0.13  -0.07
     6   6    -0.12   0.05  -0.06    -0.04   0.03   0.02    -0.07  -0.09  -0.07
     7   6    -0.04  -0.10   0.07    -0.05  -0.01  -0.04    -0.04   0.10   0.09
     8   6     0.16   0.05   0.09     0.01   0.14   0.13     0.02   0.03  -0.01
     9   6     0.09   0.02  -0.03     0.06  -0.03  -0.08     0.06   0.05  -0.02
    10   6    -0.02  -0.03   0.01     0.04  -0.00  -0.09    -0.05   0.02   0.05
    11   6     0.04  -0.10  -0.07    -0.05   0.01  -0.04    -0.04  -0.10   0.09
    12   6    -0.16   0.05  -0.09     0.01  -0.14   0.13     0.02  -0.03  -0.01
    13   6    -0.09   0.02   0.03     0.06   0.03  -0.08     0.06  -0.05  -0.02
    14   6     0.02  -0.03  -0.01     0.04   0.00  -0.09    -0.05  -0.02   0.05
    15   1     0.17   0.03  -0.03    -0.11  -0.01  -0.00    -0.17   0.13  -0.30
    16   1    -0.08  -0.10   0.24     0.01   0.07   0.01     0.11   0.12  -0.11
    17   1     0.08  -0.10  -0.24     0.01  -0.07   0.01     0.11  -0.12  -0.11
    18   1    -0.17   0.03   0.03    -0.11   0.01  -0.00    -0.17  -0.13  -0.30
    19   1    -0.20  -0.29   0.11    -0.19  -0.21   0.01    -0.03   0.33  -0.02
    20   1     0.28  -0.08   0.08    -0.08   0.37   0.08     0.07  -0.06   0.01
    21   1     0.03   0.15  -0.20    -0.08   0.26  -0.03     0.17  -0.15  -0.17
    22   1    -0.04   0.03   0.03    -0.16   0.29  -0.02    -0.03  -0.16  -0.04
    23   1     0.20  -0.29  -0.11    -0.19   0.21   0.01    -0.03  -0.33  -0.02
    24   1    -0.28  -0.08  -0.08    -0.08  -0.36   0.08     0.07   0.06   0.01
    25   1    -0.03   0.15   0.20    -0.08  -0.26  -0.03     0.17   0.15  -0.17
    26   1     0.04   0.03  -0.03    -0.16  -0.29  -0.02    -0.03   0.16  -0.04
                     22                     23                     24
                      A                      A                      A
 Frequencies --    828.5218               873.3344               889.0970
 Red. masses --      2.4746                 4.4061                 2.9281
 Frc consts  --      1.0008                 1.9800                 1.3637
 IR Inten    --     15.7704                 0.4105                11.6890
  Atom  AN      X      Y      Z        X      Y      Z        X      Y      Z
     1   8    -0.00   0.01   0.00     0.03   0.00   0.02    -0.04  -0.00  -0.01
     2   6    -0.00   0.04  -0.00     0.03   0.00  -0.08    -0.04   0.00   0.03
     3   6     0.09   0.03  -0.01     0.04   0.23   0.06     0.15  -0.11  -0.04
     4   6    -0.04  -0.10  -0.02    -0.07   0.03  -0.09    -0.10  -0.06  -0.00
     5   6     0.04  -0.10   0.02    -0.07  -0.03  -0.09    -0.10   0.06  -0.00
     6   6    -0.09   0.03   0.01     0.04  -0.23   0.06     0.15   0.11  -0.04
     7   6    -0.04   0.02   0.06    -0.03  -0.18   0.03    -0.06   0.11   0.03
     8   6    -0.02  -0.10  -0.04    -0.07   0.08  -0.07    -0.04   0.03  -0.00
     9   6     0.01   0.10  -0.00     0.14   0.03  -0.00     0.11   0.04  -0.02
    10   6     0.03   0.12  -0.03    -0.00  -0.04   0.07    -0.01  -0.03   0.04
    11   6     0.04   0.02  -0.06    -0.03   0.18   0.03    -0.06  -0.11   0.03
    12   6     0.02  -0.10   0.04    -0.07  -0.08  -0.07    -0.04  -0.03  -0.00
    13   6    -0.01   0.10   0.00     0.14  -0.03  -0.00     0.11  -0.04  -0.02
    14   6    -0.03   0.12   0.03    -0.00   0.04   0.07    -0.01   0.03   0.04
    15   1     0.13   0.01   0.14     0.19   0.18   0.25     0.35  -0.19  -0.09
    16   1    -0.03  -0.18   0.01    -0.10  -0.23   0.03    -0.14  -0.18   0.07
    17   1     0.03  -0.18  -0.01    -0.10   0.23   0.03    -0.14   0.18   0.07
    18   1    -0.13   0.01  -0.14     0.19  -0.18   0.25     0.35   0.19  -0.09
    19   1     0.05  -0.06   0.15    -0.11  -0.15  -0.02    -0.13   0.30  -0.10
    20   1     0.02  -0.17  -0.02    -0.19   0.02   0.02    -0.06  -0.05   0.05
    21   1     0.21  -0.31  -0.02     0.13   0.04  -0.01     0.07   0.13  -0.06
    22   1     0.17  -0.30  -0.20    -0.16   0.15   0.11    -0.16   0.09   0.03
    23   1    -0.05  -0.06  -0.15    -0.11   0.15  -0.02    -0.13  -0.30  -0.10
    24   1    -0.02  -0.17   0.02    -0.19  -0.02   0.02    -0.06   0.05   0.05
    25   1    -0.21  -0.31   0.02     0.13  -0.04  -0.01     0.07  -0.13  -0.06
    26   1    -0.17  -0.30   0.20    -0.16  -0.15   0.11    -0.16  -0.09   0.03
                     25                     26                     27
                      A                      A                      A
 Frequencies --    896.3547               943.4930               964.8918
 Red. masses --      2.5885                 2.3214                 1.5224
 Frc consts  --      1.2254                 1.2175                 0.8351
 IR Inten    --      0.0837                 0.4325                 0.5036
  Atom  AN      X      Y      Z        X      Y      Z        X      Y      Z
     1   8    -0.00   0.01   0.00     0.01   0.00  -0.01    -0.01   0.00   0.00
     2   6    -0.00   0.00  -0.00     0.00  -0.00   0.08    -0.00  -0.00  -0.01
     3   6     0.05   0.01  -0.12     0.02  -0.00  -0.02     0.01   0.09  -0.01
     4   6     0.01  -0.06   0.14    -0.00  -0.01   0.00    -0.01  -0.04   0.04
     5   6    -0.01  -0.06  -0.14    -0.00   0.01   0.00    -0.01   0.04   0.04
     6   6    -0.05   0.01   0.12     0.02   0.00  -0.02     0.01  -0.09  -0.01
     7   6     0.13  -0.02  -0.02    -0.12  -0.09  -0.00     0.04   0.05  -0.03
     8   6    -0.02   0.07  -0.01     0.08  -0.14   0.04    -0.02   0.00   0.02
     9   6    -0.01  -0.03   0.05     0.05   0.01  -0.03     0.02  -0.06  -0.02
    10   6     0.04   0.03   0.01    -0.03   0.04  -0.00    -0.01   0.05  -0.01
    11   6    -0.13  -0.02   0.02    -0.12   0.09  -0.00     0.04  -0.05  -0.03
    12   6     0.02   0.07   0.01     0.08   0.14   0.04    -0.02  -0.00   0.02
    13   6     0.01  -0.03  -0.05     0.05  -0.01  -0.03     0.02   0.06  -0.02
    14   6    -0.04   0.03  -0.01    -0.03  -0.04  -0.00    -0.01  -0.05  -0.01
    15   1     0.12  -0.02  -0.26     0.10  -0.03   0.01    -0.06   0.12   0.02
    16   1    -0.01  -0.23   0.22    -0.02  -0.01   0.01    -0.06  -0.04   0.07
    17   1     0.01  -0.23  -0.22    -0.02   0.01   0.01    -0.06   0.04   0.07
    18   1    -0.12  -0.02   0.26     0.10   0.03   0.01    -0.06  -0.12   0.02
    19   1     0.34   0.03   0.04    -0.31  -0.26   0.01     0.09   0.27  -0.13
    20   1    -0.10   0.17  -0.00     0.11  -0.20   0.05    -0.13   0.11   0.04
    21   1     0.04  -0.13   0.10    -0.06   0.24  -0.05    -0.20   0.37   0.15
    22   1     0.19   0.11   0.11     0.10  -0.34  -0.16     0.14  -0.29  -0.12
    23   1    -0.34   0.03  -0.04    -0.31   0.26   0.01     0.09  -0.27  -0.13
    24   1     0.10   0.17   0.00     0.11   0.20   0.05    -0.13  -0.11   0.04
    25   1    -0.04  -0.13  -0.10    -0.06  -0.24  -0.05    -0.20  -0.37   0.15
    26   1    -0.19   0.11  -0.11     0.10   0.34  -0.16     0.14   0.29  -0.12
                     28                     29                     30
                      A                      A                      A
 Frequencies --    977.8969               982.7008               989.8196
 Red. masses --      1.3510                 2.1647                 2.4590
 Frc consts  --      0.7612                 1.2317                 1.4195
 IR Inten    --      0.0034                 1.9196                 0.1842
  Atom  AN      X      Y      Z        X      Y      Z        X      Y      Z
     1   8    -0.00  -0.00  -0.00     0.00  -0.00   0.00    -0.00  -0.00  -0.01
     2   6    -0.00  -0.00   0.00     0.00   0.02  -0.00    -0.00   0.00   0.03
     3   6    -0.00  -0.00  -0.01    -0.02  -0.02  -0.07     0.01   0.12  -0.04
     4   6     0.02   0.00   0.00     0.12  -0.02   0.04    -0.05  -0.04   0.09
     5   6    -0.02   0.00  -0.00    -0.12  -0.02  -0.04    -0.05   0.04   0.09
     6   6     0.00  -0.00   0.01     0.02  -0.02   0.07     0.01  -0.12  -0.04
     7   6    -0.01   0.01  -0.01    -0.06   0.04  -0.04    -0.01   0.02  -0.04
     8   6    -0.01  -0.02   0.01    -0.03  -0.04   0.08     0.04  -0.09   0.06
     9   6    -0.01   0.08   0.01     0.10   0.01  -0.01    -0.04   0.06   0.02
    10   6     0.03  -0.07  -0.03     0.03   0.03  -0.05     0.08  -0.02  -0.09
    11   6     0.01   0.01   0.01     0.06   0.04   0.04    -0.01  -0.02  -0.04
    12   6     0.01  -0.02  -0.01     0.03  -0.04  -0.08     0.04   0.09   0.06
    13   6     0.01   0.08  -0.01    -0.10   0.01   0.01    -0.04  -0.06   0.02
    14   6    -0.03  -0.07   0.03    -0.03   0.03   0.05     0.08   0.02  -0.09
    15   1    -0.02   0.01  -0.02    -0.12   0.03  -0.17    -0.08   0.17  -0.06
    16   1     0.05  -0.00  -0.01     0.32  -0.15  -0.04    -0.20  -0.03   0.17
    17   1    -0.05  -0.00   0.01    -0.32  -0.15   0.04    -0.20   0.03   0.17
    18   1     0.02   0.01   0.02     0.12   0.03   0.17    -0.08  -0.17  -0.06
    19   1    -0.05   0.02  -0.03    -0.20   0.13  -0.15    -0.12   0.18  -0.18
    20   1    -0.04  -0.07   0.05    -0.19  -0.20   0.23     0.01  -0.08   0.08
    21   1     0.23  -0.39  -0.16     0.00   0.22   0.07     0.14  -0.30  -0.02
    22   1    -0.23   0.41   0.11     0.07  -0.06  -0.09    -0.14   0.33   0.00
    23   1     0.05   0.02   0.03     0.20   0.13   0.15    -0.12  -0.18  -0.18
    24   1     0.04  -0.07  -0.05     0.19  -0.20  -0.23     0.01   0.08   0.08
    25   1    -0.23  -0.39   0.16    -0.00   0.22  -0.07     0.14   0.30  -0.02
    26   1     0.23   0.41  -0.11    -0.07  -0.06   0.09    -0.14  -0.33   0.00
                     31                     32                     33
                      A                      A                      A
 Frequencies --   1036.6725              1040.4165              1050.3255
 Red. masses --      3.6213                 5.6062                 2.1878
 Frc consts  --      2.2929                 3.5754                 1.4221
 IR Inten    --      0.1028                 1.4132                 1.6595
  Atom  AN      X      Y      Z        X      Y      Z        X      Y      Z
     1   8     0.02   0.00   0.02    -0.00   0.00  -0.00    -0.00   0.00   0.00
     2   6     0.01  -0.00  -0.13    -0.00  -0.07   0.00    -0.00  -0.01  -0.00
     3   6    -0.03  -0.06   0.09    -0.15  -0.03  -0.03    -0.01   0.01   0.10
     4   6    -0.11   0.22  -0.06     0.03   0.06   0.20     0.12   0.01  -0.03
     5   6    -0.11  -0.22  -0.06    -0.03   0.06  -0.20    -0.12   0.01   0.03
     6   6    -0.03   0.06   0.09     0.15  -0.03   0.03     0.01   0.01  -0.10
     7   6     0.03   0.03  -0.03    -0.09   0.08   0.17     0.11  -0.02   0.08
     8   6    -0.03  -0.08   0.07    -0.10  -0.06  -0.19    -0.06   0.01   0.01
     9   6     0.08   0.03   0.01     0.09   0.07  -0.00     0.05   0.01   0.01
    10   6     0.05   0.08  -0.06    -0.08  -0.07   0.14     0.03  -0.01  -0.01
    11   6     0.03  -0.03  -0.03     0.09   0.08  -0.17    -0.11  -0.02  -0.08
    12   6    -0.03   0.08   0.07     0.10  -0.06   0.19     0.06   0.01  -0.01
    13   6     0.08  -0.03   0.01    -0.09   0.07   0.00    -0.05   0.01  -0.01
    14   6     0.05  -0.08  -0.06     0.08  -0.07  -0.14    -0.03  -0.01   0.01
    15   1     0.07  -0.10  -0.03    -0.08  -0.06  -0.06     0.08  -0.03   0.41
    16   1    -0.31   0.21   0.07    -0.10   0.07   0.28     0.25  -0.03  -0.09
    17   1    -0.31  -0.21   0.07     0.10   0.07  -0.28    -0.25  -0.03   0.09
    18   1     0.07   0.10  -0.03     0.08  -0.06   0.06    -0.08  -0.03  -0.41
    19   1     0.19  -0.00   0.06    -0.06  -0.03   0.25     0.27  -0.14   0.21
    20   1    -0.27  -0.04   0.18    -0.06  -0.02  -0.23    -0.12   0.04   0.03
    21   1     0.11  -0.02   0.19     0.09   0.08  -0.07     0.02   0.07   0.18
    22   1     0.10  -0.05  -0.12    -0.01  -0.16   0.12    -0.05   0.07  -0.01
    23   1     0.19   0.00   0.06     0.06  -0.03  -0.25    -0.27  -0.14  -0.21
    24   1    -0.27   0.04   0.18     0.06  -0.02   0.23     0.12   0.04  -0.03
    25   1     0.11   0.02   0.19    -0.09   0.08   0.07    -0.02   0.07  -0.18
    26   1     0.10   0.05  -0.12     0.01  -0.16  -0.12     0.05   0.07   0.01
                     34                     35                     36
                      A                      A                      A
 Frequencies --   1052.7384              1080.0634              1096.6403
 Red. masses --      1.9544                 1.8785                 2.1862
 Frc consts  --      1.2762                 1.2911                 1.5490
 IR Inten    --      1.4638                 0.7720                 0.0293
  Atom  AN      X      Y      Z        X      Y      Z        X      Y      Z
     1   8    -0.00  -0.00   0.01    -0.00   0.01  -0.00     0.00   0.00   0.01
     2   6    -0.00   0.00  -0.04     0.00  -0.05   0.00    -0.00  -0.00  -0.04
     3   6     0.00   0.00   0.11    -0.02   0.04  -0.00     0.02   0.02   0.08
     4   6     0.09  -0.01  -0.05    -0.09   0.01   0.01    -0.02   0.06  -0.01
     5   6     0.09   0.01  -0.05     0.09   0.01  -0.01    -0.02  -0.06  -0.01
     6   6     0.00  -0.00   0.11     0.02   0.04   0.00     0.02  -0.02   0.08
     7   6    -0.04   0.04  -0.06     0.05   0.00   0.01    -0.09   0.07  -0.07
     8   6     0.01  -0.05   0.04    -0.08  -0.02   0.10     0.09   0.09  -0.06
     9   6    -0.01   0.04  -0.03     0.03   0.00  -0.06    -0.04  -0.04   0.04
    10   6    -0.05  -0.03   0.01    -0.06  -0.00  -0.02     0.03   0.03   0.02
    11   6    -0.04  -0.04  -0.06    -0.05   0.00  -0.01    -0.09  -0.07  -0.07
    12   6     0.01   0.05   0.04     0.08  -0.02  -0.10     0.09  -0.09  -0.06
    13   6    -0.01  -0.04  -0.03    -0.03   0.00   0.06    -0.04   0.04   0.04
    14   6    -0.05   0.03   0.01     0.06  -0.00   0.02     0.03  -0.03   0.02
    15   1    -0.01   0.00   0.38     0.15  -0.03  -0.05     0.02   0.02   0.11
    16   1     0.17   0.02  -0.11    -0.27   0.04   0.11    -0.17  -0.01   0.11
    17   1     0.17  -0.02  -0.11     0.27   0.04  -0.11    -0.17   0.01   0.11
    18   1    -0.01  -0.00   0.38    -0.15  -0.03   0.05     0.02  -0.02   0.11
    19   1     0.02   0.28  -0.16     0.14  -0.00   0.05    -0.29   0.06  -0.14
    20   1    -0.20   0.03   0.13    -0.31  -0.14   0.28     0.38  -0.04  -0.17
    21   1     0.04  -0.04  -0.31    -0.01   0.09  -0.23    -0.05  -0.02   0.06
    22   1    -0.10   0.00   0.01    -0.24  -0.05  -0.12     0.29   0.02   0.12
    23   1     0.02  -0.28  -0.16    -0.14  -0.00  -0.05    -0.29  -0.06  -0.14
    24   1    -0.20  -0.03   0.13     0.31  -0.14  -0.28     0.38   0.04  -0.17
    25   1     0.04   0.04  -0.31     0.01   0.09   0.23    -0.05   0.02   0.06
    26   1    -0.10  -0.00   0.01     0.24  -0.05   0.12     0.29  -0.02   0.12
                     37                     38                     39
                      A                      A                      A
 Frequencies --   1130.9980              1147.2706              1157.8930
 Red. masses --      1.4905                 4.9443                 1.2552
 Frc consts  --      1.1233                 3.8343                 0.9915
 IR Inten    --      0.6317                44.2008                 0.7706
  Atom  AN      X      Y      Z        X      Y      Z        X      Y      Z
     1   8     0.03  -0.00  -0.01    -0.00  -0.07   0.00     0.01  -0.00  -0.00
     2   6     0.01   0.00   0.03    -0.00   0.45  -0.00     0.00   0.00   0.01
     3   6    -0.04  -0.03  -0.06     0.06  -0.24   0.01    -0.01   0.00   0.01
     4   6    -0.04   0.01   0.03    -0.03   0.04   0.04     0.01  -0.00  -0.00
     5   6    -0.04  -0.01   0.03     0.03   0.04  -0.04     0.01   0.00  -0.00
     6   6    -0.04   0.03  -0.06    -0.06  -0.24  -0.01    -0.01  -0.00   0.01
     7   6    -0.02  -0.10   0.03     0.04   0.03   0.08    -0.06  -0.02   0.00
     8   6     0.03   0.02  -0.01    -0.02  -0.01   0.02     0.06  -0.03  -0.03
     9   6    -0.01  -0.01   0.01    -0.00  -0.00  -0.02    -0.02   0.01   0.01
    10   6     0.02   0.01  -0.01     0.00  -0.01  -0.01     0.01  -0.00   0.02
    11   6    -0.02   0.10   0.03    -0.04   0.03  -0.08    -0.06   0.02   0.00
    12   6     0.03  -0.02  -0.01     0.02  -0.01  -0.02     0.06   0.03  -0.03
    13   6    -0.01   0.01   0.01     0.00  -0.00   0.02    -0.02  -0.01   0.01
    14   6     0.02  -0.01  -0.01    -0.00  -0.01   0.01     0.01   0.00   0.02
    15   1     0.22  -0.14   0.31     0.18  -0.30  -0.00     0.12  -0.05  -0.25
    16   1     0.08   0.25  -0.14    -0.07   0.26  -0.02    -0.09  -0.21   0.14
    17   1     0.08  -0.25  -0.14     0.07   0.26   0.02    -0.09   0.21   0.14
    18   1     0.22   0.14   0.31    -0.18  -0.30   0.00     0.12   0.05  -0.25
    19   1     0.06   0.39  -0.20     0.01   0.32  -0.09     0.22   0.06   0.08
    20   1     0.02   0.11  -0.05    -0.03  -0.03   0.03    -0.22   0.44  -0.08
    21   1     0.00  -0.03   0.12    -0.02   0.04  -0.04    -0.00  -0.03  -0.08
    22   1     0.04   0.02  -0.00    -0.10  -0.01  -0.04     0.13   0.01   0.07
    23   1     0.06  -0.39  -0.20    -0.01   0.32   0.09     0.22  -0.06   0.08
    24   1     0.02  -0.11  -0.05     0.03  -0.03  -0.03    -0.22  -0.44  -0.08
    25   1     0.00   0.03   0.12     0.02   0.04   0.04    -0.00   0.03  -0.08
    26   1     0.04  -0.02  -0.00     0.10  -0.01   0.04     0.13  -0.01   0.07
                     40                     41                     42
                      A                      A                      A
 Frequencies --   1173.6813              1195.4493              1204.5661
 Red. masses --      1.1469                 1.3622                 1.0781
 Frc consts  --      0.9309                 1.1470                 0.9216
 IR Inten    --      0.0053                 0.2728                 0.4451
  Atom  AN      X      Y      Z        X      Y      Z        X      Y      Z
     1   8     0.00   0.00   0.00     0.00   0.02   0.00    -0.01  -0.00   0.00
     2   6     0.00  -0.01   0.00     0.00  -0.05  -0.00    -0.00   0.00  -0.01
     3   6    -0.00   0.01   0.02     0.10  -0.05  -0.00     0.02  -0.00   0.01
     4   6     0.03  -0.00  -0.02     0.00   0.02   0.01    -0.00   0.01  -0.02
     5   6    -0.03  -0.00   0.02    -0.00   0.02  -0.01    -0.00  -0.01  -0.02
     6   6     0.00   0.01  -0.02    -0.10  -0.05   0.00     0.02   0.00   0.01
     7   6     0.05   0.00   0.02     0.01   0.01   0.03    -0.00   0.03  -0.00
     8   6    -0.04   0.01   0.00    -0.01   0.00   0.02     0.01  -0.03  -0.01
     9   6     0.02   0.01   0.00     0.00  -0.00  -0.01     0.01   0.02   0.01
    10   6    -0.00   0.00  -0.01     0.00   0.00  -0.01    -0.01   0.00   0.00
    11   6    -0.05   0.00  -0.02    -0.01   0.01  -0.03    -0.00  -0.03  -0.00
    12   6     0.04   0.01  -0.00     0.01   0.00  -0.02     0.01   0.03  -0.01
    13   6    -0.02   0.01  -0.00    -0.00  -0.00   0.01     0.01  -0.02   0.01
    14   6     0.00   0.00   0.01    -0.00   0.00   0.01    -0.01  -0.00   0.00
    15   1     0.05  -0.01  -0.26    -0.60   0.24   0.06    -0.06   0.03   0.09
    16   1    -0.17  -0.09   0.13    -0.12   0.05   0.08     0.13  -0.09  -0.06
    17   1     0.17  -0.09  -0.13     0.12   0.05  -0.08     0.13   0.09  -0.06
    18   1    -0.05  -0.01   0.26     0.60   0.24  -0.06    -0.06  -0.03   0.09
    19   1    -0.19   0.05  -0.11     0.12   0.07   0.05    -0.11  -0.05  -0.01
    20   1     0.23  -0.04  -0.13     0.03  -0.05   0.02     0.07   0.29  -0.17
    21   1     0.04  -0.07   0.36    -0.00   0.00   0.03     0.06  -0.12   0.39
    22   1    -0.29  -0.08  -0.16    -0.06  -0.01  -0.04    -0.31  -0.12  -0.19
    23   1     0.19   0.05   0.11    -0.12   0.07  -0.05    -0.11   0.05  -0.01
    24   1    -0.23  -0.04   0.13    -0.03  -0.05  -0.02     0.07  -0.29  -0.17
    25   1    -0.04  -0.07  -0.36     0.00   0.00  -0.03     0.06   0.12   0.39
    26   1     0.29  -0.08   0.16     0.06  -0.01   0.04    -0.31   0.12  -0.19
                     43                     44                     45
                      A                      A                      A
 Frequencies --   1219.8424              1248.9881              1258.6471
 Red. masses --      1.3501                 1.4058                 1.5311
 Frc consts  --      1.1836                 1.2921                 1.4291
 IR Inten    --      1.7647                 0.5771                 1.0785
  Atom  AN      X      Y      Z        X      Y      Z        X      Y      Z
     1   8     0.04  -0.00   0.00     0.00   0.00   0.00     0.03  -0.00   0.00
     2   6     0.01   0.00  -0.01     0.00  -0.01  -0.00     0.00   0.00  -0.01
     3   6    -0.10   0.02   0.02     0.01   0.01   0.05    -0.06   0.06   0.00
     4   6     0.03  -0.01  -0.00     0.02  -0.01  -0.06    -0.03  -0.04   0.01
     5   6     0.03   0.01  -0.00    -0.02  -0.01   0.06    -0.03   0.04   0.01
     6   6    -0.10  -0.02   0.02    -0.01   0.01  -0.05    -0.06  -0.06   0.00
     7   6     0.01   0.01  -0.03     0.03  -0.02   0.05     0.04   0.09   0.02
     8   6    -0.00   0.03   0.03    -0.07   0.01  -0.01    -0.02  -0.04  -0.01
     9   6    -0.01  -0.01   0.00    -0.00   0.00  -0.03     0.00   0.02  -0.02
    10   6    -0.00   0.01  -0.02     0.02   0.00   0.02     0.01  -0.01   0.01
    11   6     0.01  -0.01  -0.03    -0.03  -0.02  -0.05     0.04  -0.09   0.02
    12   6    -0.00  -0.03   0.03     0.07   0.01   0.01    -0.02   0.04  -0.01
    13   6    -0.01   0.01   0.00     0.00   0.00   0.03     0.00  -0.02  -0.02
    14   6    -0.00  -0.01  -0.02    -0.02   0.00  -0.02     0.01   0.01   0.01
    15   1     0.39  -0.19  -0.13    -0.01   0.02  -0.22     0.38  -0.13   0.03
    16   1     0.07  -0.34   0.09    -0.05  -0.18   0.04     0.10   0.24  -0.17
    17   1     0.07   0.34   0.09     0.05  -0.18  -0.04     0.10  -0.24  -0.17
    18   1     0.39   0.19  -0.13     0.01   0.02   0.22     0.38   0.13   0.03
    19   1     0.08   0.06  -0.03    -0.05   0.19  -0.10    -0.26  -0.23   0.06
    20   1     0.14  -0.23   0.06     0.16  -0.19  -0.06    -0.05   0.20  -0.09
    21   1    -0.00  -0.02   0.09    -0.05   0.11  -0.33    -0.01   0.04  -0.08
    22   1    -0.18  -0.04  -0.12     0.32   0.11   0.20     0.15   0.05   0.10
    23   1     0.08  -0.06  -0.03     0.05   0.19   0.10    -0.26   0.22   0.06
    24   1     0.14   0.23   0.06    -0.16  -0.19   0.06    -0.05  -0.20  -0.09
    25   1    -0.00   0.02   0.09     0.05   0.11   0.33    -0.01  -0.04  -0.08
    26   1    -0.18   0.04  -0.12    -0.32   0.11  -0.20     0.15  -0.05   0.10
                     46                     47                     48
                      A                      A                      A
 Frequencies --   1259.1051              1277.6292              1299.7510
 Red. masses --      1.3468                 1.4393                 1.4687
 Frc consts  --      1.2580                 1.3842                 1.4618
 IR Inten    --      0.0007                 0.0849                 0.4110
  Atom  AN      X      Y      Z        X      Y      Z        X      Y      Z
     1   8     0.00   0.00   0.00     0.00   0.00   0.00     0.00  -0.00   0.00
     2   6     0.00  -0.02  -0.00     0.00  -0.01  -0.00    -0.00   0.00   0.00
     3   6    -0.02   0.03  -0.01    -0.02   0.00   0.05     0.02   0.04   0.04
     4   6    -0.01  -0.00   0.03     0.02   0.02  -0.04     0.01  -0.08  -0.03
     5   6     0.01  -0.00  -0.03    -0.02   0.02   0.04     0.01   0.08  -0.03
     6   6     0.02   0.03   0.01     0.02   0.00  -0.05     0.02  -0.04   0.04
     7   6    -0.07  -0.07   0.01    -0.06  -0.02   0.07    -0.06   0.01  -0.02
     8   6    -0.01   0.05   0.00     0.07  -0.03   0.01     0.04   0.03  -0.01
     9   6     0.01  -0.00   0.01    -0.01  -0.00   0.02     0.01  -0.01   0.03
    10   6    -0.01  -0.00  -0.01     0.01   0.01  -0.01    -0.03  -0.02  -0.02
    11   6     0.07  -0.07  -0.01     0.06  -0.02  -0.07    -0.06  -0.01  -0.02
    12   6     0.01   0.05  -0.00    -0.07  -0.03  -0.01     0.04  -0.03  -0.01
    13   6    -0.01  -0.00  -0.01     0.01  -0.00  -0.02     0.01   0.01   0.03
    14   6     0.01  -0.00   0.01    -0.01   0.01   0.01    -0.03   0.02  -0.02
    15   1     0.09  -0.02   0.12    -0.01  -0.00  -0.22     0.09   0.01  -0.22
    16   1     0.07   0.07  -0.05    -0.05  -0.25   0.10    -0.16   0.47  -0.13
    17   1    -0.07   0.07   0.05     0.05  -0.25  -0.10    -0.16  -0.47  -0.13
    18   1    -0.08  -0.02  -0.12     0.01  -0.00   0.22     0.09  -0.01  -0.22
    19   1     0.36   0.39  -0.06     0.21   0.30   0.01     0.24  -0.03   0.12
[...]
 01599338,-0.07778924,-0.03982013,0.07737509,-0.00942783,-0.01063652,0.
 02559121,-0.00269766,-0.00237504,-0.00246616,0.00024945,0.00012209,0.0
 0084184,-0.00057430,0.00112850,-0.00511456,-0.00201529,-0.00147551,-0.
 00081177,0.00032439,-0.00028229,-0.00035445,-0.00022493,0.00003706,0.0
 0005811,-0.00025173,0.00014595,-0.00043679,0.00002788,-0.00005068,0.00
 001846,0.00066062,0.00028715,-0.00083124,0.00083312,-0.00009158,0.0007
 9663,0.08368354,0.00073683,0.00044361,-0.00022428,-0.00082841,-0.00148
 354,0.00010128,-0.00087279,-0.00410735,-0.00064928,0.00008026,-0.00041
 231,-0.00017681,-0.00158094,0.00030535,-0.00261216,0.00354466,0.005895
 72,-0.00979161,-0.03922257,-0.10110728,0.10196551,0.00082239,0.0019584
 8,-0.00664284,0.00129033,-0.00012566,0.00010373,-0.00018718,0.00007162
 ,0.00006283,-0.00788987,-0.00771086,0.02546830,-0.00070956,-0.00226286
 ,-0.00036944,-0.00068857,0.00001290,-0.00003112,0.00002602,0.00006986,
 -0.00014803,0.00053744,-0.00015124,0.00115292,-0.00004670,0.00010926,0
 .00011427,0.00034128,0.00020976,-0.00081307,0.00095554,0.00050611,0.00
 043676,0.04466573,0.10456558,-0.00102061,0.00018701,0.00047835,0.00167
 992,-0.00124624,-0.00091236,0.00024486,-0.00024596,0.00024379,0.000074
 52,-0.00034427,0.00055615,-0.00403624,-0.00156746,-0.00341141,0.008215
 91,0.01167564,-0.01953716,0.07543503,0.10005418,-0.23535787,-0.0013583
 2,0.00072438,-0.00075064,0.00032231,-0.00026406,0.00018023,-0.00057950
 ,0.00016884,0.00052531,-0.00223077,-0.00157453,0.00486058,-0.00007455,
 -0.00055248,-0.00021886,-0.00007061,0.00005367,0.00008841,-0.00017935,
 -0.00001771,-0.00000122,0.00013036,0.00000425,0.00002454,-0.00004513,0
 .00000946,0.00005052,0.00098813,0.00050170,-0.00134893,0.00037297,-0.0
 0051759,0.00123727,-0.07798444,-0.10757071,0.25090947,-0.00066202,0.00
 085027,0.00041901,-0.00044291,-0.00219272,-0.00140556,0.00047866,0.000
 29943,0.00016850,-0.00015293,0.00006230,-0.00003241,-0.00046172,-0.000
 52489,0.00101239,-0.00412470,0.00291054,0.00086564,-0.01144870,0.00795
 133,-0.02556697,-0.10742502,0.04411382,-0.10060771,0.00718738,-0.00515
 501,0.01063000,-0.00017795,0.00172132,0.00232143,-0.00079868,0.0005120
 6,0.00139691,0.00192254,-0.00221540,0.00505047,0.00002344,-0.00094089,
 -0.00023577,-0.00016116,0.00011340,0.00032707,0.00006115,0.00008814,-0
 .00012063,0.00002480,0.00001398,-0.00001045,0.00011037,-0.00002246,-0.
 00005218,-0.00027827,-0.00003835,-0.00026094,0.00184350,-0.00085266,-0
 .00011661,0.11216186,-0.00012165,0.00033806,0.00022640,-0.00008387,-0.
 00106878,-0.00045693,0.00044378,0.00038997,-0.00010479,-0.00042357,-0.
 00017108,-0.00019219,0.00024838,-0.00040180,0.00001026,-0.00180347,0.0
 0042893,-0.00071561,-0.00121039,0.00104181,-0.00522324,0.04420301,-0.0
 7647317,0.07938642,-0.00777096,0.00600898,-0.01665357,0.00195040,-0.00
 113501,-0.00149499,0.00054219,-0.00152343,-0.00136526,0.01077871,-0.01
 315795,0.02429999,0.00240486,-0.00305261,-0.00192061,-0.00074369,-0.00
 008318,0.00116539,-0.00004135,0.00003868,0.00000637,0.00007193,0.00005
 702,0.00002365,-0.00004194,0.00013671,0.00003285,-0.00008985,0.0000231
 6,-0.00011588,0.00068433,0.00097986,-0.00012528,-0.04783593,0.08551778
 ,-0.00014612,-0.00003698,-0.00010810,0.00032042,0.00005718,0.00027050,
 -0.00008452,0.00005669,-0.00014752,-0.00013446,-0.00023075,0.00013319,
 0.00065164,0.00029825,0.00030099,0.00074645,-0.00019918,0.00021605,0.0
 0335647,-0.00160203,0.00432958,-0.09877146,0.07487145,-0.22682063,-0.0
 1468610,0.00989376,-0.02279115,0.00411317,-0.00254931,-0.00357958,0.00
 011732,-0.00010743,-0.00030118,-0.00030109,-0.00168778,-0.00008148,0.0
 0019264,0.00019646,0.00020028,0.00015952,-0.00015739,0.00022655,-0.000
 01970,0.00000967,0.00007570,-0.00003264,0.00005787,-0.00000186,-0.0001
 1236,0.00002981,0.00004417,-0.00004688,0.00000240,0.00000832,-0.000318
 24,0.00011532,0.00134728,0.10585564,-0.07773376,0.24455815,-0.00012848
 ,-0.00005383,0.00003234,0.00037250,0.00008552,-0.00012013,-0.00006295,
 0.00017191,0.00001457,-0.00061809,0.00036592,0.00002289,0.00301725,0.0
 0264598,-0.00420759,0.00103329,-0.00023678,0.00039901,-0.00002940,0.00
 091882,0.00090490,-0.00375004,0.00266120,-0.00173841,-0.27724197,0.116
 55998,-0.00781099,-0.01295108,0.00920267,0.00156776,-0.00049209,0.0003
 4463,0.00003719,-0.00067774,-0.00068151,0.00046916,-0.00003774,-0.0001
 7854,0.00006841,-0.00028078,0.00000028,0.00005344,-0.00011736,0.000021
 92,0.00000329,0.00002577,0.00022304,0.00001399,-0.00041403,0.00030789,
 -0.00001658,-0.00008721,-0.00004535,0.00002130,-0.00014507,0.00006229,
 0.00007936,0.00075857,-0.00040700,0.00015893,0.29227033,0.00026133,-0.
 00019594,0.00000378,-0.00004645,0.00061455,-0.00007849,-0.00013375,0.0
 0012847,-0.00004787,-0.00136150,0.00080926,-0.00013376,0.00443017,0.00
 894190,-0.00201057,0.00102935,-0.00070647,0.00091788,-0.00361218,0.000
 04177,-0.00191687,0.01426653,-0.00109481,0.00079686,0.11791565,-0.0940
 1437,-0.00335311,0.00017888,0.00355666,-0.00145790,0.00000981,0.000300
 23,0.00026943,-0.00046035,-0.00119827,-0.00035009,-0.00015964,0.000042
 48,-0.00045538,-0.00049227,0.00023017,0.00026288,-0.00010843,-0.000014
 89,0.00010021,-0.00001575,0.00035219,0.00005877,0.00084295,-0.00026344
 ,-0.00022113,-0.00000474,-0.00003520,0.00011556,0.00065806,-0.00032643
 ,-0.00002572,-0.00099962,0.00042651,-0.00017878,-0.12908353,0.08807107
 ,-0.00001602,0.00012429,-0.00008245,-0.00011328,-0.00035699,0.00018196
 ,0.00011583,-0.00011604,-0.00023657,0.00024450,-0.00054904,-0.00016486
 ,-0.00254363,-0.00333410,-0.00349762,-0.00044209,0.00038694,-0.0004216
 9,0.00058235,-0.00247684,-0.00313002,0.02234207,-0.00962115,0.00230716
 ,-0.00460879,-0.00526711,-0.05512218,-0.02672455,0.01303197,0.00356313
 ,0.00074748,-0.00028354,0.00011082,0.00064938,0.00008240,-0.00098504,0
 .00008929,0.00028712,-0.00013630,0.00002592,-0.00017057,0.00015979,0.0
 0007935,0.00000558,0.00016107,0.00002245,0.00005061,0.00005992,-0.0016
 3625,0.00064456,0.00003203,0.00004237,0.00004305,0.00010793,0.00065476
 ,-0.00019834,-0.00007422,-0.00019061,0.00077219,0.00138831,0.00933353,
 0.00559188,0.05521195,-0.00059015,0.00041725,-0.00040623,-0.00003332,-
 0.00118592,0.00121307,0.00022315,0.00064037,-0.00051667,-0.00174290,-0
 .00030265,0.00074816,-0.00607964,0.01108770,0.02020041,-0.00315412,0.0
 0276431,0.00063944,-0.00061373,-0.00007348,-0.00115363,0.00045162,0.00
 435644,-0.00412156,0.01001295,-0.00825854,-0.01632229,-0.08273773,0.04
 902982,0.07552848,-0.00013238,-0.00007205,-0.00007716,-0.00034963,0.00
 065891,0.00043844,0.00011334,0.00019159,0.00017629,-0.00016313,-0.0003
 7784,0.00002322,-0.00006506,0.00002040,0.00021800,-0.00010182,0.000330
 12,0.00003004,0.00122632,-0.00050125,0.00011876,-0.00006426,-0.0001097
 0,0.00008078,0.00023482,-0.00004945,0.00007255,0.00062994,-0.00060011,
 -0.00129244,-0.00044534,-0.00310130,0.00115495,0.08319691,0.00007285,-
 0.00033485,0.00000454,0.00020177,0.00087622,-0.00021484,-0.00006032,-0
 .00019642,-0.00011413,0.00071645,-0.00071947,0.00051100,0.00367866,-0.
 00103699,-0.01202216,0.00052444,-0.00135796,0.00249621,-0.00097271,-0.
 00007738,-0.00084366,0.00416782,0.00853553,-0.00365861,0.00136802,0.00
 429053,0.00224298,0.04835967,-0.09399960,-0.10956011,0.00005485,-0.000
 02460,0.00005627,-0.00034096,0.00104298,0.00148746,-0.00035766,0.00013
 447,0.00057978,0.00018175,0.00003822,0.00006484,-0.00000332,-0.0000723
 5,-0.00006756,0.00012042,-0.00029894,-0.00000626,-0.00021712,0.0005965
 9,0.00081195,0.00013780,-0.00003118,-0.00023903,0.00013109,-0.00003312
 ,-0.00000751,0.00063983,-0.00045970,-0.00084564,-0.00320356,-0.0049927
 8,0.00188276,-0.05492781,0.08806981,0.00020508,0.00001354,-0.00005650,
 -0.00025072,-0.00000584,0.00002986,0.00005694,-0.00000586,0.00008039,-
 0.00006292,0.00052130,-0.00027183,-0.00313877,0.00156421,0.00410223,-0
 .00020637,-0.00009655,0.00013925,-0.00018227,0.00015816,0.00066763,-0.
 00538025,-0.00062038,-0.00053626,0.01101872,-0.01387814,-0.01978405,0.
 07302195,-0.10654706,-0.24977319,-0.00005839,0.00010346,0.00004342,0.0
 0004750,-0.00025698,-0.00049896,0.00018876,0.00009678,-0.00029749,0.00
 007091,0.00008666,0.00011521,0.00003062,0.00001989,0.00002539,0.000002
 07,0.00000753,0.00002006,0.00035302,0.00010344,0.00099976,0.00002408,0
 .00004161,0.00003490,0.00001982,0.00001589,0.00000161,0.00034440,-0.00
 059083,-0.00086293,0.00074190,0.00213828,0.00044243,-0.07688220,0.1174
 4898,0.26528189,-0.00049387,0.00005621,0.00038410,0.00148984,0.0007791
 5,-0.00060940,0.00635068,-0.00799560,-0.01599336,-0.00331135,0.0009098
 0,-0.00163755,0.00042250,-0.00005166,0.00005730,0.00004309,-0.00187941
 ,0.00048925,-0.00057431,-0.00112850,-0.00511456,-0.00201529,0.00147552
 ,-0.00081177,0.00032439,0.00028228,-0.00035445,-0.00022493,-0.00003706
 ,0.00005811,-0.07778918,0.03982001,0.07737475,-0.00942783,0.01063653,0
 .02559119,-0.00269766,0.00237504,-0.00246615,0.00024945,-0.00012209,0.
 00084183,0.00083312,0.00009158,0.00079662,0.00066062,-0.00028714,-0.00
 083124,0.00002788,0.00005068,0.00001846,-0.00025173,-0.00014595,-0.000
 43679,0.00097580,0.00068193,0.00014679,-0.00016198,0.00075190,0.000026
 02,-0.00006724,-0.00005804,0.00006651,0.00002125,-0.00006607,0.0000320
 9,0.08368350,-0.00073683,0.00044361,0.00022428,0.00082842,-0.00148354,
 -0.00010128,-0.00354465,0.00589572,0.00979160,0.00158093,0.00030535,0.
 00261216,-0.00008026,-0.00041231,0.00017681,0.00087279,-0.00410735,0.0
 0064928,0.00788985,-0.00771083,-0.02546827,0.00070956,-0.00226286,0.00
 036944,0.00068857,0.00001290,0.00003112,-0.00002602,0.00006986,0.00014
 803,0.03922246,-0.10110737,-0.10196525,-0.00082238,0.00195848,0.006642
 83,-0.00129033,-0.00012566,-0.00010373,0.00018718,0.00007161,-0.000062
 83,-0.00095554,0.00050611,-0.00043676,-0.00034128,0.00020976,0.0008130
 7,0.00004670,0.00010926,-0.00011427,-0.00053743,-0.00015124,-0.0011529
 2,-0.00068193,0.00280631,0.00063401,0.00072536,-0.00006304,-0.00010954
 ,0.00012392,-0.00008449,-0.00020814,-0.00003329,-0.00006624,-0.0000072
 1,-0.04466562,0.10456563,-0.00102061,-0.00018701,0.00047835,0.00167992
 ,0.00124624,-0.00091236,0.00821591,-0.01167565,-0.01953718,-0.00403624
 ,0.00156746,-0.00341141,0.00007452,0.00034427,0.00055615,0.00024486,0.
 00024596,0.00024379,-0.00223078,0.00157453,0.00486059,-0.00007455,0.00
 055248,-0.00021885,-0.00007061,-0.00005367,0.00008841,-0.00017935,0.00
 001771,-0.00000122,0.07543470,-0.10005391,-0.23535712,-0.00135831,-0.0
 0072438,-0.00075065,0.00032231,0.00026406,0.00018023,-0.00057950,-0.00
 016884,0.00052531,0.00037297,0.00051759,0.00123727,0.00098813,-0.00050
 170,-0.00134894,-0.00004513,-0.00000946,0.00005052,0.00013036,-0.00000
 425,0.00002454,0.00014679,-0.00063402,0.00100980,-0.00011543,-0.000032
 04,0.00007421,0.00000195,-0.00000859,0.00004673,0.00004687,-0.00000572
 ,-0.00002158,-0.07798410,0.10757045,0.25090875,-0.00066203,-0.00085027
 ,0.00041901,-0.00044291,0.00219272,-0.00140556,-0.00412470,-0.00291055
 ,0.00086564,-0.00046172,0.00052489,0.00101239,-0.00015293,-0.00006230,
 -0.00003241,0.00047866,-0.00029943,0.00016850,-0.00079868,-0.00051206,
 0.00139691,0.00192254,0.00221540,0.00505047,0.00002344,0.00094089,-0.0
 0023577,-0.00016116,-0.00011340,0.00032707,-0.01144870,-0.00795132,-0.
 02556696,-0.10742470,-0.04411346,-0.10060697,0.00718737,0.00515501,0.0
 1062999,-0.00017795,-0.00172132,0.00232142,-0.00027827,0.00003835,-0.0
 0026094,0.00011037,0.00002246,-0.00005218,0.00002480,-0.00001398,-0.00
 001045,0.00006115,-0.00008814,-0.00012063,-0.00016198,-0.00072536,-0.0
 0011543,0.00110583,-0.00074386,0.00017872,-0.00003363,0.00007847,0.000
 10167,0.00002162,-0.00011077,0.00004340,0.00184350,0.00085266,-0.00011
 661,0.11216157,0.00012165,0.00033806,-0.00022640,0.00008387,-0.0010687
 8,0.00045693,0.00180347,0.00042893,0.00071561,-0.00024838,-0.00040179,
 -0.00001026,0.00042357,-0.00017108,0.00019219,-0.00044378,0.00038997,0
 .00010480,-0.00054219,-0.00152343,0.00136526,-0.01077870,-0.01315795,-
 0.02429998,-0.00240486,-0.00305261,0.00192061,0.00074368,-0.00008319,-
 0.00116540,0.00121039,0.00104181,0.00522322,-0.04420266,-0.07647309,-0
 .07938586,0.00777096,0.00600898,0.01665355,-0.00195039,-0.00113501,0.0
 0149499,0.00008985,0.00002316,0.00011588,0.00004194,0.00013671,-0.0000
 3285,-0.00007193,0.00005702,-0.00002365,0.00004135,0.00003868,-0.00000
 637,-0.00075190,-0.00006304,0.00003204,0.00074386,0.00206197,-0.000254
 85,0.00013480,-0.00025976,-0.00029935,0.00002706,0.00040008,-0.0002472
 8,-0.00068433,0.00097986,0.00012528,0.04783557,0.08551770,-0.00014612,
 0.00003698,-0.00010810,0.00032042,-0.00005718,0.00027050,0.00074645,0.
 00019918,0.00021605,0.00065163,-0.00029825,0.00030099,-0.00013446,0.00
 023075,0.00013319,-0.00008452,-0.00005670,-0.00014752,0.00011732,0.000
 10743,-0.00030118,-0.00030110,0.00168777,-0.00008149,0.00019264,-0.000
 19646,0.00020028,0.00015952,0.00015739,0.00022655,0.00335646,0.0016020
 2,0.00432956,-0.09877075,-0.07487090,-0.22681971,-0.01468608,-0.009893
 75,-0.02279110,0.00411317,0.00254932,-0.00357958,-0.00004688,-0.000002
 40,0.00000832,-0.00011236,-0.00002981,0.00004417,-0.00003264,-0.000057
 87,-0.00000186,-0.00001970,-0.00000967,0.00007570,0.00002602,0.0001095
 4,0.00007421,0.00017872,0.00025485,0.00152989,0.00004290,-0.00007268,-
 0.00005564,0.00002618,-0.00003188,0.00004691,-0.00031824,-0.00011531,0
 .00134728,0.10585493,0.07773322,0.24455722,-0.00012848,0.00005383,0.00
 003234,0.00037250,-0.00008552,-0.00012013,0.00103329,0.00023678,0.0003
 9901,0.00301726,-0.00264599,-0.00420757,-0.00061809,-0.00036592,0.0000
 2289,-0.00006295,-0.00017191,0.00001457,-0.00049208,-0.00034463,0.0000
 3719,-0.00067774,0.00068151,0.00046916,-0.00003774,0.00017854,0.000068
 41,-0.00028078,-0.00000028,0.00005344,-0.00002940,-0.00091881,0.000904
 90,-0.00375006,-0.00266121,-0.00173841,-0.27724287,-0.11656025,-0.0078
 1124,-0.01295102,-0.00920264,0.00156779,-0.00008721,0.00004535,0.00002
 130,-0.00041402,-0.00030788,-0.00001659,0.00002577,-0.00022304,0.00001
 399,-0.00011736,-0.00002192,0.00000329,-0.00006724,-0.00012392,0.00000
 195,-0.00003363,-0.00013480,0.00004290,0.00008247,-0.00004672,-0.00002
 463,0.00002005,-0.00001262,-0.00004849,-0.00014507,-0.00006229,0.00007
 936,0.00075857,0.00040700,0.00015893,0.29227118,-0.00026133,-0.0001959
 4,-0.00000378,0.00004644,0.00061455,0.00007849,-0.00102935,-0.00070647
 ,-0.00091788,-0.00443017,0.00894191,0.00201057,0.00136150,0.00080926,0
 .00013376,0.00013375,0.00012847,0.00004787,-0.00000981,0.00030023,-0.0
 0026943,0.00046035,-0.00119827,0.00035009,0.00015964,0.00004248,0.0004
 5538,0.00049227,0.00023017,-0.00026288,0.00361217,0.00004176,0.0019168
 8,-0.01426656,-0.00109481,-0.00079685,-0.11791585,-0.09401429,0.003353
 02,-0.00017889,0.00355665,0.00145788,0.00000474,-0.00003520,-0.0001155
 6,-0.00084295,-0.00026344,0.00022113,0.00001575,0.00035219,-0.00005877
 ,0.00010843,-0.00001489,-0.00010021,0.00005804,-0.00008449,0.00000859,
 -0.00007847,-0.00025976,0.00007268,0.00004672,-0.00023584,-0.00004190,
 -0.00001307,-0.00009257,-0.00001352,-0.00065806,-0.00032643,0.00002572
 ,0.00099962,0.00042651,0.00017877,0.12908377,0.08807100,-0.00001602,-0
 .00012429,-0.00008245,-0.00011328,0.00035699,0.00018196,-0.00044209,-0
 .00038694,-0.00042168,-0.00254361,0.00333410,-0.00349761,0.00024450,0.
 00054904,-0.00016486,0.00011583,0.00011604,-0.00023657,0.00074748,0.00
 028354,0.00011082,0.00064938,-0.00008240,-0.00098503,0.00008929,-0.000
 28712,-0.00013630,0.00002592,0.00017057,0.00015979,0.00058236,0.002476
 84,-0.00313002,0.02234208,0.00962116,0.00230715,-0.00460902,0.00526701
 ,-0.05512206,-0.02672455,-0.01303196,0.00356312,0.00004237,-0.00004305
 ,0.00010793,-0.00163625,-0.00064456,0.00003202,0.00002245,-0.00005061,
 0.00005992,0.00007935,-0.00000558,0.00016107,0.00006651,0.00020814,0.0
 0004673,0.00010167,0.00029935,-0.00005564,-0.00002463,0.00004190,0.000
 11427,0.00004741,-0.00001975,0.00001910,0.00065476,0.00019833,-0.00007
 422,-0.00019061,-0.00077220,0.00138830,0.00933374,-0.00559179,0.055211
 84,-0.00059016,-0.00041725,-0.00040623,-0.00003332,0.00118592,0.001213
 07,-0.00315412,-0.00276431,0.00063944,-0.00607965,-0.01108771,0.020200
 39,-0.00174290,0.00030265,0.00074816,0.00022315,-0.00064037,-0.0005166
 7,-0.00013238,0.00007205,-0.00007716,-0.00034963,-0.00065891,0.0004384
 4,0.00011334,-0.00019159,0.00017629,-0.00016313,0.00037784,0.00002322,
 -0.00061373,0.00007348,-0.00115364,0.00045164,-0.00435644,-0.00412156,
 0.01001295,0.00825851,-0.01632227,-0.08273764,-0.04902932,0.07552753,-
 0.00006426,0.00010970,0.00008078,0.00122631,0.00050125,0.00011877,-0.0
 0010182,-0.00033012,0.00003004,-0.00006506,-0.00002040,0.00021800,0.00
 002125,0.00003329,0.00004687,0.00002162,-0.00002706,0.00002618,0.00002
 005,0.00001307,0.00004741,0.00012123,-0.00008251,0.00000913,0.00023482
 ,0.00004945,0.00007255,0.00062994,0.00060011,-0.00129244,-0.00044534,0
 .00310131,0.00115495,0.08319683,-0.00007286,-0.00033485,-0.00000454,-0
 .00020177,0.00087622,0.00021485,-0.00052445,-0.00135797,-0.00249620,-0
 .00367867,-0.00103700,0.01202217,-0.00071645,-0.00071947,-0.00051100,0
 .00006032,-0.00019642,0.00011413,-0.00005485,-0.00002460,-0.00005628,0
 .00034096,0.00104298,-0.00148746,0.00035766,0.00013447,-0.00057978,-0.
 00018175,0.00003822,-0.00006484,0.00097271,-0.00007738,0.00084366,-0.0
 0416782,0.00853552,0.00365861,-0.00136804,0.00429055,-0.00224296,-0.04
 835917,-0.09399950,0.10955906,-0.00013780,-0.00003118,0.00023903,0.000
 21712,0.00059659,-0.00081195,-0.00012042,-0.00029894,0.00000626,0.0000
 0332,-0.00007235,0.00006756,0.00006607,-0.00006624,0.00000572,0.000110
 77,0.00040008,0.00003188,0.00001262,-0.00009257,0.00001975,0.00008251,
 -0.00019029,-0.00005008,-0.00013109,-0.00003312,0.00000751,-0.00063983
 ,-0.00045970,0.00084564,0.00320356,-0.00499279,-0.00188276,0.05492735,
 0.08806970,0.00020508,-0.00001354,-0.00005650,-0.00025072,0.00000584,0
 .00002986,-0.00020637,0.00009656,0.00013925,-0.00313875,-0.00156419,0.
 00410220,-0.00006292,-0.00052129,-0.00027183,0.00005694,0.00000586,0.0
 0008039,-0.00005839,-0.00010346,0.00004342,0.00004750,0.00025698,-0.00
 049896,0.00018876,-0.00009678,-0.00029749,0.00007091,-0.00008666,0.000
 11521,-0.00018227,-0.00015816,0.00066763,-0.00538025,0.00062038,-0.000
 53626,0.01101870,0.01387818,-0.01978412,0.07302101,0.10654597,-0.24977
 127,0.00002408,-0.00004161,0.00003490,0.00035302,-0.00010345,0.0009997
 7,0.00000207,-0.00000753,0.00002006,0.00003062,-0.00001989,0.00002539,
 0.00003209,0.00000721,-0.00002158,0.00004340,0.00024728,0.00004692,-0.
 00004849,0.00001353,0.00001910,0.00000913,0.00005008,0.00005272,0.0000
 1982,-0.00001589,0.00000161,0.00034441,0.00059083,-0.00086293,0.000741
 90,-0.00213828,0.00044243,-0.07688127,-0.11744795,0.26528008\\-0.00011
 925,0.,0.00000352,0.00028035,0.,0.00004602,-0.00015938,0.00001403,-0.0
 0008809,-0.00000101,0.00005540,-0.00002581,-0.00000098,-0.00005527,-0.
 00002590,-0.00015935,-0.00001405,-0.00008808,0.00009532,0.00003505,0.0
 0003629,-0.00002337,-0.00007200,0.00005124,-0.00002888,0.00001415,-0.0
 0001241,0.00004598,0.00003425,0.00005859,0.00009528,-0.00003485,0.0000
 3644,-0.00002317,0.00007230,0.00005165,-0.00002880,-0.00001466,-0.0000
 1134,0.00004591,-0.00003368,0.00005693,0.00000411,-0.00001113,0.000014
 38,-0.00000078,-0.00000787,-0.00000839,-0.00000092,0.00000775,-0.00000
 851,0.00000411,0.00001113,0.00001438,-0.00000371,-0.00001265,-0.000009
 85,-0.00000283,-0.00000158,-0.00001476,0.00001080,0.00000159,-0.000006
 53,-0.00001675,0.00000800,-0.00001927,-0.00000364,0.00001245,-0.000010
 05,-0.00000304,0.00000142,-0.00001520,0.00001099,-0.00000140,-0.000006
 64,-0.00001701,-0.00000838,-0.00001860\\\@


 KNOWLEDGE IS CHIMERA - FOR BEYOND IT LIES OTHER KNOWLEDGE,
 AND THE INCOMPLETENESS OF WHAT IS KNOWN RENDERS THE KNOWING FALSE.
     -- THE THOMAS COVENANT CHRONICLES
 Job cpu time:       0 days  0 hours  3 minutes 20.9 seconds.
 Elapsed time:       0 days  0 hours  3 minutes 35.5 seconds.
 File lengths (MBytes):  RWF=    172 Int=      0 D2E=      0 Chk=     16 Scr=      1
 Normal termination of Gaussian 16 at Sat Feb 24 02:47:17 2024.
