 Entering Gaussian System, Link 0=g16
 Input=/Volumes/SSD-PMU3/b3lyp_6-31gd_freq/MQPHVIPKLRXGDJ-PRJMDXOYSA-N_calculating/gaussianinput0.gjf
 Output=/Volumes/SSD-PMU3/b3lyp_6-31gd_freq/MQPHVIPKLRXGDJ-PRJMDXOYSA-N_calculating/gaussianinput0.log
 Initial command:
 /Applications/g16/l1.exe "/Users/macmini_m1_2022/PycharmProjects/sphere_model/sphere_model_lib/Gau-58708.inp" -scrdir="/Users/macmini_m1_2022/PycharmProjects/sphere_model/sphere_model_lib/"
 Entering Link 1 = /Applications/g16/l1.exe PID=     58709.
  
 Copyright (c) 1988,1990,1992,1993,1995,1998,2003,2009,2016,
            Gaussian, Inc.  All Rights Reserved.
  
 This is part of the Gaussian(R) 16 program.  It is based on
 the Gaussian(R) 09 system (copyright 2009, Gaussian, Inc.),
 the Gaussian(R) 03 system (copyright 2003, Gaussian, Inc.),
 the Gaussian(R) 98 system (copyright 1998, Gaussian, Inc.),
 the Gaussian(R) 94 system (copyright 1995, Gaussian, Inc.),
 the Gaussian 92(TM) system (copyright 1992, Gaussian, Inc.),
 the Gaussian 90(TM) system (copyright 1990, Gaussian, Inc.),
 the Gaussian 88(TM) system (copyright 1988, Gaussian, Inc.),
 the Gaussian 86(TM) system (copyright 1986, Carnegie Mellon
 University), and the Gaussian 82(TM) system (copyright 1983,
 Carnegie Mellon University). Gaussian is a federally registered
 trademark of Gaussian, Inc.
  
 This software contains proprietary and confidential information,
 including trade secrets, belonging to Gaussian, Inc.
  
 This software is provided under written license and may be
 used, copied, transmitted, or stored only in accord with that
 written license.
  
 The following legend is applicable only to US Government
 contracts under FAR:
  
                    RESTRICTED RIGHTS LEGEND
  
 Use, reproduction and disclosure by the US Government is
 subject to restrictions as set forth in subparagraphs (a)
 and (c) of the Commercial Computer Software - Restricted
 Rights clause in FAR 52.227-19.
  
 Gaussian, Inc.
 340 Quinnipiac St., Bldg. 40, Wallingford CT 06492
  
  
 ---------------------------------------------------------------
 Warning -- This program may not be used in any manner that
 competes with the business of Gaussian, Inc. or will provide
 assistance to any competitor of Gaussian, Inc.  The licensee
 of this program is prohibited from giving any competitor of
 Gaussian, Inc. access to this program.  By using this program,
 the user acknowledges that Gaussian, Inc. is engaged in the
 business of creating and licensing software in the field of
 computational chemistry and represents and warrants to the
 licensee that it is not a competitor of Gaussian, Inc. and that
 it will not use this program in any manner prohibited above.
 ---------------------------------------------------------------
  

 Cite this work as:
 Gaussian 16, Revision A.03,
 M. J. Frisch, G. W. Trucks, H. B. Schlegel, G. E. Scuseria, 
 M. A. Robb, J. R. Cheeseman, G. Scalmani, V. Barone, 
 G. A. Petersson, H. Nakatsuji, X. Li, M. Caricato, A. V. Marenich, 
 J. Bloino, B. G. Janesko, R. Gomperts, B. Mennucci, H. P. Hratchian, 
 J. V. Ortiz, A. F. Izmaylov, J. L. Sonnenberg, D. Williams-Young, 
 F. Ding, F. Lipparini, F. Egidi, J. Goings, B. Peng, A. Petrone, 
 T. Henderson, D. Ranasinghe, V. G. Zakrzewski, J. Gao, N. Rega, 
 G. Zheng, W. Liang, M. Hada, M. Ehara, K. Toyota, R. Fukuda, 
 J. Hasegawa, M. Ishida, T. Nakajima, Y. Honda, O. Kitao, H. Nakai, 
 T. Vreven, K. Throssell, J. A. Montgomery, Jr., J. E. Peralta, 
 F. Ogliaro, M. J. Bearpark, J. J. Heyd, E. N. Brothers, K. N. Kudin, 
 V. N. Staroverov, T. A. Keith, R. Kobayashi, J. Normand, 
 K. Raghavachari, A. P. Rendell, J. C. Burant, S. S. Iyengar, 
 J. Tomasi, M. Cossi, J. M. Millam, M. Klene, C. Adamo, R. Cammi, 
 J. W. Ochterski, R. L. Martin, K. Morokuma, O. Farkas, 
 J. B. Foresman, and D. J. Fox, Gaussian, Inc., Wallingford CT, 2016.
 
 ******************************************
 Gaussian 16:  EM64M-G16RevA.03 25-Dec-2016
                22-Feb-2024 
 ******************************************
 %nprocshared=8
 Will use up to    8 processors via shared memory.
 %mem=4GB
 %chk= 0.chk
 ---------------------
 # freq b3lyp/6-31g(d)
 ---------------------
 1/10=4,30=1,38=1/1,3;
 2/12=2,17=6,18=5,40=1/2;
 3/5=1,6=6,7=1,11=2,25=1,30=1,71=2,74=-5,140=1/1,2,3;
 4//1;
 5/5=2,38=5,98=1/2;
 8/6=4,10=90,11=11/1;
 11/6=1,8=1,9=11,15=111,16=1/1,2,10;
 10/6=1/2;
 6/7=2,8=2,9=2,10=2,28=1/1;
 7/8=1,10=1,25=1/1,2,3,16;
 1/10=4,30=1/3;
 99//99;
 ---------
 good luck
 ---------
 Symbolic Z-matrix:
 Charge =  0 Multiplicity = 1
 C                    -4.33414  -0.02265  -1.06378 
 C                    -2.80281  -0.021    -0.93051 
 C                    -2.20166  -0.02081  -2.3404 
 C                    -2.31072   1.04154   0.1202 
 C                    -2.54644  -0.03017   1.22307 
 C                    -2.30489  -1.0871    0.11062 
 C                    -0.79393  -1.31677  -0.0046 
 C                     0.        0.        0. 
 C                    -0.8024    1.32052  -0.0046 
 C                    -0.26846   2.28037   1.07079 
 O                     1.21576   0.        0. 
 H                    -4.8483   -0.02149  -0.09792 
 H                    -4.67096  -0.90876  -1.6164 
 H                    -4.67224   0.86147  -1.61871 
 H                    -1.10867  -0.05236  -2.36048 
 H                    -2.51133   0.87761  -2.88939 
 H                    -2.56196  -0.8887   -2.90736 
 H                    -2.87879   1.97821   0.18137 
 H                    -3.56625  -0.03243   1.61297 
 H                    -1.8532   -0.0388    2.07279 
 H                    -2.85488  -2.03434   0.16218 
 H                    -0.52159  -1.86979  -0.91298 
 H                    -0.42578  -1.91833   0.83711 
 H                    -0.59717   1.78213  -0.98197 
 H                    -0.72992   3.26841   0.96535 
 H                    -0.48525   1.91368   2.08074 
 H                     0.81536   2.38572   0.97352 
 

 GradGradGradGradGradGradGradGradGradGradGradGradGradGradGradGradGradGrad
 Berny optimization.
 Initialization pass.
 Trust Radius=3.00D-01 FncErr=1.00D-07 GrdErr=1.00D-07 EigMax=2.50D+02 EigMin=1.00D-04
 Number of steps in this run=      2 maximum allowed number of steps=      2.
 GradGradGradGradGradGradGradGradGradGradGradGradGradGradGradGradGradGrad

                          Input orientation:                          
 ---------------------------------------------------------------------
 Center     Atomic      Atomic             Coordinates (Angstroms)
 Number     Number       Type             X           Y           Z
 ---------------------------------------------------------------------
      1          6           0       -4.334142   -0.022647   -1.063777
      2          6           0       -2.802807   -0.021001   -0.930513
      3          6           0       -2.201659   -0.020810   -2.340397
      4          6           0       -2.310719    1.041544    0.120204
      5          6           0       -2.546444   -0.030167    1.223065
      6          6           0       -2.304894   -1.087097    0.110622
      7          6           0       -0.793931   -1.316767   -0.004597
      8          6           0        0.000000    0.000000    0.000000
      9          6           0       -0.802398    1.320522   -0.004597
     10          6           0       -0.268462    2.280368    1.070795
     11          8           0        1.215761    0.000000    0.000000
     12          1           0       -4.848300   -0.021486   -0.097923
     13          1           0       -4.670957   -0.908759   -1.616396
     14          1           0       -4.672241    0.861473   -1.618714
     15          1           0       -1.108669   -0.052364   -2.360476
     16          1           0       -2.511328    0.877610   -2.889393
     17          1           0       -2.561958   -0.888696   -2.907363
     18          1           0       -2.878786    1.978210    0.181370
     19          1           0       -3.566253   -0.032426    1.612971
     20          1           0       -1.853197   -0.038797    2.072791
     21          1           0       -2.854877   -2.034338    0.162179
     22          1           0       -0.521590   -1.869790   -0.912977
     23          1           0       -0.425783   -1.918325    0.837109
     24          1           0       -0.597174    1.782131   -0.981967
     25          1           0       -0.729917    3.268414    0.965347
     26          1           0       -0.485250    1.913681    2.080737
     27          1           0        0.815356    2.385719    0.973519
 ---------------------------------------------------------------------
                    Distance matrix (angstroms):
                    1          2          3          4          5
     1  C    0.000000
     2  C    1.537124   0.000000
     3  C    2.485407   1.532694   0.000000
     4  C    2.574598   1.573264   2.682359   0.000000
     5  C    2.902683   2.168802   3.580115   1.555774   0.000000
     6  C    2.574901   1.571127   2.674906   2.128671   1.553376
     7  C    3.915316   2.563574   3.019464   2.806751   2.496757
     8  C    4.462838   2.953307   3.213284   2.537456   2.825097
     9  C    3.924179   2.580434   3.035303   1.538972   2.524522
    10  C    5.137123   3.965405   4.546306   2.570821   3.248224
    11  O    5.650978   4.124947   4.142059   3.679038   3.956133
    12  H    1.094182   2.208449   3.468919   2.759879   2.653983
    13  H    1.097281   2.179113   2.722143   3.519969   3.653494
    14  H    1.097239   2.178799   2.720850   2.938205   3.659200
    15  H    3.476491   2.217179   1.093630   2.965693   3.861276
    16  H    2.732396   2.174781   1.097474   3.020727   4.211603
    17  H    2.699905   2.172289   1.097493   3.599321   4.218738
    18  H    2.769816   2.288865   3.288448   1.097171   2.286735
    19  H    2.784731   2.655615   4.182269   2.226686   1.091807
    20  H    3.999176   3.149906   4.426960   2.277951   1.096677
    21  H    2.781743   2.291334   3.277785   3.123927   2.288517
    22  H    4.239131   2.936372   2.877305   3.569918   3.470868
    23  H    4.741543   3.517751   4.104978   3.581586   2.865538
    24  H    4.150765   2.849342   2.769531   2.167830   3.456334
    25  H    5.285723   4.325669   4.890088   2.858698   3.774497
    26  H    5.333976   4.263999   5.121986   2.817206   2.960180
    27  H    6.038885   4.744338   5.086826   3.508176   4.147346
                    6          7          8          9         10
     6  C    0.000000
     7  C    1.532656   0.000000
     8  C    2.550795   1.537603   0.000000
     9  C    2.840317   2.637303   1.545200   0.000000
    10  C    4.050779   3.791038   2.533526   1.537160   0.000000
    11  O    3.686330   2.402657   1.215761   2.411797   2.923970
    12  H    2.765489   4.257273   4.849336   4.263686   5.257314
    13  H    2.934732   4.218495   5.025576   4.746929   6.064115
    14  H    3.520207   4.731954   5.019184   4.218031   5.351634
    15  H    2.933931   2.692200   2.608397   2.743863   4.233345
    16  H    3.592044   4.010834   3.927539   3.382109   4.762485
    17  H    3.035404   3.425670   3.975697   4.050030   5.579322
    18  H    3.119369   3.903598   3.497659   2.185984   2.774197
    19  H    2.227198   3.457141   3.914191   3.476477   4.064283
    20  H    2.270038   2.659096   2.780703   2.695824   2.982265
    21  H    1.096542   2.188657   3.509296   3.936441   5.111929
    22  H    2.200122   1.097797   2.145157   3.328979   4.606868
    23  H    2.179399   1.098123   2.135887   3.367557   4.208133
    24  H    3.513193   3.255324   2.120582   1.100205   2.137785
    25  H    4.709733   4.687086   3.485284   2.177229   1.095580
    26  H    4.024565   3.857421   2.868294   2.191127   1.096102
    27  H    4.747737   4.153904   2.702628   2.169904   1.093263
                   11         12         13         14         15
    11  O    0.000000
    12  H    6.064890   0.000000
    13  H    6.171874   1.767615   0.000000
    14  H    6.166923   1.767320   1.770234   0.000000
    15  H    3.313241   4.370920   3.738578   3.752913   0.000000
    16  H    4.796872   3.749949   3.078252   2.506877   1.764102
    17  H    4.849093   3.724563   2.472827   3.029357   1.763685
    18  H    4.550992   2.820598   3.844272   2.775587   3.703718
    19  H    5.046819   2.137972   3.523796   3.530730   4.672087
    20  H    3.703575   3.699046   4.722998   4.731248   4.495371
    21  H    4.553562   2.844813   2.780001   3.854882   3.652568
    22  H    2.710725   4.775035   4.316900   5.018542   2.396446
    23  H    2.659960   4.902136   5.006038   5.638329   3.764664
    24  H    2.725249   4.701770   4.923322   4.226018   2.351018
    25  H    3.924295   5.377273   6.296504   5.292698   4.715095
    26  H    3.299254   5.246679   6.257404   5.685418   4.896770
    27  H    2.607627   6.246569   6.903686   6.257533   4.556495
                   16         17         18         19         20
    16  H    0.000000
    17  H    1.767123   0.000000
    18  H    3.282671   4.226086   0.000000
    19  H    4.712994   4.709058   2.562177   0.000000
    20  H    5.088832   5.101628   2.949173   1.773707   0.000000
    21  H    4.231969   3.289435   4.012665   2.572646   2.938705
    22  H    3.926001   3.017155   4.643390   4.361914   3.747069
    23  H    5.104270   4.432206   4.650828   3.744480   2.664028
    24  H    2.849635   3.834168   2.568570   4.340709   3.771594
    25  H    4.873232   5.969575   2.626192   4.399973   3.664128
    26  H    5.466318   6.086639   3.056268   3.674060   2.384012
    27  H    5.316325   6.098302   3.800033   5.045277   3.769330
                   21         22         23         24         25
    21  H    0.000000
    22  H    2.574347   0.000000
    23  H    2.523784   1.753378   0.000000
    24  H    4.579490   3.653355   4.126959   0.000000
    25  H    5.768857   5.474728   5.197230   2.453302   0.000000
    26  H    4.988271   4.824759   4.029196   3.067570   1.771795
    27  H    5.802223   4.843103   4.481498   2.486661   1.779631
                   26         27
    26  H    0.000000
    27  H    1.772097   0.000000
 Stoichiometry    C10H16O
 Framework group  C1[X(C10H16O)]
 Deg. of freedom    75
 Full point group                 C1      NOp   1
 Largest Abelian subgroup         C1      NOp   1
 Largest concise Abelian subgroup C1      NOp   1
                         Standard orientation:                         
 ---------------------------------------------------------------------
 Center     Atomic      Atomic             Coordinates (Angstroms)
 Number     Number       Type             X           Y           Z
 ---------------------------------------------------------------------
      1          6           0       -2.840237    0.506409   -0.119273
      2          6           0       -1.413790   -0.045841   -0.270982
      3          6           0       -1.376815   -0.934051   -1.519529
      4          6           0       -0.330739    1.081023   -0.091155
      5          6           0       -0.415189    0.832338    1.442291
      6          6           0       -0.858555   -0.612904    1.084966
      7          6           0        0.403143   -1.454358    0.863368
      8          6           0        1.447047   -0.727263   -0.000241
      9          6           0        1.051713    0.639393   -0.603236
     10          6           0        2.155703    1.679382   -0.353256
     11          8           0        2.541376   -1.215299   -0.206010
     12          1           0       -2.957360    1.156990    0.752657
     13          1           0       -3.561504   -0.314347   -0.018475
     14          1           0       -3.123032    1.088216   -1.005536
     15          1           0       -0.408026   -1.407028   -1.703285
     16          1           0       -1.628337   -0.349596   -2.413732
     17          1           0       -2.119816   -1.737518   -1.436570
     18          1           0       -0.587138    2.079544   -0.466653
     19          1           0       -1.194269    1.418864    1.933273
     20          1           0        0.510531    0.937181    2.020866
     21          1           0       -1.570854   -1.119263    1.747262
     22          1           0        0.185844   -2.418904    0.386303
     23          1           0        0.885840   -1.692656    1.820495
     24          1           0        1.001784    0.474339   -1.689844
     25          1           0        1.948469    2.599366   -0.910910
     26          1           0        2.230489    1.939263    0.708962
     27          1           0        3.122694    1.283170   -0.674454
 ---------------------------------------------------------------------
 Rotational constants (GHZ):           1.7619030           0.9458228           0.8555087
 Standard basis: 6-31G(d) (6D, 7F)
 There are   197 symmetry adapted cartesian basis functions of A   symmetry.
 There are   197 symmetry adapted basis functions of A   symmetry.
   197 basis functions,   372 primitive gaussians,   197 cartesian basis functions
    42 alpha electrons       42 beta electrons
       nuclear repulsion energy       668.9513120195 Hartrees.
 NAtoms=   27 NActive=   27 NUniq=   27 SFac= 1.00D+00 NAtFMM=   60 NAOKFM=F Big=F
 Integral buffers will be    131072 words long.
 Raffenetti 2 integral format.
 Two-electron integral symmetry is turned on.
 One-electron integrals computed using PRISM.
 NBasis=   197 RedAO= T EigKep=  1.77D-03  NBF=   197
 NBsUse=   197 1.00D-06 EigRej= -1.00D+00 NBFU=   197
 ExpMin= 1.61D-01 ExpMax= 5.48D+03 ExpMxC= 8.25D+02 IAcc=3 IRadAn=         5 AccDes= 0.00D+00
 Harris functional with IExCor=  402 and IRadAn=       5 diagonalized for initial guess.
 HarFok:  IExCor=  402 AccDes= 0.00D+00 IRadAn=         5 IDoV= 1 UseB2=F ITyADJ=14
 ICtDFT=  3500011 ScaDFX=  1.000000  1.000000  1.000000  1.000000
 FoFCou: FMM=F IPFlag=           0 FMFlag=      100000 FMFlg1=           0
         NFxFlg=           0 DoJE=T BraDBF=F KetDBF=T FulRan=T
         wScrn=  0.000000 ICntrl=       500 IOpCl=  0 I1Cent=   200000004 NGrid=           0
         NMat0=    1 NMatS0=      1 NMatT0=    0 NMatD0=    1 NMtDS0=    0 NMtDT0=    0
 Petite list used in FoFCou.
 Requested convergence on RMS density matrix=1.00D-08 within 128 cycles.
 Requested convergence on MAX density matrix=1.00D-06.
 Requested convergence on             energy=1.00D-06.
 No special actions if energy rises.
 Integral accuracy reduced to 1.0D-05 until final iterations.
 Initial convergence to 1.0D-05 achieved.  Increase integral accuracy.
 SCF Done:  E(RB3LYP) =  -465.900414145     A.U. after   14 cycles
            NFock= 14  Conv=0.27D-08     -V/T= 2.0097
 DoSCS=F DFT=T ScalE2(SS,OS)=  1.000000  1.000000
 Range of M.O.s used for correlation:     1   197
 NBasis=   197 NAE=    42 NBE=    42 NFC=     0 NFV=     0
 NROrb=    197 NOA=    42 NOB=    42 NVA=   155 NVB=   155
 Symmetrizing basis deriv contribution to polar:
 IMax=3 JMax=2 DiffMx= 0.00D+00
 G2DrvN: will do    28 centers at a time, making    1 passes.
 Calling FoFCou, ICntrl=  3107 FMM=F I1Cent=   0 AccDes= 0.00D+00.
 End of G2Drv F.D. properties file   721 does not exist.
 End of G2Drv F.D. properties file   722 does not exist.
 End of G2Drv F.D. properties file   788 does not exist.
          IDoAtm=111111111111111111111111111
          Differentiating once with respect to electric field.
                with respect to dipole field.
          Differentiating once with respect to nuclear coordinates.
 Keep R1 ints in memory in canonical form, NReq=198401981.
          There are    84 degrees of freedom in the 1st order CPHF.  IDoFFX=6 NUNeed=     3.
     81 vectors produced by pass  0 Test12= 7.75D-15 1.19D-09 XBig12= 7.15D+01 2.28D+00.
 AX will form    81 AO Fock derivatives at one time.
     81 vectors produced by pass  1 Test12= 7.75D-15 1.19D-09 XBig12= 1.22D+01 1.26D+00.
     81 vectors produced by pass  2 Test12= 7.75D-15 1.19D-09 XBig12= 1.08D-01 5.34D-02.
     81 vectors produced by pass  3 Test12= 7.75D-15 1.19D-09 XBig12= 2.48D-04 1.43D-03.
     81 vectors produced by pass  4 Test12= 7.75D-15 1.19D-09 XBig12= 2.17D-07 5.39D-05.
     37 vectors produced by pass  5 Test12= 7.75D-15 1.19D-09 XBig12= 1.63D-10 1.28D-06.
      3 vectors produced by pass  6 Test12= 7.75D-15 1.19D-09 XBig12= 1.39D-13 5.18D-08.
      1 vectors produced by pass  7 Test12= 7.75D-15 1.19D-09 XBig12= 1.13D-16 1.52D-09.
 InvSVY:  IOpt=1 It=  1 EMax= 1.15D-14
 Solved reduced A of dimension   446 with    84 vectors.
 Isotropic polarizability for W=    0.000000       99.49 Bohr**3.
 End of Minotr F.D. properties file   721 does not exist.
 End of Minotr F.D. properties file   722 does not exist.
 End of Minotr F.D. properties file   788 does not exist.

 **********************************************************************

            Population analysis using the SCF density.

 **********************************************************************

 Orbital symmetries:
       Occupied  (A) (A) (A) (A) (A) (A) (A) (A) (A) (A) (A) (A)
                 (A) (A) (A) (A) (A) (A) (A) (A) (A) (A) (A) (A)
                 (A) (A) (A) (A) (A) (A) (A) (A) (A) (A) (A) (A)
                 (A) (A) (A) (A) (A) (A)
       Virtual   (A) (A) (A) (A) (A) (A) (A) (A) (A) (A) (A) (A)
                 (A) (A) (A) (A) (A) (A) (A) (A) (A) (A) (A) (A)
                 (A) (A) (A) (A) (A) (A) (A) (A) (A) (A) (A) (A)
                 (A) (A) (A) (A) (A) (A) (A) (A) (A) (A) (A) (A)
                 (A) (A) (A) (A) (A) (A) (A) (A) (A) (A) (A) (A)
                 (A) (A) (A) (A) (A) (A) (A) (A) (A) (A) (A) (A)
                 (A) (A) (A) (A) (A) (A) (A) (A) (A) (A) (A) (A)
                 (A) (A) (A) (A) (A) (A) (A) (A) (A) (A) (A) (A)
                 (A) (A) (A) (A) (A) (A) (A) (A) (A) (A) (A) (A)
                 (A) (A) (A) (A) (A) (A) (A) (A) (A) (A) (A) (A)
                 (A) (A) (A) (A) (A) (A) (A) (A) (A) (A) (A) (A)
                 (A) (A) (A) (A) (A) (A) (A) (A) (A) (A) (A) (A)
                 (A) (A) (A) (A) (A) (A) (A) (A) (A) (A) (A)
 The electronic state is 1-A.
 Alpha  occ. eigenvalues --  -19.13299 -10.26996 -10.19979 -10.19515 -10.19363
 Alpha  occ. eigenvalues --  -10.19179 -10.19018 -10.18418 -10.17807 -10.17805
 Alpha  occ. eigenvalues --  -10.17690  -1.03335  -0.87922  -0.77768  -0.75700
 Alpha  occ. eigenvalues --   -0.72871  -0.68472  -0.66085  -0.61275  -0.59842
 Alpha  occ. eigenvalues --   -0.54865  -0.49513  -0.47842  -0.47033  -0.45580
 Alpha  occ. eigenvalues --   -0.44281  -0.43780  -0.41449  -0.40809  -0.40350
 Alpha  occ. eigenvalues --   -0.39109  -0.38027  -0.37578  -0.37213  -0.36144
 Alpha  occ. eigenvalues --   -0.35905  -0.33677  -0.31559  -0.30831  -0.29422
 Alpha  occ. eigenvalues --   -0.28656  -0.23342
 Alpha virt. eigenvalues --   -0.01785   0.07526   0.10564   0.11174   0.11618
 Alpha virt. eigenvalues --    0.12499   0.13345   0.13695   0.15254   0.15410
 Alpha virt. eigenvalues --    0.16848   0.17038   0.17810   0.18276   0.18669
 Alpha virt. eigenvalues --    0.19464   0.20800   0.21107   0.21200   0.23220
 Alpha virt. eigenvalues --    0.24748   0.25193   0.25457   0.26696   0.28205
 Alpha virt. eigenvalues --    0.28688   0.33214   0.34469   0.38030   0.48831
 Alpha virt. eigenvalues --    0.49658   0.51056   0.51623   0.54172   0.55031
 Alpha virt. eigenvalues --    0.55864   0.57137   0.58933   0.61072   0.63550
 Alpha virt. eigenvalues --    0.64513   0.65897   0.66401   0.68791   0.69803
 Alpha virt. eigenvalues --    0.71054   0.71658   0.72326   0.74537   0.77927
 Alpha virt. eigenvalues --    0.79018   0.80330   0.81737   0.82932   0.84122
 Alpha virt. eigenvalues --    0.84649   0.86652   0.86968   0.87935   0.89492
 Alpha virt. eigenvalues --    0.90207   0.91301   0.91747   0.92045   0.92919
 Alpha virt. eigenvalues --    0.94218   0.95181   0.96528   0.96606   0.97134
 Alpha virt. eigenvalues --    0.98385   0.99339   1.01508   1.03511   1.06820
 Alpha virt. eigenvalues --    1.09245   1.13123   1.17580   1.19211   1.22871
 Alpha virt. eigenvalues --    1.27781   1.32754   1.33690   1.39569   1.42716
 Alpha virt. eigenvalues --    1.46756   1.47890   1.52121   1.60407   1.63204
 Alpha virt. eigenvalues --    1.66579   1.68749   1.69820   1.73123   1.74022
 Alpha virt. eigenvalues --    1.76466   1.78365   1.81588   1.82757   1.83532
 Alpha virt. eigenvalues --    1.85907   1.88747   1.89440   1.90757   1.93875
 Alpha virt. eigenvalues --    1.97231   1.98247   2.00618   2.02334   2.03571
 Alpha virt. eigenvalues --    2.04424   2.07935   2.10197   2.11197   2.14199
 Alpha virt. eigenvalues --    2.16509   2.18647   2.19161   2.21998   2.25089
 Alpha virt. eigenvalues --    2.27355   2.30778   2.32468   2.33287   2.35812
 Alpha virt. eigenvalues --    2.37472   2.40783   2.42502   2.47170   2.48596
 Alpha virt. eigenvalues --    2.50824   2.51829   2.55572   2.60152   2.62893
 Alpha virt. eigenvalues --    2.67486   2.69712   2.72313   2.73982   2.82005
 Alpha virt. eigenvalues --    2.87394   2.90829   3.01034   3.04432   4.02323
 Alpha virt. eigenvalues --    4.14244   4.22429   4.27380   4.30500   4.36716
 Alpha virt. eigenvalues --    4.44020   4.57582   4.61166   4.68840   4.83523
          Condensed to atoms (all electrons):
               1          2          3          4          5          6
     1  C    5.160009   0.372928  -0.063794  -0.046127  -0.000461  -0.047148
     2  C    0.372928   4.857479   0.382198   0.356514  -0.133785   0.362328
     3  C   -0.063794   0.382198   5.154641  -0.049782   0.011639  -0.049855
     4  C   -0.046127   0.356514  -0.049782   5.153884   0.322963  -0.128475
     5  C   -0.000461  -0.133785   0.011639   0.322963   5.203725   0.328415
     6  C   -0.047148   0.362328  -0.049855  -0.128475   0.328415   5.125274
     7  C    0.004389  -0.041554  -0.003630   0.003273  -0.044323   0.298444
     8  C    0.000040  -0.009230  -0.004845  -0.012692  -0.016645  -0.015788
     9  C    0.003959  -0.035078  -0.002872   0.316038  -0.040991   0.007163
    10  C   -0.000121   0.004186   0.000243  -0.043157  -0.005836  -0.000746
    11  O    0.000000   0.000079  -0.000313   0.003676  -0.000063   0.003491
    12  H    0.367589  -0.030132   0.005584  -0.004814   0.004652  -0.004700
    13  H    0.364428  -0.028401  -0.004817   0.005265  -0.000638  -0.005394
    14  H    0.365261  -0.029185  -0.004626  -0.005309  -0.000621   0.005384
    15  H    0.005550  -0.025837   0.366965  -0.005973   0.000613  -0.007101
    16  H   -0.004984  -0.028258   0.365838  -0.002979  -0.000332   0.005216
    17  H   -0.005594  -0.028643   0.365437   0.004992  -0.000321  -0.002748
    18  H   -0.005743  -0.034459   0.001177   0.349229  -0.034237   0.012150
    19  H    0.000692  -0.000181  -0.000198  -0.025905   0.365290  -0.026496
    20  H    0.000100   0.009063  -0.000448  -0.032829   0.361168  -0.032428
    21  H   -0.005724  -0.034476   0.001135   0.012106  -0.033316   0.350087
    22  H    0.000051  -0.006194   0.002581  -0.000674   0.005497  -0.030351
    23  H   -0.000123   0.004648   0.000210  -0.000785  -0.004822  -0.029454
    24  H    0.000095  -0.006718   0.003305  -0.043291   0.006013  -0.000811
    25  H   -0.000003  -0.000017   0.000004  -0.002742  -0.000230   0.000028
    26  H   -0.000002   0.000036  -0.000000  -0.005708   0.003725  -0.000176
    27  H    0.000002  -0.000128  -0.000002   0.004726   0.000097  -0.000058
               7          8          9         10         11         12
     1  C    0.004389   0.000040   0.003959  -0.000121   0.000000   0.367589
     2  C   -0.041554  -0.009230  -0.035078   0.004186   0.000079  -0.030132
     3  C   -0.003630  -0.004845  -0.002872   0.000243  -0.000313   0.005584
     4  C    0.003273  -0.012692   0.316038  -0.043157   0.003676  -0.004814
     5  C   -0.044323  -0.016645  -0.040991  -0.005836  -0.000063   0.004652
     6  C    0.298444  -0.015788   0.007163  -0.000746   0.003491  -0.004700
     7  C    5.325080   0.334688  -0.140735   0.004870  -0.070308   0.000055
     8  C    0.334688   4.545750   0.324420  -0.030478   0.532471  -0.000011
     9  C   -0.140735   0.324420   5.201499   0.358410  -0.072969   0.000069
    10  C    0.004870  -0.030478   0.358410   5.095352  -0.005451  -0.000001
    11  O   -0.070308   0.532471  -0.072969  -0.005451   8.058315   0.000000
    12  H    0.000055  -0.000011   0.000069  -0.000001   0.000000   0.573312
    13  H    0.000022   0.000006  -0.000119   0.000002  -0.000000  -0.030052
    14  H   -0.000146   0.000005  -0.000002  -0.000003  -0.000000  -0.030082
    15  H    0.002013   0.002549   0.001394   0.000034   0.000162  -0.000184
    16  H   -0.000023   0.000107  -0.000445  -0.000032   0.000001  -0.000060
    17  H   -0.000094   0.000108   0.000084  -0.000002   0.000000  -0.000031
    18  H   -0.000183   0.003511  -0.031475  -0.004241  -0.000068   0.000272
    19  H    0.004118   0.000228   0.003914   0.000145   0.000002   0.003671
    20  H   -0.004083  -0.000155  -0.004552   0.000978  -0.000275  -0.000196
    21  H   -0.028825   0.003113   0.000015   0.000014  -0.000065   0.000279
    22  H    0.351609  -0.023760   0.003707  -0.000041  -0.000181   0.000001
    23  H    0.351221  -0.024029   0.005031  -0.000250  -0.000343  -0.000002
    24  H    0.005008  -0.034385   0.360807  -0.032633  -0.001520   0.000002
    25  H   -0.000170   0.004518  -0.030717   0.368658   0.000150  -0.000000
    26  H    0.000455  -0.004767  -0.037508   0.376383   0.000314   0.000000
    27  H    0.000658  -0.005106  -0.031861   0.366274   0.011610   0.000000
              13         14         15         16         17         18
     1  C    0.364428   0.365261   0.005550  -0.004984  -0.005594  -0.005743
     2  C   -0.028401  -0.029185  -0.025837  -0.028258  -0.028643  -0.034459
     3  C   -0.004817  -0.004626   0.366965   0.365838   0.365437   0.001177
     4  C    0.005265  -0.005309  -0.005973  -0.002979   0.004992   0.349229
     5  C   -0.000638  -0.000621   0.000613  -0.000332  -0.000321  -0.034237
     6  C   -0.005394   0.005384  -0.007101   0.005216  -0.002748   0.012150
     7  C    0.000022  -0.000146   0.002013  -0.000023  -0.000094  -0.000183
     8  C    0.000006   0.000005   0.002549   0.000107   0.000108   0.003511
     9  C   -0.000119  -0.000002   0.001394  -0.000445   0.000084  -0.031475
    10  C    0.000002  -0.000003   0.000034  -0.000032  -0.000002  -0.004241
    11  O   -0.000000  -0.000000   0.000162   0.000001   0.000000  -0.000068
    12  H   -0.030052  -0.030082  -0.000184  -0.000060  -0.000031   0.000272
    13  H    0.580613  -0.031613  -0.000049  -0.000252   0.005066  -0.000031
    14  H   -0.031613   0.580319  -0.000048   0.004768  -0.000265   0.003333
    15  H   -0.000049  -0.000048   0.573400  -0.031653  -0.031314  -0.000145
    16  H   -0.000252   0.004768  -0.031653   0.577040  -0.031059   0.001029
    17  H    0.005066  -0.000265  -0.031314  -0.031059   0.578165  -0.000106
    18  H   -0.000031   0.003333  -0.000145   0.001029  -0.000106   0.627385
    19  H   -0.000034  -0.000033  -0.000007   0.000004   0.000003  -0.004596
    20  H    0.000008   0.000008  -0.000017   0.000011   0.000011   0.001717
    21  H    0.003340  -0.000042  -0.000131  -0.000109   0.000983  -0.000602
    22  H   -0.000011  -0.000004   0.000973  -0.000053   0.000390   0.000026
    23  H   -0.000003   0.000003   0.000047  -0.000000  -0.000026   0.000033
    24  H   -0.000005  -0.000016   0.001415   0.000640  -0.000053  -0.002468
    25  H    0.000000   0.000000  -0.000006   0.000003  -0.000000   0.003995
    26  H    0.000000   0.000000   0.000000   0.000000   0.000000  -0.000327
    27  H   -0.000000   0.000000   0.000007   0.000001  -0.000000  -0.000073
              19         20         21         22         23         24
     1  C    0.000692   0.000100  -0.005724   0.000051  -0.000123   0.000095
     2  C   -0.000181   0.009063  -0.034476  -0.006194   0.004648  -0.006718
     3  C   -0.000198  -0.000448   0.001135   0.002581   0.000210   0.003305
     4  C   -0.025905  -0.032829   0.012106  -0.000674  -0.000785  -0.043291
     5  C    0.365290   0.361168  -0.033316   0.005497  -0.004822   0.006013
     6  C   -0.026496  -0.032428   0.350087  -0.030351  -0.029454  -0.000811
     7  C    0.004118  -0.004083  -0.028825   0.351609   0.351221   0.005008
     8  C    0.000228  -0.000155   0.003113  -0.023760  -0.024029  -0.034385
     9  C    0.003914  -0.004552   0.000015   0.003707   0.005031   0.360807
    10  C    0.000145   0.000978   0.000014  -0.000041  -0.000250  -0.032633
    11  O    0.000002  -0.000275  -0.000065  -0.000181  -0.000343  -0.001520
    12  H    0.003671  -0.000196   0.000279   0.000001  -0.000002   0.000002
    13  H   -0.000034   0.000008   0.003340  -0.000011  -0.000003  -0.000005
    14  H   -0.000033   0.000008  -0.000042  -0.000004   0.000003  -0.000016
    15  H   -0.000007  -0.000017  -0.000131   0.000973   0.000047   0.001415
    16  H    0.000004   0.000011  -0.000109  -0.000053  -0.000000   0.000640
    17  H    0.000003   0.000011   0.000983   0.000390  -0.000026  -0.000053
    18  H   -0.004596   0.001717  -0.000602   0.000026   0.000033  -0.002468
    19  H    0.572058  -0.033402  -0.004347  -0.000150   0.000042  -0.000154
    20  H   -0.033402   0.591214   0.001541   0.000131   0.002925   0.000138
    21  H   -0.004347   0.001541   0.622531  -0.002087  -0.003009   0.000021
    22  H   -0.000150   0.000131  -0.002087   0.552852  -0.024138  -0.000409
    23  H    0.000042   0.002925  -0.003009  -0.024138   0.553266  -0.000075
    24  H   -0.000154   0.000138   0.000021  -0.000409  -0.000075   0.587076
    25  H   -0.000027   0.000036  -0.000000   0.000003   0.000004  -0.005338
    26  H   -0.000230   0.004424   0.000004  -0.000009  -0.000016   0.005308
    27  H    0.000003  -0.000174   0.000000  -0.000008  -0.000012  -0.001104
              25         26         27
     1  C   -0.000003  -0.000002   0.000002
     2  C   -0.000017   0.000036  -0.000128
     3  C    0.000004  -0.000000  -0.000002
     4  C   -0.002742  -0.005708   0.004726
     5  C   -0.000230   0.003725   0.000097
     6  C    0.000028  -0.000176  -0.000058
     7  C   -0.000170   0.000455   0.000658
     8  C    0.004518  -0.004767  -0.005106
     9  C   -0.030717  -0.037508  -0.031861
    10  C    0.368658   0.376383   0.366274
    11  O    0.000150   0.000314   0.011610
    12  H   -0.000000   0.000000   0.000000
    13  H    0.000000   0.000000  -0.000000
    14  H    0.000000   0.000000   0.000000
    15  H   -0.000006   0.000000   0.000007
    16  H    0.000003   0.000000   0.000001
    17  H   -0.000000   0.000000  -0.000000
    18  H    0.003995  -0.000327  -0.000073
    19  H   -0.000027  -0.000230   0.000003
    20  H    0.000036   0.004424  -0.000174
    21  H   -0.000000   0.000004   0.000000
    22  H    0.000003  -0.000009  -0.000008
    23  H    0.000004  -0.000016  -0.000012
    24  H   -0.005338   0.005308  -0.001104
    25  H    0.579105  -0.032001  -0.028268
    26  H   -0.032001   0.571262  -0.027091
    27  H   -0.028268  -0.027091   0.536959
 Mulliken charges:
               1
     1  C   -0.465270
     2  C    0.122818
     3  C   -0.475773
     4  C   -0.121422
     5  C   -0.297175
     6  C   -0.116251
     7  C   -0.351828
     8  C    0.430376
     9  C   -0.157186
    10  C   -0.452558
    11  O   -0.458717
    12  H    0.144780
    13  H    0.142668
    14  H    0.142915
    15  H    0.147342
    16  H    0.145585
    17  H    0.145017
    18  H    0.114895
    19  H    0.145590
    20  H    0.135085
    21  H    0.117563
    22  H    0.170249
    23  H    0.169657
    24  H    0.159152
    25  H    0.143016
    26  H    0.145926
    27  H    0.173549
 Sum of Mulliken charges =  -0.00000
 Mulliken charges with hydrogens summed into heavy atoms:
               1
     1  C   -0.034908
     2  C    0.122818
     3  C   -0.037829
     4  C   -0.006527
     5  C   -0.016500
     6  C    0.001311
     7  C   -0.011922
     8  C    0.430376
     9  C    0.001965
    10  C    0.009933
    11  O   -0.458717
 APT charges:
               1
     1  C    0.070250
     2  C    0.090998
     3  C    0.029304
     4  C    0.076774
     5  C    0.031231
     6  C    0.095674
     7  C   -0.024894
     8  C    0.710344
     9  C   -0.017872
    10  C    0.073478
    11  O   -0.658014
    12  H   -0.015125
    13  H   -0.035827
    14  H   -0.032835
    15  H   -0.020214
    16  H   -0.024335
    17  H   -0.026582
    18  H   -0.071956
    19  H   -0.028280
    20  H   -0.037459
    21  H   -0.073518
    22  H   -0.015286
    23  H   -0.021710
    24  H   -0.039944
    25  H   -0.024655
    26  H   -0.014372
    27  H    0.004824
 Sum of APT charges =   0.00000
 APT charges with hydrogens summed into heavy atoms:
               1
     1  C   -0.013537
     2  C    0.090998
     3  C   -0.041826
     4  C    0.004818
     5  C   -0.034507
     6  C    0.022156
     7  C   -0.061890
     8  C    0.710344
     9  C   -0.057816
    10  C    0.039275
    11  O   -0.658014
 Electronic spatial extent (au):  <R**2>=           1652.3673
 Charge=             -0.0000 electrons
 Dipole moment (field-independent basis, Debye):
    X=             -2.5634    Y=              1.0683    Z=              0.3423  Tot=              2.7982
 Quadrupole moment (field-independent basis, Debye-Ang):
   XX=            -76.0252   YY=            -68.4439   ZZ=            -66.3777
   XY=              4.7380   XZ=              0.9578   YZ=             -1.0935
 Traceless Quadrupole moment (field-independent basis, Debye-Ang):
   XX=             -5.7430   YY=              1.8384   ZZ=              3.9046
   XY=              4.7380   XZ=              0.9578   YZ=             -1.0935
 Octapole moment (field-independent basis, Debye-Ang**2):
  XXX=            -15.2456  YYY=             -4.6181  ZZZ=             -0.5004  XYY=             -3.9608
  XXY=             11.8335  XXZ=              2.8704  XZZ=              4.6075  YZZ=             -0.9344
  YYZ=              0.3064  XYZ=             -1.7897
 Hexadecapole moment (field-independent basis, Debye-Ang**3):
 XXXX=          -1283.6220 YYYY=           -564.6561 ZZZZ=           -420.9070 XXXY=             32.7647
 XXXZ=              2.4730 YYYX=             -3.6451 YYYZ=             -3.5660 ZZZX=             -0.4972
 ZZZY=             -4.1328 XXYY=           -312.6216 XXZZ=           -266.7805 YYZZ=           -161.8213
 XXYZ=             -3.3542 YYXZ=             -0.7469 ZZXY=             -7.4966
 N-N= 6.689513120195D+02 E-N=-2.418304268240D+03  KE= 4.614388983037D+02
  Exact polarizability: 110.463   0.480  96.711  -0.295  -1.531  91.308
 Approx polarizability: 150.432  -4.213 140.382  -1.817  -1.729 135.980
 Calling FoFJK, ICntrl=    100127 FMM=F ISym2X=0 I1Cent= 0 IOpClX= 0 NMat=1 NMatS=1 NMatT=0.
 Full mass-weighted force constant matrix:
 Low frequencies ---   -3.4313   -0.0008   -0.0003    0.0002    6.7074   12.0098
 Low frequencies ---   58.8084  163.8238  197.7717
 Diagonal vibrational polarizability:
        7.4290828      11.7768798      22.7598234
 Harmonic frequencies (cm**-1), IR intensities (KM/Mole), Raman scattering
 activities (A**4/AMU), depolarization ratios for plane and unpolarized
 incident light, reduced masses (AMU), force constants (mDyne/A),
 and normal coordinates:
                      1                      2                      3
                      A                      A                      A
 Frequencies --     58.7991               163.8222               197.7714
 Red. masses --      4.6862                 2.1405                 1.4411
 Frc consts  --      0.0095                 0.0338                 0.0332
 IR Inten    --      4.1341                 0.0939                 0.0055
  Atom  AN      X      Y      Z        X      Y      Z        X      Y      Z
     1   6    -0.01   0.07   0.08     0.00   0.05   0.03    -0.03  -0.07   0.09
     2   6    -0.04   0.02  -0.00    -0.02  -0.01  -0.02    -0.01  -0.00  -0.01
     3   6    -0.12   0.09  -0.05    -0.14  -0.11   0.06    -0.04   0.06  -0.06
     4   6     0.01  -0.03   0.01     0.01  -0.02  -0.09    -0.01  -0.00  -0.06
     5   6     0.05  -0.10   0.00     0.04   0.03  -0.08     0.01   0.04  -0.06
     6   6    -0.01  -0.07  -0.05     0.02   0.02  -0.03     0.02   0.02  -0.02
     7   6    -0.04  -0.10  -0.13    -0.00  -0.01  -0.07     0.01   0.01   0.01
     8   6     0.04   0.01   0.06     0.02   0.00  -0.03     0.01  -0.01  -0.00
     9   6    -0.01  -0.05  -0.04     0.04   0.01  -0.03     0.01  -0.02  -0.02
    10   6    -0.02  -0.01  -0.21    -0.00   0.01   0.17    -0.00  -0.02   0.07
    11   8     0.15   0.14   0.31     0.05   0.02   0.03     0.02  -0.01   0.02
    12   1     0.05   0.03   0.12     0.06   0.04   0.05     0.09   0.21  -0.11
    13   1    -0.04   0.10   0.06    -0.03   0.09   0.04     0.07  -0.11   0.51
    14   1    -0.02   0.13   0.12     0.01   0.08   0.05    -0.27  -0.39  -0.05
    15   1    -0.15   0.05  -0.11    -0.07   0.10  -0.14    -0.12  -0.16   0.07
    16   1    -0.12   0.15  -0.01    -0.51  -0.27   0.06     0.25   0.19  -0.05
    17   1    -0.16   0.12  -0.07     0.07  -0.28   0.35    -0.25   0.23  -0.24
    18   1     0.04  -0.01   0.06     0.01  -0.03  -0.11     0.01  -0.01  -0.09
    19   1     0.09  -0.10   0.06     0.05   0.04  -0.07     0.01   0.04  -0.05
    20   1     0.08  -0.16  -0.03     0.05   0.04  -0.10     0.02   0.06  -0.07
    21   1    -0.01  -0.08  -0.06     0.04   0.04   0.00     0.02   0.05   0.01
    22   1    -0.08  -0.00  -0.31    -0.05   0.03  -0.13     0.01  -0.00   0.03
    23   1    -0.10  -0.30  -0.15    -0.01  -0.08  -0.09     0.01   0.03   0.02
    24   1    -0.08  -0.15  -0.02     0.15   0.06  -0.04     0.07  -0.01  -0.02
    25   1    -0.06  -0.08  -0.31     0.03   0.06   0.24     0.04  -0.01   0.08
    26   1     0.00   0.12  -0.24    -0.12  -0.08   0.20    -0.08  -0.05   0.08
    27   1    -0.03  -0.03  -0.18     0.04   0.06   0.24     0.02  -0.02   0.13
                      4                      5                      6
                      A                      A                      A
 Frequencies --    207.0408               220.0721               232.3936
 Red. masses --      1.7409                 1.1908                 1.2843
 Frc consts  --      0.0440                 0.0340                 0.0409
 IR Inten    --      0.0793                 0.4948                 0.1649
  Atom  AN      X      Y      Z        X      Y      Z        X      Y      Z
     1   6     0.05   0.15  -0.09     0.01   0.02   0.02     0.01   0.04   0.02
     2   6    -0.00  -0.02   0.01     0.00  -0.01  -0.00    -0.01  -0.03  -0.00
     3   6    -0.03  -0.08   0.05    -0.02   0.02  -0.02    -0.05   0.02  -0.03
     4   6     0.01  -0.04   0.03     0.00  -0.02  -0.02    -0.01  -0.04  -0.04
     5   6    -0.00  -0.06   0.03     0.01  -0.01  -0.01    -0.00   0.01  -0.04
     6   6    -0.02  -0.05   0.01     0.01  -0.01  -0.00     0.01  -0.01   0.01
     7   6     0.02  -0.02  -0.01     0.01  -0.00   0.02     0.04   0.02   0.06
     8   6     0.02   0.01  -0.01     0.02  -0.01   0.02     0.03  -0.01   0.00
     9   6    -0.00   0.01   0.01     0.02  -0.01   0.01    -0.00  -0.03  -0.02
    10   6    -0.06   0.06  -0.00    -0.05   0.07   0.01    -0.05   0.01   0.03
    11   8     0.02   0.02  -0.04    -0.01  -0.05  -0.02     0.03  -0.01   0.00
    12   1     0.17   0.47  -0.31     0.01  -0.09   0.10    -0.04  -0.25   0.23
    13   1    -0.04   0.27   0.22    -0.02   0.03  -0.12    -0.07   0.07  -0.35
    14   1     0.10  -0.12  -0.28     0.07   0.15   0.09     0.18   0.37   0.18
    15   1    -0.12  -0.32   0.22    -0.03  -0.02  -0.01    -0.12  -0.18   0.08
    16   1     0.23  -0.08  -0.01     0.03   0.05  -0.01     0.20   0.12  -0.04
    17   1    -0.23   0.09   0.00    -0.06   0.05  -0.06    -0.24   0.17  -0.18
    18   1    -0.02  -0.04   0.06     0.01  -0.02  -0.03    -0.01  -0.05  -0.07
    19   1     0.00  -0.06   0.04     0.02   0.00  -0.01     0.00   0.02  -0.05
    20   1    -0.00  -0.09   0.04     0.02  -0.01  -0.02    -0.00   0.03  -0.04
    21   1     0.00  -0.08   0.00     0.01   0.00   0.00     0.03  -0.00   0.03
    22   1     0.06  -0.03   0.01     0.03  -0.01   0.04     0.09  -0.03   0.14
    23   1     0.02   0.01  -0.00     0.00   0.02   0.03     0.05   0.12   0.08
    24   1    -0.02   0.00   0.01     0.06  -0.05   0.02     0.03  -0.03  -0.02
    25   1    -0.13   0.06   0.01     0.15  -0.14  -0.42    -0.22   0.10   0.25
    26   1    -0.06   0.06   0.00    -0.44   0.48  -0.06     0.07  -0.20   0.08
    27   1    -0.03   0.14  -0.02     0.06  -0.06   0.49    -0.06   0.17  -0.17
                      7                      8                      9
                      A                      A                      A
 Frequencies --    270.8841               281.5569               331.3394
 Red. masses --      2.0055                 2.2392                 2.4195
 Frc consts  --      0.0867                 0.1046                 0.1565
 IR Inten    --      2.2434                 0.8051                 2.1459
  Atom  AN      X      Y      Z        X      Y      Z        X      Y      Z
     1   6    -0.02   0.00  -0.02    -0.00  -0.03  -0.02    -0.03  -0.08   0.03
     2   6    -0.02  -0.02   0.01     0.01   0.01   0.05     0.00   0.01  -0.02
     3   6    -0.04  -0.06   0.04     0.14  -0.03   0.08    -0.09  -0.09   0.05
     4   6    -0.03   0.01   0.01    -0.01   0.01  -0.02     0.04   0.04   0.02
     5   6    -0.04  -0.00   0.01     0.14   0.05  -0.01    -0.06   0.01   0.01
     6   6    -0.00  -0.01   0.01     0.03   0.06   0.06    -0.03   0.02  -0.04
     7   6     0.02   0.02  -0.02    -0.10  -0.06  -0.11    -0.05   0.01  -0.09
     8   6    -0.02   0.04  -0.05    -0.07  -0.02  -0.05     0.04   0.03   0.03
     9   6    -0.03   0.03  -0.02    -0.04  -0.00  -0.05     0.11   0.08   0.07
    10   6     0.13  -0.15   0.03    -0.08   0.01   0.04     0.13   0.14  -0.04
    11   8     0.03   0.14  -0.02    -0.04   0.01   0.04    -0.02  -0.11   0.01
    12   1    -0.08  -0.11   0.05    -0.07  -0.12   0.04    -0.11  -0.22   0.12
    13   1    -0.06   0.01  -0.20    -0.00  -0.05  -0.16     0.05  -0.17  -0.09
    14   1     0.07   0.13   0.03     0.06   0.06   0.01    -0.10   0.01   0.11
    15   1    -0.12  -0.28   0.20     0.10  -0.19   0.30    -0.20  -0.39   0.20
    16   1     0.22  -0.03  -0.02     0.44  -0.01   0.01     0.17  -0.12  -0.04
    17   1    -0.23   0.12  -0.04    -0.01   0.09  -0.08    -0.33   0.13   0.05
    18   1    -0.06   0.01   0.03    -0.03   0.01  -0.03     0.05   0.04   0.02
    19   1    -0.06  -0.03   0.00     0.21   0.08   0.06    -0.10  -0.01  -0.04
    20   1    -0.05   0.02   0.03     0.20   0.01  -0.11    -0.10   0.02   0.08
    21   1     0.03  -0.04   0.01     0.04   0.13   0.12    -0.04  -0.02  -0.07
    22   1     0.04  -0.00   0.02    -0.27   0.06  -0.28    -0.08   0.09  -0.23
    23   1     0.06   0.06  -0.03    -0.05  -0.31  -0.20    -0.10  -0.15  -0.11
    24   1    -0.06   0.06  -0.02    -0.02   0.04  -0.06     0.10   0.04   0.08
    25   1     0.47  -0.17  -0.12    -0.09   0.03   0.07     0.03   0.11  -0.04
    26   1    -0.00  -0.04   0.02    -0.16  -0.03   0.06     0.26   0.16  -0.06
    27   1     0.08  -0.45   0.26    -0.04   0.07   0.09     0.10   0.16  -0.16
                     10                     11                     12
                      A                      A                      A
 Frequencies --    371.5965               402.1390               421.7318
 Red. masses --      2.7675                 2.2219                 2.7543
 Frc consts  --      0.2252                 0.2117                 0.2886
 IR Inten    --      0.6372                 0.8528                 0.6195
  Atom  AN      X      Y      Z        X      Y      Z        X      Y      Z
     1   6     0.13   0.04   0.17    -0.07  -0.08  -0.12     0.15  -0.05  -0.05
     2   6     0.05  -0.03  -0.09    -0.01   0.02  -0.01     0.09  -0.13   0.02
     3   6     0.09  -0.10  -0.05    -0.10   0.01  -0.01    -0.10  -0.01  -0.11
     4   6    -0.00   0.01  -0.04     0.03   0.02   0.03    -0.03  -0.03  -0.02
     5   6     0.02  -0.09  -0.04     0.20  -0.10   0.02     0.04   0.06  -0.02
     6   6    -0.07  -0.04  -0.09    -0.02  -0.01  -0.01     0.06   0.00   0.11
     7   6    -0.05   0.02   0.04     0.01   0.04   0.07    -0.04  -0.07   0.04
     8   6    -0.11   0.06   0.01    -0.04   0.03  -0.01    -0.07   0.05   0.10
     9   6    -0.02   0.07  -0.04     0.01   0.04  -0.05    -0.02   0.05   0.08
    10   6     0.03   0.02  -0.01     0.02   0.03   0.01     0.05   0.02  -0.01
    11   8    -0.12   0.04   0.04    -0.05  -0.00   0.04    -0.10   0.07  -0.04
    12   1     0.39  -0.03   0.26    -0.21  -0.08  -0.13     0.17   0.02  -0.09
    13   1     0.08   0.10   0.28     0.01  -0.16  -0.18     0.06   0.04  -0.05
    14   1    -0.03   0.16   0.30    -0.05  -0.13  -0.16     0.27  -0.06  -0.09
    15   1     0.11  -0.11   0.07    -0.14  -0.04  -0.08    -0.16  -0.03  -0.38
    16   1     0.15  -0.19  -0.12    -0.15   0.02   0.00    -0.22   0.21   0.06
    17   1     0.10  -0.10  -0.01    -0.14   0.06   0.06    -0.16   0.05  -0.16
    18   1    -0.07   0.01   0.02     0.02   0.06   0.15    -0.15  -0.09  -0.11
    19   1     0.15  -0.03   0.08     0.39   0.00   0.21     0.06   0.05   0.02
    20   1     0.09  -0.24  -0.11     0.32  -0.32  -0.13     0.08   0.14  -0.10
    21   1    -0.15  -0.02  -0.16    -0.03   0.04   0.01     0.04   0.09   0.16
    22   1     0.09  -0.06   0.16     0.15  -0.07   0.23    -0.17   0.08  -0.22
    23   1    -0.05   0.23   0.09     0.03   0.29   0.12    -0.01  -0.37  -0.05
    24   1     0.01   0.07  -0.04     0.02   0.06  -0.05     0.03  -0.03   0.09
    25   1     0.08   0.05   0.02     0.05   0.06   0.04     0.05   0.01  -0.03
    26   1     0.05  -0.01   0.00    -0.00  -0.00   0.03     0.17   0.05  -0.02
    27   1     0.01  -0.02  -0.02     0.03   0.04   0.03    -0.01  -0.06  -0.09
                     13                     14                     15
                      A                      A                      A
 Frequencies --    456.5847               477.6207               541.6066
 Red. masses --      3.6325                 2.7701                 3.9800
 Frc consts  --      0.4462                 0.3723                 0.6879
 IR Inten    --      8.7107                 0.7713                 0.0594
  Atom  AN      X      Y      Z        X      Y      Z        X      Y      Z
     1   6     0.03   0.01   0.00     0.17  -0.08  -0.02    -0.03   0.05  -0.02
     2   6    -0.02  -0.13   0.11     0.17   0.08  -0.04    -0.02   0.03  -0.04
     3   6     0.01   0.04  -0.01    -0.07  -0.01   0.00     0.00  -0.03  -0.02
     4   6    -0.02  -0.09  -0.00     0.07   0.09   0.08    -0.20   0.16   0.01
     5   6    -0.08  -0.02   0.04    -0.06   0.04   0.09     0.04   0.04  -0.04
     6   6     0.01  -0.05   0.12     0.05   0.03  -0.04     0.22  -0.04  -0.10
     7   6     0.04   0.13  -0.08     0.01   0.02  -0.02     0.18  -0.06  -0.05
     8   6    -0.03   0.05  -0.18    -0.06  -0.05  -0.10     0.01   0.00   0.05
     9   6     0.03   0.10  -0.17    -0.06  -0.03  -0.06    -0.14   0.10   0.10
    10   6     0.07   0.06  -0.00    -0.12  -0.05   0.00    -0.03  -0.03   0.00
    11   8    -0.05  -0.14   0.16    -0.01  -0.01   0.06    -0.05  -0.16   0.10
    12   1     0.04   0.10  -0.07     0.07  -0.13   0.00     0.02   0.08  -0.03
    13   1    -0.09   0.12  -0.00     0.29  -0.19  -0.05    -0.12   0.12  -0.03
    14   1     0.18  -0.02  -0.07     0.09  -0.09  -0.00     0.05   0.07  -0.03
    15   1     0.05   0.17  -0.14    -0.21  -0.24  -0.12    -0.00  -0.08   0.07
    16   1    -0.04   0.25   0.14    -0.15  -0.08  -0.02     0.03  -0.14  -0.10
    17   1     0.07  -0.04  -0.21    -0.22   0.16   0.26    -0.01  -0.01   0.06
    18   1    -0.19  -0.13   0.01     0.12   0.11   0.11    -0.22   0.15  -0.01
    19   1    -0.15  -0.00  -0.11    -0.20  -0.04  -0.04    -0.01  -0.25   0.24
    20   1    -0.14   0.07   0.13    -0.17   0.09   0.25     0.15   0.21  -0.25
    21   1     0.12  -0.14   0.18    -0.04  -0.01  -0.17     0.26  -0.03  -0.05
    22   1     0.04   0.10  -0.02    -0.05  -0.02   0.08     0.25  -0.06  -0.07
    23   1     0.25   0.18  -0.17     0.09   0.10  -0.04     0.17  -0.03  -0.04
    24   1    -0.02   0.26  -0.19    -0.20   0.05  -0.07    -0.17   0.08   0.10
    25   1     0.22   0.12   0.04    -0.13  -0.04   0.03     0.11  -0.01  -0.02
    26   1    -0.03  -0.03   0.03    -0.26  -0.08   0.02     0.14  -0.01  -0.01
    27   1     0.09   0.01   0.09    -0.05   0.04   0.10    -0.14  -0.24  -0.07
                     16                     17                     18
                      A                      A                      A
 Frequencies --    581.9434               604.9073               674.3019
 Red. masses --      3.1951                 3.1905                 2.7971
 Frc consts  --      0.6375                 0.6878                 0.7493
 IR Inten    --      0.7000                 0.9755                 0.1392
  Atom  AN      X      Y      Z        X      Y      Z        X      Y      Z
     1   6    -0.00  -0.00   0.01     0.03  -0.02  -0.01     0.16  -0.07  -0.02
     2   6    -0.03  -0.04  -0.06     0.04   0.05   0.05     0.03  -0.03   0.06
     3   6     0.00  -0.10  -0.14     0.00   0.10   0.15    -0.01   0.09   0.14
     4   6    -0.01  -0.04   0.09     0.05  -0.03  -0.08    -0.15  -0.01  -0.05
     5   6     0.04   0.03   0.13    -0.02  -0.09  -0.07    -0.03   0.01  -0.03
     6   6    -0.05   0.11   0.02     0.02  -0.08  -0.05    -0.13   0.01  -0.07
     7   6     0.01   0.23  -0.06     0.07   0.07  -0.01    -0.08   0.05  -0.03
     8   6     0.12   0.10   0.06     0.02   0.19   0.19     0.10  -0.04  -0.02
     9   6    -0.04  -0.04   0.01     0.01  -0.03  -0.09    -0.05   0.04   0.05
    10   6    -0.08  -0.10   0.00    -0.05  -0.07  -0.00    -0.01  -0.00   0.00
    11   8     0.04  -0.07  -0.03    -0.13  -0.02  -0.02     0.11  -0.05  -0.02
    12   1     0.16  -0.03   0.05    -0.12  -0.00  -0.04     0.12  -0.05  -0.04
    13   1    -0.05   0.05   0.08     0.10  -0.08  -0.07     0.15  -0.06  -0.05
    14   1    -0.07   0.06   0.07     0.07  -0.08  -0.06     0.23  -0.09  -0.05
    15   1     0.01  -0.10  -0.15    -0.01   0.08   0.15    -0.03   0.09   0.06
    16   1     0.01  -0.09  -0.13     0.01   0.08   0.14    -0.04   0.19   0.21
    17   1     0.00  -0.10  -0.17    -0.01   0.12   0.18    -0.04   0.12   0.11
    18   1     0.03  -0.03   0.09     0.03  -0.02  -0.04    -0.27  -0.09  -0.17
    19   1     0.23   0.18   0.26    -0.10  -0.10  -0.20     0.22   0.10   0.27
    20   1     0.14  -0.21   0.01    -0.11  -0.05   0.06     0.17  -0.22  -0.32
    21   1     0.02  -0.03  -0.00     0.01  -0.13  -0.10    -0.17  -0.04  -0.16
    22   1    -0.06   0.39  -0.36     0.25   0.23  -0.43    -0.03  -0.02   0.08
    23   1    -0.12  -0.14  -0.09    -0.09  -0.26  -0.02    -0.18   0.16   0.05
    24   1    -0.12  -0.09   0.02     0.10  -0.24  -0.06    -0.02   0.07   0.04
    25   1    -0.01  -0.06   0.04     0.01   0.00   0.10     0.10   0.01  -0.02
    26   1    -0.12  -0.16   0.02    -0.16  -0.21   0.04     0.12   0.02  -0.01
    27   1    -0.08  -0.14   0.05    -0.02  -0.05   0.06    -0.08  -0.15  -0.05
                     19                     20                     21
                      A                      A                      A
 Frequencies --    702.2033               839.6970               846.8438
 Red. masses --      2.9612                 2.1597                 2.2191
 Frc consts  --      0.8603                 0.8972                 0.9376
 IR Inten    --      1.2811                 2.3170                 0.2202
  Atom  AN      X      Y      Z        X      Y      Z        X      Y      Z
     1   6     0.01  -0.01  -0.00     0.01   0.04  -0.03    -0.02   0.02  -0.01
     2   6    -0.01  -0.03   0.03     0.04   0.12  -0.09     0.03   0.05  -0.04
     3   6    -0.00   0.02   0.04     0.01   0.05  -0.02     0.01   0.03   0.00
     4   6     0.05  -0.10   0.00    -0.01  -0.12  -0.01    -0.11  -0.02  -0.10
     5   6     0.03   0.03  -0.03    -0.02  -0.02  -0.07    -0.07   0.05   0.19
     6   6     0.03   0.01  -0.07    -0.07  -0.06   0.16     0.02  -0.01   0.00
     7   6     0.03   0.13  -0.18     0.07  -0.00   0.03     0.07  -0.01   0.01
     8   6    -0.10   0.02  -0.06     0.01   0.02  -0.07    -0.06  -0.03  -0.01
     9   6     0.05  -0.11   0.23    -0.04   0.03   0.06     0.07  -0.10  -0.05
    10   6    -0.03  -0.05   0.02    -0.03   0.00   0.02     0.09   0.02   0.00
    11   8    -0.09   0.05   0.03     0.01  -0.02   0.02    -0.04   0.03   0.01
    12   1    -0.02  -0.00  -0.01    -0.02  -0.10   0.07    -0.01  -0.01   0.01
    13   1     0.01  -0.01  -0.02     0.27  -0.18   0.05     0.04  -0.03  -0.00
    14   1     0.04  -0.03  -0.02    -0.32   0.02   0.06    -0.09   0.02   0.01
    15   1     0.01   0.06   0.02    -0.03  -0.08   0.10    -0.01  -0.03   0.04
    16   1     0.01   0.08   0.08    -0.03  -0.23  -0.19    -0.01  -0.09  -0.07
    17   1     0.02  -0.01  -0.04    -0.01   0.11   0.30    -0.00   0.05   0.14
    18   1     0.17  -0.12  -0.14     0.02  -0.11  -0.00    -0.16  -0.14  -0.37
    19   1     0.03   0.02  -0.04     0.11   0.19  -0.12     0.13   0.02   0.54
    20   1     0.05   0.05  -0.06     0.04  -0.03  -0.17     0.13  -0.14  -0.09
    21   1     0.16  -0.09  -0.02    -0.09  -0.01   0.18    -0.02  -0.17  -0.18
    22   1     0.16  -0.06   0.15     0.03   0.08  -0.12     0.00   0.06  -0.08
    23   1     0.17   0.50  -0.16     0.27  -0.19  -0.12     0.14  -0.14  -0.05
    24   1     0.12  -0.10   0.22    -0.01   0.19   0.04     0.16  -0.16  -0.05
    25   1    -0.29  -0.23  -0.17     0.04  -0.05  -0.09    -0.12  -0.01   0.02
    26   1     0.17   0.22  -0.06     0.19   0.10  -0.02    -0.07   0.05   0.00
    27   1    -0.06  -0.00  -0.14    -0.15  -0.20  -0.10     0.21   0.27   0.05
                     22                     23                     24
                      A                      A                      A
 Frequencies --    874.0021               903.6594               925.6027
 Red. masses --      2.4823                 2.2564                 1.8053
 Frc consts  --      1.1172                 1.0856                 0.9113
 IR Inten    --      1.8171                 3.3858                 2.9957
  Atom  AN      X      Y      Z        X      Y      Z        X      Y      Z
     1   6    -0.03   0.01   0.01     0.01  -0.03   0.01    -0.07   0.00   0.02
     2   6     0.02  -0.02   0.03    -0.03  -0.03   0.03     0.04  -0.06   0.00
     3   6     0.00  -0.02  -0.01    -0.00  -0.02   0.00     0.01  -0.00   0.05
     4   6     0.06  -0.05   0.07     0.02   0.21   0.04     0.06  -0.05   0.00
     5   6     0.04   0.23   0.05    -0.09   0.00  -0.13     0.00   0.02  -0.00
     6   6    -0.13  -0.11  -0.05    -0.10  -0.06   0.08     0.02   0.02  -0.13
     7   6     0.05  -0.13  -0.06     0.08   0.01   0.02     0.07   0.04   0.13
     8   6     0.02   0.06   0.03    -0.02  -0.01  -0.05    -0.05  -0.06  -0.07
     9   6    -0.01   0.03  -0.02     0.05  -0.05   0.02    -0.04   0.02   0.01
    10   6    -0.02   0.00  -0.02     0.02  -0.06  -0.00    -0.01   0.01   0.04
    11   8    -0.02  -0.01   0.00     0.00   0.00   0.01    -0.01   0.01   0.02
    12   1    -0.07   0.01   0.00     0.10   0.02  -0.02    -0.06   0.07  -0.03
    13   1    -0.02  -0.00  -0.00    -0.12   0.08   0.00    -0.18   0.09  -0.02
    14   1    -0.02  -0.01  -0.01     0.14  -0.00  -0.01     0.08   0.00  -0.03
    15   1    -0.00  -0.02  -0.04     0.00   0.01  -0.04    -0.01  -0.00  -0.07
    16   1    -0.01   0.02   0.01     0.01   0.07   0.06    -0.00   0.12   0.13
    17   1     0.00  -0.02  -0.03    -0.00  -0.03  -0.10    -0.03   0.03  -0.04
    18   1     0.04  -0.10  -0.04     0.16   0.30   0.17     0.09  -0.05  -0.01
    19   1     0.16   0.50  -0.08     0.21   0.18   0.13     0.08   0.18  -0.08
    20   1     0.09   0.22  -0.03     0.07  -0.24  -0.33    -0.00  -0.16   0.03
    21   1    -0.26  -0.20  -0.26    -0.11  -0.05   0.08    -0.10  -0.12  -0.37
    22   1     0.41  -0.25   0.01     0.11   0.09  -0.16    -0.18   0.26  -0.23
    23   1     0.06   0.10  -0.00     0.24  -0.17  -0.11    -0.05  -0.41   0.07
    24   1    -0.14  -0.02  -0.01    -0.01  -0.02   0.02    -0.02   0.34  -0.04
    25   1     0.11   0.09   0.07    -0.30  -0.14  -0.03    -0.03  -0.08  -0.12
    26   1    -0.09  -0.13   0.02    -0.14   0.06  -0.02     0.21   0.18  -0.02
    27   1    -0.01  -0.05   0.06     0.16   0.27   0.03    -0.12  -0.12  -0.12
                     25                     26                     27
                      A                      A                      A
 Frequencies --    946.5047               962.3044               976.5931
 Red. masses --      2.3537                 1.4825                 1.7840
 Frc consts  --      1.2424                 0.8089                 1.0024
 IR Inten    --      0.5062                 2.0360                 2.3301
  Atom  AN      X      Y      Z        X      Y      Z        X      Y      Z
     1   6     0.07  -0.06  -0.04     0.10  -0.01   0.04     0.02  -0.06  -0.10
     2   6    -0.11  -0.01  -0.08    -0.09   0.04   0.03    -0.08  -0.05  -0.09
     3   6    -0.04   0.08   0.03    -0.10  -0.01  -0.04    -0.03   0.03   0.09
     4   6    -0.05  -0.10   0.16     0.02   0.02  -0.04     0.05   0.02  -0.05
     5   6     0.02   0.05  -0.07     0.01   0.01   0.05    -0.00   0.00   0.08
     6   6     0.04   0.00  -0.06    -0.01   0.01  -0.01    -0.01   0.06   0.01
     7   6     0.02   0.05   0.03     0.03  -0.02   0.02     0.05  -0.08  -0.01
     8   6    -0.03  -0.04   0.01    -0.01  -0.00  -0.01     0.00   0.02   0.00
     9   6    -0.04  -0.09  -0.03    -0.00   0.01  -0.01     0.01   0.04  -0.00
    10   6     0.11   0.06  -0.01    -0.02  -0.00   0.02    -0.04  -0.01   0.00
    11   8    -0.02   0.02  -0.00    -0.00  -0.00   0.00    -0.01  -0.00   0.01
    12   1     0.34  -0.07  -0.00    -0.23   0.05  -0.05     0.60  -0.18   0.06
    13   1    -0.05   0.06   0.06     0.22  -0.13  -0.14    -0.13   0.11   0.19
    14   1     0.06   0.04   0.04     0.24  -0.18  -0.11    -0.24   0.21   0.16
    15   1     0.04   0.13   0.33     0.13   0.30   0.43     0.03   0.16   0.10
    16   1     0.06  -0.16  -0.15     0.20  -0.16  -0.23     0.03   0.17   0.17
    17   1     0.07  -0.02   0.12     0.17  -0.29  -0.30    -0.00  -0.02  -0.11
    18   1     0.03  -0.01   0.35     0.07   0.03  -0.04     0.12   0.05  -0.04
    19   1     0.01   0.08  -0.14     0.00   0.05   0.00    -0.01   0.03   0.04
    20   1     0.05   0.24  -0.16    -0.02  -0.07   0.11    -0.08  -0.13   0.23
    21   1     0.12  -0.05  -0.00    -0.02  -0.00  -0.02    -0.01   0.16   0.10
    22   1    -0.05   0.11  -0.09     0.04   0.01  -0.04     0.11  -0.10   0.01
    23   1    -0.11  -0.11   0.05     0.02  -0.08   0.00     0.13  -0.02  -0.03
    24   1    -0.27  -0.07  -0.02     0.12   0.10  -0.03     0.13   0.05  -0.01
    25   1     0.04   0.11   0.09    -0.02  -0.05  -0.06     0.02  -0.02  -0.04
    26   1    -0.09  -0.01   0.03     0.10   0.07  -0.01     0.06   0.01  -0.01
    27   1     0.23   0.25   0.13    -0.08  -0.08  -0.07    -0.11  -0.13  -0.06
                     28                     29                     30
                      A                      A                      A
 Frequencies --   1012.7972              1029.8953              1049.2725
 Red. masses --      1.5032                 1.2974                 2.2202
 Frc consts  --      0.9085                 0.8108                 1.4402
 IR Inten    --      4.8095                 2.1453                11.4634
  Atom  AN      X      Y      Z        X      Y      Z        X      Y      Z
     1   6    -0.01  -0.05   0.01    -0.03  -0.08   0.05    -0.03  -0.00   0.01
     2   6    -0.01  -0.00  -0.00    -0.01  -0.01   0.00     0.03  -0.05  -0.04
     3   6     0.01   0.05  -0.03     0.02   0.07  -0.04    -0.04   0.05   0.02
     4   6    -0.06   0.02  -0.00     0.04   0.01  -0.04     0.07  -0.06   0.06
     5   6     0.07   0.03   0.04    -0.03  -0.00   0.00    -0.08   0.02  -0.03
     6   6    -0.02  -0.07   0.01     0.01   0.01   0.03     0.08  -0.00  -0.03
     7   6    -0.06   0.01   0.02     0.00  -0.00  -0.03    -0.07  -0.05   0.06
     8   6     0.03   0.05  -0.02    -0.01  -0.02   0.02     0.04   0.12  -0.07
     9   6     0.06   0.01  -0.05    -0.01  -0.00   0.02     0.12   0.10   0.04
    10   6    -0.02  -0.08   0.05    -0.03   0.05  -0.02    -0.05  -0.09  -0.06
    11   8     0.01  -0.01  -0.00    -0.00   0.00  -0.00    -0.01  -0.01   0.01
    12   1     0.16   0.04  -0.04     0.08   0.13  -0.10    -0.05   0.04  -0.02
    13   1    -0.23   0.15   0.02    -0.36   0.21  -0.05    -0.09   0.03  -0.03
    14   1     0.17   0.03   0.00     0.39  -0.03  -0.05     0.04  -0.01  -0.02
    15   1    -0.04  -0.10   0.06    -0.04  -0.11   0.11     0.03   0.11   0.24
    16   1    -0.05  -0.18  -0.16    -0.04  -0.25  -0.23     0.05  -0.10  -0.10
    17   1    -0.02   0.10   0.25     0.01   0.10   0.30     0.06  -0.04   0.04
    18   1    -0.14   0.04   0.10     0.16   0.03  -0.06     0.11  -0.17  -0.24
    19   1    -0.10  -0.07  -0.11     0.08   0.15  -0.01     0.02  -0.21   0.40
    20   1    -0.01   0.31   0.12    -0.04  -0.24   0.06     0.12   0.01  -0.34
    21   1    -0.07  -0.05  -0.03     0.02  -0.04  -0.00    -0.01   0.19   0.02
    22   1     0.06   0.01  -0.03    -0.11  -0.03   0.09    -0.20  -0.04   0.09
    23   1    -0.14   0.02   0.06     0.14   0.04  -0.08    -0.04  -0.03   0.05
    24   1     0.33   0.20  -0.09     0.02  -0.18   0.04    -0.22   0.22   0.04
    25   1    -0.31  -0.28  -0.18     0.25   0.16   0.07    -0.13  -0.04   0.06
    26   1     0.14   0.24  -0.04     0.02  -0.13   0.02    -0.29  -0.20  -0.01
    27   1    -0.03   0.05  -0.14    -0.11  -0.18   0.02     0.05   0.05   0.09
                     31                     32                     33
                      A                      A                      A
 Frequencies --   1055.9900              1082.6697              1105.8833
 Red. masses --      1.6419                 1.5004                 1.7329
 Frc consts  --      1.0787                 1.0362                 1.2486
 IR Inten    --      7.9176                 2.1579                 3.5742
  Atom  AN      X      Y      Z        X      Y      Z        X      Y      Z
     1   6     0.00  -0.02   0.05     0.00  -0.02  -0.01    -0.01  -0.00  -0.01
     2   6     0.00   0.01   0.02    -0.02   0.02   0.01     0.02  -0.02  -0.02
     3   6     0.03  -0.00  -0.02     0.00  -0.01  -0.00    -0.03   0.01   0.01
     4   6    -0.05  -0.05   0.03     0.05   0.05  -0.03    -0.03   0.04  -0.06
     5   6     0.02  -0.04  -0.01     0.04   0.01   0.02     0.12  -0.02   0.02
     6   6    -0.07   0.13  -0.04    -0.04  -0.10   0.02    -0.04  -0.04   0.01
     7   6     0.06  -0.07   0.00    -0.04   0.05   0.04     0.00   0.05   0.05
     8   6     0.02   0.07  -0.04     0.00   0.02  -0.05    -0.01  -0.02  -0.06
     9   6    -0.04  -0.05   0.01    -0.07  -0.08   0.01     0.01   0.06   0.13
    10   6     0.05  -0.00   0.01     0.01   0.06   0.02     0.01  -0.03  -0.07
    11   8    -0.01  -0.01   0.01     0.01  -0.01   0.00     0.02  -0.01   0.01
    12   1    -0.10   0.09  -0.05     0.11  -0.01  -0.01     0.05  -0.01   0.01
    13   1    -0.07   0.04  -0.06    -0.06   0.03   0.02    -0.03   0.02   0.02
    14   1     0.20  -0.06  -0.05     0.01   0.03   0.02    -0.05   0.03   0.02
    15   1    -0.03  -0.08  -0.08     0.00  -0.00  -0.03     0.03   0.09   0.13
    16   1    -0.04  -0.02  -0.01     0.00   0.02   0.01     0.05  -0.02  -0.04
    17   1    -0.02   0.06   0.08     0.00  -0.01  -0.04     0.05  -0.06  -0.04
    18   1    -0.02  -0.08  -0.06     0.44  -0.00  -0.44    -0.27  -0.05  -0.15
    19   1    -0.11  -0.18  -0.04    -0.14  -0.41   0.23    -0.08  -0.03  -0.30
    20   1    -0.08  -0.09   0.15     0.06   0.29  -0.06    -0.08   0.12   0.32
    21   1    -0.33   0.65   0.06    -0.07   0.03   0.08    -0.24  -0.08  -0.22
    22   1     0.31  -0.06  -0.13     0.18   0.08  -0.15    -0.14   0.12  -0.04
    23   1     0.16  -0.05  -0.05    -0.13  -0.04   0.06     0.21  -0.12  -0.10
    24   1    -0.14   0.01   0.01    -0.25   0.06   0.00    -0.11  -0.22   0.17
    25   1    -0.10  -0.05  -0.01     0.16   0.10   0.01    -0.02   0.10   0.15
    26   1    -0.01   0.08  -0.00     0.11   0.02   0.02    -0.32  -0.23   0.00
    27   1     0.11   0.14   0.01    -0.05  -0.09   0.01     0.16   0.14   0.16
                     34                     35                     36
                      A                      A                      A
 Frequencies --   1114.6700              1151.1712              1182.9461
 Red. masses --      1.2667                 1.9847                 2.2082
 Frc consts  --      0.9273                 1.5497                 1.8206
 IR Inten    --      6.6064                19.2717                15.0550
  Atom  AN      X      Y      Z        X      Y      Z        X      Y      Z
     1   6     0.00  -0.01   0.01    -0.01  -0.01   0.00    -0.06  -0.03   0.02
     2   6     0.01   0.04  -0.03     0.02   0.02  -0.03     0.14  -0.00  -0.07
     3   6    -0.01  -0.04   0.02    -0.02  -0.02   0.02    -0.07   0.01   0.02
     4   6    -0.06  -0.03   0.02    -0.01  -0.01  -0.06     0.07  -0.01   0.01
     5   6    -0.00  -0.02   0.01    -0.01  -0.04   0.02    -0.01  -0.04  -0.01
     6   6     0.01   0.01   0.01     0.08  -0.00   0.06    -0.03   0.03   0.08
     7   6    -0.01  -0.00   0.02    -0.06  -0.05  -0.01    -0.01   0.06  -0.08
     8   6     0.00   0.03  -0.04     0.08   0.15  -0.01    -0.02  -0.13   0.15
     9   6     0.07  -0.04  -0.01    -0.15  -0.04  -0.01    -0.04   0.03  -0.06
    10   6    -0.05   0.03  -0.01     0.08  -0.01   0.05     0.01  -0.01   0.03
    11   8    -0.01   0.00   0.00     0.01  -0.03   0.00     0.02   0.01  -0.02
    12   1    -0.01   0.04  -0.02     0.02   0.02  -0.02     0.00   0.08  -0.05
    13   1    -0.04   0.02  -0.03    -0.07   0.04  -0.00    -0.23   0.12  -0.01
    14   1     0.08  -0.01  -0.01     0.03   0.02   0.00     0.06   0.04   0.02
    15   1     0.02   0.05  -0.07     0.03   0.08   0.01     0.06   0.21   0.21
    16   1     0.03   0.13   0.12     0.03   0.08   0.07     0.14   0.00  -0.04
    17   1    -0.01  -0.04  -0.15     0.01  -0.05  -0.13     0.07  -0.13  -0.13
    18   1     0.14   0.14   0.34     0.32   0.11   0.01    -0.25  -0.11  -0.05
    19   1    -0.05  -0.13   0.07     0.09   0.25  -0.17    -0.05  -0.18   0.10
    20   1     0.10   0.34  -0.22    -0.00  -0.06   0.01     0.08   0.25  -0.21
    21   1    -0.30   0.06  -0.29    -0.13  -0.21  -0.33    -0.27   0.05  -0.17
    22   1    -0.12   0.02   0.03    -0.39  -0.11   0.27     0.17  -0.01  -0.01
    23   1     0.25  -0.02  -0.11     0.11   0.12  -0.05     0.29   0.13  -0.21
    24   1     0.32  -0.23   0.01    -0.24  -0.05  -0.00    -0.22   0.22  -0.08
    25   1     0.20   0.10   0.01    -0.19  -0.12  -0.04    -0.08  -0.07  -0.04
    26   1     0.08  -0.11   0.01     0.05   0.21  -0.00     0.07   0.14  -0.01
    27   1    -0.14  -0.21  -0.00     0.14   0.20  -0.03     0.02   0.07  -0.05
                     37                     38                     39
                      A                      A                      A
 Frequencies --   1198.0158              1233.6637              1243.0741
 Red. masses --      1.9436                 1.7176                 1.7147
 Frc consts  --      1.6435                 1.5401                 1.5611
 IR Inten    --      1.5343                 6.6200                 0.4297
  Atom  AN      X      Y      Z        X      Y      Z        X      Y      Z
     1   6     0.02  -0.06   0.05    -0.04  -0.05   0.02     0.03  -0.05  -0.01
     2   6    -0.07   0.14  -0.06     0.12   0.11  -0.08    -0.09   0.14   0.05
     3   6     0.04  -0.06   0.02    -0.05  -0.05   0.04     0.03  -0.05  -0.01
     4   6    -0.02  -0.08  -0.09    -0.02   0.02   0.06     0.01  -0.00   0.10
     5   6    -0.01  -0.05   0.06    -0.02  -0.01   0.01     0.03   0.00  -0.05
     6   6    -0.02   0.03   0.03     0.02  -0.06  -0.01    -0.03  -0.02  -0.04
     7   6     0.03  -0.00  -0.01    -0.03  -0.01   0.02     0.03  -0.01   0.01
     8   6    -0.02  -0.06   0.02     0.00   0.04  -0.07     0.01   0.01   0.06
     9   6     0.02   0.09   0.05     0.01  -0.06   0.01     0.05   0.00  -0.04
    10   6     0.01  -0.05  -0.06    -0.01   0.03   0.01    -0.01  -0.01   0.02
    11   8    -0.00   0.01  -0.00     0.00  -0.00   0.01    -0.01   0.00  -0.01
    12   1     0.03   0.11  -0.08     0.04   0.11  -0.08     0.17  -0.01  -0.02
    13   1    -0.11   0.05  -0.09    -0.22   0.12  -0.02    -0.04   0.02   0.03
    14   1     0.31  -0.05  -0.04     0.14   0.04   0.01     0.11   0.04   0.02
    15   1    -0.00  -0.03  -0.25     0.06   0.19   0.01    -0.01  -0.05  -0.19
    16   1    -0.05   0.15   0.17     0.13   0.13   0.09    -0.05   0.04   0.06
    17   1    -0.11   0.07  -0.09     0.02  -0.13  -0.23    -0.07   0.02  -0.12
    18   1     0.29   0.08   0.10    -0.35  -0.15  -0.17    -0.22  -0.27  -0.46
    19   1     0.04   0.13  -0.08     0.10   0.31  -0.18    -0.04  -0.11  -0.02
    20   1     0.08   0.25  -0.13    -0.02  -0.11   0.03    -0.04  -0.05   0.06
    21   1     0.15  -0.15   0.07     0.21   0.15   0.35     0.06  -0.13  -0.03
    22   1     0.19  -0.01  -0.07     0.16   0.00  -0.09    -0.44   0.01   0.20
    23   1    -0.21  -0.01   0.11    -0.25   0.00   0.13     0.39  -0.04  -0.17
    24   1    -0.12   0.35   0.02     0.09  -0.20   0.03    -0.10   0.11  -0.05
    25   1    -0.10   0.01   0.08     0.06   0.02  -0.01    -0.01  -0.04  -0.04
    26   1    -0.24  -0.11  -0.02     0.06  -0.01   0.01     0.05   0.03   0.00
    27   1     0.13   0.13   0.09    -0.05  -0.07  -0.00    -0.04  -0.03  -0.03
                     40                     41                     42
                      A                      A                      A
 Frequencies --   1248.0858              1269.8262              1304.0943
 Red. masses --      2.0486                 1.6394                 1.6537
 Frc consts  --      1.8802                 1.5575                 1.6570
 IR Inten    --      5.5545                 1.2711                 0.9329
  Atom  AN      X      Y      Z        X      Y      Z        X      Y      Z
     1   6    -0.01  -0.04  -0.09     0.01   0.01   0.01     0.02   0.03   0.01
     2   6     0.04   0.08   0.21    -0.03  -0.06   0.01    -0.02  -0.07  -0.05
     3   6    -0.03  -0.01  -0.07     0.01   0.03  -0.01     0.01   0.01   0.01
     4   6     0.00  -0.01  -0.00     0.08   0.06   0.00    -0.09   0.08   0.07
     5   6    -0.04  -0.08  -0.03    -0.03  -0.12   0.09     0.01  -0.08   0.02
     6   6     0.04   0.09   0.05    -0.06   0.04  -0.07     0.05   0.01   0.03
     7   6     0.04  -0.03  -0.02     0.06  -0.01  -0.00    -0.03  -0.00  -0.01
     8   6    -0.01   0.00  -0.04     0.00   0.01  -0.02     0.00   0.00   0.04
     9   6     0.03  -0.01   0.02    -0.04   0.02  -0.01     0.06  -0.10   0.01
    10   6    -0.01   0.01  -0.01     0.00  -0.00   0.02    -0.03   0.02  -0.04
    11   8    -0.01   0.01   0.01    -0.00  -0.00   0.00    -0.01   0.01  -0.01
    12   1     0.32  -0.12   0.03    -0.05  -0.02   0.02    -0.12  -0.01   0.02
    13   1    -0.09   0.07   0.20     0.05  -0.03  -0.01     0.07  -0.03  -0.04
    14   1    -0.14   0.19   0.11    -0.02  -0.04  -0.02    -0.07  -0.06  -0.03
    15   1    -0.01  -0.02   0.04    -0.02  -0.07   0.03     0.01   0.01   0.04
    16   1     0.06  -0.17  -0.20    -0.05  -0.05  -0.03    -0.02   0.01   0.02
    17   1     0.08  -0.12  -0.08     0.01   0.04   0.09    -0.03   0.05   0.07
    18   1    -0.11  -0.07  -0.09    -0.13  -0.07  -0.19     0.17  -0.02  -0.39
    19   1     0.04   0.08  -0.10     0.08   0.25  -0.18     0.11   0.32  -0.31
    20   1     0.03   0.06  -0.18     0.18   0.59  -0.38    -0.01   0.06   0.02
    21   1    -0.22  -0.11  -0.39     0.12   0.11   0.19    -0.11   0.04  -0.13
    22   1     0.18  -0.03  -0.08    -0.25   0.02   0.08     0.11  -0.02  -0.03
    23   1    -0.42   0.04   0.22    -0.00  -0.04   0.02     0.05   0.07  -0.04
    24   1    -0.03   0.05   0.02     0.04  -0.27   0.03     0.07   0.62  -0.10
    25   1     0.03   0.03   0.01    -0.03  -0.03  -0.01     0.14   0.10   0.03
    26   1    -0.02  -0.05   0.00     0.05   0.07  -0.00    -0.00  -0.14  -0.00
    27   1    -0.01  -0.03   0.03    -0.00   0.02  -0.02    -0.01  -0.05   0.08
                     43                     44                     45
                      A                      A                      A
 Frequencies --   1315.7231              1328.9742              1347.4545
 Red. masses --      1.7991                 1.8688                 1.5897
 Frc consts  --      1.8350                 1.9447                 1.7006
 IR Inten    --      2.5117                 1.1105                 3.2525
  Atom  AN      X      Y      Z        X      Y      Z        X      Y      Z
     1   6    -0.03  -0.01  -0.05    -0.02  -0.01   0.01     0.02  -0.00   0.01
     2   6     0.07   0.04   0.13     0.12  -0.02  -0.02    -0.06   0.01  -0.03
     3   6    -0.03  -0.01  -0.03    -0.04  -0.00  -0.01     0.02  -0.01   0.01
     4   6    -0.04  -0.04  -0.03    -0.05  -0.00   0.02     0.07  -0.01   0.09
     5   6    -0.03   0.01   0.04     0.05   0.02  -0.03    -0.02   0.01  -0.03
     6   6     0.02  -0.10  -0.12    -0.14   0.04   0.01     0.05  -0.00   0.04
     7   6    -0.04   0.04   0.01     0.15  -0.03  -0.06    -0.01   0.01  -0.01
     8   6     0.00  -0.03   0.05     0.01   0.03   0.01    -0.01  -0.02  -0.01
     9   6    -0.05   0.01   0.01    -0.03  -0.05   0.01    -0.15   0.04   0.01
    10   6     0.02  -0.01  -0.04     0.01   0.01  -0.04     0.04  -0.02  -0.04
    11   8     0.01  -0.00  -0.01    -0.03   0.00   0.01     0.02  -0.01   0.00
    12   1     0.15  -0.07   0.03    -0.04   0.04  -0.02    -0.03   0.02  -0.01
    13   1    -0.01   0.01   0.13    -0.07   0.04   0.00    -0.01   0.01  -0.04
    14   1    -0.06   0.11   0.05    -0.01   0.03   0.02     0.00  -0.03  -0.00
    15   1     0.01   0.03   0.03     0.04   0.10   0.12     0.00  -0.01  -0.05
    16   1     0.08  -0.05  -0.08     0.08   0.04  -0.01    -0.03   0.01   0.03
    17   1     0.04  -0.07  -0.02     0.03  -0.05   0.03    -0.05   0.05   0.00
    18   1     0.30   0.10   0.12     0.19   0.06   0.02    -0.02  -0.16  -0.24
    19   1     0.05   0.20  -0.05    -0.10  -0.27   0.08    -0.01  -0.08   0.08
    20   1     0.03  -0.01  -0.05    -0.02   0.03   0.08     0.01  -0.07  -0.06
    21   1     0.01   0.48   0.31     0.16  -0.20   0.16    -0.16   0.01  -0.17
    22   1    -0.13   0.07   0.00    -0.49  -0.05   0.28     0.10   0.00  -0.03
    23   1     0.33   0.03  -0.18    -0.30  -0.07   0.16    -0.08   0.02   0.03
    24   1     0.28   0.26  -0.04     0.29   0.31  -0.05     0.83  -0.05  -0.02
    25   1    -0.01   0.05   0.07     0.04   0.07   0.05    -0.06   0.06   0.11
    26   1    -0.12  -0.04  -0.02    -0.07  -0.08  -0.01    -0.17  -0.02  -0.03
    27   1     0.08   0.07   0.05     0.04   0.01   0.06     0.10   0.08   0.05
                     46                     47                     48
                      A                      A                      A
 Frequencies --   1363.1822              1379.5610              1428.4363
 Red. masses --      1.6447                 1.5437                 1.2148
 Frc consts  --      1.8007                 1.7310                 1.4604
 IR Inten    --     15.6709                 0.5372                 5.0513
  Atom  AN      X      Y      Z        X      Y      Z        X      Y      Z
[...]
 0002350,-0.00000994,0.00002774,0.00020112,0.00001853,-0.00048458,-0.00
 021688,0.00001438,0.00047201,-0.00002102,-0.00096728,0.00175173,-0.000
 08074,0.00033085,-0.00009130,-0.00106611,0.04583065,0.00094677,0.00000
 083,0.00015039,0.00206381,-0.00005039,-0.00694084,-0.00157853,0.000004
 59,-0.00046933,-0.00886164,-0.00214112,-0.01160865,-0.12720809,0.00166
 740,-0.19822223,-0.00958540,0.00238545,-0.01213912,-0.00160519,0.00055
 109,0.00112944,0.00068088,0.00007223,-0.00109037,-0.00168715,-0.000283
 28,0.00051566,0.00032484,-0.00008380,-0.00034654,0.00048662,0.00003996
 ,0.00017656,-0.00027542,-0.00000170,0.00026170,-0.00004226,-0.00007900
 ,0.00011690,-0.00004561,0.00008298,0.00012119,0.00017219,-0.00000562,0
 .00003103,0.00013233,0.00013865,-0.00036466,0.00013826,-0.00012933,-0.
 00037802,-0.00002098,0.00030256,-0.00085101,0.00702128,-0.00013754,0.0
 1017609,0.13807884,-0.00127536,0.21843397,0.00122353,0.00030389,0.0002
 1581,0.00486380,0.00858465,0.00014411,-0.00037038,0.00023498,0.0002356
 2,0.00017543,0.00229483,0.00019499,0.00287447,0.00631935,-0.00089346,-
 0.11599939,-0.11319480,0.00568800,-0.01641097,-0.02978234,0.00150171,-
 0.00324242,0.00673290,0.00069541,-0.00011535,0.00028111,-0.00011762,0.
 00025460,-0.00004911,0.00014657,-0.00319920,-0.00316341,-0.00019247,0.
 00002220,0.00004126,0.00015200,0.00026699,-0.00035801,-0.00001612,0.00
 007345,-0.00015272,0.00012198,0.00008646,0.00003515,-0.00012783,0.0001
 0554,-0.00001883,-0.00017341,0.00006269,-0.00016758,0.00004858,0.00042
 205,0.00092447,0.00009634,0.00072388,-0.00041781,-0.00031324,0.0000040
 3,-0.00001275,0.00001752,0.12573569,-0.00138573,0.00130880,-0.00042285
 ,-0.00747051,-0.01210953,-0.00216094,0.00048141,-0.00078017,-0.0002774
 6,0.00332117,-0.00653953,0.00021523,-0.00678267,-0.01051546,0.00330535
 ,-0.11513272,-0.23953718,0.01056134,0.00410052,0.00767907,-0.00031522,
 0.00173580,-0.00039950,-0.00018012,0.00073904,0.00066434,-0.00009624,-
 0.00017789,0.00005769,-0.00008929,0.00050609,0.00079458,0.00007255,0.0
 0040072,-0.00028852,-0.00017084,0.00086082,0.00018845,0.00060466,0.000
 04343,0.00028368,-0.00007640,-0.00004873,0.00000984,0.00002986,-0.0001
 1072,-0.00003992,0.00041806,-0.00004064,0.00016800,0.00042039,-0.00091
 101,-0.00179920,0.00003268,0.00023261,0.00110180,0.00000248,0.00003180
 ,-0.00086535,-0.00031306,0.12119596,0.25979326,0.00157006,-0.00099805,
 0.00162882,0.01370351,0.01432989,0.00119334,-0.00053141,0.00175051,0.0
 0050257,-0.00039129,-0.00029656,-0.00221227,-0.01436453,-0.01582873,0.
 00484850,0.00611710,0.01157926,-0.05513355,0.00114184,0.00269192,0.000
 29481,0.00031568,-0.00053529,0.00075857,-0.00000045,-0.00000079,-0.000
 35018,0.00007117,0.00000906,-0.00006885,0.00024983,0.00024532,-0.00009
 964,-0.00032324,-0.00010896,0.00002216,-0.00032310,-0.00038452,-0.0002
 3612,0.00024142,-0.00016282,-0.00004171,0.00004892,-0.00000483,0.00003
 536,0.00004470,-0.00015145,-0.00084501,-0.00004901,-0.00031532,-0.0002
 1691,0.00011266,-0.00006035,0.00189614,0.00018150,0.00173331,0.0014676
 8,-0.00015914,-0.00163740,-0.00085784,-0.00725412,-0.01171124,0.046718
 30,0.00009501,-0.00022804,0.00017066,0.00164494,-0.00070456,0.00081161
 ,0.00021583,0.00020120,-0.00024655,-0.00007837,-0.00063297,0.00037691,
 -0.00738242,-0.00048426,0.00013978,-0.00564816,0.01823755,0.02760250,-
 0.06239190,0.02896117,0.04971967,0.00343687,-0.00637229,-0.01609680,-0
 .00075462,-0.00058131,0.00131702,0.00004959,0.00004578,0.00003854,-0.0
 0075074,-0.00025760,0.00259648,0.00015678,-0.00002158,-0.00002626,-0.0
 0005489,-0.00002887,-0.00004783,0.00005630,0.00003587,-0.00005564,0.00
 017817,0.00036644,-0.00041651,0.00012643,-0.00015583,-0.00009403,-0.00
 015956,-0.00004516,-0.00035700,0.00010688,0.00007240,-0.00017185,-0.00
 030425,0.00206450,0.00108721,0.00015033,-0.00038617,-0.00003566,0.0011
 1816,-0.00077635,-0.00029389,0.06720066,-0.00001655,0.00004982,0.00025
 520,0.00001388,0.00010080,-0.00095677,0.00077319,0.00036552,-0.0000665
 2,-0.00062483,0.00033246,-0.00017073,0.00102560,0.00099888,-0.00024444
 ,0.00115055,-0.00194565,-0.00174635,0.03011599,-0.11030149,-0.11329007
 ,0.00673543,-0.01775529,-0.02548544,-0.00189936,-0.00161057,0.00330126
 ,0.00001425,-0.00015700,-0.00003657,0.00069040,0.00247146,0.00325591,-
 0.00014450,0.00000802,0.00004683,0.00005219,0.00002205,-0.00000117,0.0
 0002074,-0.00002428,0.00000205,-0.00027205,-0.00095622,0.00074363,-0.0
 0046760,0.00013191,0.00001674,0.00007980,0.00001175,0.00010597,0.00007
 252,0.00005902,0.00000882,-0.00006151,-0.00030105,-0.00007307,-0.00007
 341,0.00006217,0.00008007,0.00027577,0.00027486,0.00032980,-0.03354927
 ,0.11927366,-0.00004610,-0.00015941,0.00008275,0.00034080,0.00030544,0
 .00001315,0.00008113,0.00080883,-0.00042642,0.00016130,0.00015843,0.00
 003145,0.00077282,0.00086589,0.00061566,0.00076076,-0.00014712,-0.0006
 1647,0.05109808,-0.10938820,-0.22485673,0.00024129,0.00115225,0.000787
 84,-0.00031912,0.00041116,-0.00098506,0.00007667,-0.00007733,0.0000285
 1,-0.00071032,0.00023213,0.00125016,-0.00004491,-0.00000470,-0.0000006
 2,0.00001292,0.00002436,0.00002183,0.00007732,-0.00003740,0.00005146,-
 0.00094332,0.00061613,-0.00054557,-0.00032602,-0.00003921,0.00019740,0
 .00008309,0.00000982,-0.00004523,-0.00002805,-0.00010219,0.00011226,0.
 00004829,-0.00034574,0.00011846,-0.00002001,0.00026807,0.00039364,0.00
 050627,0.00015633,0.00013308,-0.05732146,0.11852706,0.24562827,0.00009
 904,0.00213076,-0.00113423,-0.00638123,-0.00158409,0.00208772,-0.00051
 507,-0.00038607,0.00095712,0.00002516,-0.00055529,-0.00042372,0.001634
 25,-0.00125555,-0.00146666,-0.01174310,0.02039722,-0.02595371,-0.07369
 622,0.04520202,-0.06408115,0.00506570,-0.00751832,0.01492607,-0.000864
 39,-0.00083628,-0.00126753,0.00052018,-0.00035896,0.00018833,-0.000573
 69,-0.00024327,-0.00208126,-0.00000898,-0.00001409,0.00009177,0.000054
 33,-0.00007998,-0.00001519,-0.00089105,0.00004516,-0.00014377,0.000471
 32,-0.00004252,-0.00003239,0.00019705,0.00005489,-0.00013900,0.0000358
 2,-0.00001131,-0.00004260,0.00009242,0.00003836,0.00015518,0.00015851,
 -0.00023975,0.00002170,0.00051357,0.00028680,0.00081821,0.00123045,-0.
 00076330,0.00002338,0.00259402,-0.00429748,0.00564006,0.08208296,-0.00
 012215,-0.00023994,0.00017955,0.00062727,0.00115298,-0.00039944,-0.000
 04910,0.00028479,-0.00013621,-0.00074207,0.00025472,0.00019790,0.00014
 370,0.00034117,0.00095273,0.00147162,-0.00211996,0.00181269,0.04593069
 ,-0.12212256,0.11419084,0.00919698,-0.02033845,0.02403290,-0.00229727,
 -0.00228170,-0.00350987,0.00073039,-0.00094353,0.00074274,0.00094898,0
 .00312597,-0.00323262,0.00001541,0.00000474,-0.00001947,0.00002039,0.0
 0001140,-0.00000835,0.00008729,-0.00000388,-0.00000576,-0.00010546,-0.
 00009208,-0.00008548,-0.00010624,0.00000706,0.00004502,0.00013320,-0.0
 0003675,0.00007711,0.00009403,0.00007805,-0.00007184,-0.00016864,0.000
 06567,-0.00022612,-0.00011030,-0.00039323,-0.00058788,0.00016580,0.000
 44495,-0.00043096,-0.00542623,0.01009597,-0.01333757,-0.05011511,0.132
 83128,0.00006213,-0.00008166,0.00017118,0.00090682,-0.00112017,0.00022
 925,0.00031347,0.00041101,-0.00001259,-0.00006110,-0.00027785,0.000347
 90,0.00007822,0.00020698,0.00112887,0.00091179,-0.00271995,0.00218141,
 -0.06477356,0.11047592,-0.20043637,-0.00097208,-0.00148532,0.00037826,
 0.00041796,-0.00063819,-0.00091981,0.00003451,-0.00019885,-0.00001123,
 0.00104710,-0.00046834,0.00128147,-0.00005329,-0.00000004,0.00002956,0
 .00001432,0.00000685,-0.00001476,0.00004148,-0.00001826,0.00005938,-0.
 00046484,-0.00016301,0.00007246,-0.00021273,0.00002905,0.00004867,0.00
 003338,-0.00004174,0.00008034,0.00003316,0.00010235,0.00006643,0.00000
 536,0.00009244,0.00014109,-0.00014550,0.00023038,0.00020176,-0.0005877
 7,-0.00013300,0.00023812,-0.00850760,0.01555177,-0.02201322,0.07193095
 ,-0.11989020,0.21672955,0.00009275,0.00025318,0.00018073,0.00170639,0.
 00063319,0.00082346,0.00034427,-0.00026716,-0.00029626,-0.00722223,-0.
 01767227,0.02909708,-0.00733672,0.00047727,0.00022716,-0.00011501,0.00
 064846,0.00043541,-0.00046254,0.00071026,0.00145963,0.00220550,0.00666
 802,-0.01698069,-0.05513008,-0.01562917,0.03855302,0.00187936,0.003152
 73,-0.01157512,-0.00079125,0.00036123,0.00275543,0.00016159,0.00002259
 ,-0.00003362,0.00006788,-0.00002909,-0.00005426,-0.00006693,0.00002909
 ,-0.00005058,0.00013467,-0.00029013,-0.00034836,-0.00017070,0.00006176
 ,-0.00044909,0.00009033,0.00018268,-0.00006783,0.00107532,0.00076100,-
 0.00031352,-0.00028716,-0.00202836,0.00110141,0.00019778,0.00039375,-0
 .00000843,0.00009431,-0.00006636,-0.00017029,0.00035699,0.00034859,-0.
 00009530,-0.00005315,-0.00014414,-0.00005267,0.06254053,0.00001603,0.0
 0004800,-0.00027022,-0.00015530,0.00010215,0.00098244,-0.00074246,0.00
 034051,-0.00004432,-0.00167098,-0.00251690,0.00384372,-0.00169314,0.00
 078671,0.00020917,0.00051119,0.00018134,0.00020615,0.00114456,-0.00176
 331,-0.00381318,-0.00402016,-0.01536371,0.02717096,-0.01736078,-0.0914
 0212,0.10194061,0.00278293,0.00771059,-0.02219605,-0.00017512,0.001476
 37,-0.00345864,0.00016498,0.00000959,-0.00005191,-0.00002568,-0.000023
 25,-0.00000699,-0.00005409,0.00002420,-0.00000259,0.00020863,-0.001101
 88,-0.00082255,-0.00012873,0.00003691,-0.00014574,0.00047765,0.0001263
 9,-0.00001142,-0.00029334,0.00028794,-0.00032901,-0.00008790,-0.000496
 31,0.00010393,0.00007959,0.00019785,-0.00023979,-0.00007101,0.00005893
 ,-0.00004639,-0.00033492,-0.00111958,0.00012226,0.00015974,0.00015353,
 0.00014433,0.02241330,0.10246815,-0.00006670,0.00015604,0.00011947,0.0
 0032210,-0.00043344,-0.00018862,-0.00005067,-0.00108805,-0.00053813,0.
 00146860,0.00173411,-0.00202772,0.00073263,-0.00114622,0.00063411,-0.0
 0001158,-0.00028022,0.00009565,-0.00052293,0.00002640,-0.00092982,0.00
 091442,0.00154331,-0.00111767,0.04084908,0.09682790,-0.24001144,0.0027
 0187,0.00783816,-0.02464878,-0.00037084,-0.00057988,0.00142305,-0.0000
 5930,0.00000254,0.00000918,0.00007958,0.00004868,0.00006272,0.00002301
 ,-0.00002664,0.00001913,-0.00108309,-0.00061429,-0.00065591,0.00014435
 ,-0.00007644,-0.00005180,-0.00046005,-0.00002671,0.00024870,0.00039928
 ,-0.00019173,0.00012641,-0.00003981,0.00031121,-0.00002255,-0.00013178
 ,-0.00018051,0.00016865,-0.00002188,0.00005694,0.00009358,-0.00007620,
 -0.00002913,-0.00000537,0.00006321,0.00022756,0.00001071,-0.04324377,-
 0.10097344,0.26743833,-0.00002918,0.00006286,0.00004102,0.00016411,0.0
 0013127,-0.00005853,0.00002289,0.00005167,-0.00001866,0.00120872,-0.00
 074224,0.00030855,-0.00014725,-0.00010160,0.00009070,0.00009761,-0.000
 02160,0.00003288,0.00025834,-0.00046644,0.00058786,-0.00304634,-0.0004
 4778,-0.00171918,0.00440563,-0.01308500,-0.00010696,-0.09731948,0.1013
 3648,-0.01079942,0.00166130,0.00079100,0.00063936,-0.00000741,-0.00001
 020,-0.00000251,0.00003610,0.00001395,0.00001269,-0.00000298,-0.000010
 67,-0.00000819,-0.00001343,0.00000690,0.00001633,0.00000526,-0.0000147
 5,-0.00000100,-0.00001036,0.00000268,0.00002466,-0.00014372,0.00036359
 ,-0.00002957,-0.00002350,-0.00003497,-0.00002510,-0.00001865,0.0000882
 8,-0.00009178,0.00000437,0.00002890,-0.00001730,0.00005033,0.00003794,
 -0.00001952,-0.00006934,-0.00018673,-0.00001981,0.00022786,0.00065491,
 0.00065130,0.10119591,-0.00000973,-0.00001549,-0.00000658,-0.00022766,
 0.00018377,-0.00023082,0.00011561,0.00005721,-0.00001326,0.00141021,0.
 00007104,0.00065506,-0.00006093,-0.00001028,0.00034016,0.00030417,0.00
 021555,-0.00005259,0.00061816,-0.00065848,0.00053588,-0.00306377,0.000
 41178,-0.00315861,0.00858262,-0.01936877,0.00056164,0.10142415,-0.2617
 2272,0.02672677,0.00041636,-0.00003791,0.00039386,-0.00000156,-0.00001
 738,0.00001125,-0.00000594,0.00001350,-0.00000257,-0.00003360,0.000011
 51,-0.00004137,-0.00006908,0.00000605,0.00007740,-0.00003772,0.0000038
 4,-0.00004623,-0.00003838,-0.00000113,0.00002093,-0.00111022,0.0003642
 3,0.00000755,-0.00012480,-0.00005008,-0.00004404,-0.00001775,0.0000521
 7,-0.00023541,-0.00011997,0.00008694,-0.00002321,-0.00007614,-0.000113
 91,-0.00002689,-0.00013414,-0.00026144,-0.00004033,0.00006250,0.001267
 12,0.00011584,-0.11101653,0.28428136,-0.00000604,0.00004939,0.00001651
 ,0.00016472,0.00002514,-0.00005667,0.00008900,0.00000097,-0.00000381,0
 .00083627,0.00051161,0.00058965,-0.00019198,0.00022779,-0.00042566,0.0
 0032417,0.00004626,-0.00004193,0.00081234,-0.00078196,0.00054748,-0.00
 399709,-0.00223906,-0.00323596,0.01111847,-0.02349441,0.00027218,-0.01
 184335,0.02739970,-0.05192507,0.00083722,0.00009518,0.00055288,-0.0000
 0895,0.00000356,-0.00000178,0.00001927,0.00000336,0.00000107,-0.000022
 89,0.00000256,-0.00000419,-0.00003380,-0.00001565,0.00005250,-0.000048
 34,0.00000851,-0.00003217,-0.00001881,0.00001465,-0.00000091,-0.000326
 42,0.00025149,0.00019806,0.00007545,0.00004614,0.00012690,0.00012847,-
 0.00007041,0.00022865,-0.00007935,0.00006408,0.00001890,-0.00005676,-0
 .00011764,-0.00000455,-0.00016147,-0.00038068,-0.00002341,0.00074378,0
 .00047293,0.00126696,0.01458329,-0.02607719,0.05463283,-0.00002563,0.0
 0005113,0.00002303,0.00006046,0.00001311,-0.00000167,0.00006383,-0.000
 05686,-0.00005672,0.00058946,0.00094908,-0.00051612,-0.00024873,-0.000
 35398,-0.00003156,0.00015976,-0.00011563,-0.00006998,0.00003662,0.0000
 1314,-0.00008927,0.00002441,0.00039213,0.00058390,0.00195060,0.0043993
 8,-0.01079751,-0.06130400,-0.01770854,0.04966327,0.00002017,0.00046890
 ,-0.00033023,-0.00002926,-0.00000882,0.00000752,0.00003045,0.00001464,
 0.00002216,0.00000626,-0.00001125,0.00000514,-0.00008680,0.00003366,0.
 00003475,0.00001513,-0.00001128,0.00003416,-0.00005950,0.00000485,0.00
 003876,-0.00007821,0.00007694,-0.00002982,0.00004743,0.00003837,0.0000
 4821,-0.00013753,-0.00063892,0.00012608,-0.00003328,0.00004434,0.00005
 891,-0.00006910,-0.00000972,0.00000327,-0.00000535,0.00004494,0.000007
 15,-0.00003018,-0.00192829,-0.00197734,0.00289563,0.00455920,-0.014401
 64,0.06029044,-0.00001746,0.00003282,0.00006169,0.00026686,-0.00000088
 ,-0.00003274,0.00010979,-0.00015776,-0.00010077,0.00035345,0.00082945,
 0.00057089,-0.00045352,-0.00034350,-0.00054700,0.00001401,-0.00001585,
 -0.00002733,-0.00007057,0.00008924,-0.00006003,-0.00055288,0.00189781,
 -0.00084367,0.00574715,0.00744265,-0.02015231,-0.01786496,-0.08176627,
 0.08368609,0.00046845,-0.00007632,0.00045619,-0.00002588,0.00000685,0.
 00000503,0.00002489,0.00000759,0.00000777,0.00000812,-0.00000864,0.000
 00830,-0.00014650,0.00007292,0.00001403,0.00003456,-0.00001183,0.00002
 997,-0.00010362,-0.00000426,0.00002681,-0.00009543,-0.00009334,0.00012
 076,0.00020979,0.00009974,0.00023792,-0.00045691,-0.00068826,0.0002477
 1,0.00000075,0.00001102,0.00003587,0.00001205,0.00002646,0.00001865,-0
 .00000686,-0.00003631,0.00000777,-0.00170536,-0.00219513,-0.00356727,-
 0.00772562,-0.00948453,0.02740928,0.02208993,0.08625831,-0.00000663,-0
 .00003239,0.00001422,-0.00006411,0.00016737,0.00000055,0.00018748,-0.0
 0019028,-0.00001624,0.00129919,0.00074521,0.00005375,-0.00080515,0.000
 42786,-0.00007354,0.00041940,0.00001432,0.00005245,0.00017910,-0.00024
 749,-0.00026150,-0.00168936,0.00232766,-0.00015381,0.00436944,0.005883
 43,-0.02126916,0.04913144,0.08339314,-0.26786823,0.00118799,-0.0006984
 0,0.00038589,-0.00006615,-0.00000225,0.00003221,-0.00002244,-0.0000038
 2,0.00001479,0.00002547,-0.00001251,0.00001340,-0.00020700,0.00009318,
 0.00005928,0.00002484,-0.00000066,0.00008895,-0.00011516,-0.00002818,0
 .00002605,-0.00025715,-0.00001156,0.00000728,0.00009411,-0.00012817,0.
 00025843,0.00036839,-0.00040334,0.00087184,-0.00004611,0.00004848,0.00
 013625,-0.00007619,-0.00004939,0.00004004,-0.00002442,-0.00011351,0.00
 002422,-0.00160919,-0.00366866,-0.00230392,0.00040263,0.00118711,-0.00
 197986,-0.05326929,-0.08964590,0.29369503,0.00005698,-0.00029321,-0.00
 013165,-0.00050646,0.00031901,0.00054144,-0.00007577,-0.00005342,0.000
 06233,0.00049304,-0.00122297,-0.00250807,0.00019907,0.00020361,-0.0001
 6169,-0.00004286,-0.00003288,-0.00012131,-0.00011027,-0.00002662,0.000
 16609,-0.00248213,0.00095807,0.00008234,-0.01033823,-0.00287837,0.0004
 0575,-0.31595518,-0.02550155,0.02619228,0.00169929,0.00199302,0.000888
 98,0.00000517,0.00001159,0.00001283,-0.00012454,-0.00001180,-0.0000294
 2,0.00000429,0.00002606,0.00000107,0.00002682,0.00000709,-0.00000407,-
 0.00000013,0.00002183,-0.00000972,0.00001352,-0.00001512,-0.00005664,0
 .00028889,0.00005466,0.00010247,-0.00001808,-0.00001767,0.00000308,0.0
 0002360,0.00000890,0.00003851,0.00002891,-0.00005601,-0.00000292,0.000
 05672,0.00000944,-0.00002993,0.00002681,-0.00003724,0.00001316,0.00049
 043,0.00012841,-0.00023349,-0.01140244,-0.00134505,0.00146443,-0.00408
 307,-0.00011424,0.00056886,0.34172562,0.00003660,-0.00054501,-0.000261
 23,-0.00140415,0.00038511,0.00025729,-0.00012694,0.00002049,0.00014702
 ,-0.00008352,-0.00315348,-0.00347376,0.00023710,0.00032277,-0.00040769
 ,-0.00015534,0.00044625,-0.00007774,0.00026929,0.00019569,-0.00020451,
 -0.00377873,0.00007561,0.00059895,-0.02116918,-0.00375984,0.00273603,-
 0.02247666,-0.05068581,0.00396806,0.00201185,0.00050690,0.00048201,0.0
 0001519,0.00000942,0.00001745,-0.00022266,-0.00001578,-0.00005579,0.00
 001901,0.00001932,-0.00000667,0.00007146,0.00002510,-0.00004228,0.0000
 2895,0.00000280,-0.00001508,0.00002676,-0.00002562,-0.00005302,-0.0001
 3852,0.00021682,-0.00003107,-0.00001853,-0.00007506,0.00000954,0.00008
 835,0.00019211,-0.00001023,0.00011748,-0.00005183,-0.00000807,0.000064
 63,0.00000022,-0.00001106,0.00012743,0.00001755,0.00001805,0.00065246,
 0.00070591,0.00032529,0.03029369,0.00471606,-0.00345557,-0.01235046,-0
 .00189198,0.00094877,0.02786445,0.05234628,0.00005203,-0.00047599,-0.0
 0025679,-0.00143483,0.00022039,0.00051472,-0.00010278,0.00001893,0.000
 17705,-0.00019772,-0.00351436,-0.00386831,-0.00011266,0.00027386,-0.00
 011745,0.00017966,0.00020563,-0.00005193,0.00005654,0.00005864,0.00017
 878,-0.00115143,0.00020633,0.00092072,-0.02524582,-0.00257022,0.002069
 89,0.02747880,0.00433198,-0.05173251,0.00092541,0.00073174,-0.00066498
 ,-0.00000853,0.00000583,0.00002885,-0.00021714,-0.00002811,-0.00003650
 ,0.00001726,0.00001932,0.00000172,0.00007113,0.00000282,-0.00000710,-0
 .00000494,0.00001147,-0.00000277,0.00003292,-0.00001662,-0.00005288,0.
 00026821,0.00007422,-0.00012736,-0.00001132,-0.00010197,0.00007574,0.0
 0010524,-0.00031891,0.00029116,0.00005846,-0.00004176,0.00007590,0.000
 01984,0.00004218,-0.00000671,0.00006340,-0.00002305,0.00001074,-0.0000
 2810,0.00088441,0.00078506,-0.00447374,-0.00063432,-0.00076860,0.03091
 486,0.00203228,-0.00184836,-0.02725470,-0.00139471,0.05441194\\-0.0000
 4021,-0.00005845,-0.00001708,0.00008506,0.00015034,-0.00003945,0.00002
 926,-0.00013430,0.00001683,-0.00003268,0.00003556,-0.00000270,-0.00005
 667,0.00000336,-0.00006094,-0.00004305,0.00001811,-0.00001444,-0.00003
 535,0.00004765,-0.00013933,0.00010832,-0.00003091,0.00018946,0.0000297
 6,0.00004807,-0.00003981,-0.00003133,-0.00001336,0.00004716,-0.0000052
 1,0.00002196,-0.00006495,0.00001285,-0.00002337,0.00003597,-0.00000057
 ,-0.00000720,-0.00001493,0.00002451,-0.00000613,0.00002521,-0.00000319
 ,-0.00009067,0.00000139,0.00005163,0.00001411,0.00006598,-0.00006918,-
 0.00000805,-0.00000661,-0.00000603,-0.00001100,0.00004955,-0.00003010,
 0.00000197,0.00001750,-0.00000484,-0.00000933,-0.00005129,-0.00000206,
 0.00002654,0.00004519,0.00000431,0.00007269,-0.00003026,-0.00001571,-0
 .00001117,0.00001334,0.00002793,0.00001028,0.00002981,0.00000391,-0.00
 005194,-0.00000949,0.00000896,0.00001592,-0.00002533,-0.00001033,-0.00
 001069,-0.00002076\\\@


 Boundary, n.  In political geography, an imaginary
 line between two nations, separating the imaginary
 rights of one from the imaginary rights of another.
                               -- Ambrose Bierce
 Job cpu time:       0 days  0 hours  2 minutes 50.4 seconds.
 Elapsed time:       0 days  0 hours 22 minutes 24.9 seconds.
 File lengths (MBytes):  RWF=    127 Int=      0 D2E=      0 Chk=      5 Scr=      1
 Normal termination of Gaussian 16 at Thu Feb 22 10:12:43 2024.
