 Entering Gaussian System, Link 0=g16
 Input=/Volumes/SSD-PMU3/b3lyp_6-31gd_freq/ZIBPLSFQDBNHBX-HOGYCZGPSA-N_calculating/gaussianinput0.gjf
 Output=/Volumes/SSD-PMU3/b3lyp_6-31gd_freq/ZIBPLSFQDBNHBX-HOGYCZGPSA-N_calculating/gaussianinput0.log
 Initial command:
 /Applications/g16/l1.exe "/Users/macmini_m1_2022/PycharmProjects/sphere_model/sphere_model_lib/Gau-74270.inp" -scrdir="/Users/macmini_m1_2022/PycharmProjects/sphere_model/sphere_model_lib/"
 Entering Link 1 = /Applications/g16/l1.exe PID=     74271.
  
 Copyright (c) 1988,1990,1992,1993,1995,1998,2003,2009,2016,
            Gaussian, Inc.  All Rights Reserved.
  
 This is part of the Gaussian(R) 16 program.  It is based on
 the Gaussian(R) 09 system (copyright 2009, Gaussian, Inc.),
 the Gaussian(R) 03 system (copyright 2003, Gaussian, Inc.),
 the Gaussian(R) 98 system (copyright 1998, Gaussian, Inc.),
 the Gaussian(R) 94 system (copyright 1995, Gaussian, Inc.),
 the Gaussian 92(TM) system (copyright 1992, Gaussian, Inc.),
 the Gaussian 90(TM) system (copyright 1990, Gaussian, Inc.),
 the Gaussian 88(TM) system (copyright 1988, Gaussian, Inc.),
 the Gaussian 86(TM) system (copyright 1986, Carnegie Mellon
 University), and the Gaussian 82(TM) system (copyright 1983,
 Carnegie Mellon University). Gaussian is a federally registered
 trademark of Gaussian, Inc.
  
 This software contains proprietary and confidential information,
 including trade secrets, belonging to Gaussian, Inc.
  
 This software is provided under written license and may be
 used, copied, transmitted, or stored only in accord with that
 written license.
  
 The following legend is applicable only to US Government
 contracts under FAR:
  
                    RESTRICTED RIGHTS LEGEND
  
 Use, reproduction and disclosure by the US Government is
 subject to restrictions as set forth in subparagraphs (a)
 and (c) of the Commercial Computer Software - Restricted
 Rights clause in FAR 52.227-19.
  
 Gaussian, Inc.
 340 Quinnipiac St., Bldg. 40, Wallingford CT 06492
  
  
 ---------------------------------------------------------------
 Warning -- This program may not be used in any manner that
 competes with the business of Gaussian, Inc. or will provide
 assistance to any competitor of Gaussian, Inc.  The licensee
 of this program is prohibited from giving any competitor of
 Gaussian, Inc. access to this program.  By using this program,
 the user acknowledges that Gaussian, Inc. is engaged in the
 business of creating and licensing software in the field of
 computational chemistry and represents and warrants to the
 licensee that it is not a competitor of Gaussian, Inc. and that
 it will not use this program in any manner prohibited above.
 ---------------------------------------------------------------
  

 Cite this work as:
 Gaussian 16, Revision A.03,
 M. J. Frisch, G. W. Trucks, H. B. Schlegel, G. E. Scuseria, 
 M. A. Robb, J. R. Cheeseman, G. Scalmani, V. Barone, 
 G. A. Petersson, H. Nakatsuji, X. Li, M. Caricato, A. V. Marenich, 
 J. Bloino, B. G. Janesko, R. Gomperts, B. Mennucci, H. P. Hratchian, 
 J. V. Ortiz, A. F. Izmaylov, J. L. Sonnenberg, D. Williams-Young, 
 F. Ding, F. Lipparini, F. Egidi, J. Goings, B. Peng, A. Petrone, 
 T. Henderson, D. Ranasinghe, V. G. Zakrzewski, J. Gao, N. Rega, 
 G. Zheng, W. Liang, M. Hada, M. Ehara, K. Toyota, R. Fukuda, 
 J. Hasegawa, M. Ishida, T. Nakajima, Y. Honda, O. Kitao, H. Nakai, 
 T. Vreven, K. Throssell, J. A. Montgomery, Jr., J. E. Peralta, 
 F. Ogliaro, M. J. Bearpark, J. J. Heyd, E. N. Brothers, K. N. Kudin, 
 V. N. Staroverov, T. A. Keith, R. Kobayashi, J. Normand, 
 K. Raghavachari, A. P. Rendell, J. C. Burant, S. S. Iyengar, 
 J. Tomasi, M. Cossi, J. M. Millam, M. Klene, C. Adamo, R. Cammi, 
 J. W. Ochterski, R. L. Martin, K. Morokuma, O. Farkas, 
 J. B. Foresman, and D. J. Fox, Gaussian, Inc., Wallingford CT, 2016.
 
 ******************************************
 Gaussian 16:  EM64M-G16RevA.03 25-Dec-2016
                23-Feb-2024 
 ******************************************
 %nprocshared=10
 Will use up to   10 processors via shared memory.
 %mem=12GB
 %chk= 0.chk
 ---------------------
 # freq b3lyp/6-31g(d)
 ---------------------
 1/10=4,30=1,38=1/1,3;
 2/12=2,17=6,18=5,40=1/2;
 3/5=1,6=6,7=1,11=2,25=1,30=1,71=2,74=-5,140=1/1,2,3;
 4//1;
 5/5=2,38=5,98=1/2;
 8/6=4,10=90,11=11/1;
 11/6=1,8=1,9=11,15=111,16=1/1,2,10;
 10/6=1/2;
 6/7=2,8=2,9=2,10=2,28=1/1;
 7/8=1,10=1,25=1/1,2,3,16;
 1/10=4,30=1/3;
 99//99;
 ---------
 good luck
 ---------
 Symbolic Z-matrix:
 Charge =  0 Multiplicity = 1
 O                     1.2166    0.        0. 
 C                     0.        0.        0. 
 C                    -0.84975  -1.26595  -0.00079 
 C                    -1.75548  -1.2568    1.25534 
 C                    -1.72798  -1.26149  -1.27615 
 C                    -2.62446  -0.00897  -1.27451 
 C                    -1.73952   1.25321  -1.27083 
 C                    -0.85207   1.26351  -0.00079 
 C                    -1.75248   1.2479    1.25929 
 C                    -2.67225  -0.00769   1.28195 
 C                    -3.58394   0.02552   2.51338 
 C                    -4.47692   1.09121   2.71025 
 C                    -5.32255   1.16671   3.81075 
 C                    -5.33142   0.15329   4.79523 
 N                    -6.19915   0.20063   5.88447 
 C                    -5.99254  -0.72268   6.98696 
 C                    -6.9103    1.43619   6.16501 
 C                    -4.42745  -0.91291   4.61188 
 C                    -3.58831  -0.96805   3.50012 
 C                    -3.52261  -0.01694  -0.02157 
 H                    -0.18086  -2.13257   0.01443 
 H                    -2.36277  -2.17173   1.25804 
 H                    -1.12966  -1.28462   2.1566 
 H                    -1.09322  -1.27977  -2.17183 
 H                    -2.34162  -2.17235  -1.29828 
 H                    -3.25518  -0.00962  -2.17324 
 H                    -2.36239   2.15811  -1.2854 
 H                    -1.11077   1.28249  -2.17044 
 H                    -0.1862    2.13269   0.00854 
 H                    -1.13569   1.26496   2.16707 
 H                    -2.35791   2.16264   1.27392 
 H                    -4.51958   1.90145   1.98646 
 H                    -5.97863   2.0246    3.8993 
 H                    -6.76857  -0.56065   7.73815 
 H                    -5.00996  -0.60317   7.47301 
 H                    -6.07696  -1.76129   6.64698 
 H                    -6.23782   2.28579   6.36972 
 H                    -7.55909   1.71324   5.32608 
 H                    -7.55057   1.28851   7.03736 
 H                    -4.36836  -1.71431   5.3388 
 H                    -2.91945  -1.81887   3.42281 
 H                    -4.18807   0.85523  -0.0388 
 H                    -4.16949  -0.90447  -0.02323 
 

 GradGradGradGradGradGradGradGradGradGradGradGradGradGradGradGradGradGrad
 Berny optimization.
 Initialization pass.
 Trust Radius=3.00D-01 FncErr=1.00D-07 GrdErr=1.00D-07 EigMax=2.50D+02 EigMin=1.00D-04
 Number of steps in this run=      2 maximum allowed number of steps=      2.
 GradGradGradGradGradGradGradGradGradGradGradGradGradGradGradGradGradGrad

                          Input orientation:                          
 ---------------------------------------------------------------------
 Center     Atomic      Atomic             Coordinates (Angstroms)
 Number     Number       Type             X           Y           Z
 ---------------------------------------------------------------------
      1          8           0        1.216602    0.000000    0.000000
      2          6           0        0.000000    0.000000    0.000000
      3          6           0       -0.849754   -1.265948   -0.000793
      4          6           0       -1.755477   -1.256799    1.255339
      5          6           0       -1.727980   -1.261489   -1.276147
      6          6           0       -2.624458   -0.008972   -1.274512
      7          6           0       -1.739520    1.253205   -1.270832
      8          6           0       -0.852067    1.263507   -0.000793
      9          6           0       -1.752477    1.247900    1.259290
     10          6           0       -2.672249   -0.007691    1.281945
     11          6           0       -3.583940    0.025518    2.513375
     12          6           0       -4.476920    1.091211    2.710248
     13          6           0       -5.322554    1.166708    3.810752
     14          6           0       -5.331419    0.153285    4.795226
     15          7           0       -6.199146    0.200627    5.884472
     16          6           0       -5.992542   -0.722682    6.986959
     17          6           0       -6.910304    1.436189    6.165009
     18          6           0       -4.427446   -0.912911    4.611884
     19          6           0       -3.588305   -0.968054    3.500122
     20          6           0       -3.522613   -0.016935   -0.021573
     21          1           0       -0.180858   -2.132572    0.014431
     22          1           0       -2.362772   -2.171729    1.258036
     23          1           0       -1.129656   -1.284621    2.156604
     24          1           0       -1.093217   -1.279766   -2.171832
     25          1           0       -2.341617   -2.172352   -1.298282
     26          1           0       -3.255182   -0.009622   -2.173237
     27          1           0       -2.362394    2.158110   -1.285400
     28          1           0       -1.110767    1.282492   -2.170441
     29          1           0       -0.186201    2.132686    0.008537
     30          1           0       -1.135685    1.264963    2.167065
     31          1           0       -2.357910    2.162638    1.273923
     32          1           0       -4.519577    1.901454    1.986460
     33          1           0       -5.978627    2.024597    3.899301
     34          1           0       -6.768571   -0.560646    7.738145
     35          1           0       -5.009956   -0.603167    7.473012
     36          1           0       -6.076961   -1.761294    6.646981
     37          1           0       -6.237824    2.285786    6.369725
     38          1           0       -7.559085    1.713244    5.326084
     39          1           0       -7.550568    1.288513    7.037358
     40          1           0       -4.368358   -1.714311    5.338795
     41          1           0       -2.919452   -1.818867    3.422806
     42          1           0       -4.188066    0.855225   -0.038798
     43          1           0       -4.169487   -0.904467   -0.023231
 ---------------------------------------------------------------------
                    Distance matrix (angstroms):
                    1          2          3          4          5
     1  O    0.000000
     2  C    1.216602   0.000000
     3  C    2.423314   1.524699   0.000000
     4  C    3.462466   2.497423   1.548640   0.000000
     5  C    3.448256   2.491148   1.548492   2.531640   0.000000
     6  C    4.046999   2.917575   2.520302   2.951668   1.540284
     7  C    3.453143   2.492281   2.958178   3.561168   2.514726
     8  C    2.424014   1.523965   2.529456   2.957357   2.961310
     9  C    3.458106   2.492838   2.953329   2.504704   3.567362
    10  C    4.094704   2.963842   2.559319   1.549661   3.001248
    11  C    5.418755   4.377480   3.932518   2.563253   4.411514
    12  C    6.399405   5.345933   5.105122   3.877649   5.383606
    13  C    7.657911   6.649257   6.360160   5.012740   6.685331
    14  C    8.117528   7.172288   6.715753   5.225562   7.200551
    15  N    9.468927   8.549659   8.087223   6.580209   8.567589
    16  C   10.065367   9.233116   8.693221   7.147690   9.314275
    17  C   10.301290   9.371354   9.058086   7.611129   9.460695
    18  C    7.345622   6.457953   5.848188   4.303960   6.486720
    19  C    6.022883   5.105283   4.454751   2.912333   5.134166
    20  C    4.739294   3.522720   2.950363   2.508094   2.518646
    21  H    2.549699   2.140276   1.094847   2.187751   2.194986
    22  H    4.371611   3.446992   2.166636   1.098140   2.766511
    23  H    3.436003   2.752692   2.175559   1.097590   3.484581
    24  H    3.419052   2.747686   2.184691   3.490647   1.097957
    25  H    4.366414   3.447872   2.175018   2.775388   1.098504
    26  H    4.971911   3.913983   3.476198   3.944578   2.168937
    27  H    4.372517   3.448275   3.957584   4.299454   3.477963
    28  H    3.431071   2.754887   3.357089   4.312727   2.766325
    29  H    2.552700   2.140816   3.462817   3.937734   3.943085
    30  H    3.439412   2.754284   3.344679   2.752212   4.311552
    31  H    4.367725   3.443780   3.956594   3.472149   4.315590
    32  H    6.361234   5.290381   5.239199   4.260205   5.333088
    33  H    8.430591   7.419402   7.234899   5.965995   7.460002
    34  H   11.133562  10.295959   9.768368   8.224507  10.351628
    35  H    9.745755   9.017171   8.579296   7.048285   9.367632
    36  H   10.024000   9.176817   8.471243   6.928170   9.052038
    37  H   10.068102   9.203731   9.068054   7.668004   9.559352
    38  H   10.407452   9.404368   9.070079   7.685960   9.297326
    39  H   11.315827  10.401719  10.047972   8.572831  10.465152
    40  H    7.914125   7.108034   6.410367   4.869402   7.136813
    41  H    5.668405   4.852533   4.038614   2.523623   4.879594
    42  H    5.472052   4.274671   3.955395   3.471732   3.473260
    43  H    5.461552   4.266523   3.339431   2.754328   2.767349
                    6          7          8          9         10
     6  C    0.000000
     7  C    1.541499   0.000000
     8  C    2.526447   1.549412   0.000000
     9  C    2.959769   2.530161   1.548803   0.000000
    10  C    2.556904   2.996083   2.564064   1.556600   0.000000
    11  C    3.907670   4.385125   3.913667   2.534009   1.532548
    12  C    4.529937   4.834108   4.529789   3.090699   2.550387
    13  C    5.875530   6.218369   5.875585   4.388850   3.846842
    14  C    6.647983   7.135028   6.655748   5.148772   4.409109
    15  N    8.004585   8.496738   8.022301   6.500920   5.802211
    16  C    8.950155   9.496496   8.899332   7.393750   6.639484
    17  C    8.706517   9.058820   8.645760   7.120724   6.624969
    18  C    6.222341   6.820803   6.228717   4.802546   3.871516
    19  C    4.964471   5.577992   4.972250   3.647197   2.584911
    20  C    1.541623   2.520580   2.961719   2.524638   1.556394
    21  H    3.484571   3.942691   3.461807   3.930299   3.511231
    22  H    3.340628   4.302765   3.958248   3.473661   2.186186
    23  H    3.954020   4.308110   3.350280   2.758032   2.185217
    24  H    2.182842   2.765041   3.352581   4.312345   4.005008
    25  H    2.181921   3.478177   3.963252   4.311193   3.384176
    26  H    1.097962   2.169400   3.480709   3.952433   3.504012
    27  H    2.182897   1.098652   2.175228   2.770547   3.373124
    28  H    2.182161   1.097946   2.185099   3.489419   4.002720
    29  H    3.489701   2.196149   1.094960   2.190993   3.518979
    30  H    3.960279   3.490543   2.186332   1.097624   2.182685
    31  H    3.358788   2.772229   2.168156   1.097046   2.192989
    32  H    4.227900   4.331154   4.219808   2.934749   2.748417
    33  H    6.492626   6.730182   6.486263   5.043140   4.681120
    34  H    9.935089  10.475833   9.910788   8.390924   7.666038
    35  H    9.086410   9.518229   8.753872   7.255891   6.644455
    36  H    8.817055   9.518002   8.980080   7.535491   6.591722
    37  H    8.761089   8.926314   8.404459   6.878379   6.622603
    38  H    8.419290   8.808988   8.576828   7.104369   6.572507
    39  H    9.748703  10.138814   9.716281   8.185694   7.655254
    40  H    7.048773   7.707406   7.052865   5.679779   4.716712
    41  H    5.042573   5.732373   5.049370   3.930355   2.815094
    42  H    2.172256   2.769779   3.361105   2.787709   2.187850
    43  H    2.180534   3.480919   3.963066   3.481305   2.179315
                   11         12         13         14         15
    11  C    0.000000
    12  C    1.404234   0.000000
    13  C    2.451179   1.389930   0.000000
    14  C    2.876952   2.440698   1.412903   0.000000
    15  N    4.270159   3.719530   2.449906   1.393430   0.000000
    16  C    5.135574   4.886469   3.755925   2.451142   1.452812
    17  C    5.137034   4.239781   2.852384   2.452555   1.452949
    18  C    2.448651   2.763182   2.401634   1.409807   2.449157
    19  C    1.400312   2.377837   2.767909   2.444001   3.723900
    20  C    2.536045   3.098634   4.396307   5.148039   6.487876
    21  H    4.741628   6.009688   7.192659   7.389819   8.724734
    22  H    2.809808   4.150340   5.140217   5.170132   6.461405
    23  H    2.804864   4.141893   5.130849   5.165725   6.465500
    24  H    5.464305   6.395755   7.724237   8.279848   9.652259
    25  H    4.571950   5.592734   6.792462   7.174841   8.491379
    26  H    4.698260   5.152951   6.439402   7.273017   8.581247
    27  H    4.524468   4.644857   5.976302   7.057510   8.364178
    28  H    5.443776   5.932006   7.316230   8.222501   9.588725
    29  H    4.717945   5.176310   6.463132   7.300937   8.626411
    30  H    2.765883   3.389556   4.499026   5.074174   6.371072
    31  H    2.758020   2.775102   4.026971   5.027806   6.313616
    32  H    2.161525   1.087282   2.124303   3.406516   4.572555
    33  H    3.413449   2.130770   1.083626   2.173331   2.704884
    34  H    6.146843   5.767152   4.527597   3.351996   2.083239
    35  H    5.198727   5.083204   4.079500   2.801088   2.140962
    36  H    5.147286   5.118084   4.145663   2.765943   2.108431
    37  H    5.198399   4.233151   2.939115   2.801460   2.141227
    38  H    5.153788   4.090142   2.756266   2.770880   2.109323
    39  H    6.147822   5.311320   3.922992   3.352689   2.083023
    40  H    3.409592   3.846037   3.397893   2.170454   2.704910
    41  H    2.161103   3.376685   3.852150   3.404483   4.571055
    42  H    2.750812   2.774235   4.025310   5.016748   6.289521
    43  H    2.764436   3.398405   4.507633   5.068180   6.343635
                   16         17         18         19         20
    16  C    0.000000
    17  C    2.485682   0.000000
    18  C    2.850736   3.754338   0.000000
    19  C    4.242475   4.890571   1.393992   0.000000
    20  C    7.464459   7.201515   4.805249   3.648462   0.000000
    21  H    9.185837   9.790358   6.376336   5.011670   3.955318
    22  H    6.935094   7.601020   4.134707   2.824485   2.761479
    23  H    6.877192   7.542281   4.128194   2.819612   3.475302
    24  H   10.401787  10.522254   7.567725   6.204328   3.481425
    25  H    9.169297   9.465473   6.392725   5.101886   2.769578
    26  H    9.587011   9.218277   6.944638   5.763381   2.168232
    27  H    9.482028   8.758610   6.962296   5.846108   2.770232
    28  H   10.569315  10.155687   7.862575   6.584712   3.481831
    29  H    9.516570   9.143348   6.960936   5.777548   3.969058
    30  H    7.125389   7.025603   4.642840   3.574738   3.482933
    31  H    7.360326   6.721216   4.988383   4.033741   2.790230
    32  H    5.836155   4.836561   3.849934   3.375280   2.950652
    33  H    4.132961   2.519460   3.397483   3.850837   5.056986
    34  H    1.092134   2.546016   3.921539   5.314218   8.428825
    35  H    1.102727   3.079150   2.936207   4.235338   7.663202
    36  H    1.096096   3.339260   2.753593   4.089665   7.350993
    37  H    3.080912   1.102703   4.074204   5.083507   7.315981
    38  H    3.338607   1.096117   4.148968   5.127435   6.919831
    39  H    2.544581   1.092126   4.525824   5.770932   8.231471
    40  H    2.517488   4.131558   1.083574   2.132159   5.685940
    41  H    4.832048   5.834549   2.123372   1.085000   3.933765
    42  H    7.423421   6.799656   4.981210   4.025918   1.097172
    43  H    7.245643   7.161359   4.642295   3.571531   1.098254
                   21         22         23         24         25
    21  H    0.000000
    22  H    2.511740   0.000000
    23  H    2.491615   1.764925   0.000000
    24  H    2.517821   3.764487   4.328592   0.000000
    25  H    2.528572   2.556406   3.767380   1.765871   0.000000
    26  H    4.329466   4.152678   4.989089   2.507461   2.505504
    27  H    4.985841   5.021611   5.021895   3.770353   4.330531
    28  H    4.159454   5.025297   5.031277   2.562318   3.769828
    29  H    4.265265   4.982640   4.145152   4.149881   4.988682
    30  H    4.133857   3.760708   2.549613   5.030256   5.027727
    31  H    4.977419   4.334399   3.764482   5.032179   5.040699
    32  H    6.243937   4.666179   4.655275   6.257116   5.668239
    33  H    8.123324   6.136761   6.123760   8.464319   7.606385
    34  H   10.272520   7.999904   7.967126  11.442658  10.190806
    35  H    9.016080   6.934976   6.617046  10.431761   9.301504
    36  H    8.882150   6.557773   6.698248  10.141057   8.789139
    37  H    9.828453   7.811199   7.522737  10.589539   9.687815
    38  H    9.871281   7.657917   7.769836  10.343322   9.284506
    39  H   10.739551   8.502180   8.465866  11.537011  10.420828
    40  H    6.786674   4.569923   4.560720   8.205175   6.954730
    41  H    4.383529   2.262882   2.256558   5.909800   4.769436
    42  H    4.998748   3.765093   4.330428   4.322743   3.763230
    43  H    4.173586   2.551826   3.759890   3.771044   2.564059
                   26         27         28         29         30
    26  H    0.000000
    27  H    2.506868   0.000000
    28  H    2.503614   1.765382   0.000000
    29  H    4.332236   2.531943   2.515074   0.000000
    30  H    4.995504   3.771212   4.337613   2.512709   0.000000
    31  H    4.172136   2.559331   3.767448   2.513647   1.759931
    32  H    4.749104   3.927388   5.411370   4.769046   3.447965
    33  H    6.959233   6.322665   7.815916   6.978677   5.199209
    34  H   10.530101  10.403384  11.558027  10.503736   8.130141
    35  H    9.822507   9.557406  10.571451   9.299026   6.830297
    36  H    9.424810   9.595958  10.567623   9.691908   7.324212
    37  H    9.335269   8.581154  10.011381   8.781247   6.688517
    38  H    8.816556   8.421118   9.897689   9.100091   7.172198
    39  H   10.245514   9.845895  11.236309  10.215227   8.054256
    40  H    7.783042   7.930920   8.716728   7.791115   5.420897
    41  H    5.890822   6.188204   6.646366   5.894291   3.777396
    42  H    2.484766   2.566048   3.767788   4.201080   3.788238
    43  H    2.501845   3.773332   4.330019   5.009179   4.325249
                   31         32         33         34         35
    31  H    0.000000
    32  H    2.291011   0.000000
    33  H    4.474512   2.408932   0.000000
    34  H    8.285914   6.648443   4.695127   0.000000
    35  H    7.287779   6.051103   4.540361   1.778997   0.000000
    36  H    7.622226   6.128754   4.678930   1.763666   1.778225
    37  H    6.405942   4.723674   2.497678   3.202568   3.327304
    38  H    6.608645   4.519637   2.151859   3.407862   4.058709
    39  H    7.806726   5.922345   3.586115   2.126502   3.197336
    40  H    5.966223   4.933029   4.317933   3.584529   2.490215
    41  H    4.559102   4.297008   4.935364   5.917853   4.717235
    42  H    2.604234   2.303511   4.481313   8.315320   7.696083
    43  H    3.790983   3.469094   5.219067   8.192216   7.549227
                   36         37         38         39         40
    36  H    0.000000
    37  H    4.059754   0.000000
    38  H    4.001734   1.778404   0.000000
    39  H    3.409580   1.778647   1.763215   0.000000
    40  H    2.152413   4.534148   4.682845   4.693456   0.000000
    41  H    4.513145   6.045172   6.133879   6.645903   2.404428
    42  H    7.423863   6.878748   6.393897   7.846409   5.962678
    43  H    6.990303   7.438119   6.852515   8.129747   5.426483
                   41         42         43
    41  H    0.000000
    42  H    4.554432   0.000000
    43  H    3.778080   1.759859   0.000000
 Stoichiometry    C18H23NO
 Framework group  C1[X(C18H23NO)]
 Deg. of freedom   123
 Full point group                 C1      NOp   1
 Largest Abelian subgroup         C1      NOp   1
 Largest concise Abelian subgroup C1      NOp   1
                         Standard orientation:                         
 ---------------------------------------------------------------------
 Center     Atomic      Atomic             Coordinates (Angstroms)
 Number     Number       Type             X           Y           Z
 ---------------------------------------------------------------------
      1          8           0       -4.349938   -1.335107   -1.637281
      2          6           0       -3.591986   -0.727777   -0.904628
      3          6           0       -3.108193   -1.253987    0.442128
      4          6           0       -1.562044   -1.337833    0.416085
      5          6           0       -3.557466   -0.261064    1.542167
      6          6           0       -2.953163    1.126419    1.255489
      7          6           0       -3.456755    1.630986   -0.111269
      8          6           0       -3.016859    0.646839   -1.224204
      9          6           0       -1.471812    0.540042   -1.238903
     10          6           0       -0.925707    0.046429    0.132635
     11          6           0        0.605713   -0.005692    0.105443
     12          6           0        1.353758    1.155361   -0.148051
     13          6           0        2.743220    1.158605   -0.183969
     14          6           0        3.482003   -0.023525    0.046380
     15          7           0        4.875432   -0.025532    0.047398
     16          6           0        5.575396   -1.298548    0.035452
     17          6           0        5.581612    1.136174   -0.465251
     18          6           0        2.737666   -1.196291    0.287495
     19          6           0        1.344175   -1.176142    0.318971
     20          6           0       -1.414832    1.027324    1.237608
     21          1           0       -3.543822   -2.245333    0.603842
     22          1           0       -1.214102   -1.722966    1.383825
     23          1           0       -1.248667   -2.060633   -0.348152
     24          1           0       -4.653473   -0.204583    1.575148
     25          1           0       -3.224833   -0.629246    2.522223
     26          1           0       -3.262512    1.829186    2.040308
     27          1           0       -3.047924    2.627824   -0.326233
     28          1           0       -4.550393    1.727885   -0.104262
     29          1           0       -3.393518    0.963176   -2.202466
     30          1           0       -1.146129   -0.147355   -2.030228
     31          1           0       -1.050680    1.522938   -1.483998
     32          1           0        0.843554    2.097960   -0.330761
     33          1           0        3.251639    2.092142   -0.394360
     34          1           0        6.651609   -1.114096    0.057806
     35          1           0        5.347291   -1.909354   -0.853869
     36          1           0        5.325417   -1.889498    0.924111
     37          1           0        5.352813    1.350064   -1.522538
     38          1           0        5.340111    2.030674    0.120426
     39          1           0        6.656914    0.967889   -0.374998
     40          1           0        3.240387   -2.141801    0.453073
     41          1           0        0.836823   -2.115600    0.511943
     42          1           0       -0.982715    2.021973    1.071071
     43          1           0       -1.044662    0.684407    2.213079
 ---------------------------------------------------------------------
 Rotational constants (GHZ):           0.9788378           0.1599326           0.1544765
 Standard basis: 6-31G(d) (6D, 7F)
 There are   346 symmetry adapted cartesian basis functions of A   symmetry.
 There are   346 symmetry adapted basis functions of A   symmetry.
   346 basis functions,   652 primitive gaussians,   346 cartesian basis functions
    73 alpha electrons       73 beta electrons
       nuclear repulsion energy      1572.4677502895 Hartrees.
 NAtoms=   43 NActive=   43 NUniq=   43 SFac= 1.00D+00 NAtFMM=   60 NAOKFM=F Big=F
 Integral buffers will be    131072 words long.
 Raffenetti 2 integral format.
 Two-electron integral symmetry is turned on.
 One-electron integrals computed using PRISM.
 NBasis=   346 RedAO= T EigKep=  3.82D-04  NBF=   346
 NBsUse=   346 1.00D-06 EigRej= -1.00D+00 NBFU=   346
 ExpMin= 1.61D-01 ExpMax= 5.48D+03 ExpMxC= 8.25D+02 IAcc=3 IRadAn=         5 AccDes= 0.00D+00
 Harris functional with IExCor=  402 and IRadAn=       5 diagonalized for initial guess.
 HarFok:  IExCor=  402 AccDes= 0.00D+00 IRadAn=         5 IDoV= 1 UseB2=F ITyADJ=14
 ICtDFT=  3500011 ScaDFX=  1.000000  1.000000  1.000000  1.000000
 FoFCou: FMM=F IPFlag=           0 FMFlag=      100000 FMFlg1=           0
         NFxFlg=           0 DoJE=T BraDBF=F KetDBF=T FulRan=T
         wScrn=  0.000000 ICntrl=       500 IOpCl=  0 I1Cent=   200000004 NGrid=           0
         NMat0=    1 NMatS0=      1 NMatT0=    0 NMatD0=    1 NMtDS0=    0 NMtDT0=    0
 Petite list used in FoFCou.
 Requested convergence on RMS density matrix=1.00D-08 within 128 cycles.
 Requested convergence on MAX density matrix=1.00D-06.
 Requested convergence on             energy=1.00D-06.
 No special actions if energy rises.
 Integral accuracy reduced to 1.0D-05 until final iterations.
 Initial convergence to 1.0D-05 achieved.  Increase integral accuracy.
 SCF Done:  E(RB3LYP) =  -829.749885342     A.U. after   14 cycles
            NFock= 14  Conv=0.67D-08     -V/T= 2.0097
 DoSCS=F DFT=T ScalE2(SS,OS)=  1.000000  1.000000
 Range of M.O.s used for correlation:     1   346
 NBasis=   346 NAE=    73 NBE=    73 NFC=     0 NFV=     0
 NROrb=    346 NOA=    73 NOB=    73 NVA=   273 NVB=   273
 Symmetrizing basis deriv contribution to polar:
 IMax=3 JMax=2 DiffMx= 0.00D+00
 G2DrvN: will do    44 centers at a time, making    1 passes.
 Calling FoFCou, ICntrl=  3107 FMM=F I1Cent=   0 AccDes= 0.00D+00.
 End of G2Drv F.D. properties file   721 does not exist.
 End of G2Drv F.D. properties file   722 does not exist.
 End of G2Drv F.D. properties file   788 does not exist.
          IDoAtm=1111111111111111111111111111111111111111111
          Differentiating once with respect to electric field.
                with respect to dipole field.
          Differentiating once with respect to nuclear coordinates.
 CalDSu exits because no D1Ps are significant.
          There are   132 degrees of freedom in the 1st order CPHF.  IDoFFX=6 NUNeed=     3.
    129 vectors produced by pass  0 Test12= 1.99D-14 1.00D-09 XBig12= 2.36D+02 9.78D+00.
 AX will form   129 AO Fock derivatives at one time.
    129 vectors produced by pass  1 Test12= 1.99D-14 1.00D-09 XBig12= 3.68D+01 1.34D+00.
    129 vectors produced by pass  2 Test12= 1.99D-14 1.00D-09 XBig12= 3.06D-01 6.02D-02.
    129 vectors produced by pass  3 Test12= 1.99D-14 1.00D-09 XBig12= 9.12D-04 2.34D-03.
    129 vectors produced by pass  4 Test12= 1.99D-14 1.00D-09 XBig12= 8.79D-07 6.21D-05.
     77 vectors produced by pass  5 Test12= 1.99D-14 1.00D-09 XBig12= 6.23D-10 2.08D-06.
      7 vectors produced by pass  6 Test12= 1.99D-14 1.00D-09 XBig12= 4.75D-13 8.09D-08.
      2 vectors produced by pass  7 Test12= 1.99D-14 1.00D-09 XBig12= 4.79D-16 3.24D-09.
 InvSVY:  IOpt=1 It=  1 EMax= 8.88D-15
 Solved reduced A of dimension   731 with   132 vectors.
 Isotropic polarizability for W=    0.000000      193.04 Bohr**3.
 End of Minotr F.D. properties file   721 does not exist.
 End of Minotr F.D. properties file   722 does not exist.
 End of Minotr F.D. properties file   788 does not exist.

 **********************************************************************

            Population analysis using the SCF density.

 **********************************************************************

 Orbital symmetries:
       Occupied  (A) (A) (A) (A) (A) (A) (A) (A) (A) (A) (A) (A)
                 (A) (A) (A) (A) (A) (A) (A) (A) (A) (A) (A) (A)
                 (A) (A) (A) (A) (A) (A) (A) (A) (A) (A) (A) (A)
                 (A) (A) (A) (A) (A) (A) (A) (A) (A) (A) (A) (A)
                 (A) (A) (A) (A) (A) (A) (A) (A) (A) (A) (A) (A)
                 (A) (A) (A) (A) (A) (A) (A) (A) (A) (A) (A) (A)
                 (A)
       Virtual   (A) (A) (A) (A) (A) (A) (A) (A) (A) (A) (A) (A)
                 (A) (A) (A) (A) (A) (A) (A) (A) (A) (A) (A) (A)
                 (A) (A) (A) (A) (A) (A) (A) (A) (A) (A) (A) (A)
                 (A) (A) (A) (A) (A) (A) (A) (A) (A) (A) (A) (A)
                 (A) (A) (A) (A) (A) (A) (A) (A) (A) (A) (A) (A)
                 (A) (A) (A) (A) (A) (A) (A) (A) (A) (A) (A) (A)
                 (A) (A) (A) (A) (A) (A) (A) (A) (A) (A) (A) (A)
                 (A) (A) (A) (A) (A) (A) (A) (A) (A) (A) (A) (A)
                 (A) (A) (A) (A) (A) (A) (A) (A) (A) (A) (A) (A)
                 (A) (A) (A) (A) (A) (A) (A) (A) (A) (A) (A) (A)
                 (A) (A) (A) (A) (A) (A) (A) (A) (A) (A) (A) (A)
                 (A) (A) (A) (A) (A) (A) (A) (A) (A) (A) (A) (A)
                 (A) (A) (A) (A) (A) (A) (A) (A) (A) (A) (A) (A)
                 (A) (A) (A) (A) (A) (A) (A) (A) (A) (A) (A) (A)
                 (A) (A) (A) (A) (A) (A) (A) (A) (A) (A) (A) (A)
                 (A) (A) (A) (A) (A) (A) (A) (A) (A) (A) (A) (A)
                 (A) (A) (A) (A) (A) (A) (A) (A) (A) (A) (A) (A)
                 (A) (A) (A) (A) (A) (A) (A) (A) (A) (A) (A) (A)
                 (A) (A) (A) (A) (A) (A) (A) (A) (A) (A) (A) (A)
                 (A) (A) (A) (A) (A) (A) (A) (A) (A) (A) (A) (A)
                 (A) (A) (A) (A) (A) (A) (A) (A) (A) (A) (A) (A)
                 (A) (A) (A) (A) (A) (A) (A) (A) (A) (A) (A) (A)
                 (A) (A) (A) (A) (A) (A) (A) (A) (A)
 The electronic state is 1-A.
 Alpha  occ. eigenvalues --  -19.12654 -14.35053 -10.25736 -10.22127 -10.21742
 Alpha  occ. eigenvalues --  -10.21707 -10.20038 -10.19008 -10.18840 -10.18773
 Alpha  occ. eigenvalues --  -10.18674 -10.18642 -10.18554 -10.18475 -10.18063
 Alpha  occ. eigenvalues --  -10.17978 -10.17952 -10.17888 -10.17747 -10.17605
 Alpha  occ. eigenvalues --   -1.02460  -0.94356  -0.87301  -0.83700  -0.78253
 Alpha  occ. eigenvalues --   -0.77509  -0.75899  -0.74249  -0.72590  -0.71836
 Alpha  occ. eigenvalues --   -0.67278  -0.65714  -0.64126  -0.60590  -0.59193
 Alpha  occ. eigenvalues --   -0.58616  -0.57025  -0.55486  -0.52465  -0.50026
 Alpha  occ. eigenvalues --   -0.47736  -0.47018  -0.46289  -0.45720  -0.45126
 Alpha  occ. eigenvalues --   -0.44107  -0.43702  -0.43400  -0.42593  -0.42062
 Alpha  occ. eigenvalues --   -0.41548  -0.41186  -0.40725  -0.39918  -0.39709
 Alpha  occ. eigenvalues --   -0.39277  -0.38917  -0.38024  -0.36166  -0.35998
 Alpha  occ. eigenvalues --   -0.35584  -0.35128  -0.34044  -0.33384  -0.33180
 Alpha  occ. eigenvalues --   -0.32295  -0.29870  -0.29349  -0.28936  -0.27181
 Alpha  occ. eigenvalues --   -0.24092  -0.22403  -0.18637
 Alpha virt. eigenvalues --   -0.00425   0.00766   0.02008   0.07242   0.08547
 Alpha virt. eigenvalues --    0.10534   0.11189   0.12097   0.12338   0.12761
 Alpha virt. eigenvalues --    0.13287   0.13654   0.14199   0.14826   0.15277
 Alpha virt. eigenvalues --    0.15776   0.16358   0.16475   0.17126   0.17373
 Alpha virt. eigenvalues --    0.17574   0.18316   0.18453   0.19363   0.19718
 Alpha virt. eigenvalues --    0.20182   0.20535   0.21039   0.21922   0.22526
 Alpha virt. eigenvalues --    0.22657   0.23986   0.24536   0.24684   0.25202
 Alpha virt. eigenvalues --    0.26069   0.27600   0.28281   0.29125   0.29991
 Alpha virt. eigenvalues --    0.30124   0.31380   0.34090   0.34754   0.35931
 Alpha virt. eigenvalues --    0.36583   0.37484   0.41512   0.47560   0.49486
 Alpha virt. eigenvalues --    0.50624   0.51808   0.52368   0.52613   0.53240
 Alpha virt. eigenvalues --    0.53759   0.54725   0.55271   0.56177   0.56673
 Alpha virt. eigenvalues --    0.57219   0.57873   0.59536   0.59688   0.60172
 Alpha virt. eigenvalues --    0.61015   0.61409   0.62511   0.63180   0.64552
 Alpha virt. eigenvalues --    0.64821   0.65726   0.66788   0.67315   0.68009
 Alpha virt. eigenvalues --    0.68427   0.69574   0.70617   0.71763   0.72310
 Alpha virt. eigenvalues --    0.72816   0.74006   0.75952   0.76379   0.77471
 Alpha virt. eigenvalues --    0.77862   0.79329   0.79615   0.80811   0.80990
 Alpha virt. eigenvalues --    0.81734   0.82555   0.82957   0.83743   0.84574
 Alpha virt. eigenvalues --    0.85879   0.86074   0.86407   0.86964   0.87285
 Alpha virt. eigenvalues --    0.88049   0.88673   0.89009   0.89542   0.90205
 Alpha virt. eigenvalues --    0.91237   0.92222   0.93265   0.94223   0.94547
 Alpha virt. eigenvalues --    0.94838   0.95617   0.96033   0.97476   0.98090
 Alpha virt. eigenvalues --    0.98656   0.98977   0.99998   1.00786   1.02153
 Alpha virt. eigenvalues --    1.02783   1.05952   1.06739   1.09791   1.10506
 Alpha virt. eigenvalues --    1.12042   1.14239   1.15068   1.17415   1.18058
 Alpha virt. eigenvalues --    1.18915   1.19217   1.20284   1.22217   1.23966
 Alpha virt. eigenvalues --    1.25611   1.26637   1.27584   1.30360   1.31767
 Alpha virt. eigenvalues --    1.35541   1.37973   1.39328   1.41831   1.43440
 Alpha virt. eigenvalues --    1.45021   1.46838   1.47373   1.49447   1.51034
 Alpha virt. eigenvalues --    1.52821   1.53214   1.55115   1.59023   1.60547
 Alpha virt. eigenvalues --    1.61349   1.62289   1.66026   1.67253   1.70384
 Alpha virt. eigenvalues --    1.71238   1.72644   1.74946   1.76101   1.77472
 Alpha virt. eigenvalues --    1.77718   1.79231   1.79620   1.80828   1.82252
 Alpha virt. eigenvalues --    1.83074   1.84448   1.85688   1.86223   1.87371
 Alpha virt. eigenvalues --    1.88193   1.90541   1.91033   1.92600   1.93689
 Alpha virt. eigenvalues --    1.94946   1.95701   1.97349   1.97898   2.01659
 Alpha virt. eigenvalues --    2.03068   2.04037   2.04942   2.05431   2.06380
 Alpha virt. eigenvalues --    2.08219   2.08749   2.09504   2.10153   2.12189
 Alpha virt. eigenvalues --    2.14246   2.14939   2.15047   2.15357   2.16519
 Alpha virt. eigenvalues --    2.18772   2.20956   2.21611   2.22493   2.23054
 Alpha virt. eigenvalues --    2.24571   2.25774   2.27536   2.27920   2.29904
 Alpha virt. eigenvalues --    2.30595   2.31296   2.32964   2.34388   2.35957
 Alpha virt. eigenvalues --    2.36676   2.39113   2.40862   2.41435   2.43269
 Alpha virt. eigenvalues --    2.44923   2.47314   2.47757   2.50874   2.53427
 Alpha virt. eigenvalues --    2.54609   2.56988   2.58074   2.58789   2.60266
 Alpha virt. eigenvalues --    2.61592   2.62768   2.66729   2.68467   2.69461
 Alpha virt. eigenvalues --    2.69832   2.71706   2.72857   2.74263   2.74917
 Alpha virt. eigenvalues --    2.76537   2.77393   2.80546   2.82290   2.85466
 Alpha virt. eigenvalues --    2.89816   2.92604   3.00287   3.01770   3.03976
 Alpha virt. eigenvalues --    3.06396   3.21676   3.42815   4.05627   4.10277
 Alpha virt. eigenvalues --    4.11295   4.12958   4.15942   4.21691   4.26569
 Alpha virt. eigenvalues --    4.28134   4.29866   4.31667   4.34279   4.35793
 Alpha virt. eigenvalues --    4.46645   4.51585   4.57195   4.71434   4.73442
 Alpha virt. eigenvalues --    4.80622   4.85158   4.86156
          Condensed to atoms (all electrons):
               1          2          3          4          5          6
     1  O    8.016065   0.579255  -0.074125   0.000985   0.000924   0.000046
     2  C    0.579255   4.512956   0.331528  -0.027948  -0.029253  -0.020536
     3  C   -0.074125   0.331528   5.230738   0.321829   0.338668  -0.027575
     4  C    0.000985  -0.027948   0.321829   5.180531  -0.037935  -0.014486
     5  C    0.000924  -0.029253   0.338668  -0.037935   5.096097   0.375171
     6  C    0.000046  -0.020536  -0.027575  -0.014486   0.375171   4.948775
     7  C    0.000978  -0.029512  -0.008194  -0.003027  -0.049441   0.375043
     8  C   -0.073834   0.332285  -0.124623  -0.006624  -0.008538  -0.029000
     9  C    0.000899  -0.027968  -0.007334  -0.058409  -0.002513  -0.013367
    10  C    0.000111  -0.019172  -0.018085   0.361590  -0.016103  -0.021006
    11  C    0.000001  -0.000003   0.003391  -0.037382  -0.000054   0.004222
    12  C   -0.000000  -0.000007  -0.000099   0.005327  -0.000000   0.000335
    13  C   -0.000000   0.000000   0.000001  -0.000152   0.000000  -0.000000
    14  C   -0.000000  -0.000000   0.000000  -0.000007  -0.000000  -0.000000
    15  N    0.000000   0.000000  -0.000000  -0.000000   0.000000  -0.000000
    16  C   -0.000000  -0.000000   0.000000   0.000000  -0.000000   0.000000
    17  C    0.000000  -0.000000   0.000000   0.000000   0.000000  -0.000000
    18  C   -0.000000   0.000000  -0.000007   0.000245   0.000000   0.000001
    19  C   -0.000000  -0.000012   0.000535  -0.009810  -0.000012  -0.000062
    20  C   -0.000031  -0.002798  -0.013244  -0.056920  -0.046070   0.348893
    21  H    0.004293  -0.032188   0.344878  -0.031202  -0.031754   0.004220
    22  H   -0.000083   0.003563  -0.031427   0.353222  -0.006119  -0.000681
    23  H    0.000745  -0.001054  -0.039900   0.360710   0.005122  -0.000061
    24  H    0.000767  -0.000932  -0.039819   0.005118   0.367128  -0.035038
    25  H   -0.000083   0.003556  -0.030853  -0.006098   0.360414  -0.033399
    26  H   -0.000000   0.000311   0.004665   0.000114  -0.038415   0.367379
    27  H   -0.000083   0.003570  -0.000317   0.000122   0.005310  -0.033747
    28  H    0.000732  -0.000883  -0.000063   0.000056  -0.004315  -0.034890
    29  H    0.004200  -0.032017   0.007170  -0.000053  -0.000046   0.004187
    30  H    0.000712  -0.001345   0.000400  -0.006813  -0.000008  -0.000056
    31  H   -0.000082   0.003581  -0.000302   0.005934   0.000100  -0.000737
    32  H   -0.000000  -0.000004  -0.000002   0.000068  -0.000001  -0.000136
    33  H    0.000000  -0.000000  -0.000000   0.000002  -0.000000  -0.000000
    34  H    0.000000   0.000000  -0.000000   0.000000   0.000000  -0.000000
    35  H    0.000000   0.000000  -0.000000   0.000000  -0.000000   0.000000
    36  H   -0.000000  -0.000000   0.000000   0.000000   0.000000  -0.000000
    37  H    0.000000  -0.000000   0.000000  -0.000000  -0.000000   0.000000
    38  H    0.000000   0.000000   0.000000   0.000000  -0.000000  -0.000000
    39  H    0.000000   0.000000  -0.000000   0.000000   0.000000   0.000000
    40  H    0.000000  -0.000000  -0.000000   0.000003  -0.000000  -0.000000
    41  H   -0.000000  -0.000016   0.000041   0.007521  -0.000005  -0.000007
    42  H    0.000000   0.000146  -0.000069   0.005896   0.005170  -0.034412
    43  H    0.000000   0.000140  -0.001165  -0.006071  -0.004021  -0.034112
               7          8          9         10         11         12
     1  O    0.000978  -0.073834   0.000899   0.000111   0.000001  -0.000000
     2  C   -0.029512   0.332285  -0.027968  -0.019172  -0.000003  -0.000007
     3  C   -0.008194  -0.124623  -0.007334  -0.018085   0.003391  -0.000099
     4  C   -0.003027  -0.006624  -0.058409   0.361590  -0.037382   0.005327
     5  C   -0.049441  -0.008538  -0.002513  -0.016103  -0.000054  -0.000000
     6  C    0.375043  -0.029000  -0.013367  -0.021006   0.004222   0.000335
     7  C    5.098759   0.338785  -0.038794  -0.016170   0.000011  -0.000046
     8  C    0.338785   5.240597   0.309232  -0.020159   0.004300   0.000323
     9  C   -0.038794   0.309232   5.184330   0.365267  -0.046152  -0.008455
    10  C   -0.016170  -0.020159   0.365267   4.953812   0.357309  -0.054176
    11  C    0.000011   0.004300  -0.046152   0.357309   4.711331   0.523335
    12  C   -0.000046   0.000323  -0.008455  -0.054176   0.523335   5.005779
    13  C   -0.000000  -0.000002   0.000373   0.005409  -0.024084   0.510759
    14  C   -0.000000   0.000000  -0.000006   0.000426  -0.027249  -0.012743
    15  N    0.000000   0.000000  -0.000000   0.000002   0.000437   0.005189
    16  C   -0.000000   0.000000  -0.000000  -0.000000  -0.000001  -0.000089
    17  C   -0.000000   0.000000   0.000000  -0.000000  -0.000004   0.000079
    18  C    0.000000   0.000001  -0.000127   0.006875  -0.025844  -0.050580
    19  C   -0.000002  -0.000058   0.001033  -0.053382   0.549976  -0.045486
    20  C   -0.046256  -0.011551  -0.057137   0.370826  -0.048659  -0.008270
    21  H   -0.000039   0.007173  -0.000072   0.003453  -0.000100   0.000002
    22  H    0.000130  -0.000406   0.006210  -0.027569  -0.006365  -0.000125
    23  H    0.000008   0.000518  -0.007065  -0.029460  -0.006218  -0.000069
    24  H   -0.004380  -0.000027   0.000042   0.000168   0.000012  -0.000000
    25  H    0.005276  -0.000295   0.000108  -0.001138  -0.000098  -0.000000
    26  H   -0.038135   0.004639   0.000059   0.004093  -0.000095  -0.000008
    27  H    0.359887  -0.031626  -0.005650  -0.001271  -0.000081  -0.000030
    28  H    0.366536  -0.039364   0.005100   0.000171   0.000012   0.000000
    29  H   -0.031487   0.343734  -0.030083   0.003483  -0.000106  -0.000005
    30  H    0.005089  -0.037701   0.361724  -0.033629  -0.001634  -0.000174
    31  H   -0.006026  -0.030133   0.354501  -0.030384  -0.008723   0.004845
    32  H   -0.000015  -0.000120   0.000286  -0.008263  -0.046871   0.347911
    33  H   -0.000000  -0.000000  -0.000001  -0.000168   0.003500  -0.039224
    34  H   -0.000000  -0.000000   0.000000  -0.000000   0.000000   0.000003
    35  H    0.000000  -0.000000   0.000000   0.000000  -0.000006  -0.000013
    36  H    0.000000   0.000000  -0.000000  -0.000000  -0.000008   0.000003
    37  H   -0.000000  -0.000000   0.000000   0.000000  -0.000006  -0.000078
    38  H    0.000000   0.000000  -0.000000  -0.000000  -0.000007   0.000321
    39  H   -0.000000  -0.000000   0.000000  -0.000000   0.000000  -0.000005
    40  H   -0.000000  -0.000000   0.000002  -0.000165   0.003639   0.000656
    41  H   -0.000001  -0.000006   0.000222  -0.015855  -0.039468   0.006584
    42  H   -0.003719  -0.001138  -0.005005  -0.033341  -0.008404   0.004901
    43  H    0.005148  -0.000152   0.005978  -0.034966  -0.001234  -0.000170
              13         14         15         16         17         18
     1  O   -0.000000  -0.000000   0.000000  -0.000000   0.000000  -0.000000
     2  C    0.000000  -0.000000   0.000000  -0.000000  -0.000000   0.000000
     3  C    0.000001   0.000000  -0.000000   0.000000   0.000000  -0.000007
     4  C   -0.000152  -0.000007  -0.000000   0.000000   0.000000   0.000245
     5  C    0.000000  -0.000000   0.000000  -0.000000   0.000000   0.000000
     6  C   -0.000000  -0.000000  -0.000000   0.000000  -0.000000   0.000001
     7  C   -0.000000  -0.000000   0.000000  -0.000000  -0.000000   0.000000
     8  C   -0.000002   0.000000   0.000000   0.000000   0.000000   0.000001
     9  C    0.000373  -0.000006  -0.000000  -0.000000   0.000000  -0.000127
    10  C    0.005409   0.000426   0.000002  -0.000000  -0.000000   0.006875
    11  C   -0.024084  -0.027249   0.000437  -0.000001  -0.000004  -0.025844
    12  C    0.510759  -0.012743   0.005189  -0.000089   0.000079  -0.050580
    13  C    5.048742   0.516796  -0.072798   0.005963  -0.011398  -0.055156
    14  C    0.516796   4.488132   0.319578  -0.040446  -0.040211   0.522060
    15  N   -0.072798   0.319578   6.904813   0.327761   0.327613  -0.072827
    16  C    0.005963  -0.040446   0.327761   4.967308  -0.061171  -0.011425
    17  C   -0.011398  -0.040211   0.327613  -0.061171   4.967742   0.005968
    18  C   -0.055156   0.522060  -0.072827  -0.011425   0.005968   5.072348
    19  C   -0.048619  -0.011694   0.005090   0.000116  -0.000083   0.494227
    20  C    0.000270   0.000007   0.000000   0.000000  -0.000000  -0.000156
    21  H   -0.000000  -0.000000  -0.000000   0.000000   0.000000   0.000000
    22  H    0.000002  -0.000008  -0.000000   0.000000   0.000000   0.000068
    23  H   -0.000003  -0.000004   0.000000   0.000000   0.000000   0.000036
    24  H    0.000000   0.000000  -0.000000   0.000000  -0.000000   0.000000
    25  H    0.000000  -0.000000   0.000000   0.000000  -0.000000  -0.000000
    26  H   -0.000000   0.000000  -0.000000   0.000000  -0.000000  -0.000000
    27  H   -0.000000  -0.000000  -0.000000   0.000000  -0.000000  -0.000000
    28  H    0.000000   0.000000  -0.000000   0.000000   0.000000   0.000000
    29  H   -0.000000  -0.000000  -0.000000  -0.000000  -0.000000  -0.000000
    30  H   -0.000068  -0.000009   0.000000   0.000000   0.000000  -0.000033
    31  H    0.000020  -0.000004  -0.000000   0.000000   0.000000   0.000004
    32  H   -0.040377   0.003684  -0.000115   0.000002  -0.000003   0.000706
    33  H    0.347635  -0.040983  -0.011710  -0.000041   0.007596   0.005695
    34  H   -0.000141   0.003500  -0.032825   0.375181  -0.007024   0.000443
    35  H    0.000186  -0.001806  -0.050086   0.363958   0.000826   0.005064
    36  H   -0.000251  -0.007197  -0.040374   0.375962   0.004589   0.004322
    37  H    0.004932  -0.001797  -0.050008   0.000854   0.363788   0.000208
    38  H    0.004015  -0.007006  -0.040544   0.004564   0.376077  -0.000248
    39  H    0.000437   0.003506  -0.032798  -0.006983   0.375283  -0.000140
    40  H    0.005669  -0.041559  -0.011786   0.007567  -0.000039   0.347429
    41  H    0.000650   0.003734  -0.000109  -0.000006   0.000002  -0.046696
    42  H   -0.000013  -0.000005  -0.000000   0.000000   0.000000   0.000004
    43  H   -0.000059  -0.000012  -0.000000   0.000000   0.000000  -0.000030
              19         20         21         22         23         24
     1  O   -0.000000  -0.000031   0.004293  -0.000083   0.000745   0.000767
     2  C   -0.000012  -0.002798  -0.032188   0.003563  -0.001054  -0.000932
     3  C    0.000535  -0.013244   0.344878  -0.031427  -0.039900  -0.039819
     4  C   -0.009810  -0.056920  -0.031202   0.353222   0.360710   0.005118
     5  C   -0.000012  -0.046070  -0.031754  -0.006119   0.005122   0.367128
     6  C   -0.000062   0.348893   0.004220  -0.000681  -0.000061  -0.035038
     7  C   -0.000002  -0.046256  -0.000039   0.000130   0.000008  -0.004380
     8  C   -0.000058  -0.011551   0.007173  -0.000406   0.000518  -0.000027
     9  C    0.001033  -0.057137  -0.000072   0.006210  -0.007065   0.000042
    10  C   -0.053382   0.370826   0.003453  -0.027569  -0.029460   0.000168
    11  C    0.549976  -0.048659  -0.000100  -0.006365  -0.006218   0.000012
    12  C   -0.045486  -0.008270   0.000002  -0.000125  -0.000069  -0.000000
    13  C   -0.048619   0.000270  -0.000000   0.000002  -0.000003   0.000000
    14  C   -0.011694   0.000007  -0.000000  -0.000008  -0.000004   0.000000
    15  N    0.005090   0.000000  -0.000000  -0.000000   0.000000  -0.000000
    16  C    0.000116   0.000000   0.000000   0.000000   0.000000   0.000000
    17  C   -0.000083  -0.000000   0.000000   0.000000   0.000000  -0.000000
    18  C    0.494227  -0.000156   0.000000   0.000068   0.000036   0.000000
    19  C    4.995778   0.000982   0.000004   0.002091   0.001866   0.000000
    20  C    0.000982   5.157679   0.000143  -0.006140   0.006026   0.005021
    21  H    0.000004   0.000143   0.604976  -0.003964  -0.002676  -0.002468
    22  H    0.002091  -0.006140  -0.003964   0.603568  -0.039463  -0.000046
    23  H    0.001866   0.006026  -0.002676  -0.039463   0.596578  -0.000159
    24  H    0.000000   0.005021  -0.002468  -0.000046  -0.000159   0.596984
    25  H   -0.000003  -0.003577  -0.004131   0.005788  -0.000060  -0.035588
    26  H    0.000001  -0.037475  -0.000148  -0.000101   0.000019  -0.003336
    27  H    0.000001  -0.003478   0.000023  -0.000005   0.000000   0.000002
    28  H   -0.000000   0.005003  -0.000081   0.000000  -0.000005   0.004277
    29  H    0.000000   0.000109  -0.000187   0.000025  -0.000094  -0.000085
    30  H    0.001260   0.005839  -0.000091  -0.000023   0.005039  -0.000005
    31  H   -0.000248  -0.004881   0.000023  -0.000205   0.000005   0.000001
    32  H    0.006209   0.000289   0.000000  -0.000000   0.000002  -0.000000
    33  H    0.000652  -0.000001   0.000000   0.000000   0.000000  -0.000000
    34  H   -0.000005   0.000000   0.000000   0.000000   0.000000  -0.000000
    35  H   -0.000084  -0.000000   0.000000   0.000000  -0.000000   0.000000
    36  H    0.000344   0.000000  -0.000000  -0.000000   0.000000  -0.000000
    37  H   -0.000015  -0.000000   0.000000   0.000000  -0.000000   0.000000
    38  H    0.000003   0.000000  -0.000000  -0.000000   0.000000  -0.000000
    39  H    0.000003  -0.000000   0.000000   0.000000   0.000000  -0.000000
    40  H   -0.038175   0.000001   0.000000   0.000003   0.000003  -0.000000
    41  H    0.350457   0.000227   0.000006   0.001946   0.002065  -0.000000
    42  H   -0.000211   0.358467   0.000017  -0.000053  -0.000172  -0.000165
    43  H    0.001300   0.358931  -0.000076   0.005474  -0.000073  -0.000031
              25         26         27         28         29         30
     1  O   -0.000083  -0.000000  -0.000083   0.000732   0.004200   0.000712
     2  C    0.003556   0.000311   0.003570  -0.000883  -0.032017  -0.001345
     3  C   -0.030853   0.004665  -0.000317  -0.000063   0.007170   0.000400
     4  C   -0.006098   0.000114   0.000122   0.000056  -0.000053  -0.006813
     5  C    0.360414  -0.038415   0.005310  -0.004315  -0.000046  -0.000008
     6  C   -0.033399   0.367379  -0.033747  -0.034890   0.004187  -0.000056
     7  C    0.005276  -0.038135   0.359887   0.366536  -0.031487   0.005089
     8  C   -0.000295   0.004639  -0.031626  -0.039364   0.343734  -0.037701
     9  C    0.000108   0.000059  -0.005650   0.005100  -0.030083   0.361724
    10  C   -0.001138   0.004093  -0.001271   0.000171   0.003483  -0.033629
    11  C   -0.000098  -0.000095  -0.000081   0.000012  -0.000106  -0.001634
    12  C   -0.000000  -0.000008  -0.000030   0.000000  -0.000005  -0.000174
    13  C    0.000000  -0.000000  -0.000000   0.000000  -0.000000  -0.000068
    14  C   -0.000000   0.000000  -0.000000   0.000000  -0.000000  -0.000009
    15  N    0.000000  -0.000000  -0.000000  -0.000000  -0.000000   0.000000
    16  C    0.000000   0.000000   0.000000   0.000000  -0.000000   0.000000
    17  C   -0.000000  -0.000000  -0.000000   0.000000  -0.000000   0.000000
    18  C   -0.000000  -0.000000  -0.000000   0.000000  -0.000000  -0.000033
    19  C   -0.000003   0.000001   0.000001  -0.000000   0.000000   0.001260
    20  C   -0.003577  -0.037475  -0.003478   0.005003   0.000109   0.005839
    21  H   -0.004131  -0.000148   0.000023  -0.000081  -0.000187  -0.000091
    22  H    0.005788  -0.000101  -0.000005   0.000000   0.000025  -0.000023
    23  H   -0.000060   0.000019   0.000000  -0.000005  -0.000094   0.005039
    24  H   -0.035588  -0.003336   0.000002   0.004277  -0.000085  -0.000005
    25  H    0.602072  -0.003226  -0.000203   0.000002   0.000023   0.000001
    26  H   -0.003226   0.629563  -0.003248  -0.003431  -0.000144   0.000019
    27  H   -0.000203  -0.003248   0.604991  -0.035679  -0.004036  -0.000065
    28  H    0.000002  -0.003431  -0.035679   0.597102  -0.002545  -0.000159
    29  H    0.000023  -0.000144  -0.004036  -0.002545   0.604182  -0.002572
    30  H    0.000001   0.000019  -0.000065  -0.000159  -0.002572   0.591185
    31  H   -0.000004  -0.000081   0.005860  -0.000060  -0.004081  -0.034702
    32  H   -0.000000   0.000005   0.000037  -0.000000   0.000003   0.000062
    33  H    0.000000   0.000000   0.000000  -0.000000   0.000000   0.000000
    34  H    0.000000   0.000000   0.000000  -0.000000   0.000000   0.000000
    35  H   -0.000000  -0.000000   0.000000  -0.000000   0.000000  -0.000000
    36  H    0.000000   0.000000  -0.000000  -0.000000  -0.000000   0.000000
    37  H   -0.000000  -0.000000   0.000000  -0.000000   0.000000  -0.000000
    38  H    0.000000   0.000000  -0.000000  -0.000000  -0.000000   0.000000
    39  H    0.000000  -0.000000   0.000000  -0.000000   0.000000  -0.000000
    40  H    0.000000   0.000000   0.000000  -0.000000   0.000000   0.000001
    41  H   -0.000002   0.000000   0.000000   0.000000   0.000000  -0.000036
    42  H   -0.000050  -0.003792   0.004765  -0.000045  -0.000060  -0.000055
    43  H    0.004642  -0.003504  -0.000059  -0.000163   0.000018  -0.000168
              31         32         33         34         35         36
     1  O   -0.000082  -0.000000   0.000000   0.000000   0.000000  -0.000000
     2  C    0.003581  -0.000004  -0.000000   0.000000   0.000000  -0.000000
     3  C   -0.000302  -0.000002  -0.000000  -0.000000  -0.000000   0.000000
     4  C    0.005934   0.000068   0.000002   0.000000   0.000000   0.000000
     5  C    0.000100  -0.000001  -0.000000   0.000000  -0.000000   0.000000
     6  C   -0.000737  -0.000136  -0.000000  -0.000000   0.000000  -0.000000
     7  C   -0.006026  -0.000015  -0.000000  -0.000000   0.000000   0.000000
     8  C   -0.030133  -0.000120  -0.000000  -0.000000  -0.000000   0.000000
     9  C    0.354501   0.000286  -0.000001   0.000000   0.000000  -0.000000
    10  C   -0.030384  -0.008263  -0.000168  -0.000000   0.000000  -0.000000
    11  C   -0.008723  -0.046871   0.003500   0.000000  -0.000006  -0.000008
    12  C    0.004845   0.347911  -0.039224   0.000003  -0.000013   0.000003
    13  C    0.000020  -0.040377   0.347635  -0.000141   0.000186  -0.000251
    14  C   -0.000004   0.003684  -0.040983   0.003500  -0.001806  -0.007197
    15  N   -0.000000  -0.000115  -0.011710  -0.032825  -0.050086  -0.040374
    16  C    0.000000   0.000002  -0.000041   0.375181   0.363958   0.375962
    17  C    0.000000  -0.000003   0.007596  -0.007024   0.000826   0.004589
    18  C    0.000004   0.000706   0.005695   0.000443   0.005064   0.004322
    19  C   -0.000248   0.006209   0.000652  -0.000005  -0.000084   0.000344
    20  C   -0.004881   0.000289  -0.000001   0.000000  -0.000000   0.000000
    21  H    0.000023   0.000000   0.000000   0.000000   0.000000  -0.000000
    22  H   -0.000205  -0.000000   0.000000   0.000000   0.000000  -0.000000
    23  H    0.000005   0.000002   0.000000   0.000000  -0.000000   0.000000
    24  H    0.000001  -0.000000  -0.000000  -0.000000   0.000000  -0.000000
    25  H   -0.000004  -0.000000   0.000000   0.000000  -0.000000   0.000000
    26  H   -0.000081   0.000005   0.000000   0.000000  -0.000000   0.000000
    27  H    0.005860   0.000037   0.000000   0.000000   0.000000  -0.000000
    28  H   -0.000060  -0.000000  -0.000000  -0.000000  -0.000000  -0.000000
    29  H   -0.004081   0.000003   0.000000   0.000000   0.000000  -0.000000
    30  H   -0.034702   0.000062   0.000000   0.000000  -0.000000   0.000000
    31  H    0.600908   0.003794   0.000004  -0.000000  -0.000000   0.000000
    32  H    0.003794   0.616883  -0.006434  -0.000000   0.000000   0.000000
    33  H    0.000004  -0.006434   0.611552  -0.000004   0.000004  -0.000004
    34  H   -0.000000  -0.000000  -0.000004   0.560299  -0.033823  -0.025596
    35  H   -0.000000   0.000000   0.000004  -0.033823   0.615994  -0.051808
    36  H    0.000000   0.000000  -0.000004  -0.025596  -0.051808   0.576429
    37  H    0.000000  -0.000002   0.000829  -0.000300   0.002485  -0.000437
    38  H    0.000000  -0.000002   0.000449   0.000378  -0.000437   0.000013
    39  H    0.000000  -0.000000  -0.000011   0.006928  -0.000297   0.000372
    40  H    0.000000   0.000019  -0.000186  -0.000009   0.000844   0.000409
    41  H   -0.000008  -0.000208   0.000018  -0.000000  -0.000001  -0.000003
    42  H    0.003556   0.003781   0.000006   0.000000   0.000000  -0.000000
    43  H   -0.000068   0.000080   0.000000   0.000000   0.000000  -0.000000
              37         38         39         40         41         42
     1  O    0.000000   0.000000   0.000000   0.000000  -0.000000   0.000000
     2  C   -0.000000   0.000000   0.000000  -0.000000  -0.000016   0.000146
     3  C    0.000000   0.000000  -0.000000  -0.000000   0.000041  -0.000069
     4  C   -0.000000   0.000000   0.000000   0.000003   0.007521   0.005896
     5  C   -0.000000  -0.000000   0.000000  -0.000000  -0.000005   0.005170
     6  C    0.000000  -0.000000   0.000000  -0.000000  -0.000007  -0.034412
     7  C   -0.000000   0.000000  -0.000000  -0.000000  -0.000001  -0.003719
     8  C   -0.000000   0.000000  -0.000000  -0.000000  -0.000006  -0.001138
     9  C    0.000000  -0.000000   0.000000   0.000002   0.000222  -0.005005
    10  C    0.000000  -0.000000  -0.000000  -0.000165  -0.015855  -0.033341
    11  C   -0.000006  -0.000007   0.000000   0.003639  -0.039468  -0.008404
    12  C   -0.000078   0.000321  -0.000005   0.000656   0.006584   0.004901
    13  C    0.004932   0.004015   0.000437   0.005669   0.000650  -0.000013
    14  C   -0.001797  -0.007006   0.003506  -0.041559   0.003734  -0.000005
    15  N   -0.050008  -0.040544  -0.032798  -0.011786  -0.000109  -0.000000
    16  C    0.000854   0.004564  -0.006983   0.007567  -0.000006   0.000000
    17  C    0.363788   0.376077   0.375283  -0.000039   0.000002   0.000000
    18  C    0.000208  -0.000248  -0.000140   0.347429  -0.046696   0.000004
    19  C   -0.000015   0.000003   0.000003  -0.038175   0.350457  -0.000211
    20  C   -0.000000   0.000000  -0.000000   0.000001   0.000227   0.358467
    21  H    0.000000  -0.000000   0.000000   0.000000   0.000006   0.000017
    22  H    0.000000  -0.000000   0.000000   0.000003   0.001946  -0.000053
    23  H   -0.000000   0.000000   0.000000   0.000003   0.002065  -0.000172
    24  H    0.000000  -0.000000  -0.000000  -0.000000  -0.000000  -0.000165
    25  H   -0.000000   0.000000   0.000000   0.000000  -0.000002  -0.000050
    26  H   -0.000000   0.000000  -0.000000   0.000000   0.000000  -0.003792
    27  H    0.000000  -0.000000   0.000000   0.000000   0.000000   0.004765
    28  H   -0.000000  -0.000000  -0.000000  -0.000000   0.000000  -0.000045
    29  H    0.000000  -0.000000   0.000000   0.000000   0.000000  -0.000060
    30  H   -0.000000   0.000000  -0.000000   0.000001  -0.000036  -0.000055
    31  H    0.000000   0.000000   0.000000   0.000000  -0.000008   0.003556
    32  H   -0.000002  -0.000002  -0.000000   0.000019  -0.000208   0.003781
    33  H    0.000829   0.000449  -0.000011  -0.000186   0.000018   0.000006
    34  H   -0.000300   0.000378   0.006928  -0.000009  -0.000000   0.000000
    35  H    0.002485  -0.000437  -0.000297   0.000844  -0.000001   0.000000
    36  H   -0.000437   0.000013   0.000372   0.000409  -0.000003  -0.000000
    37  H    0.616273  -0.051872  -0.033715   0.000004   0.000000   0.000000
    38  H   -0.051872   0.577149  -0.025666  -0.000004   0.000000   0.000000
    39  H   -0.033715  -0.025666   0.559851  -0.000004  -0.000000   0.000000
    40  H    0.000004  -0.000004  -0.000004   0.611376  -0.006394   0.000000
    41  H    0.000000   0.000000  -0.000000  -0.006394   0.612226  -0.000005
    42  H    0.000000   0.000000   0.000000   0.000000  -0.000005   0.607379
    43  H    0.000000  -0.000000  -0.000000   0.000001  -0.000023  -0.034550
              43
     1  O    0.000000
     2  C    0.000140
     3  C   -0.001165
     4  C   -0.006071
     5  C   -0.004021
     6  C   -0.034112
     7  C    0.005148
     8  C   -0.000152
     9  C    0.005978
    10  C   -0.034966
    11  C   -0.001234
    12  C   -0.000170
    13  C   -0.000059
    14  C   -0.000012
    15  N   -0.000000
    16  C    0.000000
    17  C    0.000000
    18  C   -0.000030
    19  C    0.001300
    20  C    0.358931
    21  H   -0.000076
    22  H    0.005474
    23  H   -0.000073
    24  H   -0.000031
    25  H    0.004642
    26  H   -0.003504
    27  H   -0.000059
    28  H   -0.000163
    29  H    0.000018
    30  H   -0.000168
    31  H   -0.000068
    32  H    0.000080
    33  H    0.000000
    34  H    0.000000
    35  H    0.000000
    36  H   -0.000000
    37  H    0.000000
    38  H   -0.000000
    39  H   -0.000000
    40  H    0.000001
    41  H   -0.000023
    42  H   -0.034550
    43  H    0.604028
 Mulliken charges:
               1
     1  O   -0.462389
     2  C    0.454757
     3  C   -0.166642
     4  C   -0.306333
     5  C   -0.279502
     6  C   -0.094963
     7  C   -0.280404
     8  C   -0.166228
     9  C   -0.287230
    10  C    0.001470
    11  C    0.167380
    12  C   -0.196500
    13  C   -0.198739
    14  C    0.371321
    15  N   -0.474501
    16  C   -0.309074
    17  C   -0.309630
    18  C   -0.202437
    19  C   -0.203966
    20  C   -0.272068
    21  H    0.139967
    22  H    0.140696
    23  H    0.147794
    24  H    0.142558
    25  H    0.136924
    26  H    0.124275
    27  H    0.135009
    28  H    0.142693
    29  H    0.140468
    30  H    0.148016
    31  H    0.137591
    32  H    0.118732
    33  H    0.120824
    34  H    0.152997
    35  H    0.149001
    36  H    0.163235
    37  H    0.148857
    38  H    0.162817
    39  H    0.153239
    40  H    0.120696
    41  H    0.123148
    42  H    0.131175
    43  H    0.134965
 Sum of Mulliken charges =  -0.00000
 Mulliken charges with hydrogens summed into heavy atoms:
               1
     1  O   -0.462389
     2  C    0.454757
     3  C   -0.026675
     4  C   -0.017843
     5  C   -0.000020
     6  C    0.029312
     7  C   -0.002701
     8  C   -0.025760
     9  C   -0.001623
    10  C    0.001470
    11  C    0.167380
    12  C   -0.077768
    13  C   -0.077915
    14  C    0.371321
    15  N   -0.474501
    16  C    0.156158
    17  C    0.155282
    18  C   -0.081740
    19  C   -0.080818
    20  C   -0.005928
 APT charges:
               1
     1  O   -0.653441
     2  C    0.699732
     3  C   -0.035510
     4  C    0.081999
     5  C    0.113512
     6  C    0.104700
     7  C    0.117091
     8  C   -0.053657
     9  C    0.074468
    10  C    0.141852
    11  C   -0.111554
    12  C    0.059189
    13  C   -0.188821
    14  C    0.619269
    15  N   -0.933332
    16  C    0.397753
    17  C    0.397634
    18  C   -0.202664
    19  C    0.071981
    20  C    0.042768
    21  H   -0.059682
    22  H   -0.037167
    23  H   -0.030808
    24  H   -0.049424
    25  H   -0.044177
    26  H   -0.087137
    27  H   -0.044054
    28  H   -0.050739
    29  H   -0.065353
    30  H   -0.031332
    31  H   -0.032362
    32  H    0.017965
    33  H    0.018285
    34  H   -0.016016
    35  H   -0.071400
    36  H   -0.022882
    37  H   -0.071526
    38  H   -0.023515
    39  H   -0.015739
    40  H    0.018264
    41  H    0.029036
    42  H   -0.033947
    43  H   -0.039258
 Sum of APT charges =   0.00000
 APT charges with hydrogens summed into heavy atoms:
               1
     1  O   -0.653441
     2  C    0.699732
     3  C   -0.095191
     4  C    0.014024
     5  C    0.019911
     6  C    0.017563
     7  C    0.022298
     8  C   -0.119010
     9  C    0.010775
    10  C    0.141852
    11  C   -0.111554
    12  C    0.077153
    13  C   -0.170536
    14  C    0.619269
    15  N   -0.933332
    16  C    0.287456
    17  C    0.286854
    18  C   -0.184400
    19  C    0.101017
    20  C   -0.030436
 Electronic spatial extent (au):  <R**2>=           7236.7123
 Charge=             -0.0000 electrons
 Dipole moment (field-independent basis, Debye):
    X=              3.9747    Y=              1.5371    Z=              1.5750  Tot=              4.5433
 Quadrupole moment (field-independent basis, Debye-Ang):
   XX=           -114.7515   YY=           -115.9629   ZZ=           -124.7301
   XY=             -8.5791   XZ=            -12.0018   YZ=             -5.3161
 Traceless Quadrupole moment (field-independent basis, Debye-Ang):
   XX=              3.7300   YY=              2.5186   ZZ=             -6.2486
   XY=             -8.5791   XZ=            -12.0018   YZ=             -5.3161
 Octapole moment (field-independent basis, Debye-Ang**2):
  XXX=            193.2049  YYY=             -0.9000  ZZZ=              0.4016  XYY=             20.0072
  XXY=             34.3513  XXZ=             34.5424  XZZ=              4.6729  YZZ=              3.6716
  YYZ=              3.4273  XYZ=             12.4771
 Hexadecapole moment (field-independent basis, Debye-Ang**3):
 XXXX=          -7510.8538 YYYY=          -1009.9995 ZZZZ=           -696.1063 XXXY=           -176.2792
 XXXZ=           -249.2907 YYYX=              5.5218 YYYZ=             -7.4244 ZZZX=            -10.4861
 ZZZY=             -3.8867 XXYY=          -1490.0972 XXZZ=          -1553.3372 YYZZ=           -295.1894
 XXYZ=            -92.8051 YYXZ=            -12.4189 ZZXY=            -24.8109
 N-N= 1.572467750290D+03 E-N=-5.068749228161D+03  KE= 8.217904776608D+02
  Exact polarizability: 268.955  -0.115 174.342  -1.895  -6.668 135.812
 Approx polarizability: 342.137   4.849 291.468   4.618 -12.486 211.299
 Calling FoFJK, ICntrl=    100127 FMM=F ISym2X=0 I1Cent= 0 IOpClX= 0 NMat=1 NMatS=1 NMatT=0.
 Full mass-weighted force constant matrix:
 Low frequencies ---  -16.4535   -3.2522   -0.0010   -0.0006    0.0002    4.5346
 Low frequencies ---   35.2040   44.0501   77.0045
 Diagonal vibrational polarizability:
       48.4223730      12.5080452      21.9298483
 Harmonic frequencies (cm**-1), IR intensities (KM/Mole), Raman scattering
 activities (A**4/AMU), depolarization ratios for plane and unpolarized
 incident light, reduced masses (AMU), force constants (mDyne/A),
 and normal coordinates:
                      1                      2                      3
                      A                      A                      A
 Frequencies --     35.0947                43.9953                77.0025
 Red. masses --      3.2388                 4.3116                 2.9570
 Frc consts  --      0.0024                 0.0049                 0.0103
 IR Inten    --      0.4179                 1.1375                 0.0537
  Atom  AN      X      Y      Z        X      Y      Z        X      Y      Z
     1   8    -0.05   0.08  -0.03    -0.15   0.02   0.14     0.03  -0.04   0.01
     2   6    -0.02   0.04  -0.02    -0.07   0.00   0.07     0.01  -0.01   0.01
     3   6     0.01  -0.03  -0.05     0.01   0.01   0.04     0.00   0.01   0.02
     4   6     0.01  -0.02  -0.08     0.00  -0.01  -0.04     0.00   0.01   0.01
     5   6     0.03  -0.08   0.00     0.08   0.02   0.05     0.00   0.02   0.01
     6   6     0.02  -0.06   0.06     0.07   0.01   0.00    -0.01   0.02  -0.01
     7   6    -0.00   0.00   0.09     0.01   0.00   0.02    -0.01  -0.00  -0.01
     8   6    -0.02   0.05   0.04    -0.06  -0.02   0.01    -0.01  -0.01  -0.00
     9   6    -0.02   0.05   0.00    -0.06  -0.03  -0.07    -0.01   0.00  -0.00
    10   6     0.00  -0.01  -0.03     0.00  -0.02  -0.09    -0.00   0.01   0.00
    11   6     0.00  -0.01  -0.05     0.00  -0.03  -0.14    -0.00   0.01  -0.01
    12   6    -0.01  -0.03  -0.14     0.00  -0.02  -0.11     0.00   0.04   0.14
    13   6    -0.01  -0.02  -0.13     0.01  -0.01  -0.06     0.00   0.03   0.13
    14   6     0.00   0.01  -0.00     0.01  -0.01  -0.03    -0.00  -0.00  -0.02
    15   7     0.00   0.03   0.02     0.00   0.01   0.07    -0.00   0.00  -0.01
    16   6     0.02   0.04   0.24     0.03   0.03   0.10     0.01   0.02   0.20
    17   6    -0.00  -0.04  -0.15     0.04   0.07   0.28    -0.01  -0.05  -0.14
    18   6     0.01   0.03   0.09     0.00  -0.02  -0.11    -0.01  -0.03  -0.19
    19   6     0.01   0.02   0.07     0.00  -0.03  -0.16    -0.01  -0.02  -0.18
    20   6     0.02  -0.06   0.02     0.07  -0.00  -0.08    -0.00   0.02  -0.01
    21   1     0.01  -0.03  -0.09     0.00   0.01   0.08     0.01   0.01   0.04
    22   1     0.01  -0.06  -0.10     0.05  -0.01  -0.06     0.02   0.02   0.01
    23   1     0.00   0.01  -0.11    -0.05  -0.02  -0.05    -0.01   0.01   0.01
    24   1     0.03  -0.08   0.03     0.08   0.03   0.11     0.00   0.01   0.02
    25   1     0.05  -0.12  -0.02     0.13   0.03   0.04     0.00   0.03   0.02
    26   1     0.04  -0.10   0.10     0.12   0.03   0.01    -0.00   0.02  -0.01
    27   1    -0.00   0.01   0.13     0.01  -0.00  -0.01    -0.02  -0.00  -0.02
    28   1    -0.00   0.00   0.12     0.01   0.01   0.07    -0.01  -0.01  -0.01
    29   1    -0.04   0.10   0.06    -0.11  -0.02   0.03    -0.01  -0.02  -0.00
    30   1    -0.04   0.08  -0.03    -0.11  -0.05  -0.08    -0.00   0.00   0.00
    31   1    -0.03   0.06   0.03    -0.06  -0.04  -0.10    -0.01   0.00  -0.00
    32   1    -0.01  -0.04  -0.22     0.00  -0.03  -0.12     0.01   0.07   0.26
    33   1    -0.01  -0.03  -0.20     0.01  -0.01  -0.03     0.01   0.06   0.27
    34   1     0.02   0.06   0.27     0.03   0.05   0.19     0.01   0.03   0.38
    35   1     0.08  -0.10   0.32     0.12   0.04   0.07     0.18  -0.06   0.21
    36   1    -0.02   0.17   0.32    -0.02   0.00   0.07    -0.14   0.09   0.20
    37   1    -0.01  -0.19  -0.17     0.17   0.17   0.27    -0.13  -0.10  -0.12
    38   1     0.00   0.04  -0.27    -0.06   0.01   0.33     0.12  -0.00  -0.16
    39   1    -0.00  -0.03  -0.14     0.03   0.09   0.40    -0.00  -0.10  -0.27
    40   1     0.02   0.05   0.18     0.01  -0.03  -0.12    -0.02  -0.06  -0.33
    41   1     0.01   0.03   0.14     0.00  -0.04  -0.20    -0.02  -0.05  -0.31
    42   1     0.02  -0.06   0.06     0.07  -0.01  -0.11    -0.01   0.02  -0.01
    43   1     0.04  -0.10   0.00     0.12   0.01  -0.09    -0.00   0.03  -0.00
                      4                      5                      6
                      A                      A                      A
 Frequencies --     83.2584               103.3963               120.7605
 Red. masses --      6.1194                 4.0085                 2.7155
 Frc consts  --      0.0250                 0.0252                 0.0233
 IR Inten    --      1.9529                 2.2626                 9.5626
  Atom  AN      X      Y      Z        X      Y      Z        X      Y      Z
     1   8     0.34  -0.21  -0.13     0.14   0.01  -0.10     0.10  -0.04  -0.05
     2   6     0.07  -0.04   0.01     0.02   0.05  -0.01    -0.01   0.02   0.01
     3   6     0.02   0.01   0.05    -0.09   0.05   0.03    -0.04   0.03   0.03
     4   6     0.02   0.07   0.00    -0.08  -0.04   0.08    -0.04  -0.02  -0.02
     5   6     0.03  -0.02   0.07    -0.07   0.09   0.00     0.03   0.05   0.04
     6   6    -0.02   0.00   0.08     0.04   0.05   0.02     0.06   0.03   0.02
     7   6    -0.11  -0.01   0.10     0.10   0.08   0.00     0.03   0.04   0.04
     8   6    -0.09   0.04   0.07     0.04   0.04   0.02    -0.03   0.03   0.02
     9   6    -0.08   0.12   0.02     0.03  -0.06   0.05    -0.04  -0.02  -0.03
    10   6    -0.02   0.09  -0.01    -0.01  -0.08   0.06    -0.01  -0.03  -0.05
    11   6    -0.03   0.08  -0.06    -0.02  -0.11   0.03    -0.02  -0.05  -0.06
    12   6     0.01   0.05  -0.12    -0.06  -0.10  -0.02    -0.02  -0.04  -0.03
    13   6     0.01  -0.00  -0.13    -0.06  -0.06  -0.09    -0.03  -0.02   0.04
    14   6    -0.03  -0.02  -0.07    -0.03  -0.04  -0.09    -0.01   0.01   0.10
    15   7    -0.03  -0.08  -0.03    -0.04   0.03  -0.12     0.01   0.06   0.21
    16   6    -0.08  -0.10   0.05     0.07   0.10   0.07     0.01   0.05  -0.09
    17   6     0.06  -0.07   0.13    -0.09   0.14   0.05    -0.05  -0.02  -0.08
    18   6    -0.07   0.01  -0.05     0.02  -0.06  -0.05    -0.00  -0.01   0.03
    19   6    -0.06   0.06  -0.04     0.01  -0.10   0.01    -0.01  -0.04  -0.04
    20   6    -0.01   0.07   0.02     0.03  -0.05   0.05     0.05  -0.02  -0.03
    21   1     0.07  -0.01   0.04    -0.15   0.08   0.03    -0.06   0.04   0.04
    22   1     0.07   0.08  -0.01    -0.12  -0.04   0.09    -0.01  -0.02  -0.03
    23   1     0.02   0.08  -0.01    -0.11  -0.08   0.10    -0.08  -0.03  -0.03
    24   1     0.03  -0.05   0.11    -0.06   0.17  -0.04     0.03   0.08   0.07
    25   1     0.07  -0.03   0.05    -0.13   0.08   0.02     0.04   0.04   0.03
    26   1    -0.02  -0.02   0.10     0.07   0.07   0.01     0.11   0.04   0.03
    27   1    -0.18   0.02   0.10     0.19   0.05   0.00     0.05   0.03   0.02
    28   1    -0.11  -0.07   0.15     0.11   0.17  -0.01     0.03   0.08   0.07
    29   1    -0.13   0.04   0.09     0.08   0.05   0.01    -0.06   0.04   0.03
    30   1    -0.08   0.16  -0.02    -0.00  -0.10   0.06    -0.09  -0.03  -0.04
    31   1    -0.13   0.15   0.05     0.10  -0.10   0.03    -0.01  -0.03  -0.04
    32   1     0.04   0.06  -0.15    -0.09  -0.12  -0.01    -0.03  -0.05  -0.06
    33   1     0.04  -0.03  -0.17    -0.09  -0.05  -0.12    -0.04  -0.00   0.06
    34   1    -0.07  -0.14   0.03     0.06   0.20   0.07     0.00   0.05   0.14
    35   1    -0.11  -0.15   0.09     0.15  -0.04   0.15     0.14   0.32  -0.31
    36   1    -0.09  -0.04   0.09     0.10   0.19   0.14    -0.12  -0.21  -0.31
    37   1     0.19   0.02   0.12    -0.14   0.31   0.10     0.02  -0.35  -0.16
    38   1     0.02  -0.10   0.17    -0.09   0.04   0.21    -0.18   0.11  -0.35
    39   1     0.05  -0.11   0.25    -0.08   0.15  -0.03    -0.05   0.10   0.08
    40   1    -0.10   0.00  -0.02     0.05  -0.05  -0.06     0.00  -0.01   0.04
    41   1    -0.08   0.08  -0.01     0.03  -0.10   0.04    -0.00  -0.05  -0.08
    42   1    -0.06   0.08   0.00     0.10  -0.08   0.07     0.08  -0.03  -0.05
    43   1     0.03   0.07   0.00    -0.01  -0.08   0.06     0.08  -0.03  -0.05
                      7                      8                      9
                      A                      A                      A
 Frequencies --    156.0281               187.8736               222.3318
 Red. masses --      1.6659                 1.6419                 3.6742
 Frc consts  --      0.0239                 0.0341                 0.1070
 IR Inten    --      0.4338                 0.0161                 0.5860
  Atom  AN      X      Y      Z        X      Y      Z        X      Y      Z
     1   8    -0.03   0.03   0.00    -0.01  -0.01   0.01    -0.01  -0.05  -0.06
     2   6     0.01  -0.00  -0.01    -0.00  -0.00  -0.00    -0.11   0.01  -0.00
     3   6    -0.01  -0.01  -0.00     0.01   0.00  -0.01    -0.12   0.03   0.01
     4   6    -0.00   0.01   0.05     0.01   0.03  -0.01    -0.10  -0.00  -0.03
     5   6    -0.07  -0.01  -0.03     0.01  -0.01   0.01    -0.07   0.04   0.03
     6   6    -0.06  -0.01  -0.00    -0.03   0.00  -0.01    -0.05   0.02   0.00
     7   6    -0.01  -0.01  -0.02    -0.07  -0.02  -0.00    -0.12   0.02   0.03
     8   6     0.03  -0.01  -0.00    -0.02   0.01  -0.00    -0.13   0.03   0.02
     9   6     0.02   0.00   0.05    -0.01   0.06   0.00    -0.11   0.01  -0.02
    10   6    -0.00   0.01   0.07    -0.00   0.04  -0.00    -0.04  -0.02  -0.04
    11   6     0.00   0.02   0.05     0.00   0.00   0.01     0.02  -0.04  -0.01
    12   6     0.00   0.00  -0.02     0.03  -0.02  -0.01     0.05  -0.04   0.07
    13   6     0.01  -0.01  -0.09     0.03  -0.06  -0.01     0.07  -0.02   0.08
    14   6     0.01  -0.00  -0.06     0.02  -0.07   0.01     0.11  -0.01   0.02
    15   7     0.02   0.01   0.03     0.02  -0.03  -0.01     0.13  -0.00  -0.08
    16   6     0.04   0.02   0.00     0.12   0.03  -0.02     0.17   0.02  -0.01
    17   6     0.07  -0.03   0.01    -0.07   0.03   0.00     0.15   0.01  -0.03
    18   6     0.01  -0.00  -0.08    -0.01  -0.05   0.03     0.10   0.00   0.05
    19   6     0.01   0.01  -0.01    -0.01  -0.01   0.04     0.07  -0.02   0.02
    20   6    -0.05   0.00   0.06    -0.02   0.05  -0.02    -0.04   0.00  -0.05
    21   1    -0.00  -0.01  -0.02     0.03  -0.00  -0.01    -0.12   0.04   0.03
    22   1    -0.03   0.02   0.07     0.02   0.03  -0.02    -0.09  -0.02  -0.04
    23   1     0.03   0.00   0.07     0.02   0.05  -0.02    -0.14  -0.01  -0.04
    24   1    -0.07  -0.02  -0.08     0.01  -0.04   0.03    -0.07   0.06   0.06
    25   1    -0.11  -0.01  -0.01     0.04  -0.01  -0.00    -0.05   0.03   0.02
    26   1    -0.09  -0.01  -0.01    -0.04  -0.00  -0.00     0.00   0.03   0.02
    27   1    -0.01  -0.01  -0.01    -0.13   0.01  -0.00    -0.17   0.03   0.01
    28   1    -0.01  -0.01  -0.06    -0.08  -0.09   0.01    -0.13  -0.03   0.08
[...]
 256,-0.00001172,-0.00000448,-0.00000146,0.00000408,0.00000354,0.000000
 39,-0.00002153,-0.00000384,-0.00000080,0.00000474,0.00000747,0.0000012
 2,-0.00001146,0.00001292,0.00000465,-0.00001297,-0.00000379,-0.0000056
 5,0.00000174,-0.00000234,-0.00001212,0.00000517,0.00001157,0.00003104,
 -0.00003386,0.00008336,-0.00054894,0.00000527,-0.00074063,0.00059838,0
 .00112027,-0.00000508,-0.00003827,0.00015304,-0.00046503,0.00011911,0.
 00033255,-0.00452705,-0.00028414,0.00669652,0.01493200,0.00419702,-0.0
 1866873,-0.13926749,-0.03641736,0.24015364,-0.00003732,0.00000524,-0.0
 0000678,0.00005868,-0.00000897,-0.00000890,-0.00000503,0.00003039,-0.0
 0000528,0.00000923,-0.00011015,-0.00004729,0.00000409,-0.00001224,0.00
 000603,0.00009043,0.00001834,0.00005702,0.00000917,0.00001989,-0.00000
 020,0.00000056,-0.00002793,-0.00001507,0.00007846,0.00007733,0.0000498
 8,0.00061933,-0.00046465,0.00050227,0.00120825,0.00276912,0.00496330,-
 0.00070478,0.00041732,0.00051662,-0.00037851,0.00423222,0.00272355,0.0
 0373103,0.01421603,-0.01496155,-0.00051900,-0.00178627,-0.00087482,-0.
 00114063,0.00117095,0.00084628,-0.00010472,-0.00008846,-0.00011588,-0.
 04570939,0.02300412,-0.00116092,0.00282628,-0.01593117,0.01323991,-0.0
 0025322,0.00002908,0.00021860,-0.00001437,0.00000420,0.00001235,0.0000
 3934,0.00003153,0.00000013,-0.00003019,0.00001337,0.00001405,-0.000007
 34,0.00000668,0.00000186,0.00000061,0.00000019,-0.00000118,-0.00002282
 ,0.00000134,0.00003993,0.00000060,-0.00000185,-0.00000191,-0.00000537,
 -0.00000416,0.00000233,-0.00001002,-0.00000104,0.00001001,-0.00001401,
 -0.00001528,-0.00001569,-0.00001123,-0.00001799,-0.00000411,-0.0004289
 1,-0.00039990,-0.00039087,0.00004352,0.00082478,-0.00084668,-0.0001275
 1,-0.00031696,-0.00019164,0.00030197,-0.00018104,-0.00036208,-0.001833
 45,-0.00034362,0.00231683,0.00007770,-0.00015408,-0.00007657,0.0000130
 3,0.00002954,0.00002324,-0.00001750,-0.00001455,0.00004164,0.04375183,
 -0.00005939,-0.00000643,-0.00000639,0.00007313,0.00001818,0.00000851,0
 .00000996,-0.00000321,-0.00000790,-0.00004850,-0.00005678,0.00001350,-
 0.00000940,-0.00001261,0.00001021,0.00004609,0.00001470,0.00001336,0.0
 0000409,0.00001060,0.00000578,0.00002376,0.00000769,-0.00001221,0.0001
 0363,0.00001140,-0.00003490,0.00035047,0.00024011,-0.00002118,0.002212
 63,0.00321332,0.00058539,0.00056852,-0.00004275,-0.00082990,0.00509404
 ,-0.00147071,-0.00073219,-0.00124797,-0.01313681,0.01818644,-0.0014747
 4,0.00002305,-0.00021068,-0.00042236,-0.00098855,0.00093519,-0.0000188
 6,-0.00028630,-0.00031067,0.02376335,-0.20847522,0.14701832,-0.0001427
 0,0.00351822,-0.00253199,-0.00011013,0.00000054,0.00011220,-0.00001139
 ,0.00000422,0.00000912,0.00001867,-0.00000786,-0.00002140,0.00001584,0
 .00001054,0.00002334,-0.00000656,0.00000461,0.00001026,0.00000169,-0.0
 0000058,-0.00000437,-0.00001126,-0.00000119,0.00002517,0.00000067,0.00
 000131,-0.00000441,-0.00000796,-0.00000200,0.00000683,-0.00000235,-0.0
 0000310,0.00000147,-0.00000383,-0.00000051,-0.00000679,-0.00001195,-0.
 00000080,-0.00001221,-0.00040892,-0.00025849,-0.00018519,-0.00014532,-
 0.00081761,0.00097832,-0.00049353,0.00053784,-0.00013520,-0.00018572,-
 0.00021283,-0.00093312,-0.00027868,0.00124597,0.00100283,0.00009733,0.
 00002093,0.00000144,-0.00017848,0.00014871,-0.00002585,0.00007825,0.00
 001292,-0.00010211,-0.02518120,0.21690954,0.00009042,-0.00002881,0.000
 01518,-0.00011174,0.00006610,-0.00001678,0.00002734,-0.00003133,0.0000
 2797,-0.00011681,0.00011424,-0.00004817,0.00000128,0.00003097,0.000014
 30,-0.00009413,0.00000809,-0.00002262,0.00000476,-0.00001987,0.0000214
 9,0.00009162,0.00007424,0.00003380,0.00012127,-0.00014371,-0.00030972,
 -0.00029527,0.00104628,-0.00004919,0.00553260,-0.00014117,-0.00078674,
 0.00045952,-0.00076025,0.00003408,0.00197679,0.00018673,0.00182856,0.0
 0060795,-0.00319461,0.00579358,-0.00129375,0.00010648,-0.00087501,0.00
 233900,-0.00072966,-0.00209460,-0.00012937,-0.00027408,-0.00003929,-0.
 00200806,0.14840541,-0.17783892,-0.00266396,0.01963558,-0.01474142,0.0
 0023363,0.00005597,-0.00000861,0.00002864,-0.00001093,-0.00002699,0.00
 000827,-0.00002430,-0.00001172,0.00001801,0.00000464,0.00004199,0.0000
 0899,-0.00000484,-0.00000917,-0.00001037,-0.00000999,0.00000054,0.0000
 1856,-0.00000168,-0.00004465,-0.00000600,-0.00000085,0.00000396,0.0000
 0606,0.00000267,-0.00001470,0.00004053,0.00000342,-0.00005072,0.000005
 94,-0.00000331,0.00001521,-0.00001816,-0.00000277,-0.00000559,-0.00039
 606,-0.00016415,-0.00029204,0.00004901,-0.00025506,0.00028204,0.000138
 50,-0.00062713,0.00006549,0.00057237,0.00014437,-0.00079540,0.00122304
 ,-0.00062633,-0.00120519,0.00006067,-0.00000829,-0.00003548,-0.0000688
 3,0.00010921,-0.00000233,-0.00004880,0.00002661,0.00005948,-0.00463441
 ,-0.16149202,0.19136974,-0.00003094,-0.00003246,-0.00003245,-0.0000211
 7,0.00009450,0.00012945,-0.00016825,-0.00058055,0.00009192,-0.00056066
 ,-0.00007486,0.00242789,0.00005792,0.00005259,-0.00001323,-0.00018938,
 -0.00001612,-0.00011103,-0.00001297,-0.00000589,-0.00000333,-0.0000183
 4,-0.00013264,-0.00006350,-0.00018965,-0.00005607,0.00037773,-0.002374
 53,-0.00094209,-0.00102693,0.00330314,0.00045761,-0.00031374,0.0034039
 8,0.00148723,0.00166786,0.00011251,-0.00054548,0.00015155,0.00265176,0
 .00113807,0.00535464,-0.00037638,0.00099478,0.00010453,-0.00002356,0.0
 0022560,-0.00020446,-0.00021013,-0.00027104,0.00015839,-0.00955568,0.0
 1566956,0.00078725,-0.15350615,0.14381095,0.01991403,0.00051968,0.0002
 6668,-0.00039708,0.00004341,0.00001156,-0.00004294,-0.00039426,-0.0004
 0916,0.00012872,-0.00114258,-0.00010976,0.00135629,-0.00000294,-0.0000
 0518,-0.00001456,-0.00000771,-0.00002139,-0.00001366,0.00004146,0.0000
 0241,-0.00006728,-0.00000030,-0.00000410,0.00000380,0.00000456,0.00000
 288,-0.00000738,-0.00000700,0.00000606,0.00002115,-0.00001346,-0.00002
 102,0.00000892,-0.00000118,-0.00000398,-0.00001244,0.00028584,0.000070
 69,0.00023637,-0.00053222,-0.00029155,-0.00036852,0.00000002,-0.000009
 92,0.00004408,0.00005142,-0.00001626,0.00002654,0.00000886,-0.00002935
 ,-0.00000414,0.00003655,0.00000554,-0.00001140,-0.00001731,0.00004070,
 -0.00000365,-0.00009181,0.00008216,0.00002246,-0.00148036,-0.00198140,
 -0.00172994,0.16045667,0.00007767,0.00017231,0.00001416,-0.00004290,-0
 .00046444,-0.00011074,-0.00039666,0.00060869,-0.00034697,0.00102489,0.
 00022010,-0.00043846,0.00020093,0.00001617,-0.00007793,-0.00002337,-0.
 00003648,-0.00005855,0.00001177,-0.00001416,0.00002767,-0.00014018,-0.
 00006165,0.00000947,-0.00014803,0.00007601,0.00053022,-0.00016766,-0.0
 0117419,-0.00244300,0.01468110,-0.01394196,-0.00300340,0.00086395,-0.0
 0090105,0.00538192,-0.00053476,0.00032205,0.00026070,0.00151622,0.0032
 4891,0.00195621,0.00043013,0.00000468,-0.00017399,0.00007867,-0.000149
 80,0.00012517,-0.00016713,0.00013995,-0.00003870,-0.00017100,0.0015363
 5,0.00107463,0.14338662,-0.22578638,-0.00886766,0.00011196,0.00008911,
 -0.00011066,-0.00001681,-0.00000805,0.00003600,0.00057232,0.00049404,-
 0.00044821,-0.00093777,-0.00002137,-0.00032916,-0.00006558,0.00001924,
 -0.00009581,-0.00001304,0.00000260,0.00001193,-0.00001159,0.00002131,-
 0.00001738,-0.00001101,0.00002801,-0.00001131,-0.00000253,-0.00000708,
 0.00000425,-0.00003474,0.00002267,0.00004810,-0.00004204,-0.00004776,-
 0.00002449,0.00001013,0.00013659,-0.00005992,0.00099271,-0.00078578,-0
 .00012946,-0.00029745,-0.00026937,-0.00033908,0.00001275,-0.00000291,-
 0.00002107,-0.00004069,0.00002900,-0.00002795,-0.00001876,0.00002676,0
 .00000717,0.00002030,-0.00007172,-0.00000194,-0.00001263,-0.00000891,0
 .00001855,-0.00001244,-0.00000573,-0.00002881,-0.00182891,-0.00017341,
 -0.00144714,-0.15880504,0.23663322,-0.00022013,-0.00016102,-0.00005837
 ,0.00019764,0.00041441,0.00014426,-0.00005453,-0.00033403,-0.00015330,
 0.00131465,0.00096875,-0.00177024,-0.00008097,0.00005107,-0.00003370,-
 0.00008512,0.00001993,-0.00007554,-0.00000591,0.00000876,-0.00003561,-
 0.00004417,-0.00013672,-0.00007424,0.00001498,-0.00001674,0.00044533,-
 0.00188513,-0.00128995,0.00005892,-0.01426315,0.01625597,0.00705510,0.
 00222068,0.00458468,-0.00186622,0.00027835,0.00028274,-0.00087896,0.00
 515051,0.00236313,-0.00193697,0.00053880,-0.00119918,0.00041105,0.0000
 2067,-0.00012420,0.00014088,0.00011058,0.00016682,-0.00030997,0.016383
 11,-0.02079592,0.00054287,0.02023357,-0.00900528,-0.05487502,0.0002429
 4,-0.00000723,-0.00028937,-0.00002890,0.00001438,0.00003962,0.00064513
 ,-0.00056383,-0.00163821,0.00068765,0.00000676,-0.00044213,0.00002464,
 -0.00001567,0.00006221,0.00001068,-0.00001898,-0.00002469,0.00003615,-
 0.00001640,-0.00000708,0.00001345,-0.00002331,0.00000623,-0.00000189,0
 .00000199,0.00000478,-0.00002424,-0.00002683,0.00003519,-0.00002001,0.
 00002518,0.00000879,-0.00004053,-0.00015926,0.00002734,-0.00069337,0.0
 0119699,0.00033389,-0.00038320,-0.00030829,-0.00018857,-0.00000118,0.0
 0002668,-0.00002737,-0.00000421,0.00000192,-0.00004370,0.00001947,0.00
 004108,0.00000316,0.00000118,-0.00002566,0.00000432,-0.00000116,0.0000
 1186,0.00002948,0.00004892,-0.00010797,-0.00004556,-0.00184787,-0.0013
 0064,-0.00027457,-0.02852749,0.00927029,0.05561855,-0.00003227,-0.0003
 6836,-0.00000456,0.00022746,0.00094359,0.00001347,0.00044710,-0.000395
 12,-0.00004089,-0.00110321,-0.00157421,-0.00359723,-0.00114557,-0.0016
 4554,0.00383149,-0.01241757,0.01541686,0.00001055,0.00027159,0.0014504
 2,-0.00075832,-0.00009161,-0.00046019,0.00000317,0.00045301,0.00136780
 ,0.00067384,-0.01194690,0.01491244,-0.00109475,-0.00014658,-0.00079642
 ,0.00105990,-0.00004708,0.00081122,0.00053701,0.00027970,-0.00022127,-
 0.00006057,0.00003548,-0.00018829,0.00009169,-0.00000020,-0.00004522,0
 .00000719,-0.00002170,0.00001772,-0.00001484,0.00000558,0.00001096,0.0
 0000157,-0.00013675,0.00002628,0.00020996,0.00020770,0.00028376,-0.000
 28552,-0.14078755,0.12124294,-0.00291265,-0.00000561,-0.00002051,0.000
 01922,0.00010878,0.00027613,0.00003547,-0.00059389,0.00109665,-0.00000
 724,-0.00059428,0.00107618,-0.00005000,0.00012281,0.00023409,-0.000029
 22,0.00087658,-0.00034362,-0.00000213,-0.00005754,-0.00100052,0.000200
 64,0.00042590,-0.00020935,0.00001779,-0.00005507,-0.00004009,-0.000000
 66,0.00033734,-0.00018678,0.00000543,-0.00008714,-0.00084719,-0.000209
 80,0.00024270,-0.00036415,0.00044789,0.00003829,0.00002468,-0.00001242
 ,-0.00000104,-0.00000044,0.00000621,0.00000648,-0.00000009,-0.00000170
 ,0.00000284,-0.00000292,-0.00000449,-0.00000641,-0.00000124,-0.0000006
 7,0.00000454,0.00000220,0.00000298,-0.00000243,-0.00000215,0.00000417,
 -0.00001248,-0.00001119,-0.00001604,-0.00002706,-0.00008192,0.00006015
 ,0.15283095,0.00018884,0.00016373,0.00000065,-0.00026209,-0.00041491,0
 .00000384,-0.00012628,0.00009296,0.00003879,-0.00020540,0.00106567,0.0
 0057131,-0.00040508,0.00102270,-0.00067892,-0.00096534,-0.00052515,-0.
 00023728,-0.00062206,0.00061371,0.00029878,0.00007162,0.00001498,-0.00
 001386,-0.00055175,0.00058360,-0.00000626,-0.00078745,-0.00076771,0.00
 031041,0.00065874,0.00013945,-0.00048591,-0.00010484,-0.00067048,-0.00
 080129,-0.00043360,0.00006432,0.00015091,0.00000027,0.00021508,-0.0000
 2759,-0.00004569,0.00004721,0.00001154,0.00002660,-0.00002241,0.000023
 42,0.00002240,-0.00002182,0.00001246,0.00011794,0.00000783,-0.00021445
 ,-0.00010380,-0.00010787,0.00038253,0.12155417,-0.21474378,0.00357512,
 0.00004730,-0.00003419,-0.00001475,-0.00013943,0.00042021,-0.00014399,
 0.00038628,0.00013837,-0.00005585,0.00037145,0.00011932,0.00009764,-0.
 00012588,0.00044574,0.00012808,0.00001419,0.00011951,-0.00055289,0.000
 16692,0.00051994,0.00007074,-0.00002075,0.00021561,-0.00010201,-0.0000
 0017,0.00002076,0.00001144,0.00003928,0.00016038,0.00008018,0.00013991
 ,0.00046777,-0.00005160,0.00021432,0.00046175,-0.00089882,-0.00003168,
 -0.00001113,0.00001238,0.00000209,0.00000050,-0.00000611,-0.00000976,0
 .00000124,-0.00000065,-0.00000245,0.00000244,0.00000440,0.00000239,0.0
 0000313,-0.00000184,-0.00001550,0.00000446,-0.00000777,0.00000195,0.00
 000441,-0.00000773,-0.00001781,0.00000013,0.00000125,-0.00002110,0.000
 07994,-0.00007884,-0.13503999,0.23163770,-0.00004442,0.00002249,-0.000
 02225,0.00005722,-0.00007324,-0.00005333,0.00007672,-0.00004498,-0.000
 46129,-0.00299926,-0.00109602,-0.00542818,0.00328364,0.00135972,-0.004
 90915,0.01743922,-0.02302755,0.00000540,-0.00062787,-0.00101699,0.0009
 7700,-0.00007005,0.00000658,-0.00026784,0.00095555,0.00089661,0.001219
 48,-0.01649396,0.02279669,-0.00140252,-0.00056883,0.00037507,0.0016854
 6,-0.00011911,0.00053571,-0.00078908,0.00043363,-0.00018054,-0.0002120
 4,0.00020860,-0.00027127,0.00006717,-0.00009784,-0.00005197,0.00010267
 ,-0.00003455,0.00005720,-0.00004261,0.00002414,-0.00002975,0.00000201,
 -0.00030421,0.00004426,0.00029469,0.00028477,0.00030649,-0.00037211,-0
 .00208741,0.00244766,-0.04697342,0.00001365,0.00000531,0.00028958,0.00
 022020,-0.00022132,0.00002311,-0.00151131,0.00149459,0.00008170,0.0014
 0771,-0.00140991,0.00008843,-0.00024316,0.00030121,-0.00002381,-0.0007
 9496,-0.00021665,0.00094831,-0.00008186,0.00068175,0.00009503,-0.00041
 419,-0.00003108,-0.00006688,-0.00001519,0.00000113,0.00009861,0.000344
 13,-0.00001202,-0.00006685,0.00001436,-0.00063451,0.00012682,0.0001089
 8,-0.00108529,-0.00122573,-0.00001062,0.00000853,-0.00003985,-0.000005
 25,-0.00000047,0.00001298,0.00001737,-0.00000627,0.00000257,0.00000903
 ,-0.00000799,-0.00000842,-0.00000430,0.00001446,0.00000148,0.00000706,
 0.00000620,-0.00000032,-0.00000459,-0.00000218,0.00001218,-0.00001270,
 -0.00001677,-0.00000328,-0.00001102,-0.00012348,0.00011078,0.00143123,
 -0.00176934,0.05631980,-0.00001504,0.00037663,-0.00000210,0.00021586,-
 0.00096320,-0.00000019,-0.00010198,0.00049104,-0.00000988,0.00025952,-
 0.00151155,0.00069117,0.00030757,-0.00146309,-0.00073411,-0.01186283,-
 0.01544956,-0.00001623,-0.00114219,0.00158665,0.00384275,0.00047026,0.
 00043339,-0.00002701,-0.00118940,0.00137252,-0.00357649,-0.01157590,-0
 .01490354,-0.00122231,0.00017251,0.00059824,0.00104181,0.00032763,0.00
 017248,-0.00024568,-0.00015534,-0.00018506,0.00014944,-0.00006918,0.00
 011039,-0.00008158,0.00000647,0.00000504,0.00002642,0.00000371,0.00000
 073,0.00000252,0.00000404,-0.00001797,-0.00000231,0.00002634,0.0000043
 0,-0.00013108,0.00024901,0.00004673,-0.00004357,-0.13505526,-0.1185779
 2,-0.00005264,-0.00005797,0.00004006,-0.00000230,-0.00011875,0.0009455
 2,-0.00023555,0.00039239,0.00022924,0.00002695,0.00041411,0.00020895,0
 .00000897,-0.00010149,0.00098470,0.00021616,0.00080775,0.00034003,0.00
 001669,0.00012590,-0.00023925,-0.00003100,-0.00058205,-0.00108794,-0.0
 0005362,0.00000003,0.00001647,0.00000629,-0.00057854,-0.00103515,-0.00
 002435,0.00006878,-0.00020735,0.00003763,0.00007814,-0.00001434,0.0000
 1382,0.00000689,0.00000221,-0.00000864,-0.00000024,-0.00000024,0.00000
 179,-0.00000019,-0.00000164,0.00000626,0.00000154,0.00000243,-0.000000
 60,0.00000193,0.00000538,-0.00000067,0.00000189,0.00000050,-0.00000310
 ,-0.00000045,0.00000035,0.00000152,0.00000406,-0.00000836,-0.00002306,
 -0.00002180,0.00003251,-0.00004076,0.01239512,0.01601125,0.00021947,0.
 14628716,-0.00018319,0.00016136,0.00000148,0.00027274,-0.00040647,-0.0
 0000423,-0.00013209,0.00004737,0.00000857,0.00070975,0.00055038,0.0002
 9992,0.00063109,0.00060068,-0.00032831,0.00103982,-0.00034662,0.000270
 11,0.00043471,0.00103597,0.00062666,0.00012343,0.00010751,-0.00003298,
 0.00022825,0.00109890,-0.00059270,0.00016124,-0.00114333,-0.00022460,-
 0.00007478,0.00061353,0.00042885,0.00040527,-0.00049698,0.00007597,0.0
 0002329,0.00015005,-0.00008473,0.00001246,-0.00005951,-0.00005301,0.00
 003732,0.00003956,-0.00001232,-0.00000512,-0.00001388,-0.00001221,-0.0
 0001419,-0.00001033,-0.00001514,-0.00000345,0.00006644,-0.00002763,0.0
 0018866,0.00010655,-0.00028692,-0.11923896,-0.21960522,-0.00048049,-0.
 00000653,0.00002057,-0.00000002,-0.00012535,0.00053327,0.00006962,0.00
 002558,0.00019427,-0.00010453,0.00003415,0.00021421,0.00010372,-0.0001
 7343,0.00053946,-0.00006198,-0.00004053,0.00010321,0.00056333,0.000122
 40,0.00043282,-0.00012396,-0.00034058,0.00013015,-0.00009876,-0.000045
 39,-0.00003777,0.00001123,-0.00033885,0.00010161,0.00002693,0.00014013
 ,0.00035396,0.00013938,-0.00014367,0.00016613,-0.00003468,-0.00001194,
 -0.00002180,-0.00001196,0.00000022,0.00000045,-0.00000300,0.00000580,0
 .00000345,0.00000412,-0.00000264,0.00000691,-0.00000209,0.00000716,0.0
 0000660,0.00000718,0.00000134,-0.00000745,0.00000198,0.00000126,0.0000
 0117,-0.00000223,0.00000654,0.00000321,-0.00001995,-0.00003319,0.00000
 448,0.00000255,-0.01534714,-0.02153507,-0.00003204,0.13164841,0.236290
 23,-0.00002166,-0.00001525,-0.00002514,0.00002681,0.00004394,-0.000049
 96,-0.00001923,-0.00000491,-0.00026559,0.00071804,-0.00112419,0.001005
 81,-0.00063599,0.00104978,0.00101600,0.01658594,0.02329881,0.00019030,
 0.00324061,-0.00134088,-0.00496842,0.00007729,0.00004252,-0.00043652,-
 0.00314788,0.00109065,-0.00536033,-0.01636839,-0.02321207,-0.00175584,
 -0.00085570,-0.00060332,0.00183312,0.00041203,-0.00018030,-0.00006421,
 -0.00001838,-0.00006677,0.00013285,0.00007679,0.00004064,-0.00017143,-
 0.00014607,0.00000323,0.00014213,-0.00001003,0.00004390,-0.00004101,0.
 00003593,-0.00006497,-0.00000151,-0.00001176,0.00006991,-0.00006571,0.
 00014413,0.00032984,-0.00003916,0.00031769,0.00013782,-0.04762690,-0.0
 0000619,-0.00000171,0.00010083,0.00005112,0.00067724,0.00011815,0.0003
 6389,0.00000445,-0.00002836,-0.00041013,0.00001803,-0.00007145,-0.0000
 7187,-0.00070298,0.00007706,-0.00083295,0.00017862,0.00091106,-0.00024
 576,-0.00030338,-0.00001935,0.00140403,0.00143910,0.00009899,0.0000157
 5,-0.00000139,0.00030195,-0.00147445,-0.00151098,0.00019794,0.00023212
 ,0.00020929,0.00001412,-0.00009483,0.00006712,0.00001216,-0.00000304,-
 0.00000131,-0.00001348,-0.00000359,0.00000125,0.00000671,0.00001576,-0
 .00000759,0.00001274,0.00000467,-0.00000490,-0.00000172,0.00000572,0.0
 0002342,-0.00000008,-0.00000168,0.00000470,-0.00000846,-0.00000380,0.0
 0000262,0.00000629,-0.00000345,-0.00000958,-0.00000454,-0.00003338,-0.
 00000115,-0.00003336,0.00043271,0.00037188,-0.00019627,0.00025918,0.00
 000886,0.05507061\\0.00004882,-0.00001107,0.00001208,0.00000508,0.0000
 0624,-0.00000415,0.00000570,-0.00001028,0.00003913,-0.00003175,0.00004
 002,0.00002734,-0.00001335,-0.00000384,-0.00003450,0.00001380,0.000004
 23,-0.00002103,-0.00002457,-0.00000465,-0.00001169,-0.00000514,0.00000
 797,0.00004253,-0.00000484,0.00002793,-0.00000023,-0.00000960,0.000018
 60,0.00000565,-0.00002735,-0.00003706,-0.00000744,-0.00000246,0.000029
 86,0.00001152,0.00000608,0.00002141,-0.00001381,0.00004673,-0.00001378
 ,-0.00001147,-0.00006013,-0.00002514,-0.00001460,0.00001646,0.00000028
 ,0.00002195,-0.00000413,0.00003458,0.00001797,-0.00000614,-0.00000931,
 0.00001011,0.00002265,-0.00000658,-0.00003099,-0.00003259,-0.00002260,
 -0.00003242,-0.00000231,-0.00000087,-0.00000032,-0.00000751,0.00000710
 ,0.00000446,-0.00000525,0.00000338,0.00000548,-0.00000056,-0.00000030,
 0.00000600,-0.00000155,0.00000742,-0.00000259,0.00000338,-0.00000374,0
 .00000450,0.00000488,-0.00000837,0.00000404,-0.00000065,-0.00000205,0.
 00000754,-0.00000225,-0.00000858,-0.00000176,0.00000132,-0.00000178,-0
 .00001391,0.00001372,0.00001034,-0.00000389,0.00000876,-0.00001905,0.0
 0001752,0.00001603,-0.00001713,-0.00000332,-0.00000352,0.00000271,-0.0
 0000480,-0.00000418,0.00000353,-0.00000883,0.00000867,0.00001939,-0.00
 001341,-0.00000310,-0.00000766,-0.00000402,0.00001076,-0.00001398,0.00
 002152,0.00000004,-0.00000803,0.00000199,-0.00000341,0.00000804,-0.000
 00818,0.00001015,0.00001249,-0.00000777,0.00000248,-0.00002268,-0.0000
 0356,0.00001085,-0.00000698,-0.00000264\\\@


 FAULTILY FAULTLESS, ICILY REGULAR, SPLENDIDLY NULL...
           MAUDE BY TENNYSON
 Job cpu time:       0 days  0 hours  8 minutes 48.2 seconds.
 Elapsed time:       0 days  0 hours  9 minutes 55.5 seconds.
 File lengths (MBytes):  RWF=    587 Int=      0 D2E=      0 Chk=     16 Scr=      1
 Normal termination of Gaussian 16 at Fri Feb 23 20:58:39 2024.
