 Entering Gaussian System, Link 0=g16
 Input=/Volumes/SSD-PMU3/b3lyp_6-31gd_freq/ZIBPLSFQDBNHBX-HOGYCZGPSA-N_calculating/gaussianinput1.gjf
 Output=/Volumes/SSD-PMU3/b3lyp_6-31gd_freq/ZIBPLSFQDBNHBX-HOGYCZGPSA-N_calculating/gaussianinput1.log
 Initial command:
 /Applications/g16/l1.exe "/Users/macmini_m1_2022/PycharmProjects/sphere_model/sphere_model_lib/Gau-74492.inp" -scrdir="/Users/macmini_m1_2022/PycharmProjects/sphere_model/sphere_model_lib/"
 Entering Link 1 = /Applications/g16/l1.exe PID=     74493.
  
 Copyright (c) 1988,1990,1992,1993,1995,1998,2003,2009,2016,
            Gaussian, Inc.  All Rights Reserved.
  
 This is part of the Gaussian(R) 16 program.  It is based on
 the Gaussian(R) 09 system (copyright 2009, Gaussian, Inc.),
 the Gaussian(R) 03 system (copyright 2003, Gaussian, Inc.),
 the Gaussian(R) 98 system (copyright 1998, Gaussian, Inc.),
 the Gaussian(R) 94 system (copyright 1995, Gaussian, Inc.),
 the Gaussian 92(TM) system (copyright 1992, Gaussian, Inc.),
 the Gaussian 90(TM) system (copyright 1990, Gaussian, Inc.),
 the Gaussian 88(TM) system (copyright 1988, Gaussian, Inc.),
 the Gaussian 86(TM) system (copyright 1986, Carnegie Mellon
 University), and the Gaussian 82(TM) system (copyright 1983,
 Carnegie Mellon University). Gaussian is a federally registered
 trademark of Gaussian, Inc.
  
 This software contains proprietary and confidential information,
 including trade secrets, belonging to Gaussian, Inc.
  
 This software is provided under written license and may be
 used, copied, transmitted, or stored only in accord with that
 written license.
  
 The following legend is applicable only to US Government
 contracts under FAR:
  
                    RESTRICTED RIGHTS LEGEND
  
 Use, reproduction and disclosure by the US Government is
 subject to restrictions as set forth in subparagraphs (a)
 and (c) of the Commercial Computer Software - Restricted
 Rights clause in FAR 52.227-19.
  
 Gaussian, Inc.
 340 Quinnipiac St., Bldg. 40, Wallingford CT 06492
  
  
 ---------------------------------------------------------------
 Warning -- This program may not be used in any manner that
 competes with the business of Gaussian, Inc. or will provide
 assistance to any competitor of Gaussian, Inc.  The licensee
 of this program is prohibited from giving any competitor of
 Gaussian, Inc. access to this program.  By using this program,
 the user acknowledges that Gaussian, Inc. is engaged in the
 business of creating and licensing software in the field of
 computational chemistry and represents and warrants to the
 licensee that it is not a competitor of Gaussian, Inc. and that
 it will not use this program in any manner prohibited above.
 ---------------------------------------------------------------
  

 Cite this work as:
 Gaussian 16, Revision A.03,
 M. J. Frisch, G. W. Trucks, H. B. Schlegel, G. E. Scuseria, 
 M. A. Robb, J. R. Cheeseman, G. Scalmani, V. Barone, 
 G. A. Petersson, H. Nakatsuji, X. Li, M. Caricato, A. V. Marenich, 
 J. Bloino, B. G. Janesko, R. Gomperts, B. Mennucci, H. P. Hratchian, 
 J. V. Ortiz, A. F. Izmaylov, J. L. Sonnenberg, D. Williams-Young, 
 F. Ding, F. Lipparini, F. Egidi, J. Goings, B. Peng, A. Petrone, 
 T. Henderson, D. Ranasinghe, V. G. Zakrzewski, J. Gao, N. Rega, 
 G. Zheng, W. Liang, M. Hada, M. Ehara, K. Toyota, R. Fukuda, 
 J. Hasegawa, M. Ishida, T. Nakajima, Y. Honda, O. Kitao, H. Nakai, 
 T. Vreven, K. Throssell, J. A. Montgomery, Jr., J. E. Peralta, 
 F. Ogliaro, M. J. Bearpark, J. J. Heyd, E. N. Brothers, K. N. Kudin, 
 V. N. Staroverov, T. A. Keith, R. Kobayashi, J. Normand, 
 K. Raghavachari, A. P. Rendell, J. C. Burant, S. S. Iyengar, 
 J. Tomasi, M. Cossi, J. M. Millam, M. Klene, C. Adamo, R. Cammi, 
 J. W. Ochterski, R. L. Martin, K. Morokuma, O. Farkas, 
 J. B. Foresman, and D. J. Fox, Gaussian, Inc., Wallingford CT, 2016.
 
 ******************************************
 Gaussian 16:  EM64M-G16RevA.03 25-Dec-2016
                23-Feb-2024 
 ******************************************
 %nprocshared=10
 Will use up to   10 processors via shared memory.
 %mem=12GB
 %chk= 1.chk
 ---------------------
 # freq b3lyp/6-31g(d)
 ---------------------
 1/10=4,30=1,38=1/1,3;
 2/12=2,17=6,18=5,40=1/2;
 3/5=1,6=6,7=1,11=2,25=1,30=1,71=2,74=-5,140=1/1,2,3;
 4//1;
 5/5=2,38=5,98=1/2;
 8/6=4,10=90,11=11/1;
 11/6=1,8=1,9=11,15=111,16=1/1,2,10;
 10/6=1/2;
 6/7=2,8=2,9=2,10=2,28=1/1;
 7/8=1,10=1,25=1/1,2,3,16;
 1/10=4,30=1/3;
 99//99;
 ---------
 good luck
 ---------
 Symbolic Z-matrix:
 Charge =  0 Multiplicity = 1
 O                     1.21661   0.        0. 
 C                     0.        0.        0. 
 C                    -0.85207  -1.26351  -0.00046 
 C                    -1.75134  -1.24789   1.26052 
 C                    -1.74066  -1.25319  -1.26961 
 C                    -2.62558   0.00902  -1.27248 
 C                    -1.72908   1.26152  -1.27495 
 C                    -0.84972   1.26598  -0.00046 
 C                    -1.75426   1.25683   1.2566 
 C                    -2.67105   0.00774   1.28402 
 C                    -3.58161  -0.02558   2.51629 
 C                    -4.4754   -1.09061   2.71313 
 C                    -5.32012  -1.16621   3.81433 
 C                    -5.32715  -0.15353   4.79958 
 N                    -6.19367  -0.20128   5.8896 
 C                    -6.9068   -1.43598   6.16873 
 C                    -5.9869    0.72198   6.99207 
 C                    -4.42244   0.91208   4.61625 
 C                    -3.58426   0.96731   3.50378 
 C                    -3.52257   0.01701  -0.01871 
 H                    -0.18621  -2.13271   0.00836 
 H                    -2.35683  -2.16259   1.27576 
 H                    -1.13366  -1.26494   2.16769 
 H                    -2.36356  -2.15809  -1.28362 
 H                    -1.11276  -1.28246  -2.16982 
 H                    -3.25715   0.00967  -2.17061 
 H                    -1.09516   1.27974  -2.17124 
 H                    -2.34271   2.1724   -1.29655 
 H                    -0.18077   2.13258   0.01423 
 H                    -1.12747   1.28452   2.15719 
 H                    -2.36152   2.17178   1.26001 
 H                    -4.51951  -1.90023   1.9887 
 H                    -5.97698  -2.02354   3.90283 
 H                    -7.55675  -1.71067   5.32986 
 H                    -7.54598  -1.2887    7.04192 
 H                    -6.23556  -2.28701   6.37145 
 H                    -5.00359   0.60343   7.47693 
 H                    -6.0729    1.76069   6.65259 
 H                    -6.76179   0.55878   7.74417 
 H                    -4.36202   1.71288   5.34372 
 H                    -2.91482   1.81768   3.42644 
 H                    -4.16943   0.90455  -0.0198 
 H                    -4.18807  -0.85514  -0.03537 
 

 GradGradGradGradGradGradGradGradGradGradGradGradGradGradGradGradGradGrad
 Berny optimization.
 Initialization pass.
 Trust Radius=3.00D-01 FncErr=1.00D-07 GrdErr=1.00D-07 EigMax=2.50D+02 EigMin=1.00D-04
 Number of steps in this run=      2 maximum allowed number of steps=      2.
 GradGradGradGradGradGradGradGradGradGradGradGradGradGradGradGradGradGrad

                          Input orientation:                          
 ---------------------------------------------------------------------
 Center     Atomic      Atomic             Coordinates (Angstroms)
 Number     Number       Type             X           Y           Z
 ---------------------------------------------------------------------
      1          8           0        1.216610    0.000000    0.000000
      2          6           0        0.000000    0.000000    0.000000
      3          6           0       -0.852068   -1.263514   -0.000455
      4          6           0       -1.751341   -1.247887    1.260520
      5          6           0       -1.740661   -1.253189   -1.269613
      6          6           0       -2.625578    0.009015   -1.272475
      7          6           0       -1.729079    1.261516   -1.274947
      8          6           0       -0.849718    1.265978   -0.000455
      9          6           0       -1.754258    1.256832    1.256601
     10          6           0       -2.671049    0.007739    1.284017
     11          6           0       -3.581611   -0.025577    2.516292
     12          6           0       -4.475403   -1.090611    2.713126
     13          6           0       -5.320125   -1.166214    3.814327
     14          6           0       -5.327154   -0.153534    4.799580
     15          7           0       -6.193674   -0.201280    5.889600
     16          6           0       -6.906802   -1.435975    6.168727
     17          6           0       -5.986897    0.721980    6.992070
     18          6           0       -4.422437    0.912081    4.616245
     19          6           0       -3.584255    0.967311    3.503779
     20          6           0       -3.522572    0.017006   -0.018706
     21          1           0       -0.186208   -2.132705    0.008358
     22          1           0       -2.356825   -2.162591    1.275757
     23          1           0       -1.133657   -1.264936    2.167685
     24          1           0       -2.363559   -2.158086   -1.283624
     25          1           0       -1.112758   -1.282457   -2.169817
     26          1           0       -3.257147    0.009673   -2.170608
     27          1           0       -1.095163    1.279737   -2.171237
     28          1           0       -2.342705    2.172400   -1.296547
     29          1           0       -0.180771    2.132576    0.014229
     30          1           0       -1.127469    1.284517    2.157188
     31          1           0       -2.361522    2.171784    1.260007
     32          1           0       -4.519511   -1.900232    1.988702
     33          1           0       -5.976979   -2.023538    3.902828
     34          1           0       -7.556750   -1.710667    5.329855
     35          1           0       -7.545983   -1.288703    7.041920
     36          1           0       -6.235559   -2.287010    6.371452
     37          1           0       -5.003593    0.603434    7.476930
     38          1           0       -6.072901    1.760687    6.652595
     39          1           0       -6.761786    0.558781    7.744173
     40          1           0       -4.362021    1.712879    5.343724
     41          1           0       -2.914819    1.817682    3.426440
     42          1           0       -4.169433    0.904554   -0.019796
     43          1           0       -4.188070   -0.855138   -0.035365
 ---------------------------------------------------------------------
                    Distance matrix (angstroms):
                    1          2          3          4          5
     1  O    0.000000
     2  C    1.216610   0.000000
     3  C    2.424025   1.523971   0.000000
     4  C    3.457581   2.492655   1.548869   0.000000
     5  C    3.453672   2.492449   1.549344   2.530161   0.000000
     6  C    4.047429   2.917693   2.526401   2.959756   1.541507
     7  C    3.448767   2.491310   2.961293   3.567379   2.514737
     8  C    2.423306   1.524704   2.529493   2.953388   2.958166
     9  C    3.461897   2.497217   2.957411   2.504724   3.561200
    10  C    4.094222   2.963657   2.564107   1.556603   2.996095
    11  C    5.418054   4.377250   3.913682   2.533948   4.385112
    12  C    6.399179   5.346000   4.530119   3.091167   4.833990
    13  C    7.657549   6.649276   5.875846   4.389171   6.218245
    14  C    8.116673   7.172037   6.655733   5.148688   7.134934
    15  N    9.467851   8.549240   8.022085   6.500622   8.496480
    16  C   10.300730   9.371186   8.645713   7.120720   9.058219
    17  C   10.064830   9.233268   8.899666   7.393982   9.496695
    18  C    7.344417   6.457520   6.228537   4.802198   6.820824
    19  C    6.021666   5.104806   4.972030   3.646764   5.578058
    20  C    4.739249   3.522663   2.961698   2.524605   2.520589
    21  H    2.552724   2.140835   1.094961   2.190994   2.196152
    22  H    4.367355   3.443687   2.168260   1.097054   2.772288
    23  H    3.438412   2.753924   2.186350   1.097621   3.490503
    24  H    4.372944   3.448396   2.175175   2.770549   1.098652
    25  H    3.432019   2.755183   2.185051   3.489441   1.097946
    26  H    4.972538   3.914159   3.480657   3.952410   2.169411
    27  H    3.419984   2.747977   3.352539   4.312355   2.765015
    28  H    4.366816   3.447988   3.963251   4.311226   3.478195
    29  H    2.549658   2.140271   3.461832   3.930326   3.942704
    30  H    3.434844   2.752205   3.350184   2.757952   4.308007
    31  H    4.371189   3.446890   3.958344   3.473683   4.302893
    32  H    6.361517   5.290727   4.220461   2.935740   4.330969
    33  H    8.430569   7.419640   6.486753   5.043753   6.730080
    34  H   10.406997   9.404159   8.576999   7.104676   8.808471
    35  H   11.315142  10.401502   9.716181   8.185605  10.138274
    36  H   10.067802   9.203696   8.404208   6.878198   8.925176
    37  H    9.744719   9.016904   8.753967   7.255914   9.518182
    38  H   10.024670   9.178081   8.981423   7.536702   9.519093
    39  H   11.132801  10.295931   9.910842   8.390850  10.475842
    40  H    7.912677   7.107501   7.052584   5.679290   7.707484
    41  H    5.666848   4.851869   5.048992   3.929708   5.732522
    42  H    5.461508   4.266472   3.963055   3.481290   3.480924
    43  H    5.472027   4.274628   3.361086   2.787690   2.769770
                    6          7          8          9         10
     6  C    0.000000
     7  C    1.540284   0.000000
     8  C    2.520252   1.548427   0.000000
     9  C    2.951690   2.531678   1.548698   0.000000
    10  C    2.556897   3.001260   2.559352   1.549674   0.000000
    11  C    3.907678   4.411573   3.932603   2.563321   1.532558
    12  C    4.529464   5.383263   5.105157   3.877703   2.550376
    13  C    5.875143   6.685072   6.360240   5.012836   3.846848
    14  C    6.647916   7.200583   6.715861   5.225650   4.409091
    15  N    8.004427   8.567562   8.087241   6.580212   5.802066
    16  C    8.705651   9.460103   9.058014   7.611104   6.624674
    17  C    8.950390   9.314703   8.693788   7.148210   6.639793
    18  C    6.222640   6.487097   5.848374   4.304096   3.871555
    19  C    4.964876   5.134633   4.454947   2.912477   2.584969
    20  C    1.541622   2.518643   2.950324   2.508089   1.556363
    21  H    3.489703   3.943103   3.462856   3.937747   3.518983
    22  H    3.358807   4.315630   3.956662   3.472162   2.192975
    23  H    3.960237   4.311520   3.344694   2.752187   2.182692
    24  H    2.182912   3.477976   3.957582   4.299495   3.373148
    25  H    2.182143   2.766305   3.357059   4.312754   4.002730
    26  H    1.097963   2.168942   3.476145   3.944597   3.503990
    27  H    2.182814   1.097961   2.184657   3.490703   4.005019
    28  H    2.181933   1.098505   2.174963   2.775446   3.384210
    29  H    3.484566   2.194989   1.094851   2.187756   3.511236
    30  H    3.953963   3.484539   2.175526   1.097583   2.185230
    31  H    3.340772   2.766688   2.166749   1.098143   2.186201
    32  H    4.226994   5.332407   5.239180   4.260241   2.748408
    33  H    6.492066   7.459597   7.235008   5.966131   4.681178
    34  H    8.418107   9.296184   9.069559   7.685464   6.572047
    35  H    9.748006  10.464715  10.047955   8.572849   7.655011
    36  H    8.759755   9.558651   9.068197   7.668284   6.622205
    37  H    9.086274   9.367543   8.579331   7.048234   6.644380
    38  H    8.818113   9.053391   8.472866   6.929740   6.592955
    39  H    9.935311  10.352125   9.768927   8.225035   7.666250
    40  H    7.049289   7.137431   6.410635   4.869598   4.716790
    41  H    5.043287   4.880404   4.038890   2.523818   2.815190
    42  H    2.180524   2.767337   3.339388   2.754335   2.179303
    43  H    2.172230   3.473244   3.955369   3.471748   2.187848
                   11         12         13         14         15
    11  C    0.000000
    12  C    1.404245   0.000000
    13  C    2.451199   1.389933   0.000000
    14  C    2.876925   2.440673   1.412903   0.000000
    15  N    4.270006   3.719321   2.449682   1.393298   0.000000
    16  C    5.136769   4.239358   2.851932   2.452449   1.452906
    17  C    5.135838   4.886662   3.756050   2.451285   1.452792
    18  C    2.448672   2.763230   2.401713   1.409844   2.449140
    19  C    1.400344   2.377881   2.767962   2.443991   3.723817
    20  C    2.536043   3.098001   4.395833   5.147959   6.487720
    21  H    4.717890   5.176768   6.463483   7.300839   8.626068
    22  H    2.757872   2.775526   4.027189   5.027573   6.313137
    23  H    2.765866   3.390452   4.499743   5.074200   6.370855
    24  H    4.524445   4.644717   5.976136   7.057372   8.363852
    25  H    5.443767   5.931890   7.316107   8.222414   9.588475
    26  H    4.698250   5.152245   6.438791   7.272901   8.581063
    27  H    5.464357   6.395434   7.723986   8.279873   9.652218
    28  H    4.572060   5.592237   6.792084   7.174933   8.491468
    29  H    4.741693   6.009729   7.192755   7.389935   8.724785
    30  H    2.805016   4.142338   5.131331   5.166002   6.465673
    31  H    2.809851   4.150093   5.140050   5.170170   6.461420
    32  H    2.161559   1.087300   2.124305   3.406505   4.572337
    33  H    3.413520   2.130839   1.083648   2.173327   2.704597
    34  H    5.153387   4.089797   2.756038   2.770732   2.109393
    35  H    6.147605   5.310947   3.922602   3.352596   2.083043
    36  H    5.198055   4.232360   2.938212   2.801375   2.141076
    37  H    5.198617   5.083562   4.080013   2.801053   2.140905
    38  H    5.148424   5.118722   4.145984   2.766595   2.108569
    39  H    6.147010   5.767103   4.527437   3.352043   2.083239
    40  H    3.409639   3.846096   3.397969   2.170500   2.704984
    41  H    2.161154   3.376745   3.852219   3.404492   4.571023
    42  H    2.764493   3.397523   4.506958   5.068161   6.343610
    43  H    2.750803   2.773483   4.024729   5.016618   6.289292
                   16         17         18         19         20
    16  C    0.000000
    17  C    2.486139   0.000000
    18  C    3.754416   2.851003   0.000000
    19  C    4.890506   4.242764   1.393980   0.000000
    20  C    7.200590   7.464641   4.805589   3.648943   0.000000
    21  H    9.143411   9.516798   6.960530   5.777092   3.969045
    22  H    6.720968   7.360327   4.987907   4.033231   2.790205
    23  H    7.026151   7.125761   4.642297   3.574004   3.482900
    24  H    8.757856   9.482113   6.962281   5.846147   2.770262
    25  H   10.155089  10.569540   7.862608   6.584789   3.481822
    26  H    9.217070   9.587157   6.945042   5.763917   2.168222
    27  H   10.521656  10.402228   7.568080   6.204756   3.481407
    28  H    9.464759   9.169789   6.393340   5.102628   2.769601
    29  H    9.790398   9.186465   6.376511   5.011836   3.955295
    30  H    7.542825   6.877977   4.128254   2.819526   3.475287
    31  H    7.600725   6.935548   4.135040   2.824950   2.761560
    32  H    4.836042   5.836344   3.850001   3.375347   2.949470
    33  H    2.518750   4.132963   3.397561   3.850915   5.056319
    34  H    1.096173   3.338438   4.148730   5.127069   6.918566
    35  H    1.092111   2.544814   4.525913   5.770904   8.230744
    36  H    1.102690   3.082373   4.074598   5.083657   7.314568
    37  H    3.081037   1.102737   2.935392   4.234720   7.663020
    38  H    3.338887   1.096153   2.755156   4.091191   7.351929
    39  H    2.545999   1.092129   3.921901   5.314559   8.429016
    40  H    4.131806   2.517766   1.083584   2.132179   5.686503
    41  H    5.834582   4.832385   2.123361   1.085015   3.934568
    42  H    7.160243   7.245880   4.642946   3.572388   1.098259
    43  H    6.798502   7.423471   4.981512   4.026345   1.097178
                   21         22         23         24         25
    21  H    0.000000
    22  H    2.513717   0.000000
    23  H    2.512643   1.759960   0.000000
    24  H    2.531940   2.559394   3.771195   0.000000
    25  H    2.515127   3.767535   4.337588   1.765380   0.000000
    26  H    4.332245   4.172139   4.995460   2.506874   2.503598
    27  H    4.149891   5.032214   5.030217   3.770320   2.562255
    28  H    4.988706   5.040743   5.027721   4.330555   3.769802
    29  H    4.265289   4.977462   4.133818   4.985857   4.159460
    30  H    4.144979   3.764411   2.549482   5.021815   5.031157
    31  H    4.982694   4.334406   3.760662   5.021736   5.025424
    32  H    4.770044   2.292233   3.449586   3.927179   5.411182
    33  H    6.979387   4.475081   5.200381   6.322515   7.815809
    34  H    9.100623   6.609022   7.173153   8.420660   9.897145
    35  H   10.215166   7.806387   8.054605   9.845203  11.235770
    36  H    8.781083   6.405167   6.689222   8.579580  10.010269
    37  H    9.299098   7.287717   6.830468   9.557357  10.571419
    38  H    9.693170   7.623104   7.325636   9.596852  10.568760
    39  H   10.503578   8.285527   8.130129  10.403215  11.558065
    40  H    7.790511   5.965604   5.420050   7.930950   8.716825
    41  H    5.893569   4.558439   3.776180   6.188321   6.646531
    42  H    5.009173   3.790961   4.325239   3.773355   4.329996
    43  H    4.201070   2.604214   3.788245   2.566060   3.767762
                   26         27         28         29         30
    26  H    0.000000
    27  H    2.507436   0.000000
    28  H    2.505509   1.765868   0.000000
    29  H    4.329471   2.517878   2.528572   0.000000
    30  H    4.989045   4.328548   3.767416   2.491529   0.000000
    31  H    4.152829   3.764684   2.556623   2.511807   1.764954
    32  H    4.747753   6.256473   5.667246   6.243937   4.655853
    33  H    6.958309   8.463925   7.605744   8.123454   6.124397
    34  H    8.814936  10.342195   9.282978   9.870738   7.769981
    35  H   10.244538  11.536560  10.420334  10.739643   8.466368
    36  H    9.333407  10.588810   9.687046   9.828911   7.523856
    37  H    9.822302  10.431699   9.301391   9.016085   6.617240
    38  H    9.425679  10.142445   8.790491   8.883884   6.700203
    39  H   10.530285  11.443153  10.191499  10.273199   7.967849
    40  H    7.783755   8.205767   6.955717   6.786937   4.560683
    41  H    5.891777   5.910543   4.770718   4.383761   2.256077
    42  H    2.501813   3.771021   2.564071   4.173562   3.759944
    43  H    2.484709   4.322698   3.763235   4.998734   4.330438
                   31         32         33         34         35
    31  H    0.000000
    32  H    4.665750   0.000000
    33  H    6.136510   2.409003   0.000000
    34  H    7.656859   4.519299   2.151737   0.000000
    35  H    8.502007   5.921867   3.585478   1.763331   0.000000
    36  H    7.811266   4.722596   2.496074   1.778382   1.778582
    37  H    6.934724   6.051721   4.541219   4.060001   3.198932
    38  H    6.559218   6.129213   4.678758   4.000218   3.408860
    39  H    8.000532   6.648307   4.694702   3.407535   2.126340
    40  H    4.570485   4.933107   4.317995   4.682644   4.693717
    41  H    2.263837   4.297093   4.935457   6.133495   6.645976
    42  H    2.551923   3.467484   5.218038   6.850698   8.128917
    43  H    3.765172   2.301939   4.480482   6.392615   7.845478
                   36         37         38         39         40
    36  H    0.000000
    37  H    3.330839   0.000000
    38  H    4.060708   1.778253   0.000000
    39  H    3.203093   1.778948   1.763713   0.000000
    40  H    4.534918   2.488584   2.154655   3.585104   0.000000
    41  H    6.045569   4.716338   4.514954   5.918345   2.404445
    42  H    7.436599   7.549000   6.991206   8.192623   5.427506
    43  H    6.876756   7.695914   7.424550   8.315311   5.963184
                   41         42         43
    41  H    0.000000
    42  H    3.779471   0.000000
    43  H    4.555132   1.759860   0.000000
 Stoichiometry    C18H23NO
 Framework group  C1[X(C18H23NO)]
 Deg. of freedom   123
 Full point group                 C1      NOp   1
 Largest Abelian subgroup         C1      NOp   1
 Largest concise Abelian subgroup C1      NOp   1
                         Standard orientation:                         
 ---------------------------------------------------------------------
 Center     Atomic      Atomic             Coordinates (Angstroms)
 Number     Number       Type             X           Y           Z
 ---------------------------------------------------------------------
      1          8           0        4.349156   -1.337542   -1.635919
      2          6           0        3.591927   -0.728860   -0.903627
      3          6           0        3.016996    0.645457   -1.224868
      4          6           0        1.471901    0.538405   -1.239569
      5          6           0        3.456628    1.631066   -0.113219
      6          6           0        2.952992    1.128198    1.254157
      7          6           0        3.557474   -0.258821    1.542697
      8          6           0        3.108451   -1.253211    0.443974
      9          6           0        1.562261   -1.337349    0.417846
     10          6           0        0.925767    0.046480    0.132568
     11          6           0       -0.605656   -0.005800    0.105233
     12          6           0       -1.353752    1.155195   -0.148437
     13          6           0       -2.743215    1.158373   -0.184458
     14          6           0       -3.481914   -0.023792    0.045983
     15          7           0       -4.875211   -0.025771    0.046497
     16          6           0       -5.581240    1.136523   -0.464904
     17          6           0       -5.575667   -1.298511    0.036559
     18          6           0       -2.737552   -1.196525    0.287398
     19          6           0       -1.344077   -1.176278    0.318963
     20          6           0        1.414678    1.028850    1.236279
     21          1           0        3.393618    0.960531   -2.203553
     22          1           0        1.050586    1.520909   -1.485955
     23          1           0        1.146449   -0.150096   -2.030024
     24          1           0        3.047692    2.627573   -0.329513
     25          1           0        4.550254    1.728123   -0.106207
     26          1           0        3.262157    1.832036    2.038091
     27          1           0        4.653472   -0.202089    1.575690
     28          1           0        3.224844   -0.625775    2.523215
     29          1           0        3.544160   -2.244317    0.606958
     30          1           0        1.249211   -2.061119   -0.345597
     31          1           0        1.214183   -1.721350    1.385990
     32          1           0       -0.843595    2.097838   -0.331153
     33          1           0       -3.251746    2.091855   -0.394938
     34          1           0       -5.339646    2.030486    0.121661
     35          1           0       -6.656568    0.968268   -0.375077
     36          1           0       -5.352238    1.351437   -1.521925
     37          1           0       -5.346972   -1.911194   -0.851330
     38          1           0       -5.326812   -1.887877    0.926655
     39          1           0       -6.651828   -1.113612    0.057443
     40          1           0       -3.240262   -2.142030    0.453101
     41          1           0       -0.836690   -2.115665    0.512266
     42          1           0        1.044495    0.687160    2.212181
     43          1           0        0.982463    2.023245    1.068443
 ---------------------------------------------------------------------
 Rotational constants (GHZ):           0.9787284           0.1599442           0.1544786
 Standard basis: 6-31G(d) (6D, 7F)
 There are   346 symmetry adapted cartesian basis functions of A   symmetry.
 There are   346 symmetry adapted basis functions of A   symmetry.
   346 basis functions,   652 primitive gaussians,   346 cartesian basis functions
    73 alpha electrons       73 beta electrons
       nuclear repulsion energy      1572.4707377814 Hartrees.
 NAtoms=   43 NActive=   43 NUniq=   43 SFac= 1.00D+00 NAtFMM=   60 NAOKFM=F Big=F
 Integral buffers will be    131072 words long.
 Raffenetti 2 integral format.
 Two-electron integral symmetry is turned on.
 One-electron integrals computed using PRISM.
 NBasis=   346 RedAO= T EigKep=  3.82D-04  NBF=   346
 NBsUse=   346 1.00D-06 EigRej= -1.00D+00 NBFU=   346
 ExpMin= 1.61D-01 ExpMax= 5.48D+03 ExpMxC= 8.25D+02 IAcc=3 IRadAn=         5 AccDes= 0.00D+00
 Harris functional with IExCor=  402 and IRadAn=       5 diagonalized for initial guess.
 HarFok:  IExCor=  402 AccDes= 0.00D+00 IRadAn=         5 IDoV= 1 UseB2=F ITyADJ=14
 ICtDFT=  3500011 ScaDFX=  1.000000  1.000000  1.000000  1.000000
 FoFCou: FMM=F IPFlag=           0 FMFlag=      100000 FMFlg1=           0
         NFxFlg=           0 DoJE=T BraDBF=F KetDBF=T FulRan=T
         wScrn=  0.000000 ICntrl=       500 IOpCl=  0 I1Cent=   200000004 NGrid=           0
         NMat0=    1 NMatS0=      1 NMatT0=    0 NMatD0=    1 NMtDS0=    0 NMtDT0=    0
 Petite list used in FoFCou.
 Requested convergence on RMS density matrix=1.00D-08 within 128 cycles.
 Requested convergence on MAX density matrix=1.00D-06.
 Requested convergence on             energy=1.00D-06.
 No special actions if energy rises.
 Integral accuracy reduced to 1.0D-05 until final iterations.
 Initial convergence to 1.0D-05 achieved.  Increase integral accuracy.
 SCF Done:  E(RB3LYP) =  -829.749885706     A.U. after   14 cycles
            NFock= 14  Conv=0.66D-08     -V/T= 2.0097
 DoSCS=F DFT=T ScalE2(SS,OS)=  1.000000  1.000000
 Range of M.O.s used for correlation:     1   346
 NBasis=   346 NAE=    73 NBE=    73 NFC=     0 NFV=     0
 NROrb=    346 NOA=    73 NOB=    73 NVA=   273 NVB=   273
 Symmetrizing basis deriv contribution to polar:
 IMax=3 JMax=2 DiffMx= 0.00D+00
 G2DrvN: will do    44 centers at a time, making    1 passes.
 Calling FoFCou, ICntrl=  3107 FMM=F I1Cent=   0 AccDes= 0.00D+00.
 End of G2Drv F.D. properties file   721 does not exist.
 End of G2Drv F.D. properties file   722 does not exist.
 End of G2Drv F.D. properties file   788 does not exist.
          IDoAtm=1111111111111111111111111111111111111111111
          Differentiating once with respect to electric field.
                with respect to dipole field.
          Differentiating once with respect to nuclear coordinates.
 CalDSu exits because no D1Ps are significant.
          There are   132 degrees of freedom in the 1st order CPHF.  IDoFFX=6 NUNeed=     3.
    129 vectors produced by pass  0 Test12= 1.99D-14 1.00D-09 XBig12= 2.36D+02 9.78D+00.
 AX will form   129 AO Fock derivatives at one time.
    129 vectors produced by pass  1 Test12= 1.99D-14 1.00D-09 XBig12= 3.68D+01 1.34D+00.
    129 vectors produced by pass  2 Test12= 1.99D-14 1.00D-09 XBig12= 3.06D-01 6.03D-02.
    129 vectors produced by pass  3 Test12= 1.99D-14 1.00D-09 XBig12= 9.12D-04 2.34D-03.
    129 vectors produced by pass  4 Test12= 1.99D-14 1.00D-09 XBig12= 8.78D-07 6.20D-05.
     77 vectors produced by pass  5 Test12= 1.99D-14 1.00D-09 XBig12= 6.23D-10 2.09D-06.
      6 vectors produced by pass  6 Test12= 1.99D-14 1.00D-09 XBig12= 4.74D-13 8.32D-08.
      3 vectors produced by pass  7 Test12= 1.99D-14 1.00D-09 XBig12= 4.75D-16 3.35D-09.
 InvSVY:  IOpt=1 It=  1 EMax= 7.11D-15
 Solved reduced A of dimension   731 with   132 vectors.
 Isotropic polarizability for W=    0.000000      193.04 Bohr**3.
 End of Minotr F.D. properties file   721 does not exist.
 End of Minotr F.D. properties file   722 does not exist.
 End of Minotr F.D. properties file   788 does not exist.

 **********************************************************************

            Population analysis using the SCF density.

 **********************************************************************

 Orbital symmetries:
       Occupied  (A) (A) (A) (A) (A) (A) (A) (A) (A) (A) (A) (A)
                 (A) (A) (A) (A) (A) (A) (A) (A) (A) (A) (A) (A)
                 (A) (A) (A) (A) (A) (A) (A) (A) (A) (A) (A) (A)
                 (A) (A) (A) (A) (A) (A) (A) (A) (A) (A) (A) (A)
                 (A) (A) (A) (A) (A) (A) (A) (A) (A) (A) (A) (A)
                 (A) (A) (A) (A) (A) (A) (A) (A) (A) (A) (A) (A)
                 (A)
       Virtual   (A) (A) (A) (A) (A) (A) (A) (A) (A) (A) (A) (A)
                 (A) (A) (A) (A) (A) (A) (A) (A) (A) (A) (A) (A)
                 (A) (A) (A) (A) (A) (A) (A) (A) (A) (A) (A) (A)
                 (A) (A) (A) (A) (A) (A) (A) (A) (A) (A) (A) (A)
                 (A) (A) (A) (A) (A) (A) (A) (A) (A) (A) (A) (A)
                 (A) (A) (A) (A) (A) (A) (A) (A) (A) (A) (A) (A)
                 (A) (A) (A) (A) (A) (A) (A) (A) (A) (A) (A) (A)
                 (A) (A) (A) (A) (A) (A) (A) (A) (A) (A) (A) (A)
                 (A) (A) (A) (A) (A) (A) (A) (A) (A) (A) (A) (A)
                 (A) (A) (A) (A) (A) (A) (A) (A) (A) (A) (A) (A)
                 (A) (A) (A) (A) (A) (A) (A) (A) (A) (A) (A) (A)
                 (A) (A) (A) (A) (A) (A) (A) (A) (A) (A) (A) (A)
                 (A) (A) (A) (A) (A) (A) (A) (A) (A) (A) (A) (A)
                 (A) (A) (A) (A) (A) (A) (A) (A) (A) (A) (A) (A)
                 (A) (A) (A) (A) (A) (A) (A) (A) (A) (A) (A) (A)
                 (A) (A) (A) (A) (A) (A) (A) (A) (A) (A) (A) (A)
                 (A) (A) (A) (A) (A) (A) (A) (A) (A) (A) (A) (A)
                 (A) (A) (A) (A) (A) (A) (A) (A) (A) (A) (A) (A)
                 (A) (A) (A) (A) (A) (A) (A) (A) (A) (A) (A) (A)
                 (A) (A) (A) (A) (A) (A) (A) (A) (A) (A) (A) (A)
                 (A) (A) (A) (A) (A) (A) (A) (A) (A) (A) (A) (A)
                 (A) (A) (A) (A) (A) (A) (A) (A) (A) (A) (A) (A)
                 (A) (A) (A) (A) (A) (A) (A) (A) (A)
 The electronic state is 1-A.
 Alpha  occ. eigenvalues --  -19.12653 -14.35054 -10.25735 -10.22126 -10.21744
 Alpha  occ. eigenvalues --  -10.21710 -10.20037 -10.19007 -10.18840 -10.18772
 Alpha  occ. eigenvalues --  -10.18673 -10.18641 -10.18554 -10.18474 -10.18062
 Alpha  occ. eigenvalues --  -10.17977 -10.17950 -10.17886 -10.17745 -10.17604
 Alpha  occ. eigenvalues --   -1.02459  -0.94358  -0.87300  -0.83698  -0.78252
 Alpha  occ. eigenvalues --   -0.77508  -0.75898  -0.74249  -0.72589  -0.71838
 Alpha  occ. eigenvalues --   -0.67277  -0.65715  -0.64126  -0.60588  -0.59192
 Alpha  occ. eigenvalues --   -0.58615  -0.57024  -0.55484  -0.52465  -0.50025
 Alpha  occ. eigenvalues --   -0.47738  -0.47017  -0.46289  -0.45719  -0.45124
 Alpha  occ. eigenvalues --   -0.44106  -0.43702  -0.43399  -0.42593  -0.42062
 Alpha  occ. eigenvalues --   -0.41547  -0.41185  -0.40728  -0.39917  -0.39709
 Alpha  occ. eigenvalues --   -0.39277  -0.38917  -0.38027  -0.36163  -0.35997
 Alpha  occ. eigenvalues --   -0.35583  -0.35128  -0.34042  -0.33384  -0.33179
 Alpha  occ. eigenvalues --   -0.32295  -0.29870  -0.29347  -0.28935  -0.27180
 Alpha  occ. eigenvalues --   -0.24090  -0.22403  -0.18633
 Alpha virt. eigenvalues --   -0.00425   0.00768   0.02012   0.07243   0.08547
 Alpha virt. eigenvalues --    0.10534   0.11189   0.12098   0.12336   0.12760
 Alpha virt. eigenvalues --    0.13287   0.13654   0.14200   0.14826   0.15279
 Alpha virt. eigenvalues --    0.15780   0.16363   0.16477   0.17126   0.17369
 Alpha virt. eigenvalues --    0.17573   0.18314   0.18452   0.19363   0.19717
 Alpha virt. eigenvalues --    0.20180   0.20537   0.21032   0.21922   0.22523
 Alpha virt. eigenvalues --    0.22658   0.23986   0.24540   0.24685   0.25204
 Alpha virt. eigenvalues --    0.26070   0.27598   0.28284   0.29124   0.29993
 Alpha virt. eigenvalues --    0.30124   0.31386   0.34090   0.34754   0.35934
 Alpha virt. eigenvalues --    0.36585   0.37483   0.41513   0.47559   0.49480
 Alpha virt. eigenvalues --    0.50623   0.51806   0.52361   0.52612   0.53242
 Alpha virt. eigenvalues --    0.53764   0.54725   0.55271   0.56178   0.56672
 Alpha virt. eigenvalues --    0.57220   0.57878   0.59537   0.59693   0.60171
 Alpha virt. eigenvalues --    0.61015   0.61408   0.62511   0.63186   0.64554
 Alpha virt. eigenvalues --    0.64822   0.65730   0.66789   0.67317   0.68009
 Alpha virt. eigenvalues --    0.68430   0.69573   0.70612   0.71761   0.72312
 Alpha virt. eigenvalues --    0.72812   0.74002   0.75953   0.76380   0.77468
 Alpha virt. eigenvalues --    0.77860   0.79337   0.79619   0.80804   0.80991
 Alpha virt. eigenvalues --    0.81737   0.82552   0.82953   0.83743   0.84574
 Alpha virt. eigenvalues --    0.85877   0.86077   0.86410   0.86966   0.87284
 Alpha virt. eigenvalues --    0.88050   0.88673   0.89008   0.89542   0.90208
 Alpha virt. eigenvalues --    0.91235   0.92221   0.93264   0.94222   0.94549
 Alpha virt. eigenvalues --    0.94837   0.95618   0.96038   0.97474   0.98086
 Alpha virt. eigenvalues --    0.98647   0.98980   0.99998   1.00785   1.02154
 Alpha virt. eigenvalues --    1.02792   1.05961   1.06745   1.09791   1.10505
 Alpha virt. eigenvalues --    1.12048   1.14243   1.15072   1.17420   1.18063
 Alpha virt. eigenvalues --    1.18914   1.19219   1.20284   1.22215   1.23965
 Alpha virt. eigenvalues --    1.25641   1.26647   1.27588   1.30363   1.31797
 Alpha virt. eigenvalues --    1.35541   1.37966   1.39322   1.41836   1.43446
 Alpha virt. eigenvalues --    1.45021   1.46842   1.47378   1.49445   1.51035
 Alpha virt. eigenvalues --    1.52821   1.53209   1.55105   1.59047   1.60532
 Alpha virt. eigenvalues --    1.61345   1.62273   1.66026   1.67260   1.70387
 Alpha virt. eigenvalues --    1.71239   1.72649   1.74947   1.76102   1.77471
 Alpha virt. eigenvalues --    1.77720   1.79231   1.79625   1.80831   1.82250
 Alpha virt. eigenvalues --    1.83076   1.84454   1.85691   1.86233   1.87372
 Alpha virt. eigenvalues --    1.88200   1.90543   1.91031   1.92593   1.93693
 Alpha virt. eigenvalues --    1.94928   1.95726   1.97354   1.97891   2.01661
 Alpha virt. eigenvalues --    2.03070   2.04034   2.04944   2.05433   2.06383
 Alpha virt. eigenvalues --    2.08220   2.08750   2.09504   2.10174   2.12192
 Alpha virt. eigenvalues --    2.14249   2.14941   2.15057   2.15358   2.16518
 Alpha virt. eigenvalues --    2.18771   2.20960   2.21611   2.22484   2.23051
 Alpha virt. eigenvalues --    2.24569   2.25777   2.27568   2.27933   2.29916
 Alpha virt. eigenvalues --    2.30598   2.31299   2.32964   2.34383   2.35955
 Alpha virt. eigenvalues --    2.36676   2.39115   2.40860   2.41428   2.43268
 Alpha virt. eigenvalues --    2.44921   2.47316   2.47761   2.50882   2.53424
 Alpha virt. eigenvalues --    2.54617   2.56982   2.58045   2.58780   2.60251
 Alpha virt. eigenvalues --    2.61593   2.62774   2.66720   2.68473   2.69462
 Alpha virt. eigenvalues --    2.69842   2.71704   2.72862   2.74265   2.74921
 Alpha virt. eigenvalues --    2.76532   2.77394   2.80549   2.82289   2.85474
 Alpha virt. eigenvalues --    2.89816   2.92609   3.00293   3.01771   3.03975
 Alpha virt. eigenvalues --    3.06400   3.21693   3.42815   4.05602   4.10280
 Alpha virt. eigenvalues --    4.11295   4.12960   4.15942   4.21691   4.26574
 Alpha virt. eigenvalues --    4.28132   4.29866   4.31670   4.34283   4.35796
 Alpha virt. eigenvalues --    4.46651   4.51590   4.57194   4.71432   4.73443
 Alpha virt. eigenvalues --    4.80629   4.85159   4.86157
          Condensed to atoms (all electrons):
               1          2          3          4          5          6
     1  O    8.016077   0.579245  -0.073831   0.000894   0.000983   0.000046
     2  C    0.579245   4.512990   0.332284  -0.027987  -0.029494  -0.020533
     3  C   -0.073831   0.332284   5.240586   0.309257   0.338753  -0.029000
     4  C    0.000894  -0.027987   0.309257   5.184345  -0.038796  -0.013365
     5  C    0.000983  -0.029494   0.338753  -0.038796   5.098747   0.375039
     6  C    0.000046  -0.020533  -0.029000  -0.013365   0.375039   4.948802
     7  C    0.000929  -0.029237  -0.008532  -0.002512  -0.049441   0.375164
     8  C   -0.074127   0.331528  -0.124615  -0.007339  -0.008189  -0.027571
     9  C    0.000979  -0.027968  -0.006631  -0.058397  -0.003026  -0.014487
    10  C    0.000110  -0.019177  -0.020163   0.365264  -0.016171  -0.021007
    11  C    0.000001  -0.000003   0.004301  -0.046159   0.000011   0.004223
    12  C   -0.000000  -0.000007   0.000323  -0.008448  -0.000046   0.000336
    13  C   -0.000000   0.000000  -0.000002   0.000372  -0.000000  -0.000000
    14  C   -0.000000  -0.000000   0.000000  -0.000006  -0.000000  -0.000000
    15  N    0.000000   0.000000   0.000000  -0.000000   0.000000  -0.000000
    16  C    0.000000  -0.000000   0.000000   0.000000  -0.000000  -0.000000
    17  C   -0.000000  -0.000000   0.000000  -0.000000  -0.000000   0.000000
    18  C   -0.000000   0.000000   0.000001  -0.000127   0.000000   0.000001
    19  C   -0.000000  -0.000012  -0.000058   0.001023  -0.000002  -0.000062
    20  C   -0.000031  -0.002800  -0.011549  -0.057146  -0.046256   0.348889
    21  H    0.004199  -0.032016   0.343734  -0.030077  -0.031494   0.004188
    22  H   -0.000082   0.003582  -0.030134   0.354508  -0.006023  -0.000738
    23  H    0.000714  -0.001342  -0.037705   0.361714   0.005089  -0.000056
    24  H   -0.000083   0.003569  -0.031622  -0.005651   0.359884  -0.033746
    25  H    0.000730  -0.000887  -0.039363   0.005100   0.366538  -0.034892
    26  H   -0.000000   0.000312   0.004639   0.000059  -0.038136   0.367377
    27  H    0.000765  -0.000935  -0.000026   0.000042  -0.004381  -0.035042
    28  H   -0.000083   0.003555  -0.000295   0.000108   0.005276  -0.033396
    29  H    0.004294  -0.032189   0.007173  -0.000072  -0.000039   0.004220
    30  H    0.000748  -0.001052   0.000518  -0.007067   0.000008  -0.000061
    31  H   -0.000083   0.003565  -0.000406   0.006209   0.000130  -0.000681
    32  H   -0.000000  -0.000004  -0.000120   0.000285  -0.000015  -0.000136
    33  H    0.000000  -0.000000  -0.000000  -0.000001  -0.000000  -0.000000
    34  H    0.000000   0.000000   0.000000  -0.000000   0.000000  -0.000000
    35  H    0.000000   0.000000  -0.000000   0.000000  -0.000000   0.000000
    36  H    0.000000  -0.000000  -0.000000   0.000000  -0.000000   0.000000
    37  H    0.000000   0.000000  -0.000000   0.000000   0.000000   0.000000
    38  H   -0.000000  -0.000000   0.000000  -0.000000   0.000000  -0.000000
    39  H    0.000000   0.000000  -0.000000   0.000000  -0.000000  -0.000000
    40  H    0.000000  -0.000000  -0.000000   0.000002  -0.000000  -0.000000
    41  H   -0.000000  -0.000016  -0.000006   0.000223  -0.000001  -0.000007
    42  H    0.000000   0.000140  -0.000152   0.005978   0.005149  -0.034113
    43  H    0.000000   0.000146  -0.001138  -0.005006  -0.003719  -0.034415
               7          8          9         10         11         12
     1  O    0.000929  -0.074127   0.000979   0.000110   0.000001  -0.000000
     2  C   -0.029237   0.331528  -0.027968  -0.019177  -0.000003  -0.000007
     3  C   -0.008532  -0.124615  -0.006631  -0.020163   0.004301   0.000323
     4  C   -0.002512  -0.007339  -0.058397   0.365264  -0.046159  -0.008448
     5  C   -0.049441  -0.008189  -0.003026  -0.016171   0.000011  -0.000046
     6  C    0.375164  -0.027571  -0.014487  -0.021007   0.004223   0.000336
     7  C    5.096083   0.338638  -0.037935  -0.016103  -0.000055  -0.000000
     8  C    0.338638   5.230706   0.321878  -0.018086   0.003392  -0.000099
     9  C   -0.037935   0.321878   5.180522   0.361591  -0.037375   0.005326
    10  C   -0.016103  -0.018086   0.361591   4.953761   0.357327  -0.054169
    11  C   -0.000055   0.003392  -0.037375   0.357327   4.711363   0.523334
    12  C   -0.000000  -0.000099   0.005326  -0.054169   0.523334   5.005774
    13  C    0.000000   0.000001  -0.000152   0.005408  -0.024099   0.510768
    14  C   -0.000000   0.000000  -0.000007   0.000426  -0.027248  -0.012742
    15  N    0.000000  -0.000000  -0.000000   0.000002   0.000437   0.005192
    16  C    0.000000   0.000000   0.000000  -0.000000  -0.000004   0.000079
    17  C   -0.000000   0.000000   0.000000  -0.000000  -0.000001  -0.000089
    18  C    0.000000  -0.000007   0.000245   0.006873  -0.025854  -0.050573
    19  C   -0.000012   0.000535  -0.009809  -0.053376   0.549963  -0.045476
    20  C   -0.046069  -0.013247  -0.056924   0.370843  -0.048667  -0.008282
    21  H   -0.000046   0.007169  -0.000053   0.003483  -0.000106  -0.000005
    22  H    0.000100  -0.000302   0.005934  -0.030391  -0.008714   0.004850
    23  H   -0.000008   0.000400  -0.006814  -0.033622  -0.001637  -0.000176
    24  H    0.005310  -0.000317   0.000122  -0.001271  -0.000081  -0.000030
    25  H   -0.004316  -0.000063   0.000056   0.000171   0.000012   0.000000
    26  H   -0.038416   0.004664   0.000114   0.004093  -0.000095  -0.000008
    27  H    0.367132  -0.039817   0.005117   0.000168   0.000012  -0.000000
    28  H    0.360411  -0.030850  -0.006098  -0.001137  -0.000098  -0.000000
    29  H   -0.031761   0.344878  -0.031198   0.003453  -0.000100   0.000002
    30  H    0.005123  -0.039912   0.360698  -0.029447  -0.006229  -0.000070
    31  H   -0.006115  -0.031423   0.353232  -0.027582  -0.006351  -0.000124
    32  H   -0.000001  -0.000002   0.000068  -0.008262  -0.046870   0.347903
    33  H   -0.000000  -0.000000   0.000002  -0.000168   0.003499  -0.039223
    34  H   -0.000000   0.000000   0.000000  -0.000000  -0.000007   0.000321
    35  H    0.000000  -0.000000   0.000000  -0.000000   0.000000  -0.000005
    36  H   -0.000000   0.000000  -0.000000   0.000000  -0.000006  -0.000077
    37  H   -0.000000  -0.000000   0.000000   0.000000  -0.000006  -0.000013
    38  H    0.000000   0.000000   0.000000  -0.000000  -0.000008   0.000003
    39  H    0.000000  -0.000000   0.000000  -0.000000   0.000000   0.000003
    40  H   -0.000000  -0.000000   0.000003  -0.000165   0.003637   0.000656
    41  H   -0.000004   0.000040   0.007518  -0.015850  -0.039465   0.006583
    42  H   -0.004021  -0.001165  -0.006070  -0.034972  -0.001230  -0.000169
    43  H    0.005170  -0.000069   0.005896  -0.033337  -0.008416   0.004897
              13         14         15         16         17         18
     1  O   -0.000000  -0.000000   0.000000   0.000000  -0.000000  -0.000000
     2  C    0.000000  -0.000000   0.000000  -0.000000  -0.000000   0.000000
     3  C   -0.000002   0.000000   0.000000   0.000000   0.000000   0.000001
     4  C    0.000372  -0.000006  -0.000000   0.000000  -0.000000  -0.000127
     5  C   -0.000000  -0.000000   0.000000  -0.000000  -0.000000   0.000000
     6  C   -0.000000  -0.000000  -0.000000  -0.000000   0.000000   0.000001
     7  C    0.000000  -0.000000   0.000000   0.000000  -0.000000   0.000000
     8  C    0.000001   0.000000  -0.000000   0.000000   0.000000  -0.000007
     9  C   -0.000152  -0.000007  -0.000000   0.000000   0.000000   0.000245
    10  C    0.005408   0.000426   0.000002  -0.000000  -0.000000   0.006873
    11  C   -0.024099  -0.027248   0.000437  -0.000004  -0.000001  -0.025854
    12  C    0.510768  -0.012742   0.005192   0.000079  -0.000089  -0.050573
    13  C    5.048830   0.516788  -0.072822  -0.011410   0.005968  -0.055187
    14  C    0.516788   4.487926   0.319638  -0.040193  -0.040408   0.522043
    15  N   -0.072822   0.319638   6.904789   0.327669   0.327799  -0.072856
    16  C   -0.011410  -0.040193   0.327669   4.967616  -0.061135   0.005971
    17  C    0.005968  -0.040408   0.327799  -0.061135   4.967164  -0.011427
    18  C   -0.055187   0.522043  -0.072856   0.005971  -0.011427   5.072388
    19  C   -0.048612  -0.011676   0.005091  -0.000083   0.000114   0.494251
    20  C    0.000272   0.000007   0.000000  -0.000000   0.000000  -0.000155
    21  H   -0.000000  -0.000000  -0.000000  -0.000000  -0.000000  -0.000000
    22  H    0.000019  -0.000004  -0.000000   0.000000   0.000000   0.000004
    23  H   -0.000067  -0.000009   0.000000   0.000000   0.000000  -0.000033
    24  H   -0.000000  -0.000000  -0.000000  -0.000000   0.000000  -0.000000
    25  H    0.000000   0.000000  -0.000000   0.000000   0.000000   0.000000
    26  H   -0.000000   0.000000  -0.000000  -0.000000   0.000000  -0.000000
    27  H    0.000000   0.000000  -0.000000  -0.000000   0.000000   0.000000
    28  H    0.000000  -0.000000   0.000000  -0.000000   0.000000  -0.000000
    29  H   -0.000000  -0.000000  -0.000000   0.000000   0.000000   0.000000
    30  H   -0.000003  -0.000004   0.000000   0.000000   0.000000   0.000037
    31  H    0.000002  -0.000008  -0.000000   0.000000   0.000000   0.000067
    32  H   -0.040373   0.003684  -0.000115  -0.000003   0.000002   0.000707
    33  H    0.347625  -0.040967  -0.011727   0.007614  -0.000041   0.005695
    34  H    0.004023  -0.007004  -0.040584   0.376041   0.004554  -0.000248
    35  H    0.000439   0.003506  -0.032775   0.375257  -0.006983  -0.000140
    36  H    0.004935  -0.001810  -0.050012   0.363841   0.000874   0.000206
    37  H    0.000184  -0.001821  -0.050065   0.000848   0.363987   0.005068
    38  H   -0.000249  -0.007166  -0.040439   0.004578   0.375942   0.004326
    39  H   -0.000141   0.003496  -0.032794  -0.007023   0.375169   0.000443
    40  H    0.005669  -0.041532  -0.011793  -0.000039   0.007588   0.347431
    41  H    0.000650   0.003733  -0.000109   0.000002  -0.000006  -0.046695
    42  H   -0.000060  -0.000012  -0.000000   0.000000   0.000000  -0.000030
    43  H   -0.000013  -0.000005  -0.000000   0.000000   0.000000   0.000004
              19         20         21         22         23         24
     1  O   -0.000000  -0.000031   0.004199  -0.000082   0.000714  -0.000083
     2  C   -0.000012  -0.002800  -0.032016   0.003582  -0.001342   0.003569
     3  C   -0.000058  -0.011549   0.343734  -0.030134  -0.037705  -0.031622
     4  C    0.001023  -0.057146  -0.030077   0.354508   0.361714  -0.005651
     5  C   -0.000002  -0.046256  -0.031494  -0.006023   0.005089   0.359884
     6  C   -0.000062   0.348889   0.004188  -0.000738  -0.000056  -0.033746
     7  C   -0.000012  -0.046069  -0.000046   0.000100  -0.000008   0.005310
     8  C    0.000535  -0.013247   0.007169  -0.000302   0.000400  -0.000317
     9  C   -0.009809  -0.056924  -0.000053   0.005934  -0.006814   0.000122
    10  C   -0.053376   0.370843   0.003483  -0.030391  -0.033622  -0.001271
    11  C    0.549963  -0.048667  -0.000106  -0.008714  -0.001637  -0.000081
    12  C   -0.045476  -0.008282  -0.000005   0.004850  -0.000176  -0.000030
    13  C   -0.048612   0.000272  -0.000000   0.000019  -0.000067  -0.000000
    14  C   -0.011676   0.000007  -0.000000  -0.000004  -0.000009  -0.000000
    15  N    0.005091   0.000000  -0.000000  -0.000000   0.000000  -0.000000
    16  C   -0.000083  -0.000000  -0.000000   0.000000   0.000000  -0.000000
    17  C    0.000114   0.000000  -0.000000   0.000000   0.000000   0.000000
    18  C    0.494251  -0.000155  -0.000000   0.000004  -0.000033  -0.000000
    19  C    4.995751   0.000992   0.000000  -0.000248   0.001263   0.000001
    20  C    0.000992   5.157704   0.000109  -0.004881   0.005840  -0.003477
    21  H    0.000000   0.000109   0.604186  -0.004081  -0.002572  -0.004035
    22  H   -0.000248  -0.004881  -0.004081   0.600896  -0.034696   0.005859
    23  H    0.001263   0.005840  -0.002572  -0.034696   0.591176  -0.000065
    24  H    0.000001  -0.003477  -0.004035   0.005859  -0.000065   0.605000
    25  H   -0.000000   0.005003  -0.002546  -0.000060  -0.000159  -0.035682
    26  H    0.000001  -0.037475  -0.000144  -0.000081   0.000019  -0.003249
    27  H    0.000000   0.005021  -0.000085   0.000001  -0.000005   0.000002
    28  H   -0.000003  -0.003577   0.000023  -0.000004   0.000001  -0.000203
    29  H    0.000004   0.000143  -0.000187   0.000023  -0.000091   0.000023
    30  H    0.001868   0.006026  -0.000094   0.000005   0.005040   0.000000
    31  H    0.002089  -0.006139   0.000025  -0.000205  -0.000023  -0.000005
    32  H    0.006207   0.000287   0.000003   0.003785   0.000062   0.000037
    33  H    0.000652  -0.000001   0.000000   0.000004   0.000000   0.000000
    34  H    0.000003   0.000000  -0.000000   0.000000   0.000000  -0.000000
    35  H    0.000003  -0.000000   0.000000   0.000000  -0.000000   0.000000
    36  H   -0.000015  -0.000000   0.000000   0.000000  -0.000000   0.000000
    37  H   -0.000083  -0.000000   0.000000  -0.000000  -0.000000   0.000000
    38  H    0.000341   0.000000  -0.000000   0.000000   0.000000  -0.000000
    39  H   -0.000005   0.000000   0.000000  -0.000000   0.000000   0.000000
    40  H   -0.038193   0.000001   0.000000   0.000000   0.000001   0.000000
    41  H    0.350454   0.000226   0.000000  -0.000008  -0.000036   0.000000
    42  H    0.001297   0.358933   0.000018  -0.000068  -0.000168  -0.000059
    43  H   -0.000211   0.358466  -0.000060   0.003556  -0.000055   0.004765
              25         26         27         28         29         30
     1  O    0.000730  -0.000000   0.000765  -0.000083   0.004294   0.000748
     2  C   -0.000887   0.000312  -0.000935   0.003555  -0.032189  -0.001052
     3  C   -0.039363   0.004639  -0.000026  -0.000295   0.007173   0.000518
     4  C    0.005100   0.000059   0.000042   0.000108  -0.000072  -0.007067
     5  C    0.366538  -0.038136  -0.004381   0.005276  -0.000039   0.000008
     6  C   -0.034892   0.367377  -0.035042  -0.033396   0.004220  -0.000061
     7  C   -0.004316  -0.038416   0.367132   0.360411  -0.031761   0.005123
     8  C   -0.000063   0.004664  -0.039817  -0.030850   0.344878  -0.039912
     9  C    0.000056   0.000114   0.005117  -0.006098  -0.031198   0.360698
    10  C    0.000171   0.004093   0.000168  -0.001137   0.003453  -0.029447
    11  C    0.000012  -0.000095   0.000012  -0.000098  -0.000100  -0.006229
    12  C    0.000000  -0.000008  -0.000000  -0.000000   0.000002  -0.000070
    13  C    0.000000  -0.000000   0.000000   0.000000  -0.000000  -0.000003
    14  C    0.000000   0.000000   0.000000  -0.000000  -0.000000  -0.000004
    15  N   -0.000000  -0.000000  -0.000000   0.000000  -0.000000   0.000000
    16  C    0.000000  -0.000000  -0.000000  -0.000000   0.000000   0.000000
    17  C    0.000000   0.000000   0.000000   0.000000   0.000000   0.000000
    18  C    0.000000  -0.000000   0.000000  -0.000000   0.000000   0.000037
    19  C   -0.000000   0.000001   0.000000  -0.000003   0.000004   0.001868
    20  C    0.005003  -0.037475   0.005021  -0.003577   0.000143   0.006026
    21  H   -0.002546  -0.000144  -0.000085   0.000023  -0.000187  -0.000094
    22  H   -0.000060  -0.000081   0.000001  -0.000004   0.000023   0.000005
    23  H   -0.000159   0.000019  -0.000005   0.000001  -0.000091   0.005040
    24  H   -0.035682  -0.003249   0.000002  -0.000203   0.000023   0.000000
    25  H    0.597130  -0.003431   0.004278   0.000002  -0.000081  -0.000005
    26  H   -0.003431   0.629576  -0.003335  -0.003226  -0.000148   0.000019
    27  H    0.004278  -0.003335   0.597010  -0.035591  -0.002469  -0.000159
    28  H    0.000002  -0.003226  -0.035591   0.602082  -0.004130  -0.000060
    29  H   -0.000081  -0.000148  -0.002469  -0.004130   0.604978  -0.002675
    30  H   -0.000005   0.000019  -0.000159  -0.000060  -0.002675   0.596570
    31  H    0.000000  -0.000101  -0.000046   0.005786  -0.003965  -0.039455
    32  H   -0.000000   0.000005  -0.000000  -0.000000   0.000000   0.000002
    33  H   -0.000000   0.000000  -0.000000   0.000000   0.000000   0.000000
    34  H   -0.000000   0.000000  -0.000000   0.000000  -0.000000   0.000000
    35  H   -0.000000  -0.000000  -0.000000   0.000000   0.000000   0.000000
    36  H   -0.000000  -0.000000   0.000000  -0.000000   0.000000  -0.000000
    37  H   -0.000000  -0.000000   0.000000  -0.000000   0.000000  -0.000000
    38  H   -0.000000   0.000000  -0.000000   0.000000  -0.000000   0.000000
    39  H   -0.000000   0.000000  -0.000000   0.000000   0.000000   0.000000
    40  H   -0.000000   0.000000  -0.000000   0.000000   0.000000   0.000003
    41  H    0.000000   0.000000  -0.000000  -0.000002   0.000006   0.002068
    42  H   -0.000163  -0.003504  -0.000031   0.004642  -0.000076  -0.000073
    43  H   -0.000045  -0.003792  -0.000165  -0.000050   0.000017  -0.000172
              31         32         33         34         35         36
     1  O   -0.000083  -0.000000   0.000000   0.000000   0.000000   0.000000
     2  C    0.003565  -0.000004  -0.000000   0.000000   0.000000  -0.000000
     3  C   -0.000406  -0.000120  -0.000000   0.000000  -0.000000  -0.000000
     4  C    0.006209   0.000285  -0.000001  -0.000000   0.000000   0.000000
     5  C    0.000130  -0.000015  -0.000000   0.000000  -0.000000  -0.000000
     6  C   -0.000681  -0.000136  -0.000000  -0.000000   0.000000   0.000000
     7  C   -0.006115  -0.000001  -0.000000  -0.000000   0.000000  -0.000000
     8  C   -0.031423  -0.000002  -0.000000   0.000000  -0.000000   0.000000
     9  C    0.353232   0.000068   0.000002   0.000000   0.000000  -0.000000
    10  C   -0.027582  -0.008262  -0.000168  -0.000000  -0.000000   0.000000
    11  C   -0.006351  -0.046870   0.003499  -0.000007   0.000000  -0.000006
    12  C   -0.000124   0.347903  -0.039223   0.000321  -0.000005  -0.000077
    13  C    0.000002  -0.040373   0.347625   0.004023   0.000439   0.004935
    14  C   -0.000008   0.003684  -0.040967  -0.007004   0.003506  -0.001810
    15  N   -0.000000  -0.000115  -0.011727  -0.040584  -0.032775  -0.050012
    16  C    0.000000  -0.000003   0.007614   0.376041   0.375257   0.363841
    17  C    0.000000   0.000002  -0.000041   0.004554  -0.006983   0.000874
    18  C    0.000067   0.000707   0.005695  -0.000248  -0.000140   0.000206
    19  C    0.002089   0.006207   0.000652   0.000003   0.000003  -0.000015
    20  C   -0.006139   0.000287  -0.000001   0.000000  -0.000000  -0.000000
    21  H    0.000025   0.000003   0.000000  -0.000000   0.000000   0.000000
    22  H   -0.000205   0.003785   0.000004   0.000000   0.000000   0.000000
    23  H   -0.000023   0.000062   0.000000   0.000000  -0.000000  -0.000000
    24  H   -0.000005   0.000037   0.000000  -0.000000   0.000000   0.000000
    25  H    0.000000  -0.000000  -0.000000  -0.000000  -0.000000  -0.000000
    26  H   -0.000101   0.000005   0.000000   0.000000  -0.000000  -0.000000
    27  H   -0.000046  -0.000000  -0.000000  -0.000000  -0.000000   0.000000
    28  H    0.005786  -0.000000   0.000000   0.000000   0.000000  -0.000000
    29  H   -0.003965   0.000000   0.000000  -0.000000   0.000000   0.000000
    30  H   -0.039455   0.000002   0.000000   0.000000   0.000000  -0.000000
    31  H    0.603543  -0.000000   0.000000  -0.000000   0.000000   0.000000
    32  H   -0.000000   0.616893  -0.006433  -0.000002  -0.000000  -0.000002
    33  H    0.000000  -0.006433   0.611549   0.000443  -0.000010   0.000827
    34  H   -0.000000  -0.000002   0.000443   0.577308  -0.025668  -0.051922
    35  H    0.000000  -0.000000  -0.000010  -0.025668   0.559822  -0.033689
    36  H    0.000000  -0.000002   0.000827  -0.051922  -0.033689   0.616205
    37  H    0.000000   0.000000   0.000004  -0.000437  -0.000293   0.002461
    38  H   -0.000000   0.000000  -0.000004   0.000016   0.000372  -0.000437
    39  H    0.000000  -0.000000  -0.000004   0.000378   0.006925  -0.000294
    40  H    0.000003   0.000019  -0.000186  -0.000004  -0.000004   0.000004
    41  H    0.001942  -0.000208   0.000018   0.000000  -0.000000   0.000000
    42  H    0.005473   0.000080   0.000000  -0.000000  -0.000000   0.000000
    43  H   -0.000053   0.003792   0.000006   0.000000   0.000000   0.000000
              37         38         39         40         41         42
     1  O    0.000000  -0.000000   0.000000   0.000000  -0.000000   0.000000
     2  C    0.000000  -0.000000   0.000000  -0.000000  -0.000016   0.000140
     3  C   -0.000000   0.000000  -0.000000  -0.000000  -0.000006  -0.000152
     4  C    0.000000  -0.000000   0.000000   0.000002   0.000223   0.005978
     5  C    0.000000   0.000000  -0.000000  -0.000000  -0.000001   0.005149
     6  C    0.000000  -0.000000  -0.000000  -0.000000  -0.000007  -0.034113
     7  C   -0.000000   0.000000   0.000000  -0.000000  -0.000004  -0.004021
     8  C   -0.000000   0.000000  -0.000000  -0.000000   0.000040  -0.001165
     9  C    0.000000   0.000000   0.000000   0.000003   0.007518  -0.006070
    10  C    0.000000  -0.000000  -0.000000  -0.000165  -0.015850  -0.034972
    11  C   -0.000006  -0.000008   0.000000   0.003637  -0.039465  -0.001230
    12  C   -0.000013   0.000003   0.000003   0.000656   0.006583  -0.000169
    13  C    0.000184  -0.000249  -0.000141   0.005669   0.000650  -0.000060
    14  C   -0.001821  -0.007166   0.003496  -0.041532   0.003733  -0.000012
    15  N   -0.050065  -0.040439  -0.032794  -0.011793  -0.000109  -0.000000
    16  C    0.000848   0.004578  -0.007023  -0.000039   0.000002   0.000000
    17  C    0.363987   0.375942   0.375169   0.007588  -0.000006   0.000000
    18  C    0.005068   0.004326   0.000443   0.347431  -0.046695  -0.000030
    19  C   -0.000083   0.000341  -0.000005  -0.038193   0.350454   0.001297
    20  C   -0.000000   0.000000   0.000000   0.000001   0.000226   0.358933
    21  H    0.000000  -0.000000   0.000000   0.000000   0.000000   0.000018
    22  H   -0.000000   0.000000  -0.000000   0.000000  -0.000008  -0.000068
    23  H   -0.000000   0.000000   0.000000   0.000001  -0.000036  -0.000168
    24  H    0.000000  -0.000000   0.000000   0.000000   0.000000  -0.000059
    25  H   -0.000000  -0.000000  -0.000000  -0.000000   0.000000  -0.000163
    26  H   -0.000000   0.000000   0.000000   0.000000   0.000000  -0.003504
    27  H    0.000000  -0.000000  -0.000000  -0.000000  -0.000000  -0.000031
    28  H   -0.000000   0.000000   0.000000   0.000000  -0.000002   0.004642
    29  H    0.000000  -0.000000   0.000000   0.000000   0.000006  -0.000076
    30  H   -0.000000   0.000000   0.000000   0.000003   0.002068  -0.000073
    31  H    0.000000  -0.000000   0.000000   0.000003   0.001942   0.005473
    32  H    0.000000   0.000000  -0.000000   0.000019  -0.000208   0.000080
    33  H    0.000004  -0.000004  -0.000004  -0.000186   0.000018   0.000000
    34  H   -0.000437   0.000016   0.000378  -0.000004   0.000000  -0.000000
    35  H   -0.000293   0.000372   0.006925  -0.000004  -0.000000  -0.000000
    36  H    0.002461  -0.000437  -0.000294   0.000004   0.000000   0.000000
    37  H    0.615886  -0.051848  -0.033774   0.000841  -0.000001   0.000000
    38  H   -0.051848   0.576604  -0.025621   0.000405  -0.000003  -0.000000
    39  H   -0.033774  -0.025621   0.560242  -0.000008  -0.000000   0.000000
    40  H    0.000841   0.000405  -0.000008   0.611351  -0.006393   0.000001
    41  H   -0.000001  -0.000003  -0.000000  -0.006393   0.612230  -0.000023
    42  H    0.000000  -0.000000   0.000000   0.000001  -0.000023   0.604033
    43  H    0.000000  -0.000000   0.000000   0.000000  -0.000005  -0.034551
              43
     1  O    0.000000
     2  C    0.000146
     3  C   -0.001138
     4  C   -0.005006
     5  C   -0.003719
     6  C   -0.034415
     7  C    0.005170
     8  C   -0.000069
     9  C    0.005896
    10  C   -0.033337
    11  C   -0.008416
    12  C    0.004897
    13  C   -0.000013
    14  C   -0.000005
    15  N   -0.000000
    16  C    0.000000
    17  C    0.000000
    18  C    0.000004
    19  C   -0.000211
    20  C    0.358466
    21  H   -0.000060
    22  H    0.003556
    23  H   -0.000055
    24  H    0.004765
    25  H   -0.000045
    26  H   -0.003792
    27  H   -0.000165
    28  H   -0.000050
    29  H    0.000017
    30  H   -0.000172
    31  H   -0.000053
    32  H    0.003792
    33  H    0.000006
    34  H    0.000000
    35  H    0.000000
    36  H    0.000000
    37  H    0.000000
    38  H   -0.000000
    39  H    0.000000
    40  H    0.000000
    41  H   -0.000005
    42  H   -0.034551
    43  H    0.607387
 Mulliken charges:
               1
     1  O   -0.462393
     2  C    0.454742
     3  C   -0.166219
     4  C   -0.287227
     5  C   -0.280379
     6  C   -0.094978
     7  C   -0.279478
     8  C   -0.166629
     9  C   -0.306356
    10  C    0.001485
    11  C    0.167370
    12  C   -0.196519
    13  C   -0.198765
    14  C    0.371373
    15  N   -0.474525
    16  C   -0.309627
    17  C   -0.309070
    18  C   -0.202429
    19  C   -0.203967
    20  C   -0.272087
    21  H    0.140466
    22  H    0.137592
    23  H    0.148021
    24  H    0.135003
    25  H    0.142674
    26  H    0.124265
    27  H    0.142538
    28  H    0.136918
    29  H    0.139965
    30  H    0.147805
    31  H    0.140700
    32  H    0.118723
    33  H    0.120827
    34  H    0.162788
    35  H    0.153243
    36  H    0.148910
    37  H    0.149060
    38  H    0.163188
    39  H    0.153009
    40  H    0.120702
    41  H    0.123141
    42  H    0.134964
    43  H    0.131173
 Sum of Mulliken charges =  -0.00000
 Mulliken charges with hydrogens summed into heavy atoms:
               1
     1  O   -0.462393
     2  C    0.454742
     3  C   -0.025753
     4  C   -0.001614
     5  C   -0.002701
     6  C    0.029287
     7  C   -0.000021
     8  C   -0.026664
     9  C   -0.017851
    10  C    0.001485
    11  C    0.167370
    12  C   -0.077795
    13  C   -0.077937
    14  C    0.371373
    15  N   -0.474525
    16  C    0.155314
    17  C    0.156187
    18  C   -0.081727
    19  C   -0.080826
    20  C   -0.005950
 APT charges:
               1
     1  O   -0.653410
     2  C    0.699716
     3  C   -0.053700
     4  C    0.074454
     5  C    0.117102
     6  C    0.104741
     7  C    0.113516
     8  C   -0.035515
     9  C    0.081991
    10  C    0.141882
    11  C   -0.111769
    12  C    0.059354
    13  C   -0.188991
    14  C    0.619556
    15  N   -0.933623
    16  C    0.397763
    17  C    0.398009
    18  C   -0.202786
    19  C    0.072138
    20  C    0.042764
    21  H   -0.065363
    22  H   -0.032373
    23  H   -0.031317
    24  H   -0.044053
    25  H   -0.050760
    26  H   -0.087137
    27  H   -0.049444
    28  H   -0.044180
    29  H   -0.059682
    30  H   -0.030783
    31  H   -0.037174
    32  H    0.017958
    33  H    0.018296
    34  H   -0.023682
    35  H   -0.015691
    36  H   -0.071466
    37  H   -0.071324
    38  H   -0.023152
    39  H   -0.015935
    40  H    0.018244
    41  H    0.029025
    42  H   -0.039268
    43  H   -0.033931
 Sum of APT charges =   0.00000
 APT charges with hydrogens summed into heavy atoms:
               1
     1  O   -0.653410
     2  C    0.699716
     3  C   -0.119064
     4  C    0.010764
     5  C    0.022288
     6  C    0.017604
     7  C    0.019892
     8  C   -0.095198
     9  C    0.014034
    10  C    0.141882
    11  C   -0.111769
    12  C    0.077312
    13  C   -0.170695
    14  C    0.619556
    15  N   -0.933623
    16  C    0.286924
    17  C    0.287599
    18  C   -0.184542
    19  C    0.101163
    20  C   -0.030434
 Electronic spatial extent (au):  <R**2>=           7236.5077
 Charge=             -0.0000 electrons
 Dipole moment (field-independent basis, Debye):
    X=             -3.9773    Y=              1.5405    Z=              1.5756  Tot=              4.5469
 Quadrupole moment (field-independent basis, Debye-Ang):
   XX=           -114.7189   YY=           -115.9770   ZZ=           -124.7217
   XY=              8.5908   XZ=             11.9813   YZ=             -5.3207
 Traceless Quadrupole moment (field-independent basis, Debye-Ang):
   XX=              3.7536   YY=              2.4956   ZZ=             -6.2492
   XY=              8.5908   XZ=             11.9813   YZ=             -5.3207
 Octapole moment (field-independent basis, Debye-Ang**2):
  XXX=           -193.2970  YYY=             -0.8903  ZZZ=              0.3964  XYY=            -20.0543
  XXY=             34.4050  XXZ=             34.5332  XZZ=             -4.6499  YZZ=              3.6737
  YYZ=              3.4386  XYZ=            -12.4911
 Hexadecapole moment (field-independent basis, Debye-Ang**3):
 XXXX=          -7509.0745 YYYY=          -1010.3281 ZZZZ=           -695.9489 XXXY=            176.4656
 XXXZ=            248.7726 YYYX=             -5.4382 YYYZ=             -7.4454 ZZZX=             10.3939
 ZZZY=             -3.8787 XXYY=          -1490.3107 XXZZ=          -1553.0179 YYZZ=           -295.2293
 XXYZ=            -92.8601 YYXZ=             12.5247 ZZXY=             24.7897
 N-N= 1.572470737781D+03 E-N=-5.068755702156D+03  KE= 8.217901063960D+02
  Exact polarizability: 268.962   0.113 174.354   1.889  -6.676 135.811
 Approx polarizability: 342.145  -4.859 291.491  -4.606 -12.499 211.290
 Calling FoFJK, ICntrl=    100127 FMM=F ISym2X=0 I1Cent= 0 IOpClX= 0 NMat=1 NMatS=1 NMatT=0.
 Full mass-weighted force constant matrix:
 Low frequencies ---  -16.3648   -3.0766   -0.0009   -0.0004   -0.0003    4.5896
 Low frequencies ---   35.4226   44.0062   77.2164
 Diagonal vibrational polarizability:
       48.5796334      12.4471022      22.0236432
 Harmonic frequencies (cm**-1), IR intensities (KM/Mole), Raman scattering
 activities (A**4/AMU), depolarization ratios for plane and unpolarized
 incident light, reduced masses (AMU), force constants (mDyne/A),
 and normal coordinates:
                      1                      2                      3
                      A                      A                      A
 Frequencies --     35.2994                43.9488                77.2141
 Red. masses --      3.2440                 4.3003                 2.9525
 Frc consts  --      0.0024                 0.0049                 0.0104
 IR Inten    --      0.4188                 1.1465                 0.0535
  Atom  AN      X      Y      Z        X      Y      Z        X      Y      Z
     1   8     0.05   0.09  -0.03     0.15   0.02   0.14    -0.03  -0.04   0.01
     2   6     0.02   0.04  -0.02     0.07   0.00   0.07    -0.01  -0.01   0.01
     3   6     0.02   0.05   0.04     0.06  -0.02   0.01     0.01  -0.01  -0.00
     4   6     0.02   0.05   0.00     0.06  -0.03  -0.07     0.01   0.00  -0.00
     5   6     0.00   0.00   0.09    -0.01   0.00   0.02     0.01  -0.00  -0.01
     6   6    -0.02  -0.06   0.06    -0.07   0.01   0.00     0.00   0.02  -0.01
     7   6    -0.03  -0.08   0.00    -0.08   0.02   0.05    -0.00   0.02   0.01
     8   6    -0.01  -0.03  -0.05    -0.01   0.01   0.04    -0.00   0.01   0.02
     9   6    -0.01  -0.02  -0.08    -0.00  -0.01  -0.04    -0.00   0.01   0.01
    10   6    -0.00  -0.01  -0.03    -0.00  -0.02  -0.09     0.00   0.01   0.00
    11   6    -0.00  -0.01  -0.05    -0.00  -0.03  -0.14     0.00   0.01  -0.01
    12   6     0.01  -0.03  -0.14    -0.00  -0.02  -0.11    -0.00   0.04   0.14
    13   6     0.01  -0.02  -0.13    -0.01  -0.01  -0.06    -0.00   0.03   0.13
    14   6    -0.00   0.01  -0.00    -0.01  -0.01  -0.03     0.00  -0.00  -0.02
    15   7    -0.00   0.03   0.02    -0.00   0.01   0.07     0.00   0.00  -0.00
    16   6     0.00  -0.04  -0.15    -0.04   0.07   0.28     0.01  -0.05  -0.14
    17   6    -0.02   0.04   0.24    -0.03   0.03   0.10    -0.01   0.02   0.20
    18   6    -0.01   0.03   0.09    -0.00  -0.02  -0.11     0.01  -0.03  -0.19
    19   6    -0.01   0.02   0.07    -0.00  -0.03  -0.16     0.01  -0.02  -0.18
    20   6    -0.02  -0.06   0.02    -0.07  -0.00  -0.08     0.00   0.02  -0.01
    21   1     0.04   0.10   0.06     0.11  -0.02   0.03     0.01  -0.02  -0.00
    22   1     0.03   0.06   0.03     0.06  -0.04  -0.10     0.01   0.00  -0.00
    23   1     0.04   0.08  -0.03     0.11  -0.05  -0.08     0.00   0.00   0.00
    24   1     0.00   0.01   0.13    -0.01  -0.00  -0.01     0.02  -0.00  -0.02
    25   1     0.00   0.00   0.12    -0.01   0.01   0.07     0.01  -0.01  -0.01
    26   1    -0.04  -0.10   0.10    -0.12   0.03   0.01     0.00   0.02  -0.01
    27   1    -0.03  -0.08   0.03    -0.08   0.03   0.11    -0.00   0.01   0.02
    28   1    -0.05  -0.12  -0.02    -0.13   0.03   0.04    -0.00   0.03   0.02
    29   1    -0.01  -0.03  -0.09    -0.00   0.01   0.08    -0.01   0.01   0.04
    30   1    -0.00   0.01  -0.11     0.05  -0.02  -0.05     0.01   0.01   0.01
    31   1    -0.01  -0.06  -0.10    -0.05  -0.00  -0.06    -0.02   0.02   0.01
    32   1     0.01  -0.04  -0.22    -0.00  -0.02  -0.12    -0.01   0.07   0.26
    33   1     0.01  -0.03  -0.20    -0.01  -0.01  -0.03    -0.01   0.06   0.27
    34   1    -0.00   0.04  -0.27     0.06   0.01   0.34    -0.12  -0.00  -0.16
    35   1     0.00  -0.03  -0.13    -0.03   0.09   0.40     0.00  -0.10  -0.27
    36   1     0.01  -0.19  -0.17    -0.17   0.17   0.27     0.13  -0.10  -0.12
    37   1    -0.08  -0.10   0.32    -0.11   0.04   0.07    -0.18  -0.06   0.21
    38   1     0.02   0.17   0.32     0.02   0.00   0.07     0.14   0.09   0.20
    39   1    -0.02   0.06   0.27    -0.03   0.05   0.19    -0.01   0.03   0.38
    40   1    -0.02   0.05   0.18    -0.01  -0.03  -0.12     0.02  -0.06  -0.33
    41   1    -0.01   0.03   0.14    -0.00  -0.04  -0.20     0.02  -0.05  -0.31
    42   1    -0.05  -0.10   0.00    -0.12   0.01  -0.09     0.00   0.03  -0.00
    43   1    -0.03  -0.06   0.06    -0.07  -0.01  -0.11     0.01   0.02  -0.01
                      4                      5                      6
                      A                      A                      A
 Frequencies --     83.2274               103.2752               120.2444
 Red. masses --      6.1256                 3.9715                 2.7274
 Frc consts  --      0.0250                 0.0250                 0.0232
 IR Inten    --      1.9575                 2.3492                 9.4295
  Atom  AN      X      Y      Z        X      Y      Z        X      Y      Z
     1   8     0.34   0.21   0.13     0.13  -0.01   0.10    -0.10  -0.04  -0.05
     2   6     0.07   0.04  -0.01     0.02  -0.05   0.01     0.01   0.02   0.01
     3   6    -0.09  -0.04  -0.07     0.04  -0.04  -0.02     0.03   0.03   0.02
     4   6    -0.08  -0.12  -0.02     0.03   0.06  -0.05     0.04  -0.02  -0.03
     5   6    -0.11   0.01  -0.10     0.10  -0.08  -0.00    -0.03   0.04   0.04
     6   6    -0.02  -0.00  -0.08     0.04  -0.05  -0.02    -0.06   0.03   0.02
     7   6     0.03   0.02  -0.07    -0.07  -0.09  -0.00    -0.03   0.05   0.04
     8   6     0.02  -0.01  -0.05    -0.09  -0.05  -0.03     0.04   0.03   0.03
     9   6     0.02  -0.07  -0.00    -0.08   0.04  -0.08     0.04  -0.02  -0.02
    10   6    -0.02  -0.09   0.01    -0.01   0.08  -0.06     0.01  -0.04  -0.05
    11   6    -0.03  -0.08   0.06    -0.02   0.11  -0.03     0.02  -0.05  -0.06
    12   6     0.01  -0.05   0.12    -0.05   0.10   0.02     0.03  -0.04  -0.03
    13   6     0.01   0.00   0.13    -0.06   0.06   0.09     0.03  -0.02   0.04
    14   6    -0.03   0.02   0.08    -0.03   0.04   0.09     0.01   0.01   0.10
    15   7    -0.03   0.08   0.03    -0.04  -0.03   0.13    -0.01   0.06   0.21
    16   6     0.06   0.07  -0.14    -0.09  -0.14  -0.05     0.05  -0.02  -0.08
    17   6    -0.08   0.10  -0.05     0.07  -0.10  -0.07    -0.01   0.05  -0.09
    18   6    -0.07  -0.01   0.05     0.02   0.06   0.05     0.00  -0.01   0.03
    19   6    -0.06  -0.06   0.04     0.01   0.10  -0.01     0.01  -0.04  -0.04
    20   6    -0.02  -0.07  -0.02     0.03   0.05  -0.05    -0.05  -0.02  -0.03
    21   1    -0.13  -0.04  -0.09     0.08  -0.05  -0.01     0.05   0.04   0.03
    22   1    -0.13  -0.15  -0.05     0.10   0.10  -0.03     0.01  -0.03  -0.04
    23   1    -0.08  -0.16   0.02     0.00   0.10  -0.06     0.09  -0.03  -0.04
    24   1    -0.18  -0.02  -0.10     0.18  -0.04  -0.00    -0.06   0.03   0.02
    25   1    -0.11   0.07  -0.15     0.11  -0.17   0.02    -0.04   0.08   0.07
    26   1    -0.02   0.02  -0.10     0.06  -0.07  -0.01    -0.11   0.04   0.03
    27   1     0.03   0.05  -0.11    -0.06  -0.17   0.04    -0.03   0.08   0.07
    28   1     0.07   0.03  -0.05    -0.13  -0.08  -0.02    -0.04   0.04   0.03
    29   1     0.07   0.01  -0.04    -0.15  -0.08  -0.03     0.06   0.04   0.04
    30   1     0.02  -0.08   0.01    -0.11   0.08  -0.10     0.08  -0.03  -0.02
    31   1     0.06  -0.08   0.01    -0.12   0.04  -0.09     0.02  -0.02  -0.03
    32   1     0.04  -0.06   0.15    -0.08   0.11   0.01     0.03  -0.05  -0.06
    33   1     0.04   0.03   0.17    -0.09   0.05   0.12     0.04  -0.00   0.06
    34   1     0.02   0.10  -0.17    -0.08  -0.04  -0.21     0.18   0.12  -0.35
    35   1     0.04   0.11  -0.25    -0.08  -0.15   0.03     0.05   0.10   0.08
    36   1     0.19  -0.02  -0.12    -0.14  -0.31  -0.10    -0.02  -0.35  -0.16
    37   1    -0.11   0.15  -0.10     0.15   0.05  -0.15    -0.14   0.32  -0.31
    38   1    -0.09   0.04  -0.09     0.11  -0.20  -0.15     0.12  -0.21  -0.31
    39   1    -0.07   0.14  -0.03     0.06  -0.20  -0.06    -0.00   0.05   0.14
    40   1    -0.10  -0.00   0.02     0.05   0.05   0.07    -0.00  -0.01   0.03
    41   1    -0.08  -0.08   0.01     0.03   0.10  -0.04     0.00  -0.05  -0.08
    42   1     0.03  -0.07  -0.00    -0.01   0.08  -0.06    -0.08  -0.03  -0.04
    43   1    -0.06  -0.08  -0.00     0.10   0.08  -0.07    -0.08  -0.03  -0.04
                      7                      8                      9
                      A                      A                      A
 Frequencies --    156.0915               188.1726               222.2856
 Red. masses --      1.6728                 1.6463                 3.6611
 Frc consts  --      0.0240                 0.0343                 0.1066
 IR Inten    --      0.4230                 0.0159                 0.5759
  Atom  AN      X      Y      Z        X      Y      Z        X      Y      Z
     1   8     0.03   0.03   0.00    -0.01   0.01  -0.01    -0.01   0.05   0.06
     2   6    -0.01  -0.00  -0.01    -0.00   0.00   0.00    -0.11  -0.01   0.00
     3   6    -0.03  -0.01  -0.00    -0.02  -0.01   0.00    -0.13  -0.03  -0.02
     4   6    -0.02   0.00   0.05    -0.01  -0.06  -0.00    -0.11  -0.01   0.02
     5   6     0.01  -0.01  -0.02    -0.07   0.02   0.00    -0.12  -0.02  -0.03
     6   6     0.06  -0.01  -0.00    -0.03  -0.00   0.01    -0.05  -0.02  -0.00
     7   6     0.07  -0.01  -0.03     0.01   0.01  -0.01    -0.07  -0.04  -0.03
     8   6     0.01  -0.01  -0.00     0.01  -0.00   0.01    -0.12  -0.03  -0.01
     9   6     0.00   0.01   0.06     0.01  -0.03   0.01    -0.10   0.00   0.03
    10   6     0.00   0.01   0.07    -0.00  -0.04   0.00    -0.04   0.02   0.04
    11   6    -0.00   0.02   0.05     0.00  -0.00  -0.01     0.02   0.04   0.01
    12   6    -0.00   0.00  -0.02     0.03   0.02   0.01     0.05   0.04  -0.07
    13   6    -0.01  -0.01  -0.09     0.03   0.06   0.01     0.07   0.02  -0.08
    14   6    -0.01  -0.00  -0.06     0.02   0.07  -0.01     0.11   0.01  -0.02
    15   7    -0.02   0.01   0.03     0.02   0.03   0.01     0.13   0.00   0.08
    16   6    -0.07  -0.03   0.01    -0.07  -0.03  -0.00     0.15  -0.01   0.03
    17   6    -0.04   0.02   0.00     0.12  -0.03   0.02     0.17  -0.02   0.01
    18   6    -0.01  -0.00  -0.08    -0.01   0.05  -0.03     0.09  -0.00  -0.05
    19   6    -0.01   0.01  -0.01    -0.01   0.01  -0.04     0.07   0.02  -0.02
    20   6     0.05   0.00   0.06    -0.02  -0.05   0.02    -0.04  -0.00   0.05
    21   1    -0.06  -0.02  -0.02    -0.02  -0.00   0.00    -0.13  -0.03  -0.02
    22   1    -0.02   0.01   0.06    -0.04  -0.08  -0.03    -0.11  -0.01   0.02
    23   1    -0.06   0.00   0.06     0.01  -0.09   0.02    -0.16  -0.02   0.05
    24   1     0.01  -0.01  -0.01    -0.13  -0.01   0.00    -0.17  -0.03  -0.01
    25   1     0.01  -0.02  -0.06    -0.08   0.09  -0.01    -0.13   0.03  -0.08
    26   1     0.09  -0.01  -0.01    -0.04   0.00   0.00     0.00  -0.03  -0.02
    27   1     0.07  -0.02  -0.08     0.01   0.04  -0.03    -0.07  -0.06  -0.06
    28   1     0.12  -0.01  -0.01     0.04   0.01   0.00    -0.05  -0.03  -0.02
[...]
 7,-0.00001004,0.00000435,-0.00000011,-0.00002081,0.00000669,0.00000253
 ,-0.00000998,-0.00000383,0.00000126,0.00000367,0.00001105,0.00000463,-
 0.00000984,-0.00000932,-0.00000002,0.00000011,0.00000008,-0.00000578,0
 .00000644,0.00007854,-0.00001042,-0.00013238,-0.00005569,-0.00010715,-
 0.00000222,-0.00020829,0.00021670,0.00038117,-0.00093597,-0.00076484,0
 .00112100,-0.00022904,-0.00022859,0.00029203,-0.00928398,-0.00256225,0
 .01156797,0.00739467,0.00216060,-0.00660621,-0.14297213,-0.02686633,0.
 19174534,-0.00003725,-0.00000518,-0.00000677,0.00005858,0.00000883,-0.
 00000894,0.00000065,0.00002785,-0.00001501,0.00007861,-0.00007713,0.00
 004939,0.00000918,-0.00001988,-0.00000019,0.00009050,-0.00001828,0.000
 05699,0.00000411,0.00001220,0.00000601,-0.00000507,-0.00003036,-0.0000
 0522,0.00000927,0.00010995,-0.00004740,0.00061995,0.00046277,0.0005025
 2,0.00121293,-0.00277113,0.00495831,-0.00070469,-0.00041686,0.00051757
 ,-0.00038184,-0.00423401,0.00272279,0.00370413,-0.01421663,-0.01498445
 ,-0.00051487,0.00178536,-0.00087236,-0.00010642,0.00008790,-0.00011581
 ,-0.00113759,-0.00116894,0.00083872,-0.04574956,-0.02327429,-0.0014147
 3,0.00284845,0.01590630,0.01323797,-0.00025307,-0.00002912,0.00021906,
 -0.00000997,0.00000105,0.00000996,-0.00001123,0.00001800,-0.00000412,-
 0.00001403,0.00001526,-0.00001565,0.00000059,0.00000185,-0.00000191,-0
 .00000536,0.00000416,0.00000232,-0.00002279,-0.00000134,0.00003995,-0.
 00000733,-0.00000666,0.00000186,0.00000060,-0.00000017,-0.00000119,-0.
 00001432,-0.00000419,0.00001233,-0.00003016,-0.00001333,0.00001410,0.0
 0003928,-0.00003142,0.00000007,-0.00042887,0.00040057,-0.00039016,0.00
 004159,-0.00082417,-0.00084816,0.00001289,-0.00002998,0.00002329,-0.00
 001756,0.00001450,0.00004182,0.00007774,0.00015477,-0.00007639,0.00030
 281,0.00017889,-0.00036043,-0.00182509,0.00034543,0.00230411,-0.000127
 10,0.00031761,-0.00019096,0.04378141,0.00005933,-0.00000647,0.00000637
 ,-0.00007309,0.00001829,-0.00000843,-0.00002385,0.00000765,0.00001221,
 -0.00010371,0.00001134,0.00003516,-0.00000411,0.00001060,-0.00000579,-
 0.00004613,0.00001472,-0.00001336,0.00000939,-0.00001259,-0.00001023,-
 0.00000995,-0.00000319,0.00000785,0.00004857,-0.00005681,-0.00001335,-
 0.00035063,0.00024093,0.00002098,-0.00221497,0.00321848,-0.00058424,-0
 .00056819,-0.00004329,0.00083041,-0.00509470,-0.00146298,0.00073203,0.
 00121976,-0.01311254,-0.01818755,0.00147472,0.00002274,0.00021108,0.00
 001906,-0.00028723,0.00030997,0.00041640,-0.00098511,-0.00093549,-0.02
 403210,-0.20819993,-0.14701570,0.00014840,0.00351591,0.00253279,0.0001
 1010,0.00000059,-0.00011259,0.00000233,-0.00000310,-0.00000144,0.00001
 194,-0.00000087,0.00001220,0.00000385,-0.00000048,0.00000677,-0.000000
 66,0.00000131,0.00000441,0.00000795,-0.00000201,-0.00000683,0.00001124
 ,-0.00000119,-0.00002518,0.00000655,0.00000461,-0.00001027,-0.00000168
 ,-0.00000059,0.00000437,0.00001136,0.00000421,-0.00000911,-0.00001590,
 0.00001054,-0.00002338,-0.00001869,-0.00000787,0.00002141,0.00040949,-
 0.00025950,0.00018507,0.00014393,-0.00081676,-0.00097830,0.00017878,0.
 00014862,0.00002604,-0.00007803,0.00001290,0.00010207,-0.00009737,0.00
 002080,-0.00000120,0.00018736,-0.00021291,0.00093692,0.00027793,0.0012
 3710,-0.00100087,0.00049447,0.00053577,0.00013607,0.02547610,0.2166133
 3,0.00009058,0.00002881,0.00001519,-0.00011196,-0.00006611,-0.00001674
 ,0.00009171,-0.00007416,0.00003368,0.00012075,0.00014385,-0.00030970,0
 .00000476,0.00001990,0.00002149,-0.00009427,-0.00000805,-0.00002257,0.
 00000129,-0.00003099,0.00001427,0.00002735,0.00003132,0.00002796,-0.00
 011676,-0.00011441,-0.00004805,-0.00029678,-0.00104663,-0.00004962,0.0
 0552882,0.00014232,-0.00079690,0.00046066,0.00075988,0.00003404,0.0019
 7469,-0.00018635,0.00182422,0.00061267,0.00319485,0.00579392,-0.001290
 77,-0.00010634,-0.00087006,-0.00012969,0.00027363,-0.00003787,0.002330
 24,0.00072807,-0.00209175,-0.00225739,-0.14839812,-0.17805344,-0.00269
 893,-0.01963326,-0.01476363,0.00023396,-0.00005596,-0.00000907,0.00004
 049,-0.00000343,-0.00005075,-0.00001810,0.00000278,-0.00000558,0.00000
 597,0.00000327,0.00001524,-0.00000600,0.00000084,0.00000398,0.00000607
 ,-0.00000268,-0.00001472,0.00001855,0.00000168,-0.00004472,0.00000900,
 0.00000486,-0.00000920,-0.00001037,0.00000999,0.00000056,0.00002864,0.
 00001094,-0.00002703,0.00001809,-0.00000461,0.00004193,0.00000821,0.00
 002436,-0.00001169,-0.00039548,0.00016415,-0.00029095,0.00004879,0.000
 25559,0.00028179,-0.00006893,-0.00010907,-0.00000254,-0.00004886,-0.00
 002673,0.00005941,0.00006049,0.00000852,-0.00003556,0.00057765,-0.0001
 4127,-0.00080183,0.00120977,0.00062400,-0.00119680,0.00013917,0.000626
 83,0.00006608,-0.00433866,0.16148234,0.19160414,-0.00003128,0.00003279
 ,-0.00003257,-0.00002069,-0.00009542,0.00012971,-0.00001847,0.00013286
 ,-0.00006365,-0.00018907,0.00005610,0.00037856,-0.00001294,0.00000589,
 -0.00000345,-0.00018943,0.00001597,-0.00011074,0.00005760,-0.00005258,
 -0.00001320,-0.00016771,0.00058121,0.00009227,-0.00055623,0.00007276,0
 .00242493,-0.00237628,0.00094538,-0.00102142,0.00327715,-0.00048566,-0
 .00030978,0.00340500,-0.00149680,0.00165757,0.00011359,0.00054512,0.00
 015084,0.00265970,-0.00114382,0.00534911,-0.00037736,-0.00099401,0.000
 10429,-0.00020919,0.00027125,0.00015867,-0.00002401,-0.00022568,-0.000
 20448,-0.00955377,-0.01564385,0.00078506,-0.15367772,-0.14385118,0.019
 91077,0.00051900,-0.00026646,-0.00039773,-0.00000702,-0.00000600,0.000
 02121,-0.00000124,0.00000432,-0.00001240,-0.00001348,0.00002096,0.0000
 0892,-0.00000027,0.00000415,0.00000382,0.00000456,-0.00000290,-0.00000
 739,0.00004143,-0.00000237,-0.00006727,-0.00000285,0.00000520,-0.00001
 438,-0.00000770,0.00002138,-0.00001366,0.00004338,-0.00001158,-0.00004
 300,-0.00114116,0.00010858,0.00136110,-0.00039302,0.00040951,0.0001241
 5,0.00028458,-0.00007286,0.00023647,-0.00053229,0.00029237,-0.00036770
 ,-0.00001745,-0.00004078,-0.00000370,-0.00009188,-0.00008188,0.0000223
 2,0.00003651,-0.00000564,-0.00001147,0.00005155,0.00001632,0.00002643,
 0.00000885,0.00002946,-0.00000398,0.00000002,0.00000988,0.00004403,-0.
 00148064,0.00198512,-0.00172632,0.16063898,-0.00007720,0.00017198,-0.0
 0001394,0.00004273,-0.00046378,0.00011018,0.00014040,-0.00006197,-0.00
 000955,0.00014754,0.00007605,-0.00053136,-0.00001185,-0.00001415,-0.00
 002758,0.00002348,-0.00003641,0.00005866,-0.00020092,0.00001625,0.0000
 7832,0.00039773,0.00060710,0.00034699,-0.00102568,0.00022142,0.0004379
 9,0.00017253,-0.00117737,0.00244217,-0.01468107,-0.01391863,0.00300377
 ,-0.00087325,-0.00089159,-0.00538120,0.00053457,0.00032159,-0.00026036
 ,-0.00152086,0.00325406,-0.00195563,-0.00043007,0.00000496,0.00017441,
 0.00016748,0.00013942,0.00003903,-0.00007863,-0.00014988,-0.00012523,0
 .00016668,0.00153449,-0.00107497,-0.14343406,-0.22556356,0.00886561,-0
 .00011215,0.00008930,0.00011114,0.00003474,0.00002263,-0.00004818,-0.0
 0000996,0.00013644,0.00005992,0.00004235,-0.00004790,0.00002446,0.0000
 1100,0.00002799,0.00001129,0.00000255,-0.00000709,-0.00000423,0.000011
 58,0.00002128,0.00001737,0.00006570,0.00001925,0.00009575,0.00001302,0
 .00000255,-0.00001190,0.00001678,-0.00000802,-0.00003601,0.00093841,-0
 .00002059,0.00032889,-0.00057022,0.00049088,0.00044816,-0.00099310,-0.
 00078402,0.00012925,0.00029806,-0.00027031,0.00033897,0.00001259,-0.00
 000888,-0.00001862,0.00001249,-0.00000581,0.00002883,-0.00002050,-0.00
 007166,0.00000182,0.00004056,0.00002902,0.00002783,0.00001880,0.000026
 97,-0.00000717,-0.00001277,-0.00000283,0.00002102,0.00183236,-0.000178
 32,0.00144666,0.15885857,0.23638487,-0.00022011,0.00016100,-0.00005835
 ,0.00019791,-0.00041451,0.00014406,-0.00004418,0.00013650,-0.00007423,
 0.00001551,0.00001644,0.00044444,-0.00000591,-0.00000877,-0.00003568,-
 0.00008478,-0.00002000,-0.00007510,-0.00008145,-0.00005090,-0.00003344
 ,-0.00005365,0.00033357,-0.00015247,0.00130954,-0.00096682,-0.00177380
 ,-0.00188126,0.00128979,0.00006507,-0.01428178,-0.01625730,0.00705851,
 0.00221104,-0.00458460,-0.00187713,0.00027754,-0.00028237,-0.00087944,
 0.00514327,-0.00236189,-0.00195025,0.00054082,0.00119847,0.00041246,0.
 00011016,-0.00016631,-0.00031080,0.00002081,0.00012418,0.00014089,0.01
 640853,0.02079694,0.00054201,0.02023092,0.00900166,-0.05490301,0.00024
 139,0.00000805,-0.00028874,-0.00002418,0.00002685,0.00003518,-0.000040
 41,0.00015918,0.00002737,-0.00001999,-0.00002522,0.00000887,0.00001346
 ,0.00002334,0.00000622,-0.00000187,-0.00000200,0.00000479,0.00003608,0
 .00001643,-0.00000696,0.00002483,0.00001567,0.00006233,0.00001070,0.00
 001890,-0.00002466,-0.00002886,-0.00001438,0.00003959,0.00069218,-0.00
 000727,-0.00044606,0.00064067,0.00056259,-0.00163471,-0.00069509,-0.00
 119703,0.00033332,-0.00038232,0.00030832,-0.00018743,-0.00000123,-0.00
 001195,0.00002951,0.00004913,0.00010805,-0.00004544,0.00000119,0.00002
 559,0.00000436,-0.00000426,-0.00000186,-0.00004363,0.00001946,-0.00004
 099,0.00000311,-0.00000120,-0.00002672,-0.00002739,-0.00184447,0.00130
 046,-0.00026935,-0.02851794,-0.00926729,0.05565817,-0.00001508,-0.0003
 7665,-0.00000210,0.00021595,0.00096311,-0.00000047,0.00047026,-0.00043
 343,-0.00002753,-0.00119582,-0.00137365,-0.00358059,-0.00113561,-0.001
 58528,0.00383911,-0.01184821,0.01542898,-0.00000457,0.00030639,0.00146
 195,-0.00073351,-0.00010198,-0.00049102,-0.00001030,0.00026000,0.00151
 213,0.00069154,-0.01159086,0.01492628,-0.00121256,0.00017344,-0.000597
 58,0.00104411,0.00032707,-0.00017263,-0.00024562,-0.00015483,0.0001852
 8,0.00014925,-0.00006911,-0.00010982,-0.00008144,0.00000639,-0.0000051
 0,0.00002652,0.00000410,0.00001801,-0.00000228,0.00000370,-0.00000075,
 0.00000249,0.00002581,-0.00000444,-0.00013077,0.00024928,-0.00004761,-
 0.00004440,-0.13504547,0.11857045,0.00002231,0.00000003,-0.00001647,0.
 00000654,0.00006905,0.00020714,0.00003757,-0.00057991,0.00103661,-0.00
 002364,0.00012563,0.00023953,-0.00003109,-0.00058085,0.00108662,-0.000
 05291,0.00080699,-0.00034021,0.00001680,0.00041379,-0.00020896,0.00000
 852,-0.00010171,-0.00098400,0.00021600,-0.00005798,-0.00004007,-0.0000
 0211,0.00039266,-0.00022924,0.00002652,-0.00011892,-0.00094573,-0.0002
 3519,0.00007830,0.00001416,0.00001343,0.00000687,-0.00000221,-0.000008
 68,0.00000188,-0.00000051,-0.00000310,-0.00000045,-0.00000035,0.000001
 52,0.00000192,-0.00000540,-0.00000068,-0.00000017,0.00000165,0.0000062
 6,0.00000154,-0.00000244,-0.00000061,-0.00000024,0.00000023,0.00000180
 ,0.00000399,0.00000840,-0.00002308,-0.00002183,-0.00003243,-0.00004064
 ,0.14627837,0.00018319,0.00016136,-0.00000157,-0.00027271,-0.00040645,
 0.00000434,-0.00012344,0.00010755,0.00003293,-0.00022733,0.00109899,0.
 00059314,-0.00043527,0.00103608,-0.00062630,-0.00103943,-0.00034744,-0
 .00026941,-0.00063115,0.00060049,0.00032920,0.00013212,0.00004734,-0.0
 0000845,-0.00071008,0.00055039,-0.00029944,-0.00016071,-0.00114319,0.0
 0022551,0.00007476,0.00061358,-0.00042885,-0.00040594,-0.00049669,-0.0
 0007636,-0.00002355,0.00015047,0.00008549,-0.00001263,-0.00006002,0.00
 005287,-0.00003731,0.00003957,0.00001249,0.00001426,-0.00001028,0.0000
 1515,0.00000514,-0.00001393,0.00001219,0.00000392,0.00006645,0.0000272
 8,-0.00018833,0.00010652,0.00028760,0.11923254,-0.21960298,0.00037488,
 0.00004538,-0.00003778,-0.00001125,-0.00014027,0.00035401,-0.00013928,
 0.00033884,0.00010154,-0.00002730,-0.00012230,0.00043282,0.00012405,0.
 00034076,0.00013007,0.00009841,0.00003993,0.00010320,-0.00056342,-0.00
 003429,0.00021422,-0.00010371,0.00017352,0.00053979,0.00006129,0.00000
 654,0.00002056,0.,-0.00002543,0.00019426,0.00010458,0.00012564,0.00053
 337,-0.00006972,0.00014417,0.00016585,0.00003470,0.00001193,-0.0000218
 5,0.00001196,-0.00000139,-0.00000746,-0.00000201,-0.00000126,0.0000011
 6,0.00000223,-0.00000716,0.00000661,-0.00000718,-0.00000580,0.00000344
 ,-0.00000409,0.00000262,0.00000695,0.00000209,-0.00000021,0.00000046,0
 .00000300,-0.00000653,0.00000321,0.00001995,0.00003310,0.00000443,-0.0
 0000264,-0.13164236,0.23628878,-0.00002152,0.00001563,-0.00002514,0.00
 002666,-0.00004465,-0.00004997,0.00007603,-0.00004218,-0.00043652,-0.0
 0315174,-0.00108941,-0.00535439,0.00323703,0.00134215,-0.00497473,0.01
 659670,-0.02331333,0.00017481,-0.00063533,-0.00105093,0.00101722,-0.00
 001932,0.00000538,-0.00026554,0.00071859,0.00112236,0.00100464,-0.0163
 5871,0.02320001,-0.00173970,-0.00085416,0.00060338,0.00183373,0.000411
 48,0.00017991,-0.00006380,-0.00001751,0.00006620,0.00013213,0.00007690
 ,-0.00003964,-0.00017130,-0.00014580,-0.00000340,0.00014236,0.00003598
 ,0.00006491,-0.00000147,-0.00001013,-0.00004385,-0.00004107,-0.0000126
 7,-0.00007002,-0.00006491,0.00014402,-0.00033010,-0.00004033,0.0003933
 1,-0.00024234,-0.04762863,0.00001608,0.00000140,0.00030193,0.00023210,
 -0.00020950,0.00001391,-0.00147362,0.00151013,0.00019938,-0.00024590,0
 .00030317,-0.00001911,0.00140468,-0.00144012,0.00009765,-0.00083277,-0
 .00017835,0.00091177,-0.00041062,-0.00001789,-0.00007105,-0.00007181,0
 .00070348,0.00007736,-0.00000605,0.00000175,0.00010083,0.00036347,-0.0
 0000423,-0.00002876,0.00005122,-0.00067605,0.00011760,-0.00009504,-0.0
 0006681,0.00001223,-0.00000305,0.00000133,-0.00001348,-0.00000172,-0.0
 0000471,-0.00000847,-0.00000380,-0.00000262,0.00000628,0.00000567,-0.0
 0002341,-0.00000012,0.00001576,0.00000759,0.00001268,0.00000468,0.0000
 0495,-0.00000171,-0.00000359,-0.00000125,0.00000670,-0.00000346,0.0000
 0957,-0.00000450,-0.00003322,0.00000126,-0.00003313,0.00017973,0.00010
 799,0.05507151,-0.00003231,0.00036838,-0.00000455,0.00022754,-0.000943
 68,0.00001320,-0.00009172,0.00046017,0.00000280,0.00045396,-0.00136863
 ,0.00067428,0.00027095,-0.00144963,-0.00075858,-0.01240305,-0.01539643
 ,0.00002245,-0.00113889,0.00164426,0.00382798,0.00044720,0.00039524,-0
 .00004143,-0.00110948,0.00157561,-0.00360129,-0.01196371,-0.01493369,-
 0.00108526,-0.00014714,0.00079498,0.00106104,-0.00004825,-0.00081293,0
 .00053960,0.00028041,0.00022192,-0.00006034,0.00003558,0.00018815,0.00
 009199,-0.00000018,0.00004540,0.00000729,0.00000557,-0.00001100,0.0000
 0156,-0.00002177,-0.00001779,-0.00001483,-0.00013669,-0.00002620,0.000
 21009,0.00020729,-0.00028384,-0.00028599,-0.14079623,-0.12123800,-0.00
 283563,-0.00005506,0.00004010,-0.00000048,-0.00008712,0.00084783,-0.00
 020971,0.00033757,0.00018677,0.00000507,-0.00005792,0.00100016,0.00020
 114,0.00042562,0.00020933,0.00001733,0.00087596,0.00034389,-0.00000214
 ,-0.00059314,-0.00107485,-0.00004930,0.00012254,-0.00023437,-0.0000293
 0,-0.00000558,0.00002051,0.00001947,-0.00059533,-0.00109810,-0.0000065
 3,0.00010890,-0.00027596,0.00003533,0.00024464,0.00036407,0.00045110,0
 .00003825,-0.00002475,-0.00001248,0.00000454,-0.00000222,0.00000298,-0
 .00000243,0.00000216,0.00000418,-0.00000642,0.00000127,-0.00000067,0.0
 0000649,0.00000010,-0.00000172,0.00000285,0.00000294,-0.00000449,-0.00
 000104,0.00000045,0.00000622,-0.00001245,0.00001121,-0.00001602,-0.000
 02691,0.00008201,0.00006043,0.01239557,0.01534650,0.00042147,0.1528413
 7,-0.00018885,0.00016372,-0.00000056,0.00026210,-0.00041492,-0.0000039
 6,-0.00007167,0.00001492,0.00001376,0.00055217,0.00058383,0.00000575,0
 .00062163,0.00061368,-0.00029926,0.00096504,-0.00052529,0.00023654,0.0
 0040573,0.00102277,0.00067850,0.00012637,0.00009296,-0.00003874,0.0002
 0458,0.00106598,-0.00057161,0.00078692,-0.00076895,-0.00031301,-0.0006
 6026,0.00013858,0.00048601,0.00010363,-0.00067365,0.00080452,0.0004339
 9,0.00006504,-0.00015063,-0.00000046,0.00021479,0.00002784,0.00004574,
 0.00004747,-0.00001160,-0.00002250,-0.00002189,-0.00001246,-0.00002664
 ,-0.00002248,-0.00002338,-0.00011756,0.00000792,0.00021439,0.00010326,
 -0.00010710,-0.00038246,-0.12154983,-0.21472636,-0.00347250,0.00000016
 ,0.00002076,-0.00001144,-0.00013929,0.00046699,0.00005204,-0.00003942,
 0.00016037,-0.00008016,-0.00016697,0.00052021,-0.00007036,0.00002087,0
 .00021561,0.00010201,-0.00001357,0.00011950,0.00055292,-0.00037163,0.0
 0011930,-0.00009728,0.00012577,0.00044575,-0.00012818,-0.00004729,-0.0
 0003420,0.00001478,-0.00038624,0.00013825,0.00005636,0.00013966,0.0004
 2013,0.00014395,-0.00021408,0.00046294,0.00090415,0.00003171,-0.000011
 25,-0.00001240,0.00001555,0.00000441,0.00000779,-0.00000195,0.00000442
 ,0.00000776,-0.00000241,0.00000317,0.00000182,0.00000977,0.00000126,0.
 00000062,0.00000245,0.00000245,-0.00000439,-0.00000210,0.00000050,0.00
 000613,0.00001789,0.00000010,-0.00000125,0.00002123,0.00007986,0.00007
 884,-0.01601218,-0.02153546,-0.00035773,0.13503867,0.23162388,-0.00004
 432,-0.00002284,-0.00002224,0.00005715,0.00007390,-0.00005340,-0.00007
 017,-0.00000699,-0.00026779,0.00095604,-0.00089547,0.00121804,-0.00062
 710,0.00101822,0.00097820,0.01745194,0.02304094,-0.00001136,0.00328009
 ,-0.00136103,-0.00491524,0.00007557,0.00004478,-0.00046138,-0.00300291
 ,0.00109525,-0.00542226,-0.01648532,-0.02278310,-0.00138466,-0.0005654
 1,-0.00037466,0.00168533,-0.00012009,-0.00053557,-0.00079531,0.0004331
 3,0.00018089,-0.00021153,0.00020873,0.00027036,0.00006694,-0.00009759,
 0.00005199,0.00010292,0.00002413,0.00002973,0.00000204,-0.00003460,-0.
 00005725,-0.00004261,-0.00030359,-0.00004384,0.00029463,0.00028414,-0.
 00030601,-0.00037197,-0.00200805,-0.00234257,-0.04696984,-0.00001508,-
 0.00000117,0.00009859,0.00001473,0.00063377,0.00012708,0.00034366,0.00
 001191,-0.00006722,-0.00008171,-0.00068239,0.00009527,-0.00041472,0.00
 003101,-0.00006648,-0.00079477,0.00021643,0.00094909,0.00140836,0.0014
 1078,0.00008702,-0.00024328,-0.00030097,-0.00002360,0.00001396,-0.0000
 0532,0.00028950,-0.00151070,-0.00149360,0.00008296,0.00022013,0.000221
 47,0.00002298,0.00011096,0.00108875,-0.00123193,-0.00001067,-0.0000084
 8,-0.00003989,0.00000704,-0.00000623,-0.00000032,-0.00000458,0.0000021
 8,0.00001220,-0.00000433,-0.00001443,0.00000143,0.00001736,0.00000628,
 0.00000254,0.00000903,0.00000805,-0.00000839,-0.00000525,0.00000047,0.
 00001298,-0.00001269,0.00001679,-0.00000323,-0.00001081,0.00012347,0.0
 0011096,0.00020786,0.00001766,-0.00019688,0.00134373,0.00164686,0.0563
 2686\\0.00006008,0.00001366,0.00001833,-0.00001129,-0.00001059,0.00001
 109,-0.00000450,-0.00000809,-0.00000483,-0.00001133,-0.00002424,0.0000
 1732,-0.00002092,-0.00000634,0.00000406,0.00001821,-0.00000044,-0.0000
 2222,-0.00000888,0.00000975,-0.00001927,0.00000513,0.00001423,-0.00000
 150,-0.00002811,-0.00003608,0.00003916,-0.00001692,-0.00001104,-0.0000
 0744,-0.00000865,0.00001572,-0.00000792,-0.00000573,-0.00002220,0.0000
 1103,-0.00000289,-0.00001728,0.00000683,0.00001628,0.00001027,-0.00001
 424,-0.00002574,0.00000490,-0.00001401,-0.00000586,-0.00002839,0.00000
 556,0.00000086,0.00000617,0.00002308,0.00001427,0.00002315,-0.00000183
 ,0.00001447,0.00001310,-0.00001270,-0.00002185,0.00002087,-0.00001913,
 -0.00000334,0.00000642,0.00000267,0.00001121,-0.00001248,-0.00000369,0
 .00000392,0.00000408,-0.00001579,0.00000590,0.00000723,0.00000448,-0.0
 0000079,0.00000389,0.00000913,0.00000181,0.00000379,0.00000400,-0.0000
 0164,-0.00000226,0.00000486,-0.00000008,-0.00000571,-0.00000182,-0.000
 00072,0.00000245,0.00000265,-0.00000325,-0.00000727,0.00000104,-0.0000
 0928,-0.00000677,0.00000393,0.00000193,0.00001188,0.00000792,-0.000003
 47,0.00000512,0.00000635,0.00000803,0.00000158,-0.00000426,0.00000708,
 0.00000270,0.00000107,-0.00000136,0.00001271,-0.00000371,0.00000966,-0
 .00000173,0.00000083,-0.00000262,-0.00000610,-0.00000538,-0.00000366,-
 0.00000118,-0.00000219,0.00000689,-0.00000766,-0.00001231,0.00001041,-
 0.00000246,-0.00000568,0.00000950,0.00000839,-0.00000394,-0.00000277,0
 .00001626,-0.00000153\\\@


 Life may have no meaning.  Or even worse, it may have a
 meaning of which I disapprove.
                                 -- Ashleigh Brilliant
 Job cpu time:       0 days  0 hours  8 minutes 43.9 seconds.
 Elapsed time:       0 days  0 hours  9 minutes 53.0 seconds.
 File lengths (MBytes):  RWF=    587 Int=      0 D2E=      0 Chk=     16 Scr=      1
 Normal termination of Gaussian 16 at Fri Feb 23 21:08:36 2024.
