 Entering Gaussian System, Link 0=g16
 Input=/Volumes/SSD-PMU3/b3lyp_6-31gd_freq/ZIBPLSFQDBNHBX-HOGYCZGPSA-N_calculating/gaussianinput2.gjf
 Output=/Volumes/SSD-PMU3/b3lyp_6-31gd_freq/ZIBPLSFQDBNHBX-HOGYCZGPSA-N_calculating/gaussianinput2.log
 Initial command:
 /Applications/g16/l1.exe "/Users/macmini_m1_2022/PycharmProjects/sphere_model/sphere_model_lib/Gau-74708.inp" -scrdir="/Users/macmini_m1_2022/PycharmProjects/sphere_model/sphere_model_lib/"
 Entering Link 1 = /Applications/g16/l1.exe PID=     74709.
  
 Copyright (c) 1988,1990,1992,1993,1995,1998,2003,2009,2016,
            Gaussian, Inc.  All Rights Reserved.
  
 This is part of the Gaussian(R) 16 program.  It is based on
 the Gaussian(R) 09 system (copyright 2009, Gaussian, Inc.),
 the Gaussian(R) 03 system (copyright 2003, Gaussian, Inc.),
 the Gaussian(R) 98 system (copyright 1998, Gaussian, Inc.),
 the Gaussian(R) 94 system (copyright 1995, Gaussian, Inc.),
 the Gaussian 92(TM) system (copyright 1992, Gaussian, Inc.),
 the Gaussian 90(TM) system (copyright 1990, Gaussian, Inc.),
 the Gaussian 88(TM) system (copyright 1988, Gaussian, Inc.),
 the Gaussian 86(TM) system (copyright 1986, Carnegie Mellon
 University), and the Gaussian 82(TM) system (copyright 1983,
 Carnegie Mellon University). Gaussian is a federally registered
 trademark of Gaussian, Inc.
  
 This software contains proprietary and confidential information,
 including trade secrets, belonging to Gaussian, Inc.
  
 This software is provided under written license and may be
 used, copied, transmitted, or stored only in accord with that
 written license.
  
 The following legend is applicable only to US Government
 contracts under FAR:
  
                    RESTRICTED RIGHTS LEGEND
  
 Use, reproduction and disclosure by the US Government is
 subject to restrictions as set forth in subparagraphs (a)
 and (c) of the Commercial Computer Software - Restricted
 Rights clause in FAR 52.227-19.
  
 Gaussian, Inc.
 340 Quinnipiac St., Bldg. 40, Wallingford CT 06492
  
  
 ---------------------------------------------------------------
 Warning -- This program may not be used in any manner that
 competes with the business of Gaussian, Inc. or will provide
 assistance to any competitor of Gaussian, Inc.  The licensee
 of this program is prohibited from giving any competitor of
 Gaussian, Inc. access to this program.  By using this program,
 the user acknowledges that Gaussian, Inc. is engaged in the
 business of creating and licensing software in the field of
 computational chemistry and represents and warrants to the
 licensee that it is not a competitor of Gaussian, Inc. and that
 it will not use this program in any manner prohibited above.
 ---------------------------------------------------------------
  

 Cite this work as:
 Gaussian 16, Revision A.03,
 M. J. Frisch, G. W. Trucks, H. B. Schlegel, G. E. Scuseria, 
 M. A. Robb, J. R. Cheeseman, G. Scalmani, V. Barone, 
 G. A. Petersson, H. Nakatsuji, X. Li, M. Caricato, A. V. Marenich, 
 J. Bloino, B. G. Janesko, R. Gomperts, B. Mennucci, H. P. Hratchian, 
 J. V. Ortiz, A. F. Izmaylov, J. L. Sonnenberg, D. Williams-Young, 
 F. Ding, F. Lipparini, F. Egidi, J. Goings, B. Peng, A. Petrone, 
 T. Henderson, D. Ranasinghe, V. G. Zakrzewski, J. Gao, N. Rega, 
 G. Zheng, W. Liang, M. Hada, M. Ehara, K. Toyota, R. Fukuda, 
 J. Hasegawa, M. Ishida, T. Nakajima, Y. Honda, O. Kitao, H. Nakai, 
 T. Vreven, K. Throssell, J. A. Montgomery, Jr., J. E. Peralta, 
 F. Ogliaro, M. J. Bearpark, J. J. Heyd, E. N. Brothers, K. N. Kudin, 
 V. N. Staroverov, T. A. Keith, R. Kobayashi, J. Normand, 
 K. Raghavachari, A. P. Rendell, J. C. Burant, S. S. Iyengar, 
 J. Tomasi, M. Cossi, J. M. Millam, M. Klene, C. Adamo, R. Cammi, 
 J. W. Ochterski, R. L. Martin, K. Morokuma, O. Farkas, 
 J. B. Foresman, and D. J. Fox, Gaussian, Inc., Wallingford CT, 2016.
 
 ******************************************
 Gaussian 16:  EM64M-G16RevA.03 25-Dec-2016
                23-Feb-2024 
 ******************************************
 %nprocshared=10
 Will use up to   10 processors via shared memory.
 %mem=12GB
 %chk= 2.chk
 ---------------------
 # freq b3lyp/6-31g(d)
 ---------------------
 1/10=4,30=1,38=1/1,3;
 2/12=2,17=6,18=5,40=1/2;
 3/5=1,6=6,7=1,11=2,25=1,30=1,71=2,74=-5,140=1/1,2,3;
 4//1;
 5/5=2,38=5,98=1/2;
 8/6=4,10=90,11=11/1;
 11/6=1,8=1,9=11,15=111,16=1/1,2,10;
 10/6=1/2;
 6/7=2,8=2,9=2,10=2,28=1/1;
 7/8=1,10=1,25=1/1,2,3,16;
 1/10=4,30=1/3;
 99//99;
 ---------
 good luck
 ---------
 Symbolic Z-matrix:
 Charge =  0 Multiplicity = 1
 O                     1.21648   0.        0. 
 C                     0.        0.        0. 
 C                    -0.84872  -1.26759   0.00308 
 C                    -1.73487  -1.25999   1.2734 
 C                    -1.7514   -1.25687  -1.25412 
 C                    -2.64137   0.00029  -1.23334 
 C                    -1.75093   1.25715  -1.25427 
 C                    -0.84846   1.26783   0.00308 
 C                    -1.73469   1.2607    1.27342 
 C                    -2.64686   0.00046   1.31946 
 C                    -3.48412  -0.00076   2.60353 
 C                    -2.86113  -0.00202   3.86202 
 C                    -3.57823  -0.00193   5.05266 
 C                    -4.99094  -0.01059   5.05399 
 N                    -5.72036  -0.04775   6.24117 
 C                    -5.03422   0.20765   7.49636 
 C                    -7.14961   0.20846   6.19393 
 C                    -5.62342   0.00647   3.79425 
 C                    -4.88412   0.00571   2.6124 
 C                    -3.51601   0.00073   0.03676 
 H                    -0.17889  -2.13374   0.0026 
 H                    -2.3576   -2.16431   1.29117 
 H                    -1.09943  -1.299     2.16613 
 H                    -2.36943  -2.16494  -1.26502 
 H                    -1.13652  -1.27582  -2.16357 
 H                    -3.29271   0.00038  -2.11707 
 H                    -2.36867   2.16543  -1.26554 
 H                    -1.13586   1.27566  -2.16361 
 H                    -0.17837   2.13379   0.00248 
 H                    -2.35734   2.16512   1.29074 
 H                    -1.09924   1.29993   2.16612 
 H                    -1.77595   0.00241   3.92868 
 H                    -3.02762   0.0055    5.98584 
 H                    -4.24621  -0.53423   7.66862 
 H                    -5.74927   0.12011   8.31727 
 H                    -4.57475   1.20902   7.54315 
 H                    -7.39724   1.21022   5.80511 
 H                    -7.65794  -0.53251   5.56658 
 H                    -7.56116   0.12043   7.20174 
 H                    -6.70449   0.02051   3.72252 
 H                    -5.43644   0.01599   1.67864 
 H                    -4.17028  -0.88129   0.03019 
 H                    -4.1691    0.88362   0.02948 
 

 GradGradGradGradGradGradGradGradGradGradGradGradGradGradGradGradGradGrad
 Berny optimization.
 Initialization pass.
 Trust Radius=3.00D-01 FncErr=1.00D-07 GrdErr=1.00D-07 EigMax=2.50D+02 EigMin=1.00D-04
 Number of steps in this run=      2 maximum allowed number of steps=      2.
 GradGradGradGradGradGradGradGradGradGradGradGradGradGradGradGradGradGrad

                          Input orientation:                          
 ---------------------------------------------------------------------
 Center     Atomic      Atomic             Coordinates (Angstroms)
 Number     Number       Type             X           Y           Z
 ---------------------------------------------------------------------
      1          8           0        1.216484    0.000000    0.000000
      2          6           0        0.000000    0.000000    0.000000
      3          6           0       -0.848721   -1.267591    0.003075
      4          6           0       -1.734873   -1.259992    1.273404
      5          6           0       -1.751396   -1.256870   -1.254123
      6          6           0       -2.641365    0.000293   -1.233341
      7          6           0       -1.750931    1.257145   -1.254273
      8          6           0       -0.848460    1.267834    0.003075
      9          6           0       -1.734691    1.260703    1.273420
     10          6           0       -2.646861    0.000455    1.319457
     11          6           0       -3.484117   -0.000756    2.603532
     12          6           0       -2.861130   -0.002024    3.862020
     13          6           0       -3.578225   -0.001932    5.052659
     14          6           0       -4.990938   -0.010591    5.053988
     15          7           0       -5.720356   -0.047751    6.241169
     16          6           0       -5.034219    0.207649    7.496365
     17          6           0       -7.149606    0.208461    6.193935
     18          6           0       -5.623419    0.006472    3.794247
     19          6           0       -4.884122    0.005711    2.612404
     20          6           0       -3.516005    0.000734    0.036764
     21          1           0       -0.178886   -2.133737    0.002602
     22          1           0       -2.357602   -2.164309    1.291170
     23          1           0       -1.099427   -1.298995    2.166132
     24          1           0       -2.369426   -2.164936   -1.265024
     25          1           0       -1.136521   -1.275815   -2.163573
     26          1           0       -3.292709    0.000380   -2.117074
     27          1           0       -2.368667    2.165426   -1.265538
     28          1           0       -1.135855    1.275664   -2.163606
     29          1           0       -0.178370    2.133787    0.002479
     30          1           0       -2.357339    2.165115    1.290736
     31          1           0       -1.099241    1.299926    2.166116
     32          1           0       -1.775946    0.002412    3.928679
     33          1           0       -3.027617    0.005496    5.985840
     34          1           0       -4.246208   -0.534231    7.668621
     35          1           0       -5.749275    0.120112    8.317265
     36          1           0       -4.574747    1.209021    7.543146
     37          1           0       -7.397245    1.210215    5.805109
     38          1           0       -7.657944   -0.532513    5.566579
     39          1           0       -7.561157    0.120430    7.201737
     40          1           0       -6.704490    0.020513    3.722518
     41          1           0       -5.436445    0.015985    1.678644
     42          1           0       -4.170281   -0.881286    0.030189
     43          1           0       -4.169095    0.883617    0.029476
 ---------------------------------------------------------------------
                    Distance matrix (angstroms):
                    1          2          3          4          5
     1  O    0.000000
     2  C    1.216484   0.000000
     3  C    2.423194   1.525491   0.000000
     4  C    3.452484   2.493777   1.548890   0.000000
     5  C    3.458447   2.493980   1.547735   2.527583   0.000000
     6  C    4.050201   2.915122   2.519886   2.948528   1.540434
     7  C    3.458203   2.493867   2.961283   3.567266   2.514015
     8  C    2.423098   1.525548   2.535425   2.964687   2.961414
     9  C    3.452594   2.494018   2.964960   2.520695   3.567482
    10  C    4.082450   2.957506   2.564003   1.556461   3.001006
    11  C    5.373456   4.349420   3.913127   2.532740   4.411536
    12  C    5.616239   4.806378   4.532428   3.090610   5.383407
    13  C    6.965529   6.191370   5.877957   4.389012   6.684884
    14  C    8.004686   7.102983   6.652047   5.143518   7.200008
    15  N    9.331357   8.466224   8.008411   6.483232   8.567031
    16  C    9.762679   9.032274   8.708853   7.194783   9.460063
    17  C   10.411520   9.461773   8.955815   7.462393   9.314582
    18  C    7.821804   6.783745   6.228480   4.804099   6.486496
    19  C    6.636421   5.538893   4.971354   3.648657   5.134015
    20  C    4.732632   3.516197   2.953674   2.508214   2.522261
    21  H    2.549490   2.141224   1.094937   2.190768   2.195687
    22  H    4.373265   3.451035   2.177157   1.098133   2.769377
    23  H    3.426800   2.754679   2.177764   1.096484   3.482095
    24  H    4.375612   3.449842   2.173901   2.768609   1.098482
    25  H    3.441712   2.756888   2.185694   3.488708   1.097966
    26  H    4.981448   3.914580   3.475034   3.938367   2.168181
    27  H    4.375382   3.449817   3.962981   4.310616   3.477537
    28  H    3.441222   2.756570   3.353371   4.312935   2.760395
    29  H    2.549249   2.141231   3.466806   3.944070   3.943351
    30  H    4.373321   3.451198   3.964526   3.481253   4.307372
    31  H    3.427017   2.755031   3.366549   2.784626   4.319785
    32  H    4.938538   4.311439   4.228832   2.940380   5.333651
    33  H    7.337759   6.707964   6.493213   5.047742   7.459180
    34  H    9.430491   8.781995   8.416729   6.908859   9.293097
    35  H   10.849568  10.111651   9.750226   8.224116  10.463775
    36  H    9.586404   8.904442   8.767528   7.312358   9.562629
    37  H   10.457545   9.480672   9.093200   7.661640   9.369892
    38  H   10.489320   9.482325   8.823743   7.351418   9.051739
    39  H   11.354581  10.442730   9.940027   8.425929  10.351418
    40  H    8.752108   7.668621   7.055742   5.686382   7.136652
    41  H    6.861455   5.689731   5.049981   3.936238   4.878613
    42  H    5.458463   4.262490   3.344059   2.760473   2.764331
    43  H    5.457665   4.261807   3.956422   3.473882   3.474850
                    6          7          8          9         10
     6  C    0.000000
     7  C    1.540451   0.000000
     8  C    2.519899   1.547738   0.000000
     9  C    2.948651   2.527748   1.548946   0.000000
    10  C    2.552804   3.001008   2.563856   1.556406   0.000000
    11  C    3.928336   4.412359   3.913871   2.533963   1.532921
    12  C    5.100099   5.384654   4.533744   3.092603   2.551577
    13  C    6.355431   6.685931   5.878964   4.390389   3.847628
    14  C    6.712013   7.204093   6.656292   5.148983   4.409256
    15  N    8.083984   8.581418   8.023712   6.502008   5.802753
    16  C    9.054088   9.405056   8.648350   7.121857   6.625451
    17  C    8.690915   9.258576   8.896823   7.391886   6.639165
    18  C    5.845453   6.484435   6.226094   4.801028   3.870984
    19  C    4.451937   5.131682   4.968714   3.645106   2.584004
    20  C    1.542129   2.522069   2.953383   2.507971   1.549423
    21  H    3.485031   3.943240   3.466845   3.944329   3.518492
    22  H    3.337541   4.307398   3.964379   3.481241   2.184187
    23  H    3.952485   4.319430   3.366068   2.784340   2.190886
    24  H    2.182469   3.477541   3.962994   4.310637   3.383110
    25  H    2.181362   2.760473   3.353728   4.313311   4.005183
    26  H    1.097831   2.168170   3.475029   3.938437   3.496693
    27  H    2.182476   1.098499   2.173955   2.768891   3.383296
    28  H    2.181404   1.097974   2.185672   3.488836   4.005125
    29  H    3.485024   2.195649   1.094941   2.190822   3.518378
    30  H    3.337378   2.769334   2.177131   1.098158   2.184125
    31  H    3.952657   3.482182   2.177767   1.096468   2.191024
    32  H    5.234062   5.332727   4.227516   2.938605   2.750734
    33  H    7.229508   7.457599   6.491202   5.045206   4.681894
    34  H    9.061245   9.436815   8.576289   7.101275   6.569299
    35  H   10.044279  10.435226   9.719105   8.187404   7.655626
    36  H    9.067840   9.239634   8.410787   6.883172   6.626589
    37  H    8.580331   9.039797   8.749486   7.252811   6.644602
    38  H    8.466927   9.198897   8.975684   7.532049   6.590376
    39  H    9.765722  10.322546   9.909469   8.390046   7.665893
    40  H    6.408583   7.129899   7.048628   5.677592   4.715873
    41  H    4.036381   4.870882   5.042248   3.926387   2.812656
    42  H    2.170547   3.475052   3.956507   3.473592   2.181854
    43  H    2.170006   2.763160   3.342893   2.759694   2.182023
                   11         12         13         14         15
    11  C    0.000000
    12  C    1.404246   0.000000
    13  C    2.450935   1.389909   0.000000
    14  C    2.876689   2.440685   1.412740   0.000000
    15  N    4.270290   3.719894   2.450180   1.393854   0.000000
    16  C    5.136737   4.239663   2.852287   2.452490   1.453111
    17  C    5.135229   4.886017   3.755202   2.450982   1.452801
    18  C    2.448360   2.763133   2.401352   1.409706   2.449442
    19  C    1.400048   2.377834   2.767719   2.443974   3.724256
    20  C    2.566967   3.880909   5.016282   5.229540   6.584539
    21  H    4.715824   5.160789   6.450052   7.292468   8.601101
    22  H    2.769890   3.396805   4.507171   5.072648   6.347474
    23  H    2.750180   2.767990   4.019807   5.014335   6.286853
    24  H    4.570770   5.586282   6.786229   7.172408   8.488471
    25  H    5.464638   6.395670   7.723904   8.279523   9.651910
    26  H    4.724485   5.994650   7.175416   7.369412   8.703793
    27  H    4.572338   5.588579   6.788231   7.179677   8.513673
    28  H    5.465271   6.396658   7.724759   8.283102   9.664850
    29  H    4.716960   5.162843   6.451715   7.299103   8.625194
    30  H    2.772014   3.400264   4.509847   5.082480   6.380709
    31  H    2.751498   2.770454   4.021483   5.020216   6.306901
    32  H    2.161914   1.087238   2.124043   3.406268   4.572581
    33  H    3.412981   2.130349   1.083536   2.173301   2.705341
    34  H    5.149806   4.085572   2.751872   2.768597   2.108885
    35  H    6.147544   5.310886   3.922500   3.352780   2.083072
    36  H    5.201233   4.237193   2.943126   2.802958   2.141738
    37  H    5.198953   5.081482   4.076812   2.800868   2.141164
    38  H    5.146187   5.118238   4.146051   2.765515   2.108154
    39  H    6.146579   5.767058   4.527390   3.352017   2.083152
    40  H    3.409308   3.845957   3.397545   2.170263   2.704955
    41  H    2.160389   3.376345   3.851919   3.404722   4.571794
    42  H    2.805040   4.143659   5.133128   5.164314   6.455524
    43  H    2.806613   4.145302   5.134753   5.169212   6.469852
                   16         17         18         19         20
    16  C    0.000000
    17  C    2.484187   0.000000
    18  C    3.754105   2.851061   0.000000
    19  C    4.890438   4.242746   1.394028   0.000000
    20  C    7.615342   7.152409   4.308121   2.916452   0.000000
    21  H    9.231080   9.612983   6.971370   5.790298   3.961502
    22  H    7.162046   7.254684   4.652230   3.583008   2.757325
    23  H    6.794406   7.422957   4.982119   4.028068   3.473234
    24  H    9.460033   9.171652   6.395288   5.105864   2.774783
    25  H   10.521745  10.402317   7.567835   6.204577   3.483246
    26  H    9.772105   9.164705   6.354208   4.990049   2.165382
    27  H    9.365308   9.073634   6.391863   5.101991   2.774575
    28  H   10.471530  10.351455   7.566049   6.202625   3.483129
    29  H    9.134966   9.520459   6.967893   5.786581   3.961174
    30  H    7.036135   7.129914   4.646997   3.576935   2.756719
    31  H    6.714810   7.349935   4.979159   4.024859   3.473152
    32  H    4.835995   5.835243   3.849823   3.375404   4.263193
    33  H    2.519723   4.132226   3.397244   3.850543   5.969091
    34  H    1.095910   3.340061   4.147269   5.124822   7.685351
    35  H    1.092174   2.545047   4.526195   5.771223   8.577205
    36  H    1.102746   3.074311   4.074320   5.084868   7.676370
    37  H    3.073984   1.102734   2.939221   4.237922   7.056959
    38  H    3.340037   1.095913   2.751537   4.087900   6.929565
    39  H    2.545551   1.092149   3.921582   5.314288   8.228877
    40  H    4.131192   2.518205   1.083539   2.132208   4.873562
    41  H    5.834758   4.833200   2.123870   1.084930   2.526676
    42  H    7.594469   6.932221   4.131326   2.822086   1.098217
    43  H    7.547172   6.880395   4.130126   2.820195   1.098209
                   21         22         23         24         25
    21  H    0.000000
    22  H    2.531432   0.000000
    23  H    2.495005   1.759924   0.000000
    24  H    2.531070   2.556221   3.759732   0.000000
    25  H    2.519010   3.770373   4.329926   1.765781   0.000000
    26  H    4.329362   4.144446   4.984447   2.503404   2.505989
    27  H    4.988599   5.028268   5.038804   4.330362   3.763880
    28  H    4.151176   5.026088   5.037542   3.763891   2.551479
    29  H    4.267524   4.988327   4.160977   4.988618   4.151532
    30  H    4.988494   4.329424   3.787970   5.028061   5.026196
    31  H    4.161477   3.788130   2.598921   5.038984   5.038059
    32  H    4.746347   3.462580   2.293013   5.658990   6.257656
    33  H    6.963528   5.215065   4.473230   7.597303   8.463506
    34  H    8.824363   6.848056   6.384707   9.273161  10.338865
    35  H   10.258786   8.129455   7.840369  10.414657  11.535774
    36  H    9.346520   7.441928   6.876065   9.686634  10.593215
    37  H    9.846614   7.560493   7.694206   9.308995  10.434410
    38  H    9.458227   7.002536   7.427293   8.792271  10.140843
    39  H   10.554939   8.199501   8.314207  10.191320  11.442660
    40  H    7.814223   5.438781   5.964912   6.960211   8.205414
    41  H    5.922191   3.792505   4.558129   4.777887   5.909376
    42  H    4.183375   2.553826   3.763891   2.562891   3.764564
    43  H    5.002691   3.763407   4.330353   3.769378   4.320777
                   26         27         28         29         30
    26  H    0.000000
    27  H    2.503276   0.000000
    28  H    2.506099   1.765794   0.000000
    29  H    4.329323   2.531061   2.518944   0.000000
    30  H    4.144172   2.556299   3.770361   2.531500   0.000000
    31  H    4.984560   3.759891   4.329945   2.494925   1.760015
    32  H    6.233113   5.657724   6.256742   4.744476   3.460353
    33  H    8.107251   7.594866   8.462007   6.960491   5.211260
    34  H    9.846563   9.520111  10.470086   9.079392   7.178559
    35  H   10.720284  10.365420  11.509457  10.209091   8.065939
    36  H    9.819587   9.130959  10.298129   8.777527   6.702510
    37  H    9.003994   8.728864  10.134580   9.307828   6.833158
    38  H    8.853122   9.051693  10.274381   9.695999   7.325056
    39  H   10.250576  10.140942  11.416161  10.506592   8.136362
    40  H    6.763245   6.948433   8.199485   7.803516   5.423154
    41  H    4.359280   4.764406   5.902944   5.911173   3.774934
    42  H    2.481573   3.769241   4.321216   5.002678   3.762485
    43  H    2.481096   2.561569   3.763490   4.182050   2.552543
                   31         32         33         34         35
    31  H    0.000000
    32  H    2.290873   0.000000
    33  H    4.470400   2.408028   0.000000
    34  H    6.598871   4.514127   2.146630   0.000000
    35  H    7.800731   5.921223   3.585541   1.762984   0.000000
    36  H    6.403113   4.727956   2.503455   1.778373   1.778904
    37  H    7.274282   6.048039   4.536261   4.055219   3.196100
    38  H    7.611673   6.129173   4.680295   4.007309   3.411042
    39  H    8.276778   6.647970   4.695168   3.411077   2.127750
    40  H    5.956350   4.932887   4.317667   4.682160   4.694045
    41  H    4.549447   4.296754   4.935028   6.131821   6.646803
    42  H    4.330261   4.659612   6.128772   7.646689   8.495390
    43  H    3.763316   4.659127   6.127996   7.769992   8.471562
                   36         37         38         39         40
    36  H    0.000000
    37  H    3.314705   0.000000
    38  H    4.055350   1.778190   0.000000
    39  H    3.196910   1.779064   1.763362   0.000000
    40  H    4.532720   2.496495   2.148365   3.584526   0.000000
    41  H    6.046341   4.722143   4.511313   5.918603   2.405282
    42  H    7.808809   6.938110   6.552637   7.995785   4.568233
    43  H    7.531645   6.624617   6.696044   7.970563   4.561988
                   41         42         43
    41  H    0.000000
    42  H    2.263994   0.000000
    43  H    2.253601   1.764904   0.000000
 Stoichiometry    C18H23NO
 Framework group  C1[X(C18H23NO)]
 Deg. of freedom   123
 Full point group                 C1      NOp   1
 Largest Abelian subgroup         C1      NOp   1
 Largest concise Abelian subgroup C1      NOp   1
                         Standard orientation:                         
 ---------------------------------------------------------------------
 Center     Atomic      Atomic             Coordinates (Angstroms)
 Number     Number       Type             X           Y           Z
 ---------------------------------------------------------------------
      1          8           0       -4.240637    2.183467    0.022513
      2          6           0       -3.536192    1.191720    0.017267
      3          6           0       -3.059644    0.495893   -1.253895
      4          6           0       -1.510872    0.509109   -1.267664
      5          6           0       -3.561582   -0.967992   -1.229704
      6          6           0       -3.011980   -1.675876    0.023202
      7          6           0       -3.527386   -0.956431    1.284052
      8          6           0       -3.024914    0.507470    1.281266
      9          6           0       -1.476286    0.520565    1.252768
     10          6           0       -0.927875   -0.202078   -0.011918
     11          6           0        0.603666   -0.141078   -0.034475
     12          6           0        1.268747    1.095578   -0.050438
     13          6           0        2.654558    1.200439   -0.069883
     14          6           0        3.473601    0.049445   -0.084652
     15          7           0        4.863216    0.142090   -0.141351
     16          6           0        5.492576    1.429473    0.099645
     17          6           0        5.655893   -1.049321    0.109322
     18          6           0        2.813213   -1.195606   -0.052920
     19          6           0        1.421706   -1.277276   -0.034169
     20          6           0       -1.470155   -1.653436    0.002329
     21          1           0       -3.459836    1.037824   -2.117055
     22          1           0       -1.148220    0.007659   -2.174817
     23          1           0       -1.151675    1.543948   -1.316252
     24          1           0       -3.225070   -1.482228   -2.140190
     25          1           0       -4.659246   -0.993441   -1.233434
     26          1           0       -3.355174   -2.718642    0.032686
     27          1           0       -3.166353   -1.462497    2.189729
     28          1           0       -4.624557   -0.981481    1.317781
     29          1           0       -3.401525    1.057302    2.150027
     30          1           0       -1.089164    0.027028    2.154161
     31          1           0       -1.116041    1.555740    1.282398
     32          1           0        0.694734    2.018903   -0.042243
     33          1           0        3.096498    2.189747   -0.072970
     34          1           0        5.166461    2.168330   -0.641138
     35          1           0        6.574607    1.321495   -0.002305
     36          1           0        5.278414    1.835640    1.102248
     37          1           0        5.496125   -1.471882    1.115274
     38          1           0        5.428678   -1.830359   -0.625102
     39          1           0        6.714516   -0.801636    0.005606
     40          1           0        3.380966   -2.118431   -0.042552
     41          1           0        0.980531   -2.268238   -0.013381
     42          1           0       -1.108769   -2.194601   -0.882330
     43          1           0       -1.085757   -2.186136    0.882403
 ---------------------------------------------------------------------
 Rotational constants (GHZ):           0.9690328           0.1631467           0.1527204
 Standard basis: 6-31G(d) (6D, 7F)
 There are   346 symmetry adapted cartesian basis functions of A   symmetry.
 There are   346 symmetry adapted basis functions of A   symmetry.
   346 basis functions,   652 primitive gaussians,   346 cartesian basis functions
    73 alpha electrons       73 beta electrons
       nuclear repulsion energy      1572.9482780269 Hartrees.
 NAtoms=   43 NActive=   43 NUniq=   43 SFac= 1.00D+00 NAtFMM=   60 NAOKFM=F Big=F
 Integral buffers will be    131072 words long.
 Raffenetti 2 integral format.
 Two-electron integral symmetry is turned on.
 One-electron integrals computed using PRISM.
 NBasis=   346 RedAO= T EigKep=  3.82D-04  NBF=   346
 NBsUse=   346 1.00D-06 EigRej= -1.00D+00 NBFU=   346
 ExpMin= 1.61D-01 ExpMax= 5.48D+03 ExpMxC= 8.25D+02 IAcc=3 IRadAn=         5 AccDes= 0.00D+00
 Harris functional with IExCor=  402 and IRadAn=       5 diagonalized for initial guess.
 HarFok:  IExCor=  402 AccDes= 0.00D+00 IRadAn=         5 IDoV= 1 UseB2=F ITyADJ=14
 ICtDFT=  3500011 ScaDFX=  1.000000  1.000000  1.000000  1.000000
 FoFCou: FMM=F IPFlag=           0 FMFlag=      100000 FMFlg1=           0
         NFxFlg=           0 DoJE=T BraDBF=F KetDBF=T FulRan=T
         wScrn=  0.000000 ICntrl=       500 IOpCl=  0 I1Cent=   200000004 NGrid=           0
         NMat0=    1 NMatS0=      1 NMatT0=    0 NMatD0=    1 NMtDS0=    0 NMtDT0=    0
 Petite list used in FoFCou.
 Requested convergence on RMS density matrix=1.00D-08 within 128 cycles.
 Requested convergence on MAX density matrix=1.00D-06.
 Requested convergence on             energy=1.00D-06.
 No special actions if energy rises.
 Integral accuracy reduced to 1.0D-05 until final iterations.
 Initial convergence to 1.0D-05 achieved.  Increase integral accuracy.
 SCF Done:  E(RB3LYP) =  -829.750024377     A.U. after   14 cycles
            NFock= 14  Conv=0.64D-08     -V/T= 2.0097
 DoSCS=F DFT=T ScalE2(SS,OS)=  1.000000  1.000000
 Range of M.O.s used for correlation:     1   346
 NBasis=   346 NAE=    73 NBE=    73 NFC=     0 NFV=     0
 NROrb=    346 NOA=    73 NOB=    73 NVA=   273 NVB=   273
 Symmetrizing basis deriv contribution to polar:
 IMax=3 JMax=2 DiffMx= 0.00D+00
 G2DrvN: will do    44 centers at a time, making    1 passes.
 Calling FoFCou, ICntrl=  3107 FMM=F I1Cent=   0 AccDes= 0.00D+00.
 End of G2Drv F.D. properties file   721 does not exist.
 End of G2Drv F.D. properties file   722 does not exist.
 End of G2Drv F.D. properties file   788 does not exist.
          IDoAtm=1111111111111111111111111111111111111111111
          Differentiating once with respect to electric field.
                with respect to dipole field.
          Differentiating once with respect to nuclear coordinates.
 CalDSu exits because no D1Ps are significant.
          There are   132 degrees of freedom in the 1st order CPHF.  IDoFFX=6 NUNeed=     3.
    129 vectors produced by pass  0 Test12= 1.99D-14 1.00D-09 XBig12= 2.35D+02 9.82D+00.
 AX will form   129 AO Fock derivatives at one time.
    129 vectors produced by pass  1 Test12= 1.99D-14 1.00D-09 XBig12= 3.65D+01 1.28D+00.
    129 vectors produced by pass  2 Test12= 1.99D-14 1.00D-09 XBig12= 3.01D-01 7.58D-02.
    129 vectors produced by pass  3 Test12= 1.99D-14 1.00D-09 XBig12= 8.76D-04 4.88D-03.
    129 vectors produced by pass  4 Test12= 1.99D-14 1.00D-09 XBig12= 8.52D-07 8.62D-05.
     74 vectors produced by pass  5 Test12= 1.99D-14 1.00D-09 XBig12= 6.19D-10 2.87D-06.
      6 vectors produced by pass  6 Test12= 1.99D-14 1.00D-09 XBig12= 4.70D-13 8.71D-08.
      2 vectors produced by pass  7 Test12= 1.99D-14 1.00D-09 XBig12= 4.50D-16 3.37D-09.
 InvSVY:  IOpt=1 It=  1 EMax= 1.24D-14
 Solved reduced A of dimension   727 with   132 vectors.
 Isotropic polarizability for W=    0.000000      193.02 Bohr**3.
 End of Minotr F.D. properties file   721 does not exist.
 End of Minotr F.D. properties file   722 does not exist.
 End of Minotr F.D. properties file   788 does not exist.

 **********************************************************************

            Population analysis using the SCF density.

 **********************************************************************

 Orbital symmetries:
       Occupied  (A) (A) (A) (A) (A) (A) (A) (A) (A) (A) (A) (A)
                 (A) (A) (A) (A) (A) (A) (A) (A) (A) (A) (A) (A)
                 (A) (A) (A) (A) (A) (A) (A) (A) (A) (A) (A) (A)
                 (A) (A) (A) (A) (A) (A) (A) (A) (A) (A) (A) (A)
                 (A) (A) (A) (A) (A) (A) (A) (A) (A) (A) (A) (A)
                 (A) (A) (A) (A) (A) (A) (A) (A) (A) (A) (A) (A)
                 (A)
       Virtual   (A) (A) (A) (A) (A) (A) (A) (A) (A) (A) (A) (A)
                 (A) (A) (A) (A) (A) (A) (A) (A) (A) (A) (A) (A)
                 (A) (A) (A) (A) (A) (A) (A) (A) (A) (A) (A) (A)
                 (A) (A) (A) (A) (A) (A) (A) (A) (A) (A) (A) (A)
                 (A) (A) (A) (A) (A) (A) (A) (A) (A) (A) (A) (A)
                 (A) (A) (A) (A) (A) (A) (A) (A) (A) (A) (A) (A)
                 (A) (A) (A) (A) (A) (A) (A) (A) (A) (A) (A) (A)
                 (A) (A) (A) (A) (A) (A) (A) (A) (A) (A) (A) (A)
                 (A) (A) (A) (A) (A) (A) (A) (A) (A) (A) (A) (A)
                 (A) (A) (A) (A) (A) (A) (A) (A) (A) (A) (A) (A)
                 (A) (A) (A) (A) (A) (A) (A) (A) (A) (A) (A) (A)
                 (A) (A) (A) (A) (A) (A) (A) (A) (A) (A) (A) (A)
                 (A) (A) (A) (A) (A) (A) (A) (A) (A) (A) (A) (A)
                 (A) (A) (A) (A) (A) (A) (A) (A) (A) (A) (A) (A)
                 (A) (A) (A) (A) (A) (A) (A) (A) (A) (A) (A) (A)
                 (A) (A) (A) (A) (A) (A) (A) (A) (A) (A) (A) (A)
                 (A) (A) (A) (A) (A) (A) (A) (A) (A) (A) (A) (A)
                 (A) (A) (A) (A) (A) (A) (A) (A) (A) (A) (A) (A)
                 (A) (A) (A) (A) (A) (A) (A) (A) (A) (A) (A) (A)
                 (A) (A) (A) (A) (A) (A) (A) (A) (A) (A) (A) (A)
                 (A) (A) (A) (A) (A) (A) (A) (A) (A) (A) (A) (A)
                 (A) (A) (A) (A) (A) (A) (A) (A) (A) (A) (A) (A)
                 (A) (A) (A) (A) (A) (A) (A) (A) (A)
 The electronic state is 1-A.
 Alpha  occ. eigenvalues --  -19.12665 -14.35031 -10.25754 -10.22105 -10.21700
 Alpha  occ. eigenvalues --  -10.21697 -10.20042 -10.19093 -10.18770 -10.18763
 Alpha  occ. eigenvalues --  -10.18642 -10.18636 -10.18475 -10.18461 -10.18061
 Alpha  occ. eigenvalues --  -10.18022 -10.17966 -10.17875 -10.17710 -10.17600
 Alpha  occ. eigenvalues --   -1.02481  -0.94333  -0.87307  -0.83691  -0.78246
 Alpha  occ. eigenvalues --   -0.77465  -0.75966  -0.74201  -0.72596  -0.71792
 Alpha  occ. eigenvalues --   -0.67178  -0.65767  -0.64283  -0.59773  -0.59734
 Alpha  occ. eigenvalues --   -0.58834  -0.56887  -0.55463  -0.52508  -0.50009
 Alpha  occ. eigenvalues --   -0.47654  -0.47100  -0.46275  -0.45538  -0.44821
 Alpha  occ. eigenvalues --   -0.44477  -0.43595  -0.43454  -0.42733  -0.42161
 Alpha  occ. eigenvalues --   -0.41530  -0.41329  -0.40677  -0.39737  -0.39596
 Alpha  occ. eigenvalues --   -0.39418  -0.38739  -0.38034  -0.36260  -0.35962
 Alpha  occ. eigenvalues --   -0.35837  -0.34962  -0.33541  -0.33399  -0.33244
 Alpha  occ. eigenvalues --   -0.32432  -0.30316  -0.29265  -0.28664  -0.27227
 Alpha  occ. eigenvalues --   -0.24070  -0.22409  -0.18634
 Alpha virt. eigenvalues --   -0.00378   0.00703   0.02021   0.07318   0.08544
 Alpha virt. eigenvalues --    0.10469   0.11264   0.12191   0.12284   0.12681
 Alpha virt. eigenvalues --    0.13138   0.13902   0.14126   0.14729   0.15392
 Alpha virt. eigenvalues --    0.15821   0.16488   0.16755   0.16987   0.17445
 Alpha virt. eigenvalues --    0.17752   0.17826   0.19007   0.19310   0.19894
 Alpha virt. eigenvalues --    0.19995   0.20377   0.20676   0.21638   0.22517
 Alpha virt. eigenvalues --    0.23188   0.23630   0.24694   0.25358   0.25500
 Alpha virt. eigenvalues --    0.26499   0.27186   0.28367   0.28479   0.29911
 Alpha virt. eigenvalues --    0.30201   0.31111   0.34536   0.34653   0.35861
 Alpha virt. eigenvalues --    0.36229   0.37783   0.40959   0.47262   0.49525
 Alpha virt. eigenvalues --    0.51614   0.51924   0.52321   0.52637   0.53202
 Alpha virt. eigenvalues --    0.53937   0.54785   0.55140   0.55986   0.57019
 Alpha virt. eigenvalues --    0.57559   0.57782   0.59293   0.59558   0.60701
 Alpha virt. eigenvalues --    0.60963   0.61309   0.62377   0.63334   0.63574
 Alpha virt. eigenvalues --    0.64805   0.65136   0.66489   0.67448   0.68339
 Alpha virt. eigenvalues --    0.68762   0.69953   0.71082   0.71609   0.72554
 Alpha virt. eigenvalues --    0.72723   0.74019   0.75559   0.76637   0.77898
 Alpha virt. eigenvalues --    0.78357   0.78745   0.79813   0.80898   0.81221
 Alpha virt. eigenvalues --    0.81880   0.82512   0.83198   0.83980   0.84656
 Alpha virt. eigenvalues --    0.85701   0.86176   0.86626   0.87013   0.87299
 Alpha virt. eigenvalues --    0.88104   0.88457   0.89128   0.89864   0.90648
 Alpha virt. eigenvalues --    0.90810   0.91674   0.92130   0.93865   0.94307
 Alpha virt. eigenvalues --    0.95451   0.96376   0.96793   0.97204   0.97502
 Alpha virt. eigenvalues --    0.98764   0.99086   1.00104   1.00449   1.01115
 Alpha virt. eigenvalues --    1.02497   1.03409   1.06035   1.08985   1.11233
 Alpha virt. eigenvalues --    1.13718   1.14330   1.15713   1.16821   1.17650
 Alpha virt. eigenvalues --    1.18486   1.19382   1.20248   1.22184   1.23131
 Alpha virt. eigenvalues --    1.25860   1.26759   1.29606   1.31122   1.31644
 Alpha virt. eigenvalues --    1.35547   1.38433   1.39847   1.43153   1.43288
 Alpha virt. eigenvalues --    1.43394   1.46240   1.47320   1.49428   1.50530
 Alpha virt. eigenvalues --    1.52817   1.54482   1.56222   1.58147   1.59025
 Alpha virt. eigenvalues --    1.61344   1.62155   1.65984   1.67925   1.70001
 Alpha virt. eigenvalues --    1.72143   1.73517   1.74052   1.75930   1.77560
 Alpha virt. eigenvalues --    1.78466   1.79032   1.79744   1.79882   1.81788
 Alpha virt. eigenvalues --    1.83386   1.84290   1.86617   1.87110   1.87181
 Alpha virt. eigenvalues --    1.87654   1.90356   1.91831   1.93086   1.94297
 Alpha virt. eigenvalues --    1.94440   1.95015   1.96077   1.96787   2.02103
 Alpha virt. eigenvalues --    2.03351   2.04649   2.04789   2.05706   2.06403
 Alpha virt. eigenvalues --    2.08203   2.08423   2.09263   2.10114   2.12680
 Alpha virt. eigenvalues --    2.14238   2.14978   2.15104   2.15283   2.16130
 Alpha virt. eigenvalues --    2.18960   2.21087   2.21986   2.22454   2.24419
 Alpha virt. eigenvalues --    2.25694   2.26560   2.27066   2.27838   2.28947
 Alpha virt. eigenvalues --    2.29702   2.31318   2.32696   2.34577   2.35789
 Alpha virt. eigenvalues --    2.35828   2.39966   2.41220   2.41853   2.43376
 Alpha virt. eigenvalues --    2.44125   2.48538   2.49785   2.50164   2.51395
 Alpha virt. eigenvalues --    2.53159   2.55542   2.58153   2.58438   2.59963
 Alpha virt. eigenvalues --    2.62341   2.65904   2.66739   2.67760   2.68317
 Alpha virt. eigenvalues --    2.69948   2.72010   2.72591   2.74743   2.75721
 Alpha virt. eigenvalues --    2.76148   2.76828   2.80791   2.81621   2.85733
 Alpha virt. eigenvalues --    2.89934   2.92623   3.00540   3.02060   3.04059
 Alpha virt. eigenvalues --    3.05750   3.21589   3.42846   4.05722   4.10727
 Alpha virt. eigenvalues --    4.11553   4.13525   4.16020   4.21677   4.26558
 Alpha virt. eigenvalues --    4.28259   4.29296   4.32424   4.34420   4.35781
 Alpha virt. eigenvalues --    4.47121   4.49715   4.58417   4.70077   4.75690
 Alpha virt. eigenvalues --    4.80948   4.83198   4.86233
          Condensed to atoms (all electrons):
               1          2          3          4          5          6
     1  O    8.017442   0.578141  -0.074044   0.000888   0.001037   0.000058
     2  C    0.578141   4.515027   0.332594  -0.028876  -0.029310  -0.020552
     3  C   -0.074044   0.332594   5.237775   0.311446   0.338723  -0.027477
     4  C    0.000888  -0.028876   0.311446   5.182841  -0.038910  -0.015019
     5  C    0.001037  -0.029310   0.338723  -0.038910   5.096368   0.374799
     6  C    0.000058  -0.020552  -0.027477  -0.015019   0.374799   4.937764
     7  C    0.001036  -0.029320  -0.008317  -0.002532  -0.049202   0.374729
     8  C   -0.074079   0.332618  -0.124985  -0.005988  -0.008309  -0.027498
     9  C    0.000890  -0.028908  -0.005944  -0.058378  -0.002540  -0.014980
    10  C    0.000059  -0.019296  -0.020340   0.365128  -0.016134  -0.018966
    11  C    0.000001   0.000030   0.004269  -0.045702  -0.000082   0.003393
    12  C   -0.000001  -0.000055   0.000316  -0.008064  -0.000002  -0.000100
    13  C   -0.000000  -0.000000  -0.000001   0.000285   0.000000   0.000002
    14  C   -0.000000  -0.000000  -0.000000   0.000008  -0.000000   0.000000
    15  N    0.000000   0.000000  -0.000000   0.000000   0.000000  -0.000000
    16  C   -0.000000  -0.000000  -0.000000  -0.000000   0.000000   0.000000
    17  C    0.000000   0.000000   0.000000   0.000000  -0.000000  -0.000000
    18  C    0.000000   0.000000   0.000001  -0.000150   0.000000  -0.000007
    19  C    0.000000   0.000001  -0.000062   0.000868  -0.000010   0.000549
    20  C   -0.000033  -0.003204  -0.012706  -0.056791  -0.045455   0.362308
    21  H    0.004263  -0.031844   0.343756  -0.030099  -0.031784   0.004210
    22  H   -0.000079   0.003536  -0.029758   0.355294  -0.006290  -0.000804
    23  H    0.000783  -0.000864  -0.038264   0.360828   0.005149   0.000030
    24  H   -0.000083   0.003550  -0.031168  -0.005823   0.360344  -0.033150
    25  H    0.000712  -0.000959  -0.039365   0.005137   0.367044  -0.035317
    26  H   -0.000000   0.000317   0.004666   0.000093  -0.038524   0.368836
    27  H   -0.000084   0.003549  -0.000296   0.000106   0.005274  -0.033152
    28  H    0.000713  -0.000955  -0.000040   0.000046  -0.004483  -0.035310
    29  H    0.004272  -0.031831   0.007111  -0.000102  -0.000052   0.004213
    30  H   -0.000080   0.003536  -0.000383   0.005976   0.000110  -0.000808
    31  H    0.000783  -0.000860   0.000389  -0.005796  -0.000008   0.000028
    32  H   -0.000001  -0.000047  -0.000113   0.000261  -0.000002  -0.000002
    33  H    0.000000  -0.000000  -0.000000  -0.000001  -0.000000  -0.000000
    34  H   -0.000000  -0.000000  -0.000000   0.000000  -0.000000  -0.000000
    35  H   -0.000000  -0.000000   0.000000  -0.000000   0.000000  -0.000000
    36  H   -0.000000  -0.000000   0.000000  -0.000000  -0.000000   0.000000
    37  H   -0.000000  -0.000000   0.000000  -0.000000  -0.000000  -0.000000
    38  H   -0.000000   0.000000  -0.000000   0.000000   0.000000   0.000000
    39  H    0.000000   0.000000  -0.000000   0.000000   0.000000  -0.000000
    40  H    0.000000  -0.000000  -0.000000   0.000001  -0.000000  -0.000000
    41  H    0.000000  -0.000001  -0.000005   0.000228  -0.000004   0.000001
    42  H    0.000000   0.000161  -0.001068  -0.006273  -0.003762  -0.036015
    43  H    0.000000   0.000162  -0.000171   0.006161   0.005192  -0.036093
               7          8          9         10         11         12
     1  O    0.001036  -0.074079   0.000890   0.000059   0.000001  -0.000001
     2  C   -0.029320   0.332618  -0.028908  -0.019296   0.000030  -0.000055
     3  C   -0.008317  -0.124985  -0.005944  -0.020340   0.004269   0.000316
     4  C   -0.002532  -0.005988  -0.058378   0.365128  -0.045702  -0.008064
     5  C   -0.049202  -0.008309  -0.002540  -0.016134  -0.000082  -0.000002
     6  C    0.374729  -0.027498  -0.014980  -0.018966   0.003393  -0.000100
     7  C    5.096618   0.338757  -0.038947  -0.016135  -0.000078  -0.000002
     8  C    0.338757   5.237802   0.311462  -0.020401   0.004379   0.000307
     9  C   -0.038947   0.311462   5.183046   0.366134  -0.046639  -0.007972
    10  C   -0.016135  -0.020401   0.366134   4.950895   0.358598  -0.054274
    11  C   -0.000078   0.004379  -0.046639   0.358598   4.711964   0.520394
    12  C   -0.000002   0.000307  -0.007972  -0.054274   0.520394   5.008686
    13  C    0.000000  -0.000002   0.000360   0.005296  -0.024099   0.510844
    14  C   -0.000000   0.000000  -0.000005   0.000430  -0.027248  -0.012934
    15  N    0.000000   0.000000  -0.000000   0.000002   0.000431   0.005204
    16  C   -0.000000   0.000000   0.000000  -0.000000  -0.000004   0.000085
    17  C    0.000000   0.000000  -0.000000  -0.000000  -0.000001  -0.000091
    18  C    0.000000   0.000000  -0.000121   0.006882  -0.026085  -0.050647
    19  C   -0.000010  -0.000066   0.000766  -0.053438   0.552500  -0.045422
    20  C   -0.045471  -0.012687  -0.057051   0.368831  -0.040593   0.005402
    21  H   -0.000051   0.007108  -0.000100   0.003511  -0.000100  -0.000007
    22  H    0.000109  -0.000382   0.005973  -0.032283  -0.001439  -0.000159
    23  H   -0.000009   0.000391  -0.005804  -0.031679  -0.008985   0.005102
    24  H    0.005274  -0.000297   0.000106  -0.001153  -0.000095   0.000000
    25  H   -0.004494  -0.000038   0.000045   0.000184   0.000012  -0.000000
    26  H   -0.038537   0.004665   0.000095   0.004041  -0.000090   0.000002
    27  H    0.360274  -0.031169  -0.005837  -0.001152  -0.000095   0.000000
    28  H    0.367038  -0.039368   0.005139   0.000183   0.000012  -0.000000
    29  H   -0.031799   0.343656  -0.030086   0.003511  -0.000102  -0.000007
    30  H   -0.006296  -0.029777   0.355129  -0.032387  -0.001406  -0.000162
    31  H    0.005151  -0.038243   0.360718  -0.031710  -0.008914   0.005072
    32  H   -0.000002  -0.000111   0.000281  -0.008032  -0.046876   0.348830
    33  H   -0.000000  -0.000000  -0.000001  -0.000166   0.003472  -0.038963
    34  H    0.000000   0.000000  -0.000000  -0.000000  -0.000007   0.000327
    35  H    0.000000  -0.000000   0.000000  -0.000000   0.000000  -0.000005
    36  H    0.000000  -0.000000   0.000000   0.000000  -0.000005  -0.000080
    37  H    0.000000  -0.000000   0.000000   0.000000  -0.000006  -0.000014
    38  H   -0.000000   0.000000  -0.000000  -0.000000  -0.000008   0.000004
    39  H    0.000000  -0.000000   0.000000  -0.000000   0.000000   0.000003
    40  H   -0.000000  -0.000000   0.000002  -0.000166   0.003675   0.000651
    41  H   -0.000004  -0.000005   0.000218  -0.016018  -0.039282   0.006673
    42  H    0.005186  -0.000171   0.006169  -0.030685  -0.005880  -0.000069
    43  H   -0.003775  -0.001075  -0.006287  -0.030767  -0.005908  -0.000071
              13         14         15         16         17         18
     1  O   -0.000000  -0.000000   0.000000  -0.000000   0.000000   0.000000
     2  C   -0.000000  -0.000000   0.000000  -0.000000   0.000000   0.000000
     3  C   -0.000001  -0.000000  -0.000000  -0.000000   0.000000   0.000001
     4  C    0.000285   0.000008   0.000000  -0.000000   0.000000  -0.000150
     5  C    0.000000  -0.000000   0.000000   0.000000  -0.000000   0.000000
     6  C    0.000002   0.000000  -0.000000   0.000000  -0.000000  -0.000007
     7  C    0.000000  -0.000000   0.000000  -0.000000   0.000000   0.000000
     8  C   -0.000002   0.000000   0.000000   0.000000   0.000000   0.000000
     9  C    0.000360  -0.000005  -0.000000   0.000000  -0.000000  -0.000121
    10  C    0.005296   0.000430   0.000002  -0.000000  -0.000000   0.006882
    11  C   -0.024099  -0.027248   0.000431  -0.000004  -0.000001  -0.026085
    12  C    0.510844  -0.012934   0.005204   0.000085  -0.000091  -0.050647
    13  C    5.047502   0.516922  -0.072734  -0.011336   0.005955  -0.055089
    14  C    0.516922   4.489065   0.319376  -0.040298  -0.040544   0.522155
    15  N   -0.072734   0.319376   6.904781   0.327333   0.327820  -0.072812
    16  C   -0.011336  -0.040298   0.327333   4.968316  -0.061289   0.005959
    17  C    0.005955  -0.040544   0.327820  -0.061289   4.967653  -0.011466
    18  C   -0.055089   0.522155  -0.072812   0.005959  -0.011466   5.073088
    19  C   -0.048492  -0.011766   0.005083  -0.000082   0.000116   0.494233
    20  C   -0.000154  -0.000008  -0.000000   0.000000   0.000000   0.000233
    21  H   -0.000000   0.000000  -0.000000  -0.000000   0.000000  -0.000000
    22  H   -0.000056  -0.000011  -0.000000   0.000000   0.000000  -0.000024
    23  H    0.000007  -0.000007  -0.000000   0.000000   0.000000   0.000007
    24  H    0.000000  -0.000000  -0.000000  -0.000000   0.000000  -0.000000
    25  H    0.000000   0.000000  -0.000000  -0.000000   0.000000   0.000000
    26  H   -0.000000  -0.000000  -0.000000   0.000000   0.000000   0.000000
    27  H    0.000000  -0.000000  -0.000000  -0.000000  -0.000000  -0.000000
    28  H    0.000000   0.000000  -0.000000   0.000000  -0.000000   0.000000
    29  H   -0.000000  -0.000000  -0.000000  -0.000000  -0.000000  -0.000000
    30  H   -0.000069  -0.000007   0.000000   0.000000   0.000000  -0.000032
    31  H    0.000003  -0.000005  -0.000000   0.000000   0.000000   0.000005
    32  H   -0.039567   0.003644  -0.000114  -0.000003   0.000002   0.000719
    33  H    0.347933  -0.041086  -0.011651   0.007508  -0.000040   0.005680
    34  H    0.004021  -0.007084  -0.040243   0.376331   0.004602  -0.000251
    35  H    0.000437   0.003516  -0.032915   0.375281  -0.006996  -0.000140
    36  H    0.004884  -0.001755  -0.050052   0.363679   0.000760   0.000212
    37  H    0.000195  -0.001765  -0.050188   0.000764   0.363534   0.005089
    38  H   -0.000256  -0.007229  -0.040240   0.004619   0.376048   0.004276
    39  H   -0.000141   0.003501  -0.032909  -0.006990   0.375289   0.000440
    40  H    0.005685  -0.041703  -0.011770  -0.000039   0.007512   0.347299
    41  H    0.000632   0.003754  -0.000109   0.000002  -0.000006  -0.047075
    42  H    0.000000  -0.000008  -0.000000   0.000000   0.000000   0.000050
    43  H   -0.000004  -0.000003   0.000000   0.000000   0.000000   0.000027
              19         20         21         22         23         24
     1  O    0.000000  -0.000033   0.004263  -0.000079   0.000783  -0.000083
     2  C    0.000001  -0.003204  -0.031844   0.003536  -0.000864   0.003550
     3  C   -0.000062  -0.012706   0.343756  -0.029758  -0.038264  -0.031168
     4  C    0.000868  -0.056791  -0.030099   0.355294   0.360828  -0.005823
     5  C   -0.000010  -0.045455  -0.031784  -0.006290   0.005149   0.360344
     6  C    0.000549   0.362308   0.004210  -0.000804   0.000030  -0.033150
     7  C   -0.000010  -0.045471  -0.000051   0.000109  -0.000009   0.005274
     8  C   -0.000066  -0.012687   0.007108  -0.000382   0.000391  -0.000297
     9  C    0.000766  -0.057051  -0.000100   0.005973  -0.005804   0.000106
    10  C   -0.053438   0.368831   0.003511  -0.032283  -0.031679  -0.001153
    11  C    0.552500  -0.040593  -0.000100  -0.001439  -0.008985  -0.000095
    12  C   -0.045422   0.005402  -0.000007  -0.000159   0.005102   0.000000
    13  C   -0.048492  -0.000154  -0.000000  -0.000056   0.000007   0.000000
    14  C   -0.011766  -0.000008   0.000000  -0.000011  -0.000007  -0.000000
    15  N    0.005083  -0.000000  -0.000000  -0.000000  -0.000000  -0.000000
    16  C   -0.000082   0.000000  -0.000000   0.000000   0.000000  -0.000000
    17  C    0.000116   0.000000   0.000000   0.000000   0.000000   0.000000
    18  C    0.494233   0.000233  -0.000000  -0.000024   0.000007  -0.000000
    19  C    4.994938  -0.010251   0.000001   0.001155  -0.000243  -0.000003
    20  C   -0.010251   5.151746   0.000169  -0.005785   0.005777  -0.003763
    21  H    0.000001   0.000169   0.603934  -0.003847  -0.002776  -0.003984
    22  H    0.001155  -0.005785  -0.003847   0.597108  -0.034661   0.005737
    23  H   -0.000243   0.005777  -0.002776  -0.034661   0.594296  -0.000060
    24  H   -0.000003  -0.003763  -0.003984   0.005737  -0.000060   0.602297
    25  H    0.000000   0.004968  -0.002469  -0.000043  -0.000162  -0.035638
    26  H   -0.000000  -0.038654  -0.000148  -0.000099   0.000018  -0.003344
    27  H   -0.000003  -0.003783   0.000023  -0.000005   0.000001  -0.000202
    28  H    0.000000   0.004970  -0.000084   0.000001  -0.000005   0.000008
    29  H    0.000000   0.000169  -0.000183   0.000024  -0.000074   0.000023
    30  H    0.001198  -0.005794   0.000024  -0.000203  -0.000008  -0.000005
    31  H   -0.000244   0.005785  -0.000074  -0.000009   0.003258   0.000001
    32  H    0.006115   0.000065   0.000005   0.000063   0.003448   0.000000
    33  H    0.000652   0.000002   0.000000   0.000000   0.000006   0.000000
    34  H    0.000003   0.000000   0.000000  -0.000000   0.000000   0.000000
    35  H    0.000003   0.000000  -0.000000  -0.000000   0.000000   0.000000
    36  H   -0.000015  -0.000000  -0.000000   0.000000   0.000000  -0.000000
    37  H   -0.000087   0.000000  -0.000000   0.000000   0.000000  -0.000000
    38  H    0.000347   0.000000   0.000000  -0.000000  -0.000000   0.000000
    39  H   -0.000005   0.000000   0.000000   0.000000   0.000000   0.000000
    40  H   -0.038351   0.000004   0.000000   0.000001   0.000000   0.000000
    41  H    0.349941   0.007757   0.000000  -0.000030  -0.000007  -0.000001
    42  H    0.001857   0.357862  -0.000079   0.005425  -0.000042   0.004667
    43  H    0.001812   0.357744   0.000018  -0.000084  -0.000171  -0.000053
              25         26         27         28         29         30
     1  O    0.000712  -0.000000  -0.000084   0.000713   0.004272  -0.000080
     2  C   -0.000959   0.000317   0.003549  -0.000955  -0.031831   0.003536
     3  C   -0.039365   0.004666  -0.000296  -0.000040   0.007111  -0.000383
     4  C    0.005137   0.000093   0.000106   0.000046  -0.000102   0.005976
     5  C    0.367044  -0.038524   0.005274  -0.004483  -0.000052   0.000110
     6  C   -0.035317   0.368836  -0.033152  -0.035310   0.004213  -0.000808
     7  C   -0.004494  -0.038537   0.360274   0.367038  -0.031799  -0.006296
     8  C   -0.000038   0.004665  -0.031169  -0.039368   0.343656  -0.029777
     9  C    0.000045   0.000095  -0.005837   0.005139  -0.030086   0.355129
    10  C    0.000184   0.004041  -0.001152   0.000183   0.003511  -0.032387
    11  C    0.000012  -0.000090  -0.000095   0.000012  -0.000102  -0.001406
    12  C   -0.000000   0.000002   0.000000  -0.000000  -0.000007  -0.000162
    13  C    0.000000  -0.000000   0.000000   0.000000  -0.000000  -0.000069
    14  C    0.000000  -0.000000  -0.000000   0.000000  -0.000000  -0.000007
    15  N   -0.000000  -0.000000  -0.000000  -0.000000  -0.000000   0.000000
    16  C   -0.000000   0.000000  -0.000000   0.000000  -0.000000   0.000000
    17  C    0.000000   0.000000  -0.000000  -0.000000  -0.000000   0.000000
    18  C    0.000000   0.000000  -0.000000   0.000000  -0.000000  -0.000032
    19  C    0.000000  -0.000000  -0.000003   0.000000   0.000000   0.001198
    20  C    0.004968  -0.038654  -0.003783   0.004970   0.000169  -0.005794
    21  H   -0.002469  -0.000148   0.000023  -0.000084  -0.000183   0.000024
    22  H   -0.000043  -0.000099  -0.000005   0.000001   0.000024  -0.000203
    23  H   -0.000162   0.000018   0.000001  -0.000005  -0.000074  -0.000008
    24  H   -0.035638  -0.003344  -0.000202   0.000008   0.000023  -0.000005
    25  H    0.597437  -0.003352   0.000008   0.004410  -0.000084   0.000001
    26  H   -0.003352   0.630599  -0.003347  -0.003351  -0.000148  -0.000099
    27  H    0.000008  -0.003347   0.602601  -0.035648  -0.003987   0.005745
    28  H    0.004410  -0.003351  -0.035648   0.597399  -0.002468  -0.000044
    29  H   -0.000084  -0.000148  -0.003987  -0.002468   0.604169  -0.003852
    30  H    0.000001  -0.000099   0.005745  -0.000044  -0.003852   0.597978
    31  H   -0.000005   0.000018  -0.000060  -0.000162  -0.002780  -0.034723
    32  H   -0.000000   0.000000   0.000000  -0.000000   0.000005   0.000063
    33  H   -0.000000   0.000000   0.000000  -0.000000   0.000000   0.000000
    34  H   -0.000000  -0.000000  -0.000000  -0.000000  -0.000000   0.000000
    35  H   -0.000000   0.000000   0.000000  -0.000000   0.000000  -0.000000
    36  H    0.000000   0.000000   0.000000   0.000000   0.000000  -0.000000
    37  H    0.000000   0.000000   0.000000  -0.000000   0.000000  -0.000000
    38  H   -0.000000  -0.000000  -0.000000   0.000000  -0.000000   0.000000
    39  H   -0.000000  -0.000000   0.000000  -0.000000   0.000000   0.000000
    40  H   -0.000000   0.000000   0.000000  -0.000000   0.000000   0.000001
    41  H   -0.000000   0.000009  -0.000002  -0.000000   0.000000  -0.000030
    42  H   -0.000028  -0.003656  -0.000053  -0.000163   0.000018  -0.000085
    43  H   -0.000163  -0.003657   0.004690  -0.000028  -0.000080   0.005447
              31         32         33         34         35         36
     1  O    0.000783  -0.000001   0.000000  -0.000000  -0.000000  -0.000000
     2  C   -0.000860  -0.000047  -0.000000  -0.000000  -0.000000  -0.000000
     3  C    0.000389  -0.000113  -0.000000  -0.000000   0.000000   0.000000
     4  C   -0.005796   0.000261  -0.000001   0.000000  -0.000000  -0.000000
     5  C   -0.000008  -0.000002  -0.000000  -0.000000   0.000000  -0.000000
     6  C    0.000028  -0.000002  -0.000000  -0.000000  -0.000000   0.000000
     7  C    0.005151  -0.000002  -0.000000   0.000000   0.000000   0.000000
     8  C   -0.038243  -0.000111  -0.000000   0.000000  -0.000000  -0.000000
     9  C    0.360718   0.000281  -0.000001  -0.000000   0.000000   0.000000
    10  C   -0.031710  -0.008032  -0.000166  -0.000000  -0.000000   0.000000
    11  C   -0.008914  -0.046876   0.003472  -0.000007   0.000000  -0.000005
    12  C    0.005072   0.348830  -0.038963   0.000327  -0.000005  -0.000080
    13  C    0.000003  -0.039567   0.347933   0.004021   0.000437   0.004884
    14  C   -0.000005   0.003644  -0.041086  -0.007084   0.003516  -0.001755
    15  N   -0.000000  -0.000114  -0.011651  -0.040243  -0.032915  -0.050052
    16  C    0.000000  -0.000003   0.007508   0.376331   0.375281   0.363679
    17  C    0.000000   0.000002  -0.000040   0.004602  -0.006996   0.000760
    18  C    0.000005   0.000719   0.005680  -0.000251  -0.000140   0.000212
    19  C   -0.000244   0.006115   0.000652   0.000003   0.000003  -0.000015
    20  C    0.005785   0.000065   0.000002   0.000000   0.000000  -0.000000
    21  H   -0.000074   0.000005   0.000000   0.000000  -0.000000  -0.000000
    22  H   -0.000009   0.000063   0.000000  -0.000000  -0.000000   0.000000
    23  H    0.003258   0.003448   0.000006   0.000000   0.000000   0.000000
    24  H    0.000001   0.000000   0.000000   0.000000   0.000000  -0.000000
    25  H   -0.000005  -0.000000  -0.000000  -0.000000  -0.000000   0.000000
    26  H    0.000018   0.000000   0.000000  -0.000000   0.000000   0.000000
    27  H   -0.000060   0.000000   0.000000  -0.000000   0.000000   0.000000
    28  H   -0.000162  -0.000000  -0.000000  -0.000000  -0.000000   0.000000
    29  H   -0.002780   0.000005   0.000000  -0.000000   0.000000   0.000000
    30  H   -0.034723   0.000063   0.000000   0.000000  -0.000000  -0.000000
    31  H    0.594531   0.003514   0.000006   0.000000   0.000000  -0.000000
    32  H    0.003514   0.611548  -0.006372  -0.000002  -0.000000  -0.000002
    33  H    0.000006  -0.006372   0.609945   0.000459  -0.000012   0.000839
    34  H    0.000000  -0.000002   0.000459   0.575305  -0.025531  -0.051585
    35  H    0.000000  -0.000000  -0.000012  -0.025531   0.560220  -0.033953
    36  H   -0.000000  -0.000002   0.000839  -0.051585  -0.033953   0.616644
    37  H   -0.000000   0.000000   0.000004  -0.000437  -0.000322   0.002577
    38  H    0.000000   0.000000  -0.000004   0.000005   0.000378  -0.000438
    39  H   -0.000000  -0.000000  -0.000004   0.000376   0.006937  -0.000318
    40  H    0.000000   0.000018  -0.000186  -0.000004  -0.000004   0.000004
    41  H   -0.000006  -0.000206   0.000018   0.000000  -0.000000   0.000000
    42  H   -0.000171   0.000002   0.000000  -0.000000   0.000000   0.000000
    43  H   -0.000041   0.000003   0.000000   0.000000  -0.000000  -0.000000
              37         38         39         40         41         42
     1  O   -0.000000  -0.000000   0.000000   0.000000   0.000000   0.000000
     2  C   -0.000000   0.000000   0.000000  -0.000000  -0.000001   0.000161
     3  C    0.000000  -0.000000  -0.000000  -0.000000  -0.000005  -0.001068
     4  C   -0.000000   0.000000   0.000000   0.000001   0.000228  -0.006273
     5  C   -0.000000   0.000000   0.000000  -0.000000  -0.000004  -0.003762
     6  C   -0.000000   0.000000  -0.000000  -0.000000   0.000001  -0.036015
     7  C    0.000000  -0.000000   0.000000  -0.000000  -0.000004   0.005186
     8  C   -0.000000   0.000000  -0.000000  -0.000000  -0.000005  -0.000171
     9  C    0.000000  -0.000000   0.000000   0.000002   0.000218   0.006169
    10  C    0.000000  -0.000000  -0.000000  -0.000166  -0.016018  -0.030685
    11  C   -0.000006  -0.000008   0.000000   0.003675  -0.039282  -0.005880
    12  C   -0.000014   0.000004   0.000003   0.000651   0.006673  -0.000069
    13  C    0.000195  -0.000256  -0.000141   0.005685   0.000632   0.000000
    14  C   -0.001765  -0.007229   0.003501  -0.041703   0.003754  -0.000008
    15  N   -0.050188  -0.040240  -0.032909  -0.011770  -0.000109  -0.000000
    16  C    0.000764   0.004619  -0.006990  -0.000039   0.000002   0.000000
    17  C    0.363534   0.376048   0.375289   0.007512  -0.000006   0.000000
    18  C    0.005089   0.004276   0.000440   0.347299  -0.047075   0.000050
    19  C   -0.000087   0.000347  -0.000005  -0.038351   0.349941   0.001857
    20  C    0.000000   0.000000   0.000000   0.000004   0.007757   0.357862
    21  H   -0.000000   0.000000   0.000000   0.000000   0.000000  -0.000079
    22  H    0.000000  -0.000000   0.000000   0.000001  -0.000030   0.005425
    23  H    0.000000  -0.000000   0.000000   0.000000  -0.000007  -0.000042
    24  H   -0.000000   0.000000   0.000000   0.000000  -0.000001   0.004667
    25  H    0.000000  -0.000000  -0.000000  -0.000000  -0.000000  -0.000028
    26  H    0.000000  -0.000000  -0.000000   0.000000   0.000009  -0.003656
    27  H    0.000000  -0.000000   0.000000   0.000000  -0.000002  -0.000053
    28  H   -0.000000   0.000000  -0.000000  -0.000000  -0.000000  -0.000163
    29  H    0.000000  -0.000000   0.000000   0.000000   0.000000   0.000018
    30  H   -0.000000   0.000000   0.000000   0.000001  -0.000030  -0.000085
    31  H   -0.000000   0.000000  -0.000000   0.000000  -0.000006  -0.000171
    32  H    0.000000   0.000000  -0.000000   0.000018  -0.000206   0.000002
    33  H    0.000004  -0.000004  -0.000004  -0.000186   0.000018   0.000000
    34  H   -0.000437   0.000005   0.000376  -0.000004   0.000000  -0.000000
    35  H   -0.000322   0.000378   0.006937  -0.000004  -0.000000   0.000000
    36  H    0.002577  -0.000438  -0.000318   0.000004   0.000000   0.000000
    37  H    0.617570  -0.051822  -0.033983   0.000857  -0.000001   0.000000
    38  H   -0.051822   0.576266  -0.025561   0.000431  -0.000003  -0.000000
    39  H   -0.033983  -0.025561   0.560362  -0.000012  -0.000000   0.000000
    40  H    0.000857   0.000431  -0.000012   0.612739  -0.006415   0.000004
    41  H   -0.000001  -0.000003  -0.000000  -0.006415   0.613770   0.002214
    42  H    0.000000  -0.000000   0.000000   0.000004   0.002214   0.609385
    43  H   -0.000000   0.000000   0.000000   0.000002   0.002356  -0.039444
              43
     1  O    0.000000
     2  C    0.000162
     3  C   -0.000171
     4  C    0.006161
     5  C    0.005192
     6  C   -0.036093
     7  C   -0.003775
     8  C   -0.001075
     9  C   -0.006287
    10  C   -0.030767
    11  C   -0.005908
    12  C   -0.000071
    13  C   -0.000004
    14  C   -0.000003
    15  N    0.000000
    16  C    0.000000
    17  C    0.000000
    18  C    0.000027
    19  C    0.001812
    20  C    0.357744
    21  H    0.000018
    22  H   -0.000084
    23  H   -0.000171
    24  H   -0.000053
    25  H   -0.000163
    26  H   -0.003657
    27  H    0.004690
    28  H   -0.000028
    29  H   -0.000080
    30  H    0.005447
    31  H   -0.000041
    32  H    0.000003
    33  H    0.000000
    34  H    0.000000
    35  H   -0.000000
    36  H   -0.000000
    37  H   -0.000000
    38  H    0.000000
    39  H    0.000000
    40  H    0.000002
    41  H    0.002356
    42  H   -0.039444
    43  H    0.609979
 Mulliken charges:
               1
     1  O   -0.462595
     2  C    0.453659
     3  C   -0.166541
     4  C   -0.287093
     5  C   -0.279178
     6  C   -0.095671
     7  C   -0.279192
     8  C   -0.166492
     9  C   -0.286934
    10  C    0.001497
    11  C    0.166597
    12  C   -0.198802
    13  C   -0.198965
    14  C    0.371095
    15  N   -0.474292
    16  C   -0.309836
    17  C   -0.308861
    18  C   -0.202457
    19  C   -0.203588
    20  C   -0.291607
    21  H    0.140608
    22  H    0.141627
    23  H    0.144721
    24  H    0.136815
    25  H    0.142159
    26  H    0.123650
    27  H    0.136601
    28  H    0.142190
    29  H    0.140464
    30  H    0.141042
    31  H    0.144550
    32  H    0.122864
    33  H    0.121963
    34  H    0.163717
    35  H    0.153108
    36  H    0.148603
    37  H    0.148035
    38  H    0.163189
    39  H    0.153015
    40  H    0.119762
    41  H    0.121638
    42  H    0.134651
    43  H    0.134284
 Sum of Mulliken charges =  -0.00000
 Mulliken charges with hydrogens summed into heavy atoms:
               1
     1  O   -0.462595
     2  C    0.453659
     3  C   -0.025933
     4  C   -0.000745
     5  C   -0.000204
     6  C    0.027979
     7  C   -0.000401
     8  C   -0.026028
     9  C   -0.001342
    10  C    0.001497
    11  C    0.166597
    12  C   -0.075938
    13  C   -0.077002
    14  C    0.371095
    15  N   -0.474292
    16  C    0.155593
    17  C    0.155377
    18  C   -0.082695
    19  C   -0.081950
    20  C   -0.022673
 APT charges:
               1
     1  O   -0.652498
     2  C    0.703935
     3  C   -0.052883
     4  C    0.071752
     5  C    0.113676
     6  C    0.120759
     7  C    0.113345
     8  C   -0.052383
     9  C    0.070558
    10  C    0.144304
    11  C   -0.110405
    12  C    0.059085
    13  C   -0.189106
    14  C    0.618085
    15  N   -0.931939
    16  C    0.395938
    17  C    0.398281
    18  C   -0.201620
    19  C    0.070522
    20  C    0.051628
    21  H   -0.065144
    22  H   -0.037664
    23  H   -0.025746
    24  H   -0.044250
    25  H   -0.049665
    26  H   -0.081234
    27  H   -0.044388
    28  H   -0.049582
    29  H   -0.065258
    30  H   -0.038334
    31  H   -0.026084
    32  H    0.019513
    33  H    0.019089
    34  H   -0.021833
    35  H   -0.016182
    36  H   -0.071731
    37  H   -0.072590
    38  H   -0.022509
    39  H   -0.016152
    40  H    0.017506
    41  H    0.029032
    42  H   -0.038686
    43  H   -0.039138
 Sum of APT charges =   0.00000
 APT charges with hydrogens summed into heavy atoms:
               1
     1  O   -0.652498
     2  C    0.703935
     3  C   -0.118027
     4  C    0.008342
     5  C    0.019761
     6  C    0.039526
     7  C    0.019374
     8  C   -0.117642
     9  C    0.006140
    10  C    0.144304
    11  C   -0.110405
    12  C    0.078598
    13  C   -0.170016
    14  C    0.618085
    15  N   -0.931939
    16  C    0.286191
    17  C    0.287030
    18  C   -0.184114
    19  C    0.099554
    20  C   -0.026197
 Electronic spatial extent (au):  <R**2>=           7220.5939
 Charge=             -0.0000 electrons
 Dipole moment (field-independent basis, Debye):
    X=              3.8315    Y=             -2.4417    Z=              0.2907  Tot=              4.5526
 Quadrupole moment (field-independent basis, Debye-Ang):
   XX=           -113.5172   YY=           -120.7851   ZZ=           -120.4721
   XY=             13.6189   XZ=              1.5798   YZ=             -0.0787
 Traceless Quadrupole moment (field-independent basis, Debye-Ang):
   XX=              4.7409   YY=             -2.5270   ZZ=             -2.2140
   XY=             13.6189   XZ=              1.5798   YZ=             -0.0787
 Octapole moment (field-independent basis, Debye-Ang**2):
  XXX=            184.0457  YYY=             -8.1900  ZZZ=              1.1668  XYY=             43.4144
  XXY=            -53.0562  XXZ=              6.4827  XZZ=            -17.2624  YZZ=              2.5871
  YYZ=             -1.2163  XYZ=              0.4479
 Hexadecapole moment (field-independent basis, Debye-Ang**3):
 XXXX=          -7431.9286 YYYY=          -1151.8207 ZZZZ=           -584.4852 XXXY=            260.2943
 XXXZ=             32.1663 YYYX=             54.7377 YYYZ=             -1.0212 ZZZX=              3.5141
 ZZZY=              0.4312 XXYY=          -1595.5574 XXZZ=          -1445.0131 YYZZ=           -288.9252
 XXYZ=             -0.4749 YYXZ=             -4.3939 ZZXY=            -13.2354
 N-N= 1.572948278027D+03 E-N=-5.069724718682D+03  KE= 8.217938787591D+02
  Exact polarizability: 268.576  -1.257 178.421   1.416  -0.129 132.062
 Approx polarizability: 341.220 -10.023 301.645  -0.552  -0.518 202.021
 Calling FoFJK, ICntrl=    100127 FMM=F ISym2X=0 I1Cent= 0 IOpClX= 0 NMat=1 NMatS=1 NMatT=0.
 Full mass-weighted force constant matrix:
 Low frequencies ---   -3.4730   -2.1445   -0.0007   -0.0006    0.0001    5.5941
 Low frequencies ---   35.1799   47.3243   69.8583
 Diagonal vibrational polarizability:
       42.9043888       8.9659115      23.7573610
 Harmonic frequencies (cm**-1), IR intensities (KM/Mole), Raman scattering
 activities (A**4/AMU), depolarization ratios for plane and unpolarized
 incident light, reduced masses (AMU), force constants (mDyne/A),
 and normal coordinates:
                      1                      2                      3
                      A                      A                      A
 Frequencies --     35.1084                47.3223                69.8581
 Red. masses --      3.3820                 3.6396                 8.2853
 Frc consts  --      0.0025                 0.0048                 0.0238
 IR Inten    --      0.0796                 0.9426                 2.2124
  Atom  AN      X      Y      Z        X      Y      Z        X      Y      Z
     1   8     0.01   0.01   0.13     0.00  -0.00   0.03     0.49   0.31  -0.01
     2   6     0.00   0.00   0.07     0.00  -0.00   0.02     0.14   0.06  -0.01
     3   6    -0.03   0.05   0.03    -0.06  -0.04   0.02     0.00  -0.04  -0.00
     4   6    -0.03   0.04  -0.01    -0.06  -0.04  -0.07     0.00  -0.12  -0.01
     5   6    -0.03   0.05  -0.02    -0.06  -0.04   0.09    -0.06  -0.02   0.01
     6   6    -0.00   0.00  -0.06     0.00  -0.00   0.08    -0.07  -0.04   0.00
     7   6     0.03  -0.05  -0.02     0.07   0.03   0.09    -0.06  -0.01  -0.01
     8   6     0.03  -0.05   0.03     0.07   0.04   0.01    -0.00  -0.04   0.00
     9   6     0.03  -0.05  -0.01     0.07   0.04  -0.07    -0.00  -0.11   0.01
    10   6    -0.00  -0.00  -0.05     0.00   0.00  -0.08    -0.03  -0.12   0.00
    11   6    -0.00  -0.01  -0.07     0.00   0.00  -0.13    -0.03  -0.10   0.00
    12   6    -0.00  -0.01  -0.16    -0.00   0.00  -0.11    -0.08  -0.08   0.02
    13   6     0.00  -0.01  -0.14     0.00   0.00  -0.07    -0.09  -0.02   0.02
    14   6     0.00  -0.01  -0.01     0.00   0.00  -0.04    -0.05   0.02  -0.00
    15   7     0.00  -0.02   0.04     0.01   0.01   0.06    -0.05   0.10  -0.00
    16   6    -0.01   0.02  -0.13    -0.02  -0.01   0.28    -0.13   0.14   0.00
    17   6    -0.01   0.02   0.27    -0.02  -0.01   0.07     0.02   0.14  -0.00
    18   6     0.00  -0.01   0.09     0.00   0.00  -0.12     0.01  -0.01  -0.02
    19   6     0.00  -0.01   0.05     0.00   0.00  -0.16     0.01  -0.07  -0.02
    20   6    -0.00  -0.00  -0.09     0.00   0.00  -0.01    -0.07  -0.10   0.01
    21   1    -0.05   0.09   0.06    -0.11  -0.06   0.02     0.03  -0.02  -0.00
    22   1    -0.06   0.08  -0.04    -0.11  -0.06  -0.07    -0.02  -0.15   0.00
    23   1    -0.03   0.05   0.02    -0.06  -0.04  -0.12     0.04  -0.13  -0.04
    24   1    -0.06   0.09  -0.05    -0.12  -0.06   0.09    -0.10  -0.03   0.01
    25   1    -0.03   0.06   0.01    -0.06  -0.03   0.15    -0.06   0.02   0.03
    26   1    -0.01   0.00  -0.09     0.01  -0.00   0.13    -0.11  -0.03   0.01
    27   1     0.05  -0.09  -0.05     0.12   0.06   0.08    -0.10  -0.02   0.00
    28   1     0.03  -0.05   0.01     0.07   0.03   0.15    -0.07   0.03  -0.03
    29   1     0.06  -0.08   0.06     0.11   0.06   0.02     0.02  -0.02  -0.00
    30   1     0.06  -0.08  -0.04     0.12   0.06  -0.08    -0.03  -0.15   0.01
    31   1     0.04  -0.05   0.02     0.06   0.04  -0.12     0.04  -0.13   0.04
    32   1    -0.00  -0.01  -0.25    -0.00   0.00  -0.12    -0.12  -0.10   0.04
    33   1    -0.00  -0.01  -0.22    -0.00   0.00  -0.05    -0.14   0.00   0.04
    34   1    -0.00  -0.08  -0.23     0.08   0.07   0.33    -0.16   0.11  -0.01
    35   1    -0.01   0.01  -0.10    -0.01  -0.00   0.40    -0.12   0.20   0.02
    36   1    -0.02   0.15  -0.19    -0.15  -0.13   0.30    -0.17   0.13  -0.00
    37   1    -0.08   0.17   0.31    -0.09  -0.04   0.05     0.05   0.14  -0.00
    38   1     0.05  -0.09   0.36     0.03   0.02   0.03     0.06   0.13  -0.00
    39   1    -0.00   0.01   0.31    -0.01  -0.01   0.15     0.00   0.20  -0.01
    40   1     0.00  -0.01   0.18     0.00   0.00  -0.13     0.05   0.01  -0.04
    41   1    -0.00  -0.00   0.13     0.00   0.00  -0.19     0.04  -0.09  -0.04
    42   1    -0.02   0.03  -0.12    -0.05  -0.02  -0.01    -0.09  -0.11   0.01
    43   1     0.01  -0.03  -0.12     0.05   0.03  -0.01    -0.09  -0.11   0.01
                      4                      5                      6
                      A                      A                      A
 Frequencies --     76.7477               116.5195               122.8225
 Red. masses --      2.9407                 2.8298                 4.3668
 Frc consts  --      0.0102                 0.0226                 0.0388
 IR Inten    --      0.1077                 9.6723                 1.5376
  Atom  AN      X      Y      Z        X      Y      Z        X      Y      Z
     1   8    -0.01  -0.01  -0.03    -0.00   0.00   0.02     0.19   0.09  -0.00
     2   6    -0.00  -0.00  -0.01    -0.00   0.00   0.01    -0.03  -0.06   0.00
     3   6     0.00  -0.01  -0.00    -0.04  -0.01  -0.01    -0.07  -0.09   0.00
     4   6     0.00  -0.01  -0.00    -0.04  -0.02  -0.07    -0.07   0.04  -0.00
     5   6     0.00  -0.02   0.02    -0.05  -0.01   0.03     0.04  -0.12   0.00
     6   6     0.00   0.00   0.03    -0.00   0.00   0.01     0.09  -0.08  -0.00
     7   6     0.00   0.02   0.02     0.05   0.01   0.03     0.04  -0.13  -0.00
     8   6     0.00   0.02  -0.00     0.04   0.01  -0.01    -0.07  -0.09   0.00
     9   6     0.00   0.02  -0.00     0.04   0.01  -0.07    -0.07   0.04   0.01
    10   6     0.00   0.00   0.01    -0.00  -0.00  -0.08    -0.02   0.09  -0.00
    11   6     0.00   0.00  -0.00    -0.00  -0.00  -0.06    -0.02   0.14  -0.00
    12   6     0.01  -0.00   0.14    -0.00   0.00   0.00     0.01   0.13  -0.01
    13   6     0.01  -0.00   0.14     0.00   0.00   0.11     0.02   0.08  -0.01
    14   6     0.00  -0.00  -0.02    -0.00   0.00   0.14    -0.02   0.05   0.00
    15   7     0.00  -0.02  -0.00    -0.02   0.00   0.23    -0.01  -0.05  -0.00
    16   6     0.01   0.01  -0.15     0.01   0.04  -0.11     0.11  -0.11  -0.01
    17   6    -0.01   0.01   0.20     0.02  -0.04  -0.11    -0.12  -0.13   0.01
    18   6    -0.00  -0.01  -0.19     0.00  -0.00   0.07    -0.06   0.08   0.01
    19   6    -0.00  -0.00  -0.18    -0.00  -0.00  -0.03    -0.05   0.12   0.01
    20   6     0.00   0.00   0.02    -0.00  -0.00  -0.05     0.08   0.05  -0.00
    21   1    -0.00  -0.03  -0.01    -0.07  -0.02   0.00    -0.11  -0.11   0.00
    22   1     0.00  -0.02   0.00    -0.08  -0.03  -0.07    -0.03   0.07  -0.00
    23   1     0.00  -0.01  -0.01    -0.04  -0.02  -0.09    -0.16   0.07  -0.00
    24   1     0.00  -0.03   0.03    -0.10  -0.02   0.02     0.07  -0.10   0.00
    25   1     0.00  -0.01   0.02    -0.05   0.00   0.08     0.04  -0.21   0.00
    26   1     0.00   0.00   0.04    -0.00   0.00   0.03     0.18  -0.11  -0.00
    27   1     0.00   0.03   0.03     0.10   0.02   0.02     0.08  -0.10  -0.00
    28   1     0.00   0.02   0.02     0.05  -0.00   0.08     0.04  -0.21  -0.00
    29   1     0.00   0.03  -0.01     0.07   0.02   0.00    -0.11  -0.12   0.00
    30   1    -0.00   0.02   0.00     0.07   0.03  -0.08    -0.03   0.07   0.00
    31   1    -0.00   0.02  -0.01     0.03   0.01  -0.09    -0.16   0.07   0.01
    32   1     0.01   0.00   0.28    -0.00  -0.00  -0.02     0.03   0.14  -0.02
    33   1     0.01  -0.00   0.28     0.01   0.00   0.15     0.06   0.07  -0.01
    34   1    -0.10  -0.05  -0.15     0.09  -0.16  -0.35     0.09  -0.06   0.04
    35   1    -0.00   0.02  -0.28     0.02  -0.03   0.01     0.09  -0.19  -0.12
    36   1     0.13   0.07  -0.14    -0.05   0.34  -0.25     0.23  -0.12   0.02
    37   1    -0.19   0.07   0.20    -0.02  -0.36  -0.25    -0.24  -0.15  -0.02
    38   1     0.14  -0.04   0.21     0.08   0.17  -0.36    -0.12  -0.08  -0.04
    39   1    -0.00   0.02   0.38     0.01   0.03   0.03    -0.10  -0.20   0.12
    40   1    -0.01  -0.01  -0.34     0.01  -0.00   0.08    -0.09   0.06   0.01
    41   1    -0.01  -0.00  -0.31    -0.00  -0.00  -0.08    -0.07   0.14   0.02
    42   1    -0.01  -0.00   0.02    -0.03  -0.00  -0.06     0.13   0.08  -0.00
    43   1     0.02   0.01   0.02     0.03   0.00  -0.06     0.12   0.08  -0.00
                      7                      8                      9
                      A                      A                      A
 Frequencies --    152.7212               192.4436               215.8517
 Red. masses --      1.5481                 1.4652                 4.4212
 Frc consts  --      0.0213                 0.0320                 0.1214
 IR Inten    --      1.4332                 0.1631                 0.6069
  Atom  AN      X      Y      Z        X      Y      Z        X      Y      Z
     1   8     0.00  -0.01  -0.02    -0.02  -0.02   0.00    -0.02   0.06  -0.01
     2   6     0.01  -0.00  -0.00     0.03   0.01   0.00    -0.09   0.01   0.01
     3   6     0.04   0.01   0.01     0.03   0.01  -0.00    -0.09  -0.02   0.02
     4   6     0.04   0.02   0.05     0.02  -0.04  -0.00    -0.08  -0.00   0.06
     5   6     0.06   0.00  -0.02    -0.02   0.03  -0.00    -0.07  -0.03  -0.00
     6   6     0.01   0.00   0.00    -0.03   0.01  -0.00    -0.10  -0.01   0.01
     7   6    -0.03   0.00  -0.02    -0.02   0.03  -0.00    -0.19  -0.00  -0.03
     8   6    -0.02  -0.00   0.01     0.02   0.01   0.00    -0.13  -0.02   0.00
     9   6    -0.01  -0.01   0.06     0.02  -0.04   0.01    -0.10  -0.05   0.05
    10   6     0.01   0.00   0.06     0.01  -0.04   0.00    -0.04  -0.01   0.04
    11   6     0.01   0.00   0.03     0.00  -0.02   0.00     0.02   0.01  -0.03
    12   6     0.00   0.00  -0.03    -0.03  -0.01  -0.03     0.07  -0.01  -0.09
    13   6     0.00   0.00  -0.09    -0.03   0.04  -0.02     0.08  -0.01  -0.08
    14   6    -0.01  -0.00  -0.05    -0.00   0.06  -0.00     0.12   0.01   0.00
    15   7    -0.01  -0.00   0.06    -0.00   0.03   0.00     0.14   0.01   0.13
    16   6    -0.05   0.02   0.00     0.08  -0.01   0.01     0.19   0.01   0.00
    17   6    -0.04  -0.03  -0.00    -0.08  -0.02  -0.01     0.19   0.01   0.00
    18   6    -0.00  -0.01  -0.07     0.02   0.04   0.02     0.08   0.02  -0.07
    19   6     0.00  -0.00  -0.02     0.03  -0.00   0.03     0.07   0.02  -0.08
    20   6     0.01   0.00   0.05    -0.02  -0.03   0.00    -0.07  -0.01   0.06
    21   1     0.06   0.01   0.00     0.04   0.02  -0.00    -0.07  -0.03   0.01
    22   1     0.07   0.03   0.06     0.01  -0.06   0.00    -0.07   0.03   0.04
    23   1     0.03   0.02   0.08     0.06  -0.05  -0.02    -0.11   0.01   0.08
    24   1     0.11   0.01  -0.01    -0.04   0.02  -0.00    -0.03  -0.02   0.00
    25   1     0.06  -0.01  -0.07    -0.02   0.06   0.01    -0.07  -0.06  -0.04
    26   1     0.01   0.00  -0.01    -0.06   0.02  -0.00    -0.08  -0.02   0.01
    27   1    -0.07  -0.01  -0.01    -0.05   0.01   0.00    -0.31  -0.01   0.01
    28   1    -0.03   0.01  -0.06    -0.02   0.06  -0.02    -0.19   0.05  -0.15
[...]
 0000060,0.00000425,0.00000777,-0.00000267,-0.00001251,0.00000093,0.000
 00004,-0.00001787,-0.00000424,-0.00000046,0.00000453,0.00000766,0.0000
 0243,-0.00001269,0.00001403,0.00000448,-0.00001395,-0.00000366,-0.0000
 0549,0.00000183,-0.00001138,-0.00000563,-0.00000041,0.00003072,-0.0000
 0439,-0.00000862,0.00011285,0.00000158,0.00007987,-0.00045980,-0.00006
 116,0.00059646,-0.00128985,0.00006346,0.00087518,0.00008410,0.00006145
 ,-0.00002684,0.00277245,0.00027910,-0.00933770,0.00590786,0.00247041,-
 0.01556925,-0.09678198,-0.02351230,0.30748748,-0.00008267,-0.00000170,
 -0.00000560,0.00010803,0.00000430,0.00000916,-0.00003982,0.00006827,-0
 .00003046,-0.00007613,-0.00015265,0.00017987,-0.00001731,-0.00002432,-
 0.00001247,0.00005150,0.00000049,-0.00001276,-0.00001713,0.00002466,-0
 .00001242,-0.00003463,-0.00006122,-0.00002888,-0.00006245,0.00014822,0
 .00015291,-0.00042070,0.00005941,-0.00059239,0.00102993,0.00007597,0.0
 0330258,0.00078846,-0.00000567,-0.00011903,0.00042500,0.00010038,-0.00
 310419,-0.01139428,0.00006194,0.00193895,-0.00035905,0.00010296,0.0003
 1850,0.00012947,-0.00005345,-0.00015802,-0.00162616,-0.00038958,0.0023
 3509,-0.34109889,0.00430195,-0.02233299,-0.01400194,-0.00000338,-0.002
 52375,-0.00012267,-0.00000204,-0.00005461,-0.00003116,0.00000398,0.000
 04048,0.00001169,0.00001315,0.00000159,0.00000736,-0.00000408,-0.00000
 648,0.00000899,0.00000605,-0.00000335,-0.00000525,0.00000319,0.0000180
 7,-0.00000498,-0.00000019,0.00004299,0.00000903,-0.00000657,-0.0000032
 2,-0.00000556,-0.00000324,0.00001759,-0.00002944,-0.00000453,0.0000375
 4,0.00001163,-0.00001450,0.00000087,0.00000710,0.00000235,-0.00000601,
 -0.00009915,-0.00001055,0.00001258,-0.00064283,-0.00004488,0.00015183,
 0.00003331,-0.00004981,0.00006378,0.00007418,0.00000102,-0.00012671,-0
 .00000440,0.00004189,0.00000343,-0.00010020,-0.00055887,0.00017334,-0.
 00015634,0.00071964,0.00222300,0.00068721,0.00001744,0.00065174,0.3658
 6596,-0.00000077,-0.00002824,-0.00000002,0.00000081,0.00007566,0.00000
 005,-0.00002590,0.00003984,0.00000902,-0.00010331,0.00004775,0.0001953
 5,-0.00000429,0.00000424,0.00001033,0.00000023,0.00002895,0.00000040,0
 .00000396,0.00000444,-0.00000950,0.00002859,0.00004269,-0.00000793,0.0
 0010320,0.00004534,-0.00020368,0.00000909,0.00064220,0.00000831,0.0001
 2089,0.00679962,0.00002261,-0.00007260,-0.00006437,-0.00007320,-0.0000
 4541,0.00473285,0.00010959,0.00039051,0.00327599,-0.00001576,-0.000049
 22,-0.00243346,0.00005967,-0.00006854,-0.00040292,-0.00019461,-0.00001
 900,0.00010696,-0.00015155,0.00445325,-0.03018682,0.00030420,-0.000055
 52,0.00092449,0.00011455,0.00000015,-0.00010958,0.00000029,-0.00001158
 ,-0.00000060,0.00001802,0.00000443,-0.00001464,0.00000309,0.00000582,-
 0.00003105,0.00000266,-0.00000178,-0.00000651,-0.00000144,0.00000203,0
 .00000133,0.00000526,-0.00000005,-0.00000178,-0.00000006,0.00000179,-0
 .00000629,0.00000130,-0.00000224,0.00000126,-0.00000491,0.00001184,-0.
 00000072,-0.00001878,-0.00000415,-0.00001407,-0.00000257,-0.00000402,-
 0.00003075,-0.00000140,0.00000854,-0.00100170,-0.00000204,0.00001519,0
 .00003282,0.00004979,0.00010446,-0.00000460,0.00015440,0.00000175,0.00
 001080,0.00000928,-0.00002218,0.00000859,-0.00018024,0.00065872,-0.000
 35758,-0.00092174,-0.00102074,0.00024751,0.00137192,-0.00008084,-0.000
 40588,-0.00003361,-0.00427834,0.02213061,0.00003750,0.00000050,0.00000
 835,-0.00006000,-0.00000124,-0.00000251,0.00004768,-0.00007549,0.00002
 042,0.00006819,0.00013014,-0.00020839,0.00000478,0.00000822,0.00002127
 ,-0.00003861,0.00000082,-0.00002183,0.00000514,-0.00000866,0.00002082,
 0.00004585,0.00007396,0.00002045,0.00006435,-0.00012809,-0.00020271,0.
 00097679,-0.00001480,0.00057750,0.00221441,0.00006174,-0.00418898,0.00
 003249,-0.00001965,-0.00144080,-0.00163546,0.00017392,-0.00517528,-0.0
 2873231,0.00035483,0.00455488,0.00087940,-0.00001148,0.00138585,-0.000
 08887,-0.00015577,-0.00015104,-0.00035283,-0.00019438,-0.00270371,-0.0
 2052540,0.00019728,-0.06069116,0.02901475,-0.00022976,0.00464339,0.000
 06524,-0.00000287,0.00011752,0.00002340,-0.00000328,-0.00003523,-0.000
 00404,-0.00002192,0.00000275,0.00000939,0.00000321,0.00000819,-0.00000
 465,-0.00000575,-0.00000063,-0.00000280,0.00000102,-0.00000699,0.00000
 503,0.,-0.00002833,-0.00000468,0.00000605,-0.00000069,-0.00000269,-0.0
 0000080,-0.00000689,0.00002314,0.00000347,-0.00003457,-0.00000398,0.00
 002249,0.00000284,0.00000938,-0.00000310,0.00000844,0.00002433,-0.0000
 1281,0.00012453,-0.00165336,0.00001433,0.00012410,0.00009772,-0.000054
 68,0.00013240,0.00005671,0.00000854,-0.00002904,0.00005475,0.00009224,
 0.00005867,0.00048440,-0.00026470,-0.00022970,0.00163675,0.00063025,-0
 .00191390,0.00005420,0.00008317,0.00019772,0.01724918,-0.00060561,0.06
 399787,0.00013017,-0.00000032,0.00000198,-0.00015428,0.00000084,0.0000
 1215,-0.00002364,0.00003634,-0.00000990,-0.00002595,0.00002520,0.00014
 763,0.00001678,0.00013551,-0.00021750,0.00030855,-0.00001466,0.0005840
 2,0.00001224,-0.00013271,-0.00021257,-0.00002590,-0.00004275,-0.000010
 34,-0.00004202,-0.00001686,0.00015922,0.00127277,-0.00003418,-0.001743
 88,-0.01028099,0.00028581,-0.02865558,-0.00637295,0.00005857,0.0013642
 5,-0.00054087,0.00001604,0.00083088,-0.00145185,-0.00003979,0.00349842
 ,0.00088882,0.00016045,0.00025887,-0.00014409,-0.00005254,0.00022602,-
 0.00000812,0.00001593,-0.00004492,0.01089811,-0.00021196,0.01615029,-0
 .13280114,0.00162759,-0.12276065,-0.00090818,0.00003597,0.00019285,0.0
 0002126,-0.00001133,0.00003417,-0.00001870,0.00004739,-0.00002322,0.00
 019378,-0.00010272,0.00003719,-0.00000590,0.00001261,0.00002764,0.0001
 0857,-0.00008730,-0.00000208,-0.00002356,0.00000028,-0.00002490,-0.000
 00571,-0.00001374,0.00002837,0.00010752,0.00008550,-0.00000237,0.00002
 045,0.00001140,0.00003528,-0.00001924,-0.00005139,-0.00002272,0.000194
 74,0.00010063,0.00003661,-0.00076355,-0.00001791,-0.00169967,0.0000937
 3,-0.00000715,-0.00008338,-0.00000504,-0.00001712,-0.00000459,0.000043
 34,0.00001077,0.00007124,-0.00002086,-0.00000933,-0.00002848,0.0000064
 3,-0.00000401,0.00003357,-0.00000964,-0.00002280,0.00001573,-0.0000175
 7,-0.00000126,-0.00001559,0.00115433,-0.00005331,-0.00003719,0.1383444
 8,0.00000051,0.00000324,0.00000030,0.,-0.00001392,-0.00000137,0.000095
 37,-0.00020397,0.00004215,0.00048704,0.00023521,-0.00049942,0.00008647
 ,0.00006961,-0.00006638,-0.00000769,-0.00050473,-0.00000916,-0.0000874
 8,0.00007311,0.00007300,-0.00009245,-0.00020419,-0.00003899,-0.0004932
 3,0.00023289,0.00049541,-0.00002678,-0.00379177,0.00001147,-0.00015490
 ,0.00344916,0.00012070,0.00009197,0.00571726,0.00008041,0.00009249,-0.
 00018372,-0.00012082,-0.00004359,0.00738226,-0.00003534,-0.00007212,0.
 00030569,-0.00000999,0.00001803,-0.00017173,0.00007375,0.00002264,0.00
 002737,-0.00001827,-0.00006638,0.00233802,0.00024860,0.00190120,-0.035
 61908,0.00231689,0.00000338,0.00115582,0.00000916,0.00003717,0.0000061
 4,-0.00005449,0.00001619,-0.00004503,-0.00001490,-0.00000212,-0.000034
 37,0.00000483,-0.00000466,-0.00002913,-0.00001329,0.00001450,-0.000029
 15,0.00000161,0.00000068,0.00001392,-0.00000128,0.00000445,-0.00002915
 ,0.00001323,-0.00001678,-0.00003181,-0.00000187,-0.00003718,0.00000573
 ,0.00005252,-0.00001630,-0.00004664,0.00001532,0.00000118,-0.00003506,
 -0.00000584,0.00000624,0.00050851,0.00003179,0.00001095,-0.00101292,0.
 00000076,0.00000661,0.00001224,0.00003846,0.00001583,-0.00004306,0.000
 02217,-0.00002695,0.00000014,-0.00005108,0.00001510,0.00000266,-0.0000
 1647,0.00000851,0.00001271,0.00000302,-0.00000109,0.00000996,0.0000018
 6,-0.00008689,-0.00415185,-0.00005319,-0.00169426,0.02546230,-0.000041
 09,0.,-0.00000024,0.00005004,0.00000004,-0.00001056,-0.00002616,0.0000
 5924,-0.00002977,-0.00015575,-0.00017208,0.00009112,0.00002409,-0.0000
 1556,-0.00004089,0.00061593,-0.00000154,0.00017311,0.00002207,0.000014
 43,-0.00004083,-0.00002663,-0.00006044,-0.00002882,-0.00015813,0.00017
 208,0.00009819,-0.00004899,-0.00002220,-0.00102022,-0.00099683,0.00000
 341,0.00331137,0.00016787,0.00005003,0.00126958,0.00079062,-0.00001386
 ,0.00027472,0.00408048,0.00005713,-0.00195995,-0.00096123,-0.00009195,
 -0.00115298,0.00044686,0.00011408,-0.00006046,-0.00040702,0.00004204,-
 0.00005325,-0.01502044,0.00031997,-0.02071664,-0.12327897,0.00235259,-
 0.26560628,0.00242786,-0.00001574,-0.00214508,-0.00002334,0.00000215,0
 .00003121,0.00001498,0.00002227,0.00001008,0.00000784,0.00001478,0.000
 00247,0.00000726,0.00000370,0.00000048,0.00000864,-0.00000853,0.000008
 76,-0.00004442,-0.00000002,0.00007795,0.00000724,-0.00000397,0.0000004
 6,0.00000856,0.00000808,0.00000914,-0.00002349,-0.00000219,0.00003148,
 0.00001226,-0.00002382,0.00001204,0.00000888,-0.00001414,0.00000253,0.
 00017616,0.00001173,0.00007863,-0.00005660,-0.00001137,-0.00006752,-0.
 00003757,0.00000335,-0.00000354,-0.00004526,-0.00002548,-0.00014290,-0
 .00004365,-0.00003239,-0.00001036,0.00005755,-0.00005713,0.00002733,0.
 00003345,0.00002751,0.00003539,0.00005240,-0.00001509,-0.00002240,0.00
 021632,-0.00001888,0.00107787,0.13017959,-0.00266475,0.28864998,-0.000
 02822,0.00038761,-0.00000411,0.00024320,-0.00099449,0.00000193,-0.0001
 1007,0.00050616,-0.00002566,0.00032262,-0.00152703,0.00068661,0.000270
 92,-0.00142035,-0.00074265,-0.01219883,-0.01543999,0.00038946,-0.00101
 189,0.00161867,0.00382803,0.00043131,0.00039167,-0.00008992,-0.0014601
 1,0.00163605,-0.00371375,-0.01236525,-0.01558416,-0.00090094,0.0001753
 6,0.00022888,0.00092593,-0.00004538,0.00021409,-0.00029341,-0.00007051
 ,-0.00000200,0.00011238,0.00008818,-0.00006484,0.00008586,0.00003601,0
 .00001409,-0.00003212,-0.00000364,-0.00000953,-0.00000028,-0.00001629,
 -0.00000233,-0.00000647,0.00018725,0.00002471,-0.00009043,-0.00018213,
 0.00058399,0.00049864,-0.13679674,-0.11871376,-0.00165788,-0.00006004,
 0.00004218,0.00001402,-0.00004343,0.00094428,-0.00023078,0.00038695,0.
 00024177,-0.00002176,-0.00008257,0.00097411,0.00020503,0.00041809,0.00
 020253,0.00000987,0.00087975,0.00036285,-0.00003952,0.00012105,-0.0002
 3216,-0.00002762,-0.00058750,-0.00106754,-0.00002724,-0.00001822,0.000
 01973,0.00003932,0.00012744,-0.00021637,0.00003008,-0.00063189,-0.0011
 4463,0.00002563,0.00002244,-0.00004088,0.00005087,0.00000280,-0.000029
 96,-0.00001295,-0.00000166,-0.00000152,-0.00000386,0.00000063,0.000001
 39,0.00000031,0.00000017,0.00000330,-0.00000110,0.00000072,-0.00000063
 ,0.00000369,0.00000408,0.00000236,0.00000307,0.00000066,-0.00000077,0.
 00000011,0.00001560,0.00001643,-0.00001848,-0.00007172,0.00043966,0.00
 096583,0.14984319,-0.00019901,0.00016305,0.00000296,0.00028325,-0.0004
 0831,-0.00000898,-0.00011519,0.00002196,-0.00000054,0.00071563,0.00055
 155,0.00024736,0.00064279,0.00058994,-0.00032078,0.00077725,-0.0004974
 7,0.00036274,0.00044461,0.00105282,0.00064073,0.00013448,0.00012413,-0
 .00003319,0.00012249,0.00101690,-0.00081322,0.00039610,-0.00096778,-0.
 00037134,-0.00028591,0.00017157,0.00041533,0.00018756,0.00001005,-0.00
 030948,-0.00002534,0.00000721,0.00011058,-0.00003852,-0.00008040,0.000
 05892,0.00007356,0.00000884,0.00005833,-0.00004387,-0.00002138,-0.0000
 2303,-0.00000753,-0.00001359,-0.00000506,0.00050217,0.00006199,0.00019
 053,-0.00122337,0.00057251,-0.00043029,-0.11877699,-0.21644933,-0.0016
 5405,-0.00000528,0.00002264,-0.00000666,-0.00015299,0.00052231,0.00010
 627,-0.00001086,0.00021190,-0.00011196,-0.00018373,0.00053246,-0.00006
 777,0.00002539,0.00021331,0.00010693,0.00002290,0.00011439,0.00054236,
 0.00012276,0.00043434,-0.00012742,-0.00036351,0.00011277,-0.00009478,-
 0.00004300,-0.00003964,0.00000716,0.00013018,0.00044172,0.00014790,-0.
 00041921,0.00010451,0.00008416,0.00008249,-0.00000546,0.00008228,0.000
 01978,-0.00000561,-0.00000904,0.00000700,0.00000017,-0.00000266,-0.000
 00039,0.00000301,0.00001086,0.00000893,0.00001050,0.00000451,-0.000003
 83,-0.00000167,-0.00000196,0.00001107,0.00001539,-0.00000149,0.0000004
 3,0.00000115,0.00001220,0.00000770,0.00002416,-0.00003885,0.00076093,-
 0.00044140,0.00016732,0.13204470,0.23301747,-0.00002723,-0.00001895,-0
 .00002163,0.00003605,0.00005047,-0.00005491,-0.00002138,-0.00001998,-0
 .00024321,0.00071274,-0.00112280,0.00093939,-0.00059723,0.00102627,0.0
 0101594,0.01742774,0.02339286,-0.00036518,0.00317383,-0.00136839,-0.00
 503195,0.00006228,0.00007076,-0.00042669,-0.00297934,0.00101250,-0.005
 26666,-0.01632439,-0.02296812,-0.00013734,-0.00022104,-0.00020042,0.00
 155090,-0.00012889,0.00024710,-0.00031018,-0.00018447,0.00001283,0.000
 24539,0.00029979,0.00003161,0.00005768,-0.00005801,-0.00002142,0.00011
 532,-0.00004349,-0.00001689,-0.00003942,0.00003646,-0.00000449,0.00000
 621,0.00022693,0.00006960,-0.00023393,0.00030311,-0.00014607,-0.000382
 78,-0.00167869,-0.00056084,-0.04733160,-0.00000304,-0.00000231,0.00008
 231,0.00004499,0.00069034,0.00007880,0.00034967,0.00003314,-0.00006366
 ,-0.00005898,-0.00072410,0.00003923,-0.00042552,0.00003025,-0.00006759
 ,-0.00079617,0.00022682,0.00098594,-0.00025216,-0.00030886,-0.00001193
 ,0.00140266,0.00141961,0.00006026,0.00002039,-0.00000098,0.00027737,0.
 00020260,0.00023802,-0.00000515,-0.00145968,-0.00148297,0.00015974,0.0
 0007979,-0.00006515,0.00009362,-0.00000061,-0.00002753,0.00001010,0.00
 000789,-0.00000027,-0.00000581,-0.00000415,0.00000210,0.00000877,0.000
 01337,0.00001073,-0.00000073,-0.00001229,0.00000918,-0.00000365,-0.000
 00069,0.00000385,-0.00000187,-0.00000319,0.00000158,0.00000799,-0.0000
 0517,-0.00003666,-0.00001671,0.00081400,-0.00087484,-0.00104950,-0.000
 27783,0.00122757,0.05577714,-0.00002815,-0.00038818,-0.00000413,0.0002
 4364,0.00099601,0.00000190,0.00043083,-0.00039234,-0.00008833,-0.00145
 946,-0.00163746,-0.00371995,-0.00101467,-0.00161689,0.00383227,-0.0122
 0595,0.01546886,0.00039958,0.00026004,0.00141917,-0.00073534,-0.000110
 02,-0.00050825,-0.00002750,0.00033030,0.00153033,0.00069892,-0.0123524
 1,0.01557659,-0.00091012,0.00015040,-0.00022589,0.00091729,-0.00003977
 ,-0.00020858,-0.00028698,-0.00006653,0.00000576,0.00010525,0.00008516,
 0.00005668,0.00008795,0.00003517,0.00000502,-0.00003453,-0.00000028,0.
 00000526,0.00000465,-0.00002086,0.00001145,-0.00000817,0.00019275,-0.0
 0003357,-0.00008052,-0.00020398,-0.00059343,0.00052071,-0.13643685,0.1
 1859852,-0.00179866,-0.00001817,-0.00001994,0.00003934,0.00012621,0.00
 021662,0.00002986,-0.00063342,0.00114530,0.00002602,0.00012113,0.00023
 111,-0.00002744,-0.00058879,0.00106883,-0.00002732,0.00087993,-0.00036
 246,-0.00003880,-0.00009518,-0.00098956,0.00020743,0.00041884,-0.00020
 277,0.00000965,-0.00005979,-0.00004229,0.00001383,-0.00003858,-0.00092
 927,-0.00021896,0.00038705,-0.00024199,-0.00001975,0.00002243,0.000041
 03,0.00005098,0.00000255,0.00002823,-0.00001425,0.00000147,-0.00000280
 ,-0.00000027,0.00000026,-0.00000129,0.00000096,-0.00000332,-0.00000458
 ,-0.00000524,0.00000455,-0.00000741,0.00000426,0.00000115,0.00000021,0
 .00000250,0.00000092,-0.00000114,0.00000097,0.00001436,-0.00001794,-0.
 00001961,-0.00007459,-0.00044532,0.00101278,0.01220768,-0.01562562,0.0
 0034933,0.14953395,0.00019973,0.00016420,-0.00000299,-0.00028474,-0.00
 041111,0.00000926,-0.00013316,0.00012444,0.00003220,-0.00012589,0.0010
 2533,0.00081847,-0.00044191,0.00105926,-0.00065210,-0.00073970,-0.0005
 4776,-0.00035739,-0.00064953,0.00058555,0.00032475,0.00011531,0.000023
 51,-0.00000036,-0.00072071,0.00054935,-0.00024601,-0.00038859,-0.00098
 622,0.00037518,0.00029766,0.00016288,-0.00040737,-0.00019014,0.0000091
 1,0.00030204,0.00002095,0.00000648,-0.00010633,0.00004819,-0.00007268,
 -0.00005593,-0.00008182,0.00000156,-0.00005800,0.00004026,0.00000045,0
 .00001638,0.00001712,-0.00001180,0.00000523,-0.00051145,0.00007863,-0.
 00020707,0.00125546,0.00053421,0.00044521,0.11864938,-0.21673135,0.001
 78215,0.00004331,-0.00003958,-0.00000708,-0.00013061,0.00043981,-0.000
 14886,0.00042104,0.00010221,-0.00008474,-0.00012318,0.00043408,0.00012
 768,0.00036638,0.00010936,0.00009452,-0.00002544,0.00011542,-0.0005412
 1,0.00017928,0.00053247,0.00006807,-0.00002685,0.00021477,-0.00010758,
 0.00000561,0.00002277,0.00000693,0.00014110,0.00052315,-0.00010050,0.0
 0001017,0.00021337,0.00011185,-0.00008349,-0.00000746,-0.00008227,-0.0
 0002031,-0.00000423,0.00000947,-0.00000931,0.00000277,-0.00000029,0.00
 000114,-0.00000168,-0.00001184,-0.00000524,-0.00000208,-0.00000153,-0.
 00000257,0.00001571,0.00000205,-0.00000546,-0.00001321,0.00000246,-0.0
 0000081,0.00000116,-0.00001390,-0.00000851,0.00002531,0.00004072,-0.00
 078834,-0.00040129,-0.00017482,0.01559171,-0.02120266,0.00016484,-0.13
 190604,0.23335581,-0.00002726,0.00001882,-0.00002168,0.00003666,-0.000
 05021,-0.00005538,0.00006189,-0.00007054,-0.00042662,-0.00297734,-0.00
 101464,-0.00526931,0.00317417,0.00136489,-0.00503107,0.01742463,-0.023
 41229,-0.00037235,-0.00059450,-0.00102739,0.00101789,-0.00002050,0.000
 01926,-0.00024306,0.00071221,0.00112834,0.00094630,-0.01629248,0.02297
 549,-0.00010924,-0.00020082,0.00020079,0.00154259,-0.00012935,-0.00024
 551,-0.00030924,-0.00018180,-0.00000700,0.00024534,0.00029643,-0.00000
 970,0.00005729,-0.00005364,-0.00002517,0.00011201,-0.00004054,0.000003
 71,-0.00003733,0.00003166,0.00001262,0.00000762,0.00022911,-0.00008109
 ,-0.00023184,0.00029241,0.00014288,-0.00040533,-0.00180754,0.00069623,
 -0.04734344,0.00002034,0.00000108,0.00027760,0.00020226,-0.00023766,-0
 .00000419,-0.00145817,0.00148353,0.00016014,-0.00025217,0.00030930,-0.
 00001211,0.00140200,-0.00141985,0.00006039,-0.00079546,-0.00022635,0.0
 0098557,-0.00005828,0.00071910,0.00004031,-0.00042624,-0.00003079,-0.0
 0006724,-0.00000313,0.00000231,0.00008249,0.00005744,-0.00068527,0.000
 07233,0.00035035,-0.00003376,-0.00006287,0.00008015,0.00006479,0.00009
 325,-0.00000150,0.00002715,0.00000994,0.00000955,-0.00000283,-0.000004
 42,-0.00000504,0.00000072,0.00000864,0.00001179,0.00000408,-0.00000111
 ,-0.00000925,0.00000119,-0.00000203,-0.00000332,0.00000163,-0.00000522
 ,-0.00000292,-0.00000054,0.00000886,-0.00000287,0.00003409,-0.00001674
 ,0.00085955,0.00089434,-0.00111170,0.00034208,-0.00015444,-0.00044004,
 -0.00025055,-0.00137128,0.05585497\\-0.00033059,0.00000739,0.00001913,
 0.00025248,-0.00001477,-0.00003677,0.00001335,-0.00002757,-0.00000623,
 -0.00002116,-0.00002547,0.00001216,-0.00001596,-0.00001323,-0.00001632
 ,0.00004085,-0.00000075,0.00004050,-0.00000212,0.00000725,-0.00001575,
 0.00000960,0.00002443,-0.00001484,-0.00002139,0.00003264,0.00003278,0.
 00000972,0.00001173,0.00004002,-0.00002916,0.00000220,0.00001351,-0.00
 003700,-0.00001920,0.00000888,-0.00006700,-0.00001127,0.00002483,0.000
 07744,0.00005693,-0.00011485,-0.00004312,-0.00018222,0.00003234,0.0000
 0353,0.00006479,0.00000815,-0.00003831,0.00007927,-0.00003126,0.000031
 83,-0.00000312,0.00004126,0.00005807,-0.00000132,-0.00002697,-0.000014
 52,0.00000976,0.00001534,-0.00000982,0.00001263,-0.00000108,0.00002360
 ,0.00001798,0.00000091,-0.00001088,0.00000970,-0.00002009,0.00000763,0
 .00001334,-0.00000850,-0.00000105,0.00000416,0.00000545,0.00002121,0.0
 0000205,0.00000473,0.00000672,-0.00001328,-0.00000241,0.00000151,-0.00
 000571,0.00000023,-0.00001397,-0.00001283,-0.00000222,0.00002084,-0.00
 002380,-0.00000506,-0.00001842,-0.00000502,-0.00002546,-0.00004952,0.0
 0001053,-0.00000085,-0.00002501,0.00000689,-0.00004130,-0.00002866,0.0
 0002524,-0.00002331,-0.00000835,-0.00001720,0.00000237,-0.00000264,-0.
 00001227,-0.00000093,0.00002232,-0.00005707,0.00002526,0.00005729,0.00
 005753,0.00003869,0.00000679,-0.00000731,-0.00001000,0.00006001,0.0000
 0281,0.00001072,0.00003855,0.00000133,0.00004061,0.00001411,0.00000854
 ,-0.00000515,0.00001120,-0.00001573,-0.00000852\\\@


 TERRY FORSTER, PORTLY ATLANTA BRAVES RELIEVER,
 ANNOUNCING THAT HE WAS GOING TO A FAT FARM:
 "A WAIST IS A TERRIBLE THING TO MIND."
 Job cpu time:       0 days  0 hours  8 minutes 50.2 seconds.
 Elapsed time:       0 days  0 hours  9 minutes 54.1 seconds.
 File lengths (MBytes):  RWF=    587 Int=      0 D2E=      0 Chk=     11 Scr=      1
 Normal termination of Gaussian 16 at Fri Feb 23 21:18:35 2024.
