 Entering Gaussian System, Link 0=g16
 Input=/Volumes/SSD-PMU3/b3lyp_6-31gd_freq/IDMWZWSMOJZNAC-MWLCHTKSSA-N_calculating/gaussianinput0.gjf
 Output=/Volumes/SSD-PMU3/b3lyp_6-31gd_freq/IDMWZWSMOJZNAC-MWLCHTKSSA-N_calculating/gaussianinput0.log
 Initial command:
 /Applications/g16/l1.exe "/Users/macmini_m1_2022/PycharmProjects/sphere_model/sphere_model_lib/Gau-94392.inp" -scrdir="/Users/macmini_m1_2022/PycharmProjects/sphere_model/sphere_model_lib/"
 Entering Link 1 = /Applications/g16/l1.exe PID=     94393.
  
 Copyright (c) 1988,1990,1992,1993,1995,1998,2003,2009,2016,
            Gaussian, Inc.  All Rights Reserved.
  
 This is part of the Gaussian(R) 16 program.  It is based on
 the Gaussian(R) 09 system (copyright 2009, Gaussian, Inc.),
 the Gaussian(R) 03 system (copyright 2003, Gaussian, Inc.),
 the Gaussian(R) 98 system (copyright 1998, Gaussian, Inc.),
 the Gaussian(R) 94 system (copyright 1995, Gaussian, Inc.),
 the Gaussian 92(TM) system (copyright 1992, Gaussian, Inc.),
 the Gaussian 90(TM) system (copyright 1990, Gaussian, Inc.),
 the Gaussian 88(TM) system (copyright 1988, Gaussian, Inc.),
 the Gaussian 86(TM) system (copyright 1986, Carnegie Mellon
 University), and the Gaussian 82(TM) system (copyright 1983,
 Carnegie Mellon University). Gaussian is a federally registered
 trademark of Gaussian, Inc.
  
 This software contains proprietary and confidential information,
 including trade secrets, belonging to Gaussian, Inc.
  
 This software is provided under written license and may be
 used, copied, transmitted, or stored only in accord with that
 written license.
  
 The following legend is applicable only to US Government
 contracts under FAR:
  
                    RESTRICTED RIGHTS LEGEND
  
 Use, reproduction and disclosure by the US Government is
 subject to restrictions as set forth in subparagraphs (a)
 and (c) of the Commercial Computer Software - Restricted
 Rights clause in FAR 52.227-19.
  
 Gaussian, Inc.
 340 Quinnipiac St., Bldg. 40, Wallingford CT 06492
  
  
 ---------------------------------------------------------------
 Warning -- This program may not be used in any manner that
 competes with the business of Gaussian, Inc. or will provide
 assistance to any competitor of Gaussian, Inc.  The licensee
 of this program is prohibited from giving any competitor of
 Gaussian, Inc. access to this program.  By using this program,
 the user acknowledges that Gaussian, Inc. is engaged in the
 business of creating and licensing software in the field of
 computational chemistry and represents and warrants to the
 licensee that it is not a competitor of Gaussian, Inc. and that
 it will not use this program in any manner prohibited above.
 ---------------------------------------------------------------
  

 Cite this work as:
 Gaussian 16, Revision A.03,
 M. J. Frisch, G. W. Trucks, H. B. Schlegel, G. E. Scuseria, 
 M. A. Robb, J. R. Cheeseman, G. Scalmani, V. Barone, 
 G. A. Petersson, H. Nakatsuji, X. Li, M. Caricato, A. V. Marenich, 
 J. Bloino, B. G. Janesko, R. Gomperts, B. Mennucci, H. P. Hratchian, 
 J. V. Ortiz, A. F. Izmaylov, J. L. Sonnenberg, D. Williams-Young, 
 F. Ding, F. Lipparini, F. Egidi, J. Goings, B. Peng, A. Petrone, 
 T. Henderson, D. Ranasinghe, V. G. Zakrzewski, J. Gao, N. Rega, 
 G. Zheng, W. Liang, M. Hada, M. Ehara, K. Toyota, R. Fukuda, 
 J. Hasegawa, M. Ishida, T. Nakajima, Y. Honda, O. Kitao, H. Nakai, 
 T. Vreven, K. Throssell, J. A. Montgomery, Jr., J. E. Peralta, 
 F. Ogliaro, M. J. Bearpark, J. J. Heyd, E. N. Brothers, K. N. Kudin, 
 V. N. Staroverov, T. A. Keith, R. Kobayashi, J. Normand, 
 K. Raghavachari, A. P. Rendell, J. C. Burant, S. S. Iyengar, 
 J. Tomasi, M. Cossi, J. M. Millam, M. Klene, C. Adamo, R. Cammi, 
 J. W. Ochterski, R. L. Martin, K. Morokuma, O. Farkas, 
 J. B. Foresman, and D. J. Fox, Gaussian, Inc., Wallingford CT, 2016.
 
 ******************************************
 Gaussian 16:  EM64M-G16RevA.03 25-Dec-2016
                24-Feb-2024 
 ******************************************
 %nprocshared=10
 Will use up to   10 processors via shared memory.
 %mem=12GB
 %chk= 0.chk
 ---------------------
 # freq b3lyp/6-31g(d)
 ---------------------
 1/10=4,30=1,38=1/1,3;
 2/12=2,17=6,18=5,40=1/2;
 3/5=1,6=6,7=1,11=2,25=1,30=1,71=2,74=-5,140=1/1,2,3;
 4//1;
 5/5=2,38=5,98=1/2;
 8/6=4,10=90,11=11/1;
 11/6=1,8=1,9=11,15=111,16=1/1,2,10;
 10/6=1/2;
 6/7=2,8=2,9=2,10=2,28=1/1;
 7/8=1,10=1,25=1/1,2,3,16;
 1/10=4,30=1/3;
 99//99;
 ---------
 good luck
 ---------
 Symbolic Z-matrix:
 Charge =  0 Multiplicity = 1
 C                    -1.15204  -1.36438  -2.48265 
 C                    -1.88832  -1.30283  -1.12506 
 C                    -0.82038  -1.28398   0.0022 
 C                    -2.77527  -0.02705  -0.97616 
 C                    -3.9654   -0.02473  -1.95187 
 C                    -4.82786  -1.28741  -1.79718 
 C                    -3.98922  -2.56893  -1.91828 
 C                    -2.79092  -2.54927  -0.95546 
 C                    -1.94764   1.26621  -1.04748 
 C                    -0.81689   1.28645   0.0022 
 C                     0.        0.        0. 
 O                     1.2169    0.        0. 
 H                    -1.83594  -1.31779  -3.335 
 H                    -0.42706  -0.55165  -2.59734 
 H                    -0.59233  -2.30413  -2.5597 
 H                    -1.32991  -1.35675   0.97554 
 H                    -0.13539  -2.13463  -0.07928 
 H                    -3.20364  -0.07676   0.04014 
 H                    -4.57661   0.8702   -1.77387 
 H                    -3.60352   0.05525  -2.9864 
 H                    -5.3127   -1.26836  -0.80979 
 H                    -5.63585  -1.2888   -2.53966 
 H                    -3.63816  -2.68243  -2.95268 
 H                    -4.61233  -3.44797  -1.71011 
 H                    -2.18783  -3.45895  -1.07983 
 H                    -3.16994  -2.56765   0.07747 
 H                    -2.60302   2.13251  -0.89161 
 H                    -1.51994   1.38431  -2.05137 
 H                    -1.26584   1.38285   1.00314 
 H                    -0.13767   2.13273  -0.13656 
 

 GradGradGradGradGradGradGradGradGradGradGradGradGradGradGradGradGradGrad
 Berny optimization.
 Initialization pass.
 Trust Radius=3.00D-01 FncErr=1.00D-07 GrdErr=1.00D-07 EigMax=2.50D+02 EigMin=1.00D-04
 Number of steps in this run=      2 maximum allowed number of steps=      2.
 GradGradGradGradGradGradGradGradGradGradGradGradGradGradGradGradGradGrad

                          Input orientation:                          
 ---------------------------------------------------------------------
 Center     Atomic      Atomic             Coordinates (Angstroms)
 Number     Number       Type             X           Y           Z
 ---------------------------------------------------------------------
      1          6           0       -1.152037   -1.364378   -2.482646
      2          6           0       -1.888323   -1.302826   -1.125059
      3          6           0       -0.820375   -1.283977    0.002198
      4          6           0       -2.775266   -0.027045   -0.976159
      5          6           0       -3.965399   -0.024727   -1.951873
      6          6           0       -4.827857   -1.287412   -1.797178
      7          6           0       -3.989218   -2.568933   -1.918281
      8          6           0       -2.790919   -2.549271   -0.955460
      9          6           0       -1.947638    1.266213   -1.047478
     10          6           0       -0.816889    1.286452    0.002198
     11          6           0        0.000000    0.000000    0.000000
     12          8           0        1.216899    0.000000    0.000000
     13          1           0       -1.835936   -1.317792   -3.335002
     14          1           0       -0.427060   -0.551648   -2.597342
     15          1           0       -0.592331   -2.304128   -2.559695
     16          1           0       -1.329912   -1.356752    0.975543
     17          1           0       -0.135388   -2.134634   -0.079282
     18          1           0       -3.203644   -0.076755    0.040140
     19          1           0       -4.576609    0.870195   -1.773870
     20          1           0       -3.603517    0.055252   -2.986403
     21          1           0       -5.312701   -1.268355   -0.809790
     22          1           0       -5.635850   -1.288797   -2.539661
     23          1           0       -3.638163   -2.682433   -2.952682
     24          1           0       -4.612325   -3.447967   -1.710108
     25          1           0       -2.187829   -3.458950   -1.079826
     26          1           0       -3.169941   -2.567652    0.077469
     27          1           0       -2.603016    2.132507   -0.891605
     28          1           0       -1.519943    1.384305   -2.051374
     29          1           0       -1.265838    1.382854    1.003136
     30          1           0       -0.137671    2.132730   -0.136564
 ---------------------------------------------------------------------
                    Distance matrix (angstroms):
                    1          2          3          4          5
     1  C    0.000000
     2  C    1.545622   0.000000
     3  C    2.508169   1.552925   0.000000
     4  C    2.587051   1.560915   2.521638   0.000000
     5  C    3.160916   2.575151   3.910918   1.538974   0.000000
     6  C    3.739979   3.015434   4.392912   2.544745   1.536925
     7  C    3.133537   2.577981   3.921851   2.970264   2.544539
     8  C    2.534207   1.548247   2.530044   2.522360   2.957290
     9  C    3.100435   2.570894   2.979263   1.537066   2.560433
    10  C    3.648791   3.020437   2.570431   2.552978   3.930738
    11  C    3.058144   2.555167   1.523685   2.942060   4.419820
    12  O    3.692820   3.550425   2.408129   4.109866   5.537746
    13  H    1.093800   2.210614   3.488468   2.848247   2.849504
    14  H    1.095115   2.206168   2.729214   2.901295   3.635123
    15  H    1.096511   2.177242   2.766949   3.529575   4.116152
    16  H    3.462769   2.174226   1.101056   2.768810   4.158106
    17  H    2.720851   2.204163   1.095200   3.495036   4.756815
    18  H    3.497358   2.142664   2.671852   1.104012   2.133329
    19  H    4.150105   3.517081   4.680189   2.164768   1.098248
    20  H    2.877303   2.872432   4.297808   2.175742   1.098912
    21  H    4.485398   3.439033   4.565146   2.829683   2.160136
    22  H    4.484812   4.005653   5.445169   3.495640   2.175724
    23  H    2.852898   2.881920   4.315892   3.420865   2.858689
    24  H    4.112390   3.516262   4.689747   3.951731   3.492211
    25  H    2.725436   2.177297   2.787690   3.483361   3.964103
    26  H    3.474765   2.165272   2.678423   2.778594   3.349246
    27  H    4.106697   3.516646   3.955889   2.168060   2.762954
    28  H    2.806530   2.866084   3.438936   2.173438   2.824097
    29  H    4.439697   3.482754   2.883106   2.860734   4.242758
    30  H    4.331605   3.980572   3.487008   3.510905   4.754100
                    6          7          8          9         10
     6  C    0.000000
     7  C    1.536319   0.000000
     8  C    2.539664   1.537313   0.000000
     9  C    3.921570   4.431105   3.908645   0.000000
    10  C    5.094153   5.349384   4.418900   1.542991   0.000000
    11  C    5.309942   5.117917   3.898835   2.548293   1.523900
    12  O    6.436331   6.114153   4.845028   3.565782   2.406503
    13  H    3.364137   2.865148   2.844425   3.452872   4.354015
    14  H    4.533059   4.149642   3.503442   2.831758   3.207520
    15  H    4.422084   3.467041   2.732664   4.107431   4.416558
    16  H    4.464125   4.112847   2.699151   3.369591   2.863061
    17  H    5.068354   4.292148   2.826916   3.973338   3.489257
    18  H    2.734867   3.265500   2.697202   2.136358   2.748886
    19  H    2.172311   3.491917   3.943505   2.756078   4.178897
    20  H    2.171638   2.859370   3.401262   2.822728   4.267656
    21  H    1.100169   2.161449   2.832199   4.219500   5.234376
    22  H    1.097331   2.176295   3.491722   4.728382   6.026221
    23  H    2.167174   1.098229   2.173580   4.698881   5.695871
    24  H    2.173024   1.097406   2.166718   5.455559   6.304923
    25  H    3.492838   2.177186   1.098499   4.731374   5.056589
    26  H    2.811050   2.157367   1.100426   4.178283   4.516264
    27  H    4.179214   5.007910   4.685982   1.097398   2.169088
    28  H    4.259693   4.662952   4.276614   1.097577   2.172790
    29  H    5.259283   5.618549   4.650116   2.164134   1.101238
    30  H    6.037620   6.333606   5.443478   2.203769   1.093974
                   11         12         13         14         15
    11  C    0.000000
    12  O    1.216899   0.000000
    13  H    4.028582   4.709418   0.000000
    14  H    2.689402   3.122996   1.765234   0.000000
    15  H    3.494553   3.890290   1.766497   1.760658   0.000000
    16  H    2.135679   3.046097   4.340320   3.772114   3.733558
    17  H    2.140392   2.528167   3.762819   2.988569   2.527840
    18  H    3.204815   4.421392   3.847386   3.858919   4.305727
    19  H    4.984898   6.121159   3.838712   4.463015   5.154446
    20  H    4.680490   5.670808   2.265196   3.257234   3.849155
    21  H    5.521710   6.700758   4.297329   5.251523   5.139736
    22  H    6.314561   7.420987   3.882365   5.261008   5.144743
    23  H    5.399075   6.283741   2.292692   3.870103   3.094292
    24  H    6.007203   6.985184   3.858272   5.166458   4.265034
    25  H    4.232842   4.972176   3.129569   3.722307   2.463583
    26  H    4.080118   5.083621   3.871263   4.329236   3.697046
    27  H    3.481126   4.464784   4.296878   3.853441   5.148700
    28  H    2.904249   3.689816   3.008136   2.289189   3.837107
    29  H    2.126244   3.013727   5.141784   4.172444   5.171191
    30  H    2.141528   2.530227   5.002021   3.653089   5.075824
                   16         17         18         19         20
    16  H    0.000000
    17  H    1.773314   0.000000
    18  H    2.454433   3.696393   0.000000
    19  H    4.802042   5.623617   2.464220   0.000000
    20  H    4.781219   5.027412   3.055697   1.755356   0.000000
    21  H    4.365528   5.299873   2.567180   2.458593   3.067717
    22  H    5.558991   6.084734   3.747005   2.523821   2.477181
    23  H    4.745145   4.563545   3.991910   3.858943   2.738112
    24  H    4.728651   4.942409   4.051274   4.318780   3.862534
    25  H    3.062646   2.639586   3.704787   4.992941   4.241323
    26  H    2.378765   3.069298   2.491405   4.150297   4.056467
    27  H    4.157158   4.995753   2.471789   2.503376   3.115152
    28  H    4.087999   4.264865   3.056792   3.111997   2.642336
    29  H    2.740494   3.849970   2.610156   4.351527   4.810789
    30  H    3.851585   4.267749   3.783284   4.896829   4.944652
                   21         22         23         24         25
    21  H    0.000000
    22  H    1.759914   0.000000
    23  H    3.065237   2.470539   0.000000
    24  H    2.460042   2.529383   1.754715   0.000000
    25  H    3.825761   4.327763   2.492797   2.505106   0.000000
    26  H    2.658349   3.816484   3.068260   2.459849   1.760195
    27  H    4.349132   4.859989   5.338840   5.987400   5.610009
    28  H    4.791988   4.931996   4.673069   5.747186   4.984686
    29  H    5.166499   6.227852   6.148413   6.472828   5.350875
    30  H    6.229089   6.907365   6.585572   7.324121   6.029907
                   26         27         28         29         30
    26  H    0.000000
    27  H    4.832391   0.000000
    28  H    4.782513   1.754399   0.000000
    29  H    4.482072   2.437225   3.065062   0.000000
    30  H    5.597684   2.578374   2.477360   1.770308   0.000000
 Stoichiometry    C11H18O
 Framework group  C1[X(C11H18O)]
 Deg. of freedom    84
 Full point group                 C1      NOp   1
 Largest Abelian subgroup         C1      NOp   1
 Largest concise Abelian subgroup C1      NOp   1
                         Standard orientation:                         
 ---------------------------------------------------------------------
 Center     Atomic      Atomic             Coordinates (Angstroms)
 Number     Number       Type             X           Y           Z
 ---------------------------------------------------------------------
      1          6           0        0.037136   -0.960725    1.534692
      2          6           0        0.165541   -0.628378    0.030696
      3          6           0       -1.139607   -1.083916   -0.676872
      4          6           0        0.356579    0.897565   -0.236620
      5          6           0        1.704279    1.419908    0.291869
      6          6           0        2.886651    0.630340   -0.291838
      7          6           0        2.729229   -0.881261   -0.066987
      8          6           0        1.370299   -1.386761   -0.577977
      9          6           0       -0.837425    1.727531    0.261459
     10          6           0       -2.169453    1.248791   -0.352814
     11          6           0       -2.347763   -0.260946   -0.247109
     12          8           0       -3.380125   -0.769791    0.148046
     13          1           0        0.894829   -0.612720    2.117490
     14          1           0       -0.862743   -0.523192    1.979732
     15          1           0       -0.035495   -2.046354    1.670608
     16          1           0       -1.016412   -0.959470   -1.763914
     17          1           0       -1.352574   -2.140924   -0.484928
     18          1           0        0.386784    1.008025   -1.334677
     19          1           0        1.803440    2.484029    0.038961
     20          1           0        1.724727    1.365162    1.389226
     21          1           0        2.947332    0.827527   -1.372490
     22          1           0        3.830614    0.984130    0.141638
     23          1           0        2.836112   -1.107178    1.002427
     24          1           0        3.536699   -1.423765   -0.574905
     25          1           0        1.265288   -2.462128   -0.379840
     26          1           0        1.340340   -1.268874   -1.671660
     27          1           0       -0.681669    2.784635    0.011357
     28          1           0       -0.898679    1.679165    1.356258
     29          1           0       -2.174832    1.500890   -1.424794
     30          1           0       -3.035553    1.736479    0.104142
 ---------------------------------------------------------------------
 Rotational constants (GHZ):           1.7653599           0.6981893           0.5841423
 Standard basis: 6-31G(d) (6D, 7F)
 There are   216 symmetry adapted cartesian basis functions of A   symmetry.
 There are   216 symmetry adapted basis functions of A   symmetry.
   216 basis functions,   408 primitive gaussians,   216 cartesian basis functions
    46 alpha electrons       46 beta electrons
       nuclear repulsion energy       767.2969051091 Hartrees.
 NAtoms=   30 NActive=   30 NUniq=   30 SFac= 1.00D+00 NAtFMM=   60 NAOKFM=F Big=F
 Integral buffers will be    131072 words long.
 Raffenetti 2 integral format.
 Two-electron integral symmetry is turned on.
 One-electron integrals computed using PRISM.
 NBasis=   216 RedAO= T EigKep=  2.63D-03  NBF=   216
 NBsUse=   216 1.00D-06 EigRej= -1.00D+00 NBFU=   216
 ExpMin= 1.61D-01 ExpMax= 5.48D+03 ExpMxC= 8.25D+02 IAcc=3 IRadAn=         5 AccDes= 0.00D+00
 Harris functional with IExCor=  402 and IRadAn=       5 diagonalized for initial guess.
 HarFok:  IExCor=  402 AccDes= 0.00D+00 IRadAn=         5 IDoV= 1 UseB2=F ITyADJ=14
 ICtDFT=  3500011 ScaDFX=  1.000000  1.000000  1.000000  1.000000
 FoFCou: FMM=F IPFlag=           0 FMFlag=      100000 FMFlg1=           0
         NFxFlg=           0 DoJE=T BraDBF=F KetDBF=T FulRan=T
         wScrn=  0.000000 ICntrl=       500 IOpCl=  0 I1Cent=   200000004 NGrid=           0
         NMat0=    1 NMatS0=      1 NMatT0=    0 NMatD0=    1 NMtDS0=    0 NMtDT0=    0
 Petite list used in FoFCou.
 Requested convergence on RMS density matrix=1.00D-08 within 128 cycles.
 Requested convergence on MAX density matrix=1.00D-06.
 Requested convergence on             energy=1.00D-06.
 No special actions if energy rises.
 Integral accuracy reduced to 1.0D-05 until final iterations.
 Initial convergence to 1.0D-05 achieved.  Increase integral accuracy.
 SCF Done:  E(RB3LYP) =  -505.253072843     A.U. after   13 cycles
            NFock= 13  Conv=0.89D-08     -V/T= 2.0098
 DoSCS=F DFT=T ScalE2(SS,OS)=  1.000000  1.000000
 Range of M.O.s used for correlation:     1   216
 NBasis=   216 NAE=    46 NBE=    46 NFC=     0 NFV=     0
 NROrb=    216 NOA=    46 NOB=    46 NVA=   170 NVB=   170
 Symmetrizing basis deriv contribution to polar:
 IMax=3 JMax=2 DiffMx= 0.00D+00
 G2DrvN: will do    31 centers at a time, making    1 passes.
 Calling FoFCou, ICntrl=  3107 FMM=F I1Cent=   0 AccDes= 0.00D+00.
 End of G2Drv F.D. properties file   721 does not exist.
 End of G2Drv F.D. properties file   722 does not exist.
 End of G2Drv F.D. properties file   788 does not exist.
          IDoAtm=111111111111111111111111111111
          Differentiating once with respect to electric field.
                with respect to dipole field.
          Differentiating once with respect to nuclear coordinates.
 Keep R1 ints in memory in canonical form, NReq=285099488.
          There are    93 degrees of freedom in the 1st order CPHF.  IDoFFX=6 NUNeed=     3.
     90 vectors produced by pass  0 Test12= 8.41D-15 1.08D-09 XBig12= 8.07D+01 2.70D+00.
 AX will form    90 AO Fock derivatives at one time.
     90 vectors produced by pass  1 Test12= 8.41D-15 1.08D-09 XBig12= 1.04D+01 8.13D-01.
     90 vectors produced by pass  2 Test12= 8.41D-15 1.08D-09 XBig12= 8.92D-02 3.36D-02.
     90 vectors produced by pass  3 Test12= 8.41D-15 1.08D-09 XBig12= 2.56D-04 1.97D-03.
     90 vectors produced by pass  4 Test12= 8.41D-15 1.08D-09 XBig12= 2.74D-07 5.27D-05.
     41 vectors produced by pass  5 Test12= 8.41D-15 1.08D-09 XBig12= 1.62D-10 1.19D-06.
      3 vectors produced by pass  6 Test12= 8.41D-15 1.08D-09 XBig12= 9.31D-14 2.48D-08.
 InvSVY:  IOpt=1 It=  1 EMax= 7.11D-15
 Solved reduced A of dimension   494 with    93 vectors.
 Isotropic polarizability for W=    0.000000      110.42 Bohr**3.
 End of Minotr F.D. properties file   721 does not exist.
 End of Minotr F.D. properties file   722 does not exist.
 End of Minotr F.D. properties file   788 does not exist.

 **********************************************************************

            Population analysis using the SCF density.

 **********************************************************************

 Orbital symmetries:
       Occupied  (A) (A) (A) (A) (A) (A) (A) (A) (A) (A) (A) (A)
                 (A) (A) (A) (A) (A) (A) (A) (A) (A) (A) (A) (A)
                 (A) (A) (A) (A) (A) (A) (A) (A) (A) (A) (A) (A)
                 (A) (A) (A) (A) (A) (A) (A) (A) (A) (A)
       Virtual   (A) (A) (A) (A) (A) (A) (A) (A) (A) (A) (A) (A)
                 (A) (A) (A) (A) (A) (A) (A) (A) (A) (A) (A) (A)
                 (A) (A) (A) (A) (A) (A) (A) (A) (A) (A) (A) (A)
                 (A) (A) (A) (A) (A) (A) (A) (A) (A) (A) (A) (A)
                 (A) (A) (A) (A) (A) (A) (A) (A) (A) (A) (A) (A)
                 (A) (A) (A) (A) (A) (A) (A) (A) (A) (A) (A) (A)
                 (A) (A) (A) (A) (A) (A) (A) (A) (A) (A) (A) (A)
                 (A) (A) (A) (A) (A) (A) (A) (A) (A) (A) (A) (A)
                 (A) (A) (A) (A) (A) (A) (A) (A) (A) (A) (A) (A)
                 (A) (A) (A) (A) (A) (A) (A) (A) (A) (A) (A) (A)
                 (A) (A) (A) (A) (A) (A) (A) (A) (A) (A) (A) (A)
                 (A) (A) (A) (A) (A) (A) (A) (A) (A) (A) (A) (A)
                 (A) (A) (A) (A) (A) (A) (A) (A) (A) (A) (A) (A)
                 (A) (A) (A) (A) (A) (A) (A) (A) (A) (A) (A) (A)
                 (A) (A)
 The electronic state is 1-A.
 Alpha  occ. eigenvalues --  -19.13031 -10.26640 -10.20345 -10.19152 -10.19032
 Alpha  occ. eigenvalues --  -10.18893 -10.18494 -10.18305 -10.18280 -10.18244
 Alpha  occ. eigenvalues --  -10.18223 -10.17639  -1.02899  -0.85619  -0.79502
 Alpha  occ. eigenvalues --   -0.77652  -0.73471  -0.70949  -0.68660  -0.63437
 Alpha  occ. eigenvalues --   -0.59843  -0.58826  -0.53439  -0.52146  -0.47620
 Alpha  occ. eigenvalues --   -0.46638  -0.46250  -0.44860  -0.43410  -0.43034
 Alpha  occ. eigenvalues --   -0.42414  -0.41126  -0.39482  -0.38562  -0.38006
 Alpha  occ. eigenvalues --   -0.37161  -0.36120  -0.35309  -0.34738  -0.34128
 Alpha  occ. eigenvalues --   -0.33710  -0.32689  -0.31231  -0.29570  -0.29243
 Alpha  occ. eigenvalues --   -0.23205
 Alpha virt. eigenvalues --   -0.01050   0.07724   0.09402   0.10330   0.11224
 Alpha virt. eigenvalues --    0.12019   0.12714   0.13960   0.14967   0.15692
 Alpha virt. eigenvalues --    0.16024   0.17028   0.17245   0.17482   0.18402
 Alpha virt. eigenvalues --    0.18705   0.19175   0.20045   0.21432   0.22239
 Alpha virt. eigenvalues --    0.22448   0.23543   0.24569   0.25368   0.26060
 Alpha virt. eigenvalues --    0.26905   0.28109   0.28230   0.29093   0.30242
 Alpha virt. eigenvalues --    0.34316   0.37049   0.48561   0.50412   0.51170
 Alpha virt. eigenvalues --    0.52632   0.52670   0.53604   0.56073   0.58743
 Alpha virt. eigenvalues --    0.59000   0.60579   0.61652   0.63244   0.65064
 Alpha virt. eigenvalues --    0.66312   0.66798   0.67103   0.69249   0.69834
 Alpha virt. eigenvalues --    0.72099   0.73853   0.74340   0.75866   0.77061
 Alpha virt. eigenvalues --    0.79112   0.80844   0.81480   0.83396   0.84306
 Alpha virt. eigenvalues --    0.84968   0.85899   0.86856   0.87858   0.88548
 Alpha virt. eigenvalues --    0.89934   0.90365   0.91116   0.91663   0.92776
 Alpha virt. eigenvalues --    0.94312   0.94739   0.94989   0.96295   0.96879
 Alpha virt. eigenvalues --    0.97551   0.98036   0.99137   1.00003   1.01196
 Alpha virt. eigenvalues --    1.05477   1.07194   1.11677   1.14298   1.17137
 Alpha virt. eigenvalues --    1.19082   1.23609   1.26342   1.30995   1.35153
 Alpha virt. eigenvalues --    1.38639   1.40401   1.41674   1.45060   1.48648
 Alpha virt. eigenvalues --    1.52632   1.58573   1.60013   1.64410   1.65265
 Alpha virt. eigenvalues --    1.67712   1.71035   1.71646   1.73965   1.76858
 Alpha virt. eigenvalues --    1.78080   1.78841   1.81717   1.83598   1.85808
 Alpha virt. eigenvalues --    1.86057   1.89989   1.91573   1.93272   1.93615
 Alpha virt. eigenvalues --    1.94851   1.95330   1.98403   1.98581   2.00611
 Alpha virt. eigenvalues --    2.02030   2.03181   2.04023   2.04905   2.06829
 Alpha virt. eigenvalues --    2.08534   2.13360   2.15249   2.16628   2.21209
 Alpha virt. eigenvalues --    2.23169   2.25774   2.28963   2.29930   2.30278
 Alpha virt. eigenvalues --    2.35654   2.37317   2.37949   2.39690   2.41994
 Alpha virt. eigenvalues --    2.43894   2.47723   2.48292   2.52589   2.54598
 Alpha virt. eigenvalues --    2.58484   2.60076   2.61976   2.63134   2.73014
 Alpha virt. eigenvalues --    2.73655   2.76002   2.76713   2.81528   2.85701
 Alpha virt. eigenvalues --    2.85999   2.99216   3.03037   4.04583   4.11552
 Alpha virt. eigenvalues --    4.20113   4.23937   4.26634   4.31906   4.42416
 Alpha virt. eigenvalues --    4.51209   4.56132   4.61087   4.64413   4.76102
          Condensed to atoms (all electrons):
               1          2          3          4          5          6
     1  C    5.191714   0.375255  -0.068835  -0.058655  -0.006546  -0.001163
     2  C    0.375255   4.848903   0.339640   0.378570  -0.031067  -0.012380
     3  C   -0.068835   0.339640   5.396352  -0.044964   0.004496   0.000173
     4  C   -0.058655   0.378570  -0.044964   4.987763   0.373564  -0.034054
     5  C   -0.006546  -0.031067   0.004496   0.373564   5.041249   0.373461
     6  C   -0.001163  -0.012380   0.000173  -0.034054   0.373461   4.999335
     7  C   -0.003927  -0.030066   0.003865  -0.016164  -0.043135   0.383227
     8  C   -0.063480   0.378264  -0.042810  -0.041619  -0.015063  -0.044876
     9  C   -0.006592  -0.035977  -0.004183   0.369827  -0.038515   0.003786
    10  C   -0.001125  -0.003991  -0.137381  -0.036559   0.003733  -0.000144
    11  C   -0.001873  -0.015473   0.317492  -0.016620   0.000405   0.000000
    12  O    0.000051   0.000256  -0.076480   0.000080   0.000000   0.000000
    13  H    0.368987  -0.029439   0.005406  -0.005705   0.001896  -0.000115
    14  H    0.366678  -0.027797  -0.007113  -0.005044  -0.000067   0.000002
    15  H    0.366104  -0.028545  -0.004286   0.005334   0.000017   0.000050
    16  H    0.006753  -0.029554   0.337032  -0.005738  -0.000008  -0.000011
    17  H   -0.005696  -0.026448   0.336099   0.004980  -0.000139   0.000001
    18  H    0.006751  -0.050976  -0.005183   0.367706  -0.049221  -0.003565
    19  H    0.000058   0.004775  -0.000143  -0.033246   0.365028  -0.032244
    20  H    0.002503  -0.008871   0.000051  -0.037638   0.368398  -0.038168
    21  H    0.000081  -0.001260  -0.000068  -0.005294  -0.040754   0.372320
    22  H   -0.000006   0.000230   0.000006   0.004280  -0.031609   0.367898
    23  H    0.002972  -0.007134   0.000023  -0.000725  -0.003867  -0.039808
    24  H    0.000029   0.004315  -0.000118   0.000236   0.004769  -0.033093
    25  H   -0.007562  -0.032021  -0.003862   0.005600   0.000054   0.004813
    26  H    0.006456  -0.035933  -0.007325  -0.007016  -0.000674  -0.004377
    27  H    0.000073   0.005210  -0.000349  -0.030448  -0.004146   0.000028
    28  H    0.003427  -0.010377   0.000783  -0.034597  -0.004458   0.000023
    29  H    0.000095  -0.001885   0.003816  -0.002897  -0.000014   0.000001
    30  H   -0.000060  -0.000012   0.006636   0.003600  -0.000115   0.000001
               7          8          9         10         11         12
     1  C   -0.003927  -0.063480  -0.006592  -0.001125  -0.001873   0.000051
     2  C   -0.030066   0.378264  -0.035977  -0.003991  -0.015473   0.000256
     3  C    0.003865  -0.042810  -0.004183  -0.137381   0.317492  -0.076480
     4  C   -0.016164  -0.041619   0.369827  -0.036559  -0.016620   0.000080
     5  C   -0.043135  -0.015063  -0.038515   0.003733   0.000405   0.000000
     6  C    0.383227  -0.044876   0.003786  -0.000144   0.000000   0.000000
     7  C    5.005797   0.370744   0.000239   0.000007  -0.000081   0.000000
     8  C    0.370744   5.085649   0.004975  -0.000021   0.002547  -0.000064
     9  C    0.000239   0.004975   5.074706   0.321287  -0.023469   0.001617
    10  C    0.000007  -0.000021   0.321287   5.322059   0.328822  -0.079147
    11  C   -0.000081   0.002547  -0.023469   0.328822   4.474996   0.580714
    12  O    0.000000  -0.000064   0.001617  -0.079147   0.580714   8.012168
    13  H    0.001379  -0.004260  -0.000243   0.000061   0.000138   0.000008
    14  H    0.000053   0.005265   0.001874  -0.000360   0.006804   0.000606
    15  H   -0.000246  -0.005724   0.000042   0.000036  -0.000359   0.000020
    16  H    0.000121  -0.008943  -0.001448   0.002948  -0.026423   0.001664
    17  H    0.000008  -0.004078  -0.000210   0.006826  -0.023366   0.004261
    18  H   -0.001014  -0.006235  -0.052499  -0.002005  -0.001836  -0.000001
    19  H    0.004803   0.000030  -0.004372   0.000028  -0.000006  -0.000000
    20  H   -0.004292  -0.000209  -0.004540   0.000048  -0.000036  -0.000000
    21  H   -0.041360  -0.003667   0.000008   0.000001  -0.000000  -0.000000
    22  H   -0.033096   0.004701  -0.000126   0.000002  -0.000000   0.000000
    23  H    0.373447  -0.038311  -0.000018  -0.000000   0.000001  -0.000000
    24  H    0.368567  -0.030921   0.000005  -0.000000   0.000001  -0.000000
    25  H   -0.032565   0.359828  -0.000154  -0.000006  -0.000006  -0.000000
    26  H   -0.039881   0.362364  -0.000032  -0.000008   0.000129   0.000000
    27  H    0.000003  -0.000158   0.362704  -0.027998   0.003023  -0.000071
    28  H   -0.000024   0.000059   0.372177  -0.039932  -0.003350   0.000332
    29  H   -0.000000  -0.000031  -0.035144   0.346449  -0.028497   0.001374
    30  H   -0.000000   0.000011  -0.024691   0.342971  -0.024241   0.004652
              13         14         15         16         17         18
     1  C    0.368987   0.366678   0.366104   0.006753  -0.005696   0.006751
     2  C   -0.029439  -0.027797  -0.028545  -0.029554  -0.026448  -0.050976
     3  C    0.005406  -0.007113  -0.004286   0.337032   0.336099  -0.005183
     4  C   -0.005705  -0.005044   0.005334  -0.005738   0.004980   0.367706
     5  C    0.001896  -0.000067   0.000017  -0.000008  -0.000139  -0.049221
     6  C   -0.000115   0.000002   0.000050  -0.000011   0.000001  -0.003565
     7  C    0.001379   0.000053  -0.000246   0.000121   0.000008  -0.001014
     8  C   -0.004260   0.005265  -0.005724  -0.008943  -0.004078  -0.006235
     9  C   -0.000243   0.001874   0.000042  -0.001448  -0.000210  -0.052499
    10  C    0.000061  -0.000360   0.000036   0.002948   0.006826  -0.002005
    11  C    0.000138   0.006804  -0.000359  -0.026423  -0.023366  -0.001836
    12  O    0.000008   0.000606   0.000020   0.001664   0.004261  -0.000001
    13  H    0.565696  -0.030157  -0.029907  -0.000173  -0.000013   0.000015
    14  H   -0.030157   0.560303  -0.029337   0.000083  -0.000018  -0.000026
    15  H   -0.029907  -0.029337   0.568807  -0.000062   0.004310  -0.000154
    16  H   -0.000173   0.000083  -0.000062   0.592518  -0.027608   0.005873
    17  H   -0.000013  -0.000018   0.004310  -0.027608   0.572377  -0.000035
    18  H    0.000015  -0.000026  -0.000154   0.005873  -0.000035   0.661842
    19  H   -0.000092  -0.000016   0.000002  -0.000002   0.000003  -0.004974
    20  H    0.004007   0.000095  -0.000088   0.000001   0.000002   0.006500
    21  H   -0.000001   0.000001   0.000001   0.000001   0.000000   0.005731
    22  H   -0.000007  -0.000001  -0.000001   0.000000  -0.000000  -0.000001
    23  H    0.002962  -0.000094   0.000374   0.000002  -0.000002   0.000133
    24  H   -0.000059   0.000001  -0.000036  -0.000009  -0.000002  -0.000065
    25  H   -0.000168  -0.000028   0.005453  -0.000309   0.004043  -0.000074
    26  H   -0.000041  -0.000174   0.000016   0.006445  -0.000237   0.005598
    27  H   -0.000019  -0.000026   0.000001  -0.000017   0.000019  -0.004969
    28  H    0.000401   0.003111  -0.000084   0.000037  -0.000027   0.006279
    29  H   -0.000000   0.000031   0.000000   0.001140  -0.000150   0.005032
    30  H   -0.000002   0.000052  -0.000001  -0.000120  -0.000176  -0.000004
              19         20         21         22         23         24
     1  C    0.000058   0.002503   0.000081  -0.000006   0.002972   0.000029
     2  C    0.004775  -0.008871  -0.001260   0.000230  -0.007134   0.004315
     3  C   -0.000143   0.000051  -0.000068   0.000006   0.000023  -0.000118
     4  C   -0.033246  -0.037638  -0.005294   0.004280  -0.000725   0.000236
     5  C    0.365028   0.368398  -0.040754  -0.031609  -0.003867   0.004769
     6  C   -0.032244  -0.038168   0.372320   0.367898  -0.039808  -0.033093
     7  C    0.004803  -0.004292  -0.041360  -0.033096   0.373447   0.368567
     8  C    0.000030  -0.000209  -0.003667   0.004701  -0.038311  -0.030921
     9  C   -0.004372  -0.004540   0.000008  -0.000126  -0.000018   0.000005
    10  C    0.000028   0.000048   0.000001   0.000002  -0.000000  -0.000000
    11  C   -0.000006  -0.000036  -0.000000  -0.000000   0.000001   0.000001
    12  O   -0.000000  -0.000000  -0.000000   0.000000  -0.000000  -0.000000
    13  H   -0.000092   0.004007  -0.000001  -0.000007   0.002962  -0.000059
    14  H   -0.000016   0.000095   0.000001  -0.000001  -0.000094   0.000001
    15  H    0.000002  -0.000088   0.000001  -0.000001   0.000374  -0.000036
    16  H   -0.000002   0.000001   0.000001   0.000000   0.000002  -0.000009
    17  H    0.000003   0.000002   0.000000  -0.000000  -0.000002  -0.000002
    18  H   -0.004974   0.006500   0.005731  -0.000001   0.000133  -0.000065
    19  H    0.609912  -0.037655  -0.004936  -0.002046  -0.000048  -0.000156
    20  H   -0.037655   0.608972   0.005809  -0.004245   0.003032  -0.000049
    21  H   -0.004936   0.005809   0.616505  -0.037036   0.005858  -0.005049
    22  H   -0.002046  -0.004245  -0.037036   0.605115  -0.004421  -0.001963
    23  H   -0.000048   0.003032   0.005858  -0.004421   0.605793  -0.037195
    24  H   -0.000156  -0.000049  -0.005049  -0.001963  -0.037195   0.604213
    25  H    0.000015  -0.000020  -0.000057  -0.000158  -0.003898  -0.002385
    26  H   -0.000039   0.000109   0.004797  -0.000032   0.005827  -0.004843
    27  H    0.005390  -0.000324  -0.000003  -0.000003   0.000000  -0.000000
    28  H   -0.000361   0.004166   0.000004   0.000002  -0.000007   0.000000
    29  H   -0.000009   0.000005  -0.000001   0.000000  -0.000000  -0.000000
    30  H   -0.000003   0.000003   0.000000  -0.000000  -0.000000   0.000000
              25         26         27         28         29         30
     1  C   -0.007562   0.006456   0.000073   0.003427   0.000095  -0.000060
     2  C   -0.032021  -0.035933   0.005210  -0.010377  -0.001885  -0.000012
     3  C   -0.003862  -0.007325  -0.000349   0.000783   0.003816   0.006636
     4  C    0.005600  -0.007016  -0.030448  -0.034597  -0.002897   0.003600
     5  C    0.000054  -0.000674  -0.004146  -0.004458  -0.000014  -0.000115
     6  C    0.004813  -0.004377   0.000028   0.000023   0.000001   0.000001
     7  C   -0.032565  -0.039881   0.000003  -0.000024  -0.000000  -0.000000
     8  C    0.359828   0.362364  -0.000158   0.000059  -0.000031   0.000011
     9  C   -0.000154  -0.000032   0.362704   0.372177  -0.035144  -0.024691
    10  C   -0.000006  -0.000008  -0.027998  -0.039932   0.346449   0.342971
    11  C   -0.000006   0.000129   0.003023  -0.003350  -0.028497  -0.024241
    12  O   -0.000000   0.000000  -0.000071   0.000332   0.001374   0.004652
    13  H   -0.000168  -0.000041  -0.000019   0.000401  -0.000000  -0.000002
    14  H   -0.000028  -0.000174  -0.000026   0.003111   0.000031   0.000052
    15  H    0.005453   0.000016   0.000001  -0.000084   0.000000  -0.000001
    16  H   -0.000309   0.006445  -0.000017   0.000037   0.001140  -0.000120
    17  H    0.004043  -0.000237   0.000019  -0.000027  -0.000150  -0.000176
    18  H   -0.000074   0.005598  -0.004969   0.006279   0.005032  -0.000004
    19  H    0.000015  -0.000039   0.005390  -0.000361  -0.000009  -0.000003
    20  H   -0.000020   0.000109  -0.000324   0.004166   0.000005   0.000003
    21  H   -0.000057   0.004797  -0.000003   0.000004  -0.000001   0.000000
    22  H   -0.000158  -0.000032  -0.000003   0.000002   0.000000  -0.000000
    23  H   -0.003898   0.005827   0.000000  -0.000007  -0.000000  -0.000000
    24  H   -0.002385  -0.004843  -0.000000   0.000000  -0.000000   0.000000
    25  H    0.609588  -0.036371   0.000003   0.000002   0.000000  -0.000000
    26  H   -0.036371   0.621272  -0.000000  -0.000003  -0.000007  -0.000000
    27  H    0.000003  -0.000000   0.601455  -0.038258  -0.007502  -0.001793
    28  H    0.000002  -0.000003  -0.038258   0.593421   0.005559  -0.003661
    29  H    0.000000  -0.000007  -0.007502   0.005559   0.586459  -0.026868
    30  H   -0.000000  -0.000000  -0.001793  -0.003661  -0.026868   0.562314
 Mulliken charges:
               1
     1  C   -0.472469
     2  C    0.083784
     3  C   -0.348772
     4  C   -0.084559
     5  C   -0.267672
     6  C   -0.261123
     7  C   -0.266410
     8  C   -0.263967
     9  C   -0.281035
    10  C   -0.346599
    11  C    0.450564
    12  O   -0.452042
    13  H    0.149446
    14  H    0.155297
    15  H    0.148264
    16  H    0.145807
    17  H    0.155276
    18  H    0.111377
    19  H    0.130301
    20  H    0.132433
    21  H    0.128367
    22  H    0.132516
    23  H    0.135101
    24  H    0.133806
    25  H    0.130245
    26  H    0.123980
    27  H    0.138177
    28  H    0.145356
    29  H    0.153045
    30  H    0.161506
 Sum of Mulliken charges =  -0.00000
 Mulliken charges with hydrogens summed into heavy atoms:
               1
     1  C   -0.019462
     2  C    0.083784
     3  C   -0.047690
     4  C    0.026818
     5  C   -0.004938
     6  C   -0.000240
     7  C    0.002498
     8  C   -0.009743
     9  C    0.002498
    10  C   -0.032048
    11  C    0.450564
    12  O   -0.452042
 APT charges:
               1
     1  C    0.018408
     2  C    0.111202
     3  C   -0.088425
     4  C    0.066314
     5  C    0.101479
     6  C    0.122678
     7  C    0.103977
     8  C    0.096964
     9  C    0.128870
    10  C   -0.047451
    11  C    0.727313
    12  O   -0.649598
    13  H   -0.009125
    14  H   -0.011131
    15  H   -0.015938
    16  H   -0.010778
    17  H   -0.026786
    18  H   -0.068632
    19  H   -0.058061
    20  H   -0.040907
    21  H   -0.050504
    22  H   -0.063485
    23  H   -0.041327
    24  H   -0.061630
    25  H   -0.054735
    26  H   -0.050897
    27  H   -0.052981
    28  H   -0.034888
    29  H   -0.010491
    30  H   -0.029435
 Sum of APT charges =  -0.00000
 APT charges with hydrogens summed into heavy atoms:
               1
     1  C   -0.017786
     2  C    0.111202
     3  C   -0.125990
     4  C   -0.002318
     5  C    0.002511
     6  C    0.008689
     7  C    0.001020
     8  C   -0.008668
     9  C    0.041001
    10  C   -0.087377
    11  C    0.727313
    12  O   -0.649598
 Electronic spatial extent (au):  <R**2>=           2114.5623
 Charge=             -0.0000 electrons
 Dipole moment (field-independent basis, Debye):
    X=              2.8826    Y=              1.2322    Z=             -0.7416  Tot=              3.2215
 Quadrupole moment (field-independent basis, Debye-Ang):
   XX=            -87.4220   YY=            -74.0113   ZZ=            -73.0402
   XY=             -4.9384   XZ=              2.2686   YZ=              0.1234
 Traceless Quadrupole moment (field-independent basis, Debye-Ang):
   XX=             -9.2642   YY=              4.1465   ZZ=              5.1177
   XY=             -4.9384   XZ=              2.2686   YZ=              0.1234
 Octapole moment (field-independent basis, Debye-Ang**2):
  XXX=             42.2320  YYY=             -2.3269  ZZZ=             -1.2744  XYY=             -2.8097
  XXY=             16.8267  XXZ=             -5.5819  XZZ=             -6.0353  YZZ=             -0.1902
  YYZ=             -0.4213  XYZ=             -0.9775
 Hexadecapole moment (field-independent basis, Debye-Ang**3):
 XXXX=          -1980.6044 YYYY=           -697.8281 ZZZZ=           -314.1859 XXXY=            -53.9153
 XXXZ=             19.2372 YYYX=              5.5051 YYYZ=             -5.0511 ZZZX=              1.2785
 ZZZY=              0.3611 XXYY=           -424.3234 XXZZ=           -342.1084 YYZZ=           -173.0525
 XXYZ=              6.2313 YYXZ=             -0.2526 ZZXY=              1.9725
 N-N= 7.672969051091D+02 E-N=-2.705774092200D+03  KE= 5.003610642110D+02
  Exact polarizability: 127.149   0.793 109.668  -2.461  -0.844  94.435
 Approx polarizability: 166.446   6.636 155.752  -6.598  -3.847 151.862
 Calling FoFJK, ICntrl=    100127 FMM=F ISym2X=0 I1Cent= 0 IOpClX= 0 NMat=1 NMatS=1 NMatT=0.
 Full mass-weighted force constant matrix:
 Low frequencies ---   -7.7089   -4.1391   -0.0003    0.0003    0.0004    6.5014
 Low frequencies ---   76.7124  121.4498  163.9684
 Diagonal vibrational polarizability:
        5.3881546       5.3531379      15.2159422
 Harmonic frequencies (cm**-1), IR intensities (KM/Mole), Raman scattering
 activities (A**4/AMU), depolarization ratios for plane and unpolarized
 incident light, reduced masses (AMU), force constants (mDyne/A),
 and normal coordinates:
                      1                      2                      3
                      A                      A                      A
 Frequencies --     76.7105               121.4489               163.9682
 Red. masses --      5.7522                 2.8223                 2.5527
 Frc consts  --      0.0199                 0.0245                 0.0404
 IR Inten    --      3.3079                 0.9286                 0.1948
  Atom  AN      X      Y      Z        X      Y      Z        X      Y      Z
     1   6    -0.08  -0.05  -0.11    -0.13   0.07  -0.06     0.15   0.07  -0.03
     2   6    -0.02   0.00  -0.10    -0.01   0.03  -0.06     0.01   0.03  -0.05
     3   6    -0.01   0.03  -0.15     0.02   0.07  -0.13    -0.03  -0.03   0.08
     4   6    -0.00   0.01  -0.04     0.01   0.03  -0.07     0.01   0.02  -0.08
     5   6    -0.05  -0.02   0.10     0.03   0.02  -0.10    -0.01   0.01  -0.01
     6   6     0.00  -0.00   0.17     0.03  -0.06  -0.01     0.06  -0.05   0.19
     7   6    -0.03  -0.02   0.04    -0.02  -0.03   0.12    -0.03  -0.07   0.02
     8   6    -0.00   0.03  -0.08     0.00  -0.02   0.05    -0.01   0.05  -0.12
     9   6    -0.04   0.02  -0.13     0.04   0.03   0.01     0.01   0.03  -0.08
    10   6    -0.01  -0.01  -0.18    -0.04  -0.00   0.20    -0.04  -0.02   0.06
    11   6     0.03   0.01   0.01     0.02  -0.03   0.02    -0.04  -0.02   0.06
    12   8     0.18   0.01   0.41     0.06  -0.12   0.01    -0.08  -0.02  -0.04
    13   1    -0.08  -0.12  -0.08    -0.17   0.10  -0.00     0.13   0.19  -0.09
    14   1    -0.07  -0.03  -0.12    -0.16   0.07  -0.13     0.12  -0.01   0.00
    15   1    -0.14  -0.06  -0.16    -0.13   0.07  -0.04     0.28   0.07   0.02
    16   1    -0.02   0.13  -0.13     0.02   0.22  -0.12    -0.11  -0.11   0.06
    17   1     0.01   0.01  -0.21     0.06   0.04  -0.27    -0.00  -0.02   0.17
    18   1     0.10   0.03  -0.04    -0.03   0.03  -0.07     0.03   0.01  -0.08
    19   1    -0.01  -0.01   0.16     0.06   0.00  -0.18     0.05  -0.01  -0.08
    20   1    -0.15  -0.07   0.10     0.01   0.11  -0.10    -0.14   0.10  -0.00
    21   1     0.11   0.07   0.19     0.07  -0.16  -0.02     0.29   0.03   0.21
    22   1    -0.04  -0.04   0.29     0.02  -0.04  -0.01    -0.02  -0.12   0.40
    23   1    -0.10  -0.10   0.03    -0.12   0.07   0.15    -0.11  -0.21  -0.01
    24   1    -0.00   0.02   0.05     0.00  -0.10   0.24    -0.01  -0.03   0.01
    25   1    -0.02   0.01  -0.15    -0.04  -0.01   0.09    -0.07   0.03  -0.27
    26   1     0.06   0.10  -0.07     0.08  -0.07   0.04     0.02   0.20  -0.11
    27   1    -0.03   0.01  -0.16    -0.00   0.02  -0.05    -0.02   0.01  -0.16
    28   1    -0.10   0.05  -0.14     0.18   0.08   0.02     0.09   0.10  -0.07
    29   1     0.06  -0.11  -0.21    -0.26   0.12   0.23    -0.16  -0.04   0.06
    30   1    -0.02   0.04  -0.26     0.02  -0.10   0.41    -0.00  -0.03   0.14
                      4                      5                      6
                      A                      A                      A
 Frequencies --    186.6165               237.7103               264.6372
 Red. masses --      1.3811                 2.1691                 1.8377
 Frc consts  --      0.0283                 0.0722                 0.0758
 IR Inten    --      0.1769                 0.3813                 0.1380
  Atom  AN      X      Y      Z        X      Y      Z        X      Y      Z
     1   6     0.02  -0.04  -0.02    -0.03   0.16   0.05     0.09   0.05   0.01
     2   6     0.00  -0.01  -0.02    -0.01   0.06   0.02     0.00   0.05   0.00
     3   6    -0.01  -0.02  -0.01     0.04   0.02  -0.01     0.03   0.03  -0.01
     4   6    -0.02  -0.01  -0.00     0.01   0.06   0.05    -0.03   0.06   0.03
     5   6    -0.00   0.03  -0.08     0.04  -0.04   0.10     0.01   0.04  -0.06
     6   6     0.00  -0.01  -0.01    -0.02  -0.06  -0.02    -0.02  -0.08   0.00
     7   6    -0.02   0.01   0.08    -0.02  -0.07  -0.11    -0.05  -0.07   0.05
     8   6     0.01   0.01  -0.02    -0.07   0.01  -0.01    -0.04   0.01  -0.02
     9   6    -0.01  -0.05   0.08    -0.03   0.02   0.02    -0.07  -0.03   0.12
    10   6     0.02   0.01  -0.03    -0.00  -0.03  -0.04    -0.00  -0.01  -0.07
    11   6     0.00   0.02  -0.02     0.03  -0.04  -0.03     0.01  -0.01  -0.04
    12   8     0.01   0.05   0.03     0.06  -0.09  -0.01     0.05  -0.04   0.00
    13   1    -0.19   0.37   0.05    -0.22   0.54   0.09     0.30  -0.26  -0.12
    14   1    -0.22  -0.44  -0.11    -0.23  -0.11  -0.10     0.31   0.36   0.16
    15   1     0.50  -0.07   0.00     0.34   0.15   0.17    -0.27   0.08  -0.01
    16   1    -0.01  -0.06  -0.01     0.08   0.04  -0.01     0.06   0.04  -0.01
    17   1    -0.03  -0.01   0.04     0.09   0.01  -0.03     0.05   0.02  -0.03
    18   1    -0.09   0.01  -0.00     0.06   0.10   0.05    -0.11   0.10   0.03
    19   1    -0.02   0.01  -0.18     0.10  -0.03   0.20     0.07   0.00  -0.19
    20   1     0.02   0.14  -0.07     0.07  -0.15   0.09     0.04   0.17  -0.05
    21   1     0.03  -0.08  -0.02    -0.09   0.01  -0.01     0.01  -0.14  -0.01
    22   1    -0.01   0.01  -0.01     0.02  -0.11  -0.07    -0.01  -0.08  -0.01
    23   1    -0.12   0.07   0.10     0.06  -0.15  -0.13    -0.10  -0.06   0.05
    24   1     0.02  -0.03   0.18    -0.08  -0.05  -0.22    -0.04  -0.09   0.09
    25   1     0.00   0.01  -0.08    -0.13   0.01   0.00    -0.12   0.01  -0.08
    26   1     0.07   0.07  -0.01    -0.14  -0.00  -0.01    -0.01   0.07  -0.01
    27   1    -0.00  -0.02   0.22    -0.07   0.03   0.03    -0.10   0.01   0.28
    28   1    -0.04  -0.20   0.08    -0.07   0.02   0.02    -0.15  -0.20   0.10
    29   1     0.13   0.03  -0.03     0.05  -0.05  -0.04     0.16  -0.01  -0.07
    30   1    -0.00   0.03  -0.09    -0.03  -0.04  -0.09    -0.06   0.00  -0.19
                      7                      8                      9
                      A                      A                      A
 Frequencies --    305.6330               322.9055               332.4286
 Red. masses --      2.4832                 2.5357                 1.9669
 Frc consts  --      0.1367                 0.1558                 0.1281
 IR Inten    --      0.8935                 0.1834                 0.1368
  Atom  AN      X      Y      Z        X      Y      Z        X      Y      Z
     1   6    -0.12   0.17  -0.05     0.18   0.08  -0.01     0.05   0.06  -0.09
     2   6    -0.01  -0.02  -0.08     0.02  -0.04  -0.05     0.01   0.03  -0.09
     3   6    -0.04  -0.09  -0.01     0.00   0.05  -0.08    -0.03  -0.04   0.02
     4   6     0.01  -0.02  -0.06    -0.04  -0.04  -0.05     0.03   0.04  -0.01
     5   6    -0.01  -0.01  -0.01    -0.11  -0.04   0.05     0.03  -0.07   0.11
     6   6     0.06   0.05   0.06    -0.10   0.01   0.03    -0.04  -0.02  -0.09
     7   6     0.06   0.03  -0.06     0.03  -0.01   0.01    -0.02   0.02   0.13
     8   6     0.04  -0.02  -0.00     0.04  -0.14   0.07     0.04   0.02  -0.04
     9   6     0.03  -0.12   0.12    -0.03  -0.05   0.00     0.01   0.01  -0.00
    10   6     0.07  -0.04   0.02    -0.06   0.07   0.03     0.02  -0.04   0.00
    11   6    -0.02  -0.03   0.00     0.00   0.07  -0.05    -0.03  -0.03   0.04
    12   8    -0.05   0.06   0.03     0.04   0.04   0.01    -0.06   0.01   0.01
    13   1    -0.10   0.12  -0.05     0.22   0.21  -0.16     0.06   0.03  -0.11
    14   1    -0.07   0.36  -0.16     0.20   0.04   0.06     0.07   0.10  -0.08
    15   1    -0.30   0.20   0.09     0.31   0.08   0.11     0.00   0.07  -0.07
    16   1    -0.11  -0.20  -0.03     0.05   0.11  -0.06    -0.13  -0.12  -0.01
    17   1    -0.03  -0.07   0.11    -0.07   0.05  -0.15     0.02  -0.03   0.11
    18   1    -0.04   0.07  -0.05    -0.01  -0.00  -0.05     0.09   0.14   0.01
    19   1    -0.04  -0.00   0.01    -0.11  -0.03   0.13     0.05  -0.01   0.35
    20   1    -0.07  -0.03  -0.01    -0.17  -0.11   0.05     0.07  -0.32   0.10
    21   1     0.19   0.15   0.08    -0.15   0.03   0.04    -0.31  -0.14  -0.13
    22   1     0.00   0.03   0.21    -0.10   0.06   0.00     0.04   0.06  -0.35
    23   1     0.12  -0.04  -0.08     0.13  -0.03  -0.01    -0.20   0.21   0.18
    24   1     0.04   0.08  -0.14     0.05   0.08  -0.06     0.06  -0.07   0.35
    25   1     0.09  -0.01   0.09     0.05  -0.10   0.31     0.00   0.02  -0.08
    26   1     0.02  -0.12  -0.01     0.06  -0.38   0.05     0.16   0.06  -0.04
    27   1     0.01  -0.07   0.32     0.03  -0.03   0.09    -0.03   0.01  -0.02
    28   1     0.05  -0.32   0.11     0.00  -0.13  -0.00     0.01   0.02  -0.00
    29   1     0.19  -0.02   0.02    -0.16   0.20   0.06     0.05  -0.10  -0.01
    30   1     0.05  -0.01  -0.05    -0.03   0.00   0.17     0.01  -0.00  -0.05
                     10                     11                     12
                      A                      A                      A
 Frequencies --    370.5825               412.5594               422.0256
 Red. masses --      3.3722                 2.9496                 2.0981
 Frc consts  --      0.2729                 0.2958                 0.2202
 IR Inten    --      0.8809                 1.2261                 0.1309
  Atom  AN      X      Y      Z        X      Y      Z        X      Y      Z
     1   6    -0.04   0.03   0.02    -0.06   0.02   0.03    -0.03  -0.07  -0.13
     2   6    -0.02  -0.05   0.01     0.03  -0.00   0.03     0.03   0.08  -0.07
     3   6     0.06  -0.14   0.05     0.02  -0.02   0.05     0.02  -0.05   0.09
     4   6    -0.06  -0.04  -0.02    -0.09  -0.02  -0.00    -0.02   0.13  -0.03
     5   6    -0.14  -0.02  -0.00    -0.02  -0.14  -0.04     0.00   0.05   0.00
     6   6    -0.15   0.01   0.01     0.07  -0.07  -0.04    -0.02  -0.03   0.03
     7   6    -0.12   0.01   0.01     0.19  -0.06   0.03     0.03  -0.05  -0.02
     8   6    -0.05   0.02  -0.09     0.13   0.10  -0.02     0.01  -0.08   0.07
     9   6     0.07   0.06   0.02    -0.12   0.02   0.01    -0.05   0.09   0.03
    10   6     0.11   0.04   0.07    -0.16   0.09  -0.01    -0.01   0.01   0.00
    11   6     0.18   0.01  -0.05    -0.01   0.06  -0.07     0.04   0.00   0.03
    12   8     0.18   0.04  -0.05     0.04   0.02   0.01     0.03  -0.01  -0.02
    13   1    -0.03  -0.01   0.02    -0.09  -0.01   0.09    -0.07  -0.15  -0.01
    14   1    -0.01   0.14  -0.03    -0.07   0.07  -0.05    -0.07  -0.19  -0.11
    15   1    -0.15   0.04   0.09    -0.13   0.03   0.04     0.00  -0.10  -0.33
    16   1     0.09  -0.42   0.02     0.05  -0.21   0.03    -0.11  -0.34   0.04
    17   1    -0.04  -0.08   0.32    -0.08   0.03   0.21     0.04   0.00   0.39
    18   1    -0.09  -0.06  -0.02    -0.14  -0.02  -0.01    -0.04   0.18  -0.03
    19   1    -0.16  -0.01   0.01     0.04  -0.12   0.08     0.11   0.04  -0.00
    20   1    -0.17  -0.03  -0.00    -0.01  -0.24  -0.04    -0.05   0.05   0.00
    21   1    -0.18   0.00   0.01     0.05  -0.13  -0.05    -0.01  -0.01   0.03
    22   1    -0.14   0.03  -0.02     0.02   0.09  -0.05    -0.02  -0.04   0.03
    23   1    -0.21   0.01   0.02     0.21  -0.07   0.02     0.15  -0.11  -0.05
    24   1    -0.05   0.04   0.08     0.14  -0.08  -0.03     0.00   0.01  -0.14
    25   1    -0.05  -0.01  -0.25     0.08   0.05  -0.28    -0.07  -0.02   0.36
    26   1    -0.06   0.20  -0.07     0.17   0.35   0.00     0.03  -0.37   0.04
    27   1     0.14   0.03  -0.08    -0.07   0.02   0.06    -0.11   0.11   0.06
    28   1     0.14   0.15   0.02    -0.16  -0.02   0.00    -0.04   0.04   0.03
    29   1     0.02   0.16   0.10    -0.28   0.24   0.03     0.01  -0.01  -0.00
    30   1     0.07  -0.12   0.17    -0.15  -0.05   0.16    -0.06  -0.03  -0.04
                     13                     14                     15
                      A                      A                      A
 Frequencies --    472.0575               483.9376               499.9011
 Red. masses --      2.2184                 3.3983                 2.3449
 Frc consts  --      0.2913                 0.4689                 0.3453
 IR Inten    --      1.5433                 5.0975                 0.4251
  Atom  AN      X      Y      Z        X      Y      Z        X      Y      Z
     1   6    -0.02   0.02  -0.02    -0.07   0.01  -0.01    -0.04   0.02  -0.01
     2   6     0.04  -0.03  -0.01     0.10  -0.01  -0.00     0.08  -0.05  -0.01
     3   6     0.04   0.00  -0.05     0.04   0.19   0.17     0.02  -0.02   0.02
     4   6    -0.06   0.00   0.07     0.04  -0.05  -0.08     0.09  -0.01   0.10
     5   6    -0.08   0.02  -0.02    -0.07   0.00  -0.00     0.08   0.16   0.08
     6   6    -0.10  -0.05   0.03    -0.09   0.00   0.01    -0.04  -0.00   0.01
     7   6     0.10  -0.08   0.00    -0.01  -0.01   0.00    -0.03  -0.03  -0.02
     8   6     0.10  -0.02  -0.03     0.05  -0.07  -0.09     0.04  -0.09  -0.09
     9   6    -0.03   0.09   0.03     0.04  -0.10  -0.02    -0.04  -0.07  -0.05
    10   6     0.06  -0.07   0.03    -0.01   0.10  -0.05    -0.10  -0.00  -0.00
    11   6     0.04  -0.04   0.10    -0.01   0.11   0.16    -0.02   0.01  -0.08
    12   8    -0.07   0.08  -0.01     0.03  -0.14  -0.05    -0.01   0.05   0.03
    13   1    -0.05   0.09   0.00    -0.19  -0.03   0.18    -0.09   0.05   0.05
    14   1    -0.05   0.07  -0.11    -0.15   0.04  -0.20    -0.06   0.12  -0.16
    15   1    -0.02   0.04   0.08    -0.17   0.02  -0.03    -0.13   0.04   0.10
    16   1    -0.01   0.28  -0.03    -0.10   0.23   0.16     0.03  -0.17   0.00
    17   1     0.11  -0.06  -0.30    -0.03   0.19   0.11    -0.00   0.00   0.15
    18   1    -0.10   0.02   0.07     0.05  -0.07  -0.08     0.19   0.01   0.10
    19   1    -0.04  -0.03  -0.23    -0.06   0.01   0.03     0.07   0.10  -0.22
    20   1    -0.06   0.24  -0.01    -0.15  -0.03  -0.00     0.17   0.43   0.09
    21   1    -0.22  -0.13   0.01    -0.14  -0.01   0.01    -0.22  -0.04  -0.00
    22   1    -0.09   0.07  -0.11    -0.08   0.03  -0.04     0.07  -0.07  -0.18
    23   1     0.20  -0.19  -0.03    -0.11  -0.01   0.01    -0.09  -0.06  -0.01
    24   1     0.11   0.07  -0.14     0.09   0.06   0.08     0.06   0.06   0.03
    25   1     0.04  -0.04  -0.15     0.04  -0.07  -0.14     0.05  -0.10  -0.12
    26   1     0.13   0.09  -0.02     0.04   0.01  -0.08     0.02  -0.04  -0.08
    27   1    -0.02   0.03  -0.20     0.12  -0.07   0.18    -0.02  -0.07  -0.04
    28   1    -0.04   0.31   0.04     0.04  -0.29  -0.03    -0.10  -0.03  -0.05
    29   1     0.21  -0.26  -0.02     0.14  -0.13  -0.11    -0.33   0.20   0.05
    30   1    -0.03  -0.02  -0.20     0.03   0.34  -0.23    -0.02  -0.13   0.27
                     16                     17                     18
                      A                      A                      A
 Frequencies --    524.6367               563.1559               668.0401
 Red. masses --      2.5364                 1.9978                 3.5823
 Frc consts  --      0.4113                 0.3733                 0.9419
 IR Inten    --      4.7799                 2.0847                 0.2043
  Atom  AN      X      Y      Z        X      Y      Z        X      Y      Z
     1   6    -0.02  -0.03   0.04    -0.00   0.00   0.02    -0.00  -0.04   0.20
     2   6     0.05   0.11   0.05     0.06  -0.02   0.00     0.07   0.00   0.05
     3   6     0.11   0.03   0.02     0.09   0.02   0.03     0.01  -0.06  -0.06
     4   6     0.04   0.06  -0.14    -0.04   0.01   0.01     0.02   0.15  -0.12
     5   6    -0.04   0.01   0.00     0.01  -0.04  -0.03    -0.02   0.05  -0.03
     6   6    -0.07  -0.03   0.01     0.07   0.02  -0.04    -0.06   0.00   0.00
     7   6    -0.01  -0.04   0.00    -0.08   0.03  -0.04     0.02  -0.03  -0.02
     8   6    -0.03   0.08   0.05     0.00  -0.09  -0.07     0.09  -0.12  -0.11
     9   6     0.01  -0.13  -0.07    -0.11   0.02   0.01     0.07   0.13   0.05
    10   6     0.01  -0.10   0.02    -0.05  -0.05   0.00     0.04   0.06   0.00
    11   6     0.04  -0.05  -0.01     0.08  -0.01   0.06    -0.14  -0.06  -0.14
    12   8    -0.04   0.13   0.01     0.00   0.10  -0.02    -0.09  -0.06   0.07
    13   1    -0.04  -0.17   0.16    -0.07   0.01   0.11    -0.07  -0.11   0.34
    14   1    -0.05  -0.13   0.08    -0.04   0.05  -0.10    -0.05  -0.04   0.11
    15   1    -0.03  -0.06  -0.19    -0.06   0.01   0.06    -0.07  -0.05   0.14
    16   1     0.15   0.16   0.04     0.07   0.20   0.05     0.17  -0.08  -0.04
    17   1     0.25  -0.02  -0.10     0.13  -0.02  -0.14     0.06  -0.07  -0.08
    18   1     0.08  -0.02  -0.14    -0.09   0.02   0.01    -0.06   0.12  -0.12
    19   1     0.06   0.03   0.12    -0.00   0.00   0.17     0.14   0.10   0.25
    20   1    -0.17  -0.11  -0.00     0.04  -0.24  -0.04    -0.18  -0.23  -0.04
    21   1    -0.17  -0.08  -0.01     0.35   0.15   0.01     0.03   0.04   0.02
    22   1    -0.04   0.01  -0.10    -0.02  -0.10   0.26    -0.08  -0.02   0.08
    23   1     0.11  -0.12  -0.02    -0.36   0.23   0.03    -0.18   0.04   0.01
    24   1    -0.06   0.01  -0.14     0.05  -0.09   0.30     0.20   0.05   0.18
    25   1    -0.13   0.07  -0.06     0.05  -0.06   0.12     0.09  -0.12  -0.11
    26   1    -0.04   0.18   0.06    -0.07  -0.25  -0.09     0.05  -0.10  -0.10
    27   1    -0.11  -0.05   0.20    -0.12   0.01  -0.03    -0.04   0.17   0.12
    28   1     0.08  -0.41  -0.07    -0.14   0.07   0.01     0.19   0.02   0.05
    29   1    -0.20   0.01   0.04    -0.08  -0.09  -0.01     0.17   0.18   0.03
    30   1     0.06  -0.21   0.22    -0.12  -0.16  -0.01     0.03   0.10  -0.05
                     19                     20                     21
                      A                      A                      A
 Frequencies --    707.4317               775.5541               812.3517
 Red. masses --      2.6826                 2.3078                 1.7322
 Frc consts  --      0.7910                 0.8178                 0.6735
 IR Inten    --      0.7647                 3.3597                 0.3049
  Atom  AN      X      Y      Z        X      Y      Z        X      Y      Z
     1   6    -0.03  -0.04   0.11     0.01   0.01  -0.07     0.02  -0.01  -0.07
     2   6    -0.09  -0.11  -0.02     0.01  -0.04   0.01     0.05  -0.09   0.01
     3   6    -0.12  -0.07  -0.05     0.10  -0.14   0.02     0.08  -0.02  -0.01
     4   6     0.01   0.09  -0.11    -0.01  -0.02   0.02     0.02  -0.01  -0.04
     5   6     0.07   0.09   0.04     0.01  -0.03   0.01     0.04   0.08  -0.03
     6   6     0.04   0.02   0.01    -0.01  -0.02   0.01     0.01   0.04  -0.02
     7   6     0.02  -0.01   0.02    -0.04   0.03  -0.01    -0.08  -0.01   0.05
     8   6     0.00  -0.04  -0.01    -0.01   0.04   0.03    -0.04  -0.04   0.08
     9   6    -0.07   0.04  -0.04     0.04   0.10  -0.01    -0.02  -0.00   0.04
    10   6    -0.02   0.00  -0.00    -0.01   0.17  -0.10    -0.06   0.03   0.03
    11   6     0.12   0.03   0.14     0.00  -0.09   0.09    -0.02   0.02  -0.01
    12   8     0.07   0.01  -0.07    -0.07  -0.03   0.01    -0.02   0.01   0.01
    13   1     0.05   0.05  -0.06    -0.01   0.04  -0.07    -0.01   0.05  -0.06
    14   1     0.04   0.01   0.20    -0.00   0.05  -0.13    -0.00   0.07  -0.18
    15   1     0.03  -0.02   0.26    -0.02   0.02  -0.00    -0.01   0.01   0.05
    16   1    -0.24   0.11  -0.04     0.07   0.23   0.06     0.16  -0.07  -0.00
    17   1    -0.28  -0.06  -0.18     0.27  -0.24  -0.31     0.04  -0.01   0.00
    18   1     0.08   0.07  -0.11     0.04  -0.04   0.02    -0.07  -0.05  -0.05
    19   1     0.15   0.10   0.13    -0.01  -0.06  -0.11     0.01   0.17   0.33
    20   1    -0.01  -0.01   0.03     0.04   0.08   0.01     0.02  -0.29  -0.05
    21   1    -0.11  -0.05  -0.01    -0.02   0.00   0.01     0.13  -0.04  -0.03
    22   1     0.12   0.00  -0.16     0.00  -0.04   0.01     0.02  -0.08   0.04
    23   1     0.10  -0.07   0.00    -0.01   0.01  -0.02     0.27  -0.13  -0.01
    24   1    -0.01   0.03  -0.07    -0.08   0.01  -0.05    -0.22   0.08  -0.27
    25   1     0.08  -0.08  -0.17     0.03   0.04   0.06    -0.04  -0.11  -0.30
    26   1     0.04   0.10   0.00    -0.03   0.01   0.03     0.06   0.33   0.12
    27   1    -0.16   0.15   0.34     0.24   0.16   0.38    -0.01  -0.04  -0.12
    28   1    -0.08  -0.34  -0.06    -0.14  -0.26  -0.04     0.08   0.15   0.05
    29   1    -0.12  -0.18  -0.05    -0.31   0.26  -0.07     0.18  -0.05   0.01
    30   1    -0.06  -0.05  -0.02     0.06   0.06   0.16    -0.13   0.12  -0.18
                     22                     23                     24
                      A                      A                      A
 Frequencies --    837.1462               859.7428               869.4222
 Red. masses --      2.1000                 2.2361                 1.8696
 Frc consts  --      0.8671                 0.9738                 0.8327
 IR Inten    --      0.9074                 1.1180                 1.3105
  Atom  AN      X      Y      Z        X      Y      Z        X      Y      Z
     1   6    -0.01   0.02  -0.08    -0.01   0.01  -0.02     0.02  -0.01  -0.03
     2   6    -0.04  -0.00   0.03    -0.03   0.02   0.02    -0.00  -0.05   0.01
     3   6    -0.09   0.05   0.11     0.06  -0.03   0.01    -0.05   0.03   0.13
     4   6    -0.01   0.05   0.07    -0.05  -0.06  -0.05    -0.01  -0.01  -0.07
     5   6    -0.04   0.05  -0.03    -0.06   0.07   0.07     0.06  -0.05  -0.02
     6   6    -0.01   0.07  -0.05     0.18   0.11   0.00     0.04  -0.01   0.09
     7   6     0.06  -0.07   0.04     0.09  -0.12   0.01    -0.04   0.09   0.03
     8   6    -0.02  -0.10   0.00    -0.10  -0.04  -0.05    -0.01   0.02  -0.05
     9   6     0.03   0.02  -0.00    -0.01   0.01   0.01    -0.00   0.05   0.07
    10   6     0.10  -0.05  -0.08    -0.02   0.04   0.02    -0.00  -0.05  -0.03
    11   6     0.01  -0.04  -0.05    -0.00  -0.02  -0.00    -0.00  -0.02  -0.09
    12   8     0.01  -0.01   0.00    -0.01   0.00   0.01     0.02   0.01   0.01
    13   1     0.02   0.03  -0.12     0.02  -0.02  -0.04    -0.06   0.02   0.06
    14   1     0.00  -0.00  -0.03     0.00  -0.04   0.05    -0.03   0.05  -0.19
    15   1     0.03   0.02  -0.08     0.02   0.00  -0.10    -0.06   0.00   0.03
    16   1    -0.09   0.30   0.14     0.14   0.03   0.03     0.05   0.34   0.17
    17   1    -0.06   0.00  -0.12     0.15  -0.06  -0.05    -0.09  -0.02  -0.19
    18   1    -0.07   0.04   0.06    -0.04  -0.08  -0.05    -0.12  -0.03  -0.07
    19   1    -0.11   0.11   0.19    -0.26   0.08   0.03     0.11  -0.05  -0.02
    20   1     0.05  -0.18  -0.05    -0.21   0.14   0.07    -0.11  -0.02  -0.02
    21   1     0.23   0.08  -0.04    -0.23   0.02  -0.04    -0.31  -0.23   0.03
    22   1    -0.12   0.09   0.17     0.29   0.26  -0.37     0.18   0.08  -0.30
    23   1     0.15   0.01   0.05    -0.15  -0.08   0.05     0.02  -0.21  -0.04
    24   1     0.08  -0.03   0.03     0.08  -0.30   0.20    -0.10   0.19  -0.17
    25   1    -0.14  -0.14  -0.27    -0.25  -0.02   0.00     0.18   0.04   0.15
    26   1     0.05   0.18   0.03    -0.19  -0.09  -0.05    -0.04  -0.17  -0.06
    27   1     0.01   0.03   0.04     0.07  -0.01  -0.02    -0.08   0.03  -0.07
    28   1    -0.12  -0.01  -0.01     0.09   0.03   0.02     0.08   0.14   0.07
    29   1    -0.25   0.25   0.00     0.13   0.02   0.01     0.06   0.17   0.03
    30   1     0.19  -0.25   0.31    -0.08   0.07  -0.11    -0.09  -0.23  -0.00
                     25                     26                     27
                      A                      A                      A
 Frequencies --    910.8408               924.8685               959.4855
 Red. masses --      1.7241                 2.0075                 1.9406
 Frc consts  --      0.8428                 1.0117                 1.0526
 IR Inten    --      2.3520                 1.3465                 0.5968
  Atom  AN      X      Y      Z        X      Y      Z        X      Y      Z
     1   6     0.04  -0.02   0.06    -0.04  -0.02   0.07     0.09   0.02   0.04
     2   6     0.08   0.02  -0.05    -0.05   0.04  -0.07     0.12   0.04  -0.02
     3   6    -0.05  -0.04  -0.04     0.09   0.07  -0.05    -0.10  -0.03  -0.05
     4   6    -0.06   0.00   0.05     0.03  -0.03   0.05     0.09  -0.04   0.01
     5   6    -0.03   0.09  -0.03     0.03  -0.07  -0.08    -0.02  -0.07  -0.01
     6   6     0.04  -0.00  -0.00     0.01   0.08   0.05    -0.01   0.07  -0.01
     7   6    -0.03  -0.04   0.03    -0.01   0.04   0.09     0.00  -0.03   0.03
     8   6     0.01   0.09  -0.03    -0.05  -0.08  -0.09    -0.07  -0.01   0.02
     9   6    -0.01  -0.08  -0.02     0.02   0.04   0.01     0.03   0.08   0.04
    10   6     0.06   0.04  -0.03    -0.02  -0.01  -0.04    -0.08  -0.03  -0.02
    11   6     0.01   0.01   0.04     0.01  -0.03   0.04     0.03  -0.01   0.01
    12   8     0.00  -0.01  -0.01    -0.03   0.00   0.00     0.01   0.01  -0.01
    13   1    -0.10  -0.03   0.27     0.07   0.04  -0.13    -0.15  -0.15   0.49
    14   1    -0.04   0.05  -0.18     0.04  -0.03   0.26    -0.10  -0.01  -0.30
    15   1    -0.10  -0.00   0.10     0.07  -0.02   0.12    -0.14   0.01  -0.17
    16   1    -0.18   0.00  -0.05    -0.07  -0.24  -0.10    -0.17  -0.01  -0.06
    17   1    -0.06  -0.04  -0.06     0.29   0.10   0.29    -0.19  -0.01  -0.06
    18   1    -0.20   0.07   0.05    -0.03   0.02   0.05     0.18   0.01   0.01
    19   1    -0.08   0.17   0.28    -0.09  -0.03   0.02    -0.15  -0.10  -0.17
    20   1    -0.01  -0.23  -0.05     0.13  -0.17  -0.09     0.04   0.07  -0.01
    21   1     0.06  -0.22  -0.04    -0.05  -0.20  -0.01     0.00   0.12  -0.00
    22   1     0.06   0.03  -0.07    -0.01   0.27  -0.08    -0.08   0.18   0.05
    23   1    -0.02  -0.27  -0.02     0.17  -0.28   0.00     0.10   0.01   0.03
    24   1    -0.12  -0.04  -0.12    -0.02   0.30  -0.20    -0.06  -0.04  -0.04
    25   1    -0.05   0.15   0.30    -0.09  -0.07  -0.04    -0.26  -0.01  -0.06
    26   1     0.06  -0.24  -0.06     0.06  -0.12  -0.10     0.00   0.07   0.03
    27   1     0.10  -0.14  -0.17     0.10   0.04   0.09     0.10   0.09   0.14
    28   1    -0.15   0.11  -0.02    -0.13  -0.03   0.00     0.03  -0.03   0.04
    29   1    -0.10   0.11  -0.01    -0.19  -0.06  -0.05    -0.07  -0.11  -0.04
    30   1     0.19   0.09   0.16     0.01  -0.06   0.06    -0.22  -0.19  -0.11
                     28                     29                     30
                      A                      A                      A
 Frequencies --    964.0448               990.2639               995.1783
 Red. masses --      1.6892                 1.8850                 1.8810
 Frc consts  --      0.9249                 1.0891                 1.0976
 IR Inten    --      1.1010                 2.1042                 4.0803
  Atom  AN      X      Y      Z        X      Y      Z        X      Y      Z
     1   6     0.03  -0.08  -0.04     0.03   0.04  -0.07     0.03   0.02   0.03
     2   6     0.04  -0.08   0.02    -0.00   0.00   0.11     0.04  -0.00  -0.04
     3   6     0.03   0.09  -0.02    -0.02  -0.08  -0.03     0.02   0.00  -0.02
     4   6     0.01   0.03   0.02     0.00   0.02   0.05    -0.05   0.03  -0.03
     5   6    -0.06  -0.01  -0.00     0.07  -0.02  -0.07     0.01  -0.09   0.03
     6   6     0.04   0.00  -0.01    -0.06   0.02   0.06     0.07   0.02   0.01
     7   6    -0.01  -0.03  -0.01     0.08   0.02   0.02    -0.05   0.06   0.01
     8   6    -0.02   0.05   0.02    -0.07  -0.02  -0.05    -0.03  -0.09   0.03
     9   6    -0.00   0.09  -0.05    -0.05  -0.03  -0.07    -0.11  -0.04  -0.03
    10   6     0.07  -0.07   0.03     0.03   0.02   0.07     0.14   0.03   0.02
    11   6    -0.04   0.02  -0.03    -0.01   0.04  -0.00    -0.02   0.02   0.01
    12   8    -0.02  -0.01   0.02     0.01  -0.00  -0.00    -0.01  -0.02   0.01
    13   1    -0.06   0.19  -0.07    -0.03  -0.04   0.06    -0.05  -0.11   0.24
    14   1     0.03   0.23  -0.34    -0.03  -0.01  -0.15    -0.06  -0.06  -0.06
    15   1    -0.09  -0.01   0.43    -0.03   0.03  -0.18    -0.05   0.00  -0.16
    16   1     0.11  -0.20  -0.04     0.30  -0.02   0.02     0.05  -0.05  -0.02
    17   1    -0.08   0.15   0.20    -0.16  -0.07  -0.12     0.01   0.01   0.01
    18   1     0.06  -0.13   0.01     0.01  -0.16   0.03    -0.08   0.21  -0.01
    19   1    -0.08  -0.01  -0.02     0.21   0.00   0.08     0.02  -0.16  -0.26
    20   1    -0.10   0.03   0.00     0.19  -0.18  -0.08    -0.07   0.21   0.05
    21   1    -0.03  -0.00  -0.02    -0.03  -0.15   0.03    -0.12   0.12   0.02
    22   1     0.03   0.08  -0.05    -0.14   0.27   0.03     0.14  -0.02  -0.11
    23   1    -0.05  -0.03  -0.00    -0.09  -0.12   0.01     0.16   0.13   0.00
    24   1    -0.11  -0.18  -0.00     0.25   0.23   0.09    -0.13   0.03  -0.10
    25   1     0.02   0.06   0.10    -0.11   0.01   0.07    -0.02  -0.15  -0.25
    26   1    -0.04  -0.04   0.01    -0.31  -0.09  -0.05     0.09   0.18   0.05
    27   1    -0.18   0.19   0.29    -0.16   0.02   0.07    -0.25  -0.04  -0.12
    28   1    -0.09  -0.25  -0.06    -0.09  -0.14  -0.08    -0.26   0.07  -0.04
    29   1    -0.09  -0.18  -0.00     0.07  -0.19   0.02     0.01   0.11   0.04
    30   1     0.12  -0.01   0.08     0.11   0.26  -0.02     0.32   0.21   0.19
                     31                     32                     33
                      A                      A                      A
 Frequencies --   1005.3367              1028.2143              1068.0902
 Red. masses --      1.7259                 1.5665                 1.7242
 Frc consts  --      1.0277                 0.9758                 1.1589
 IR Inten    --      3.9459                 1.3010                 0.8807
  Atom  AN      X      Y      Z        X      Y      Z        X      Y      Z
     1   6    -0.00  -0.09   0.03    -0.01   0.00   0.03    -0.04   0.03  -0.01
     2   6    -0.00  -0.04  -0.08    -0.05   0.02  -0.05     0.02  -0.04   0.02
     3   6     0.04  -0.02   0.04     0.01  -0.03   0.08     0.00  -0.03  -0.00
     4   6     0.03   0.08  -0.03     0.00  -0.00   0.02     0.13   0.05   0.01
     5   6     0.03  -0.05  -0.00    -0.04  -0.01   0.04    -0.03  -0.05  -0.06
     6   6    -0.06   0.03  -0.00     0.01   0.02  -0.07    -0.00   0.08   0.02
     7   6     0.08  -0.01   0.02    -0.04  -0.02   0.07    -0.06  -0.08  -0.03
     8   6    -0.10   0.04   0.00     0.04   0.02  -0.06     0.07   0.03   0.04
     9   6    -0.00  -0.08   0.02    -0.04   0.01  -0.06    -0.03  -0.02   0.03
    10   6    -0.03   0.03  -0.02     0.01   0.02   0.08    -0.01   0.00  -0.02
    11   6     0.00  -0.00   0.00    -0.01   0.00  -0.06    -0.01   0.03   0.02
    12   8     0.01   0.00  -0.00     0.02   0.01   0.01     0.00  -0.01  -0.00
    13   1    -0.02   0.16  -0.10    -0.01  -0.02   0.05     0.08  -0.03  -0.16
    14   1     0.04   0.17  -0.14    -0.02  -0.03   0.04     0.03  -0.08   0.23
    15   1    -0.05  -0.04   0.46    -0.02  -0.00  -0.01     0.10   0.00  -0.13
    16   1    -0.10   0.11   0.04     0.14   0.17   0.11    -0.02   0.02  -0.00
    17   1     0.12  -0.06  -0.07     0.05  -0.08  -0.15    -0.08  -0.03  -0.05
    18   1     0.06   0.22  -0.02     0.35   0.04   0.03     0.16   0.15   0.02
    19   1     0.22  -0.09  -0.12    -0.29  -0.02  -0.09    -0.08  -0.04  -0.04
    20   1     0.07   0.07   0.00     0.30   0.09   0.04    -0.03  -0.05  -0.06
    21   1     0.00   0.17   0.03     0.25  -0.08  -0.08    -0.11   0.01   0.00
    22   1    -0.19   0.23   0.13    -0.08   0.02   0.12    -0.10   0.40  -0.03
    23   1     0.07   0.14   0.05     0.16  -0.18   0.01    -0.30  -0.28  -0.05
    24   1     0.06  -0.09   0.07    -0.17   0.01  -0.18    -0.19  -0.31   0.01
    25   1    -0.28   0.06   0.05     0.02   0.05   0.11     0.36  -0.01   0.02
    26   1    -0.05  -0.04  -0.01     0.27  -0.18  -0.09    -0.11   0.05   0.05
    27   1    -0.08  -0.12  -0.22    -0.18   0.07   0.09    -0.23  -0.02  -0.11
    28   1     0.11   0.17   0.04     0.14  -0.16  -0.06    -0.09   0.14   0.04
    29   1     0.11   0.21   0.03     0.24  -0.01   0.07    -0.01   0.09   0.00
    30   1    -0.00   0.07  -0.01    -0.04   0.12  -0.11     0.06   0.06   0.05
                     34                     35                     36
                      A                      A                      A
 Frequencies --   1081.7591              1098.8418              1142.8561
 Red. masses --      1.7927                 2.1621                 2.0078
 Frc consts  --      1.2360                 1.5381                 1.5451
 IR Inten    --      3.2443                 0.1818                 6.7804
  Atom  AN      X      Y      Z        X      Y      Z        X      Y      Z
     1   6     0.02   0.01   0.00     0.01   0.00   0.01    -0.01   0.03   0.03
     2   6    -0.05  -0.04  -0.01    -0.02   0.02  -0.01    -0.05  -0.07  -0.07
     3   6     0.04  -0.03   0.02    -0.00   0.03   0.01     0.05  -0.02   0.02
     4   6    -0.08   0.12   0.04    -0.13  -0.08  -0.04     0.11  -0.10  -0.07
     5   6    -0.02  -0.03   0.01     0.16  -0.01   0.01     0.03   0.05   0.00
     6   6     0.04   0.01  -0.01    -0.08   0.13   0.02    -0.06  -0.02  -0.02
     7   6    -0.02   0.01   0.01    -0.06  -0.12  -0.00     0.05  -0.03   0.02
     8   6    -0.00  -0.02  -0.01     0.08   0.02   0.01    -0.03   0.08  -0.03
     9   6     0.15  -0.04  -0.01    -0.01   0.02  -0.02    -0.03   0.05   0.09
    10   6    -0.08  -0.06  -0.02     0.04  -0.01   0.02     0.04  -0.04  -0.03
    11   6    -0.02   0.06  -0.00    -0.00  -0.01  -0.02    -0.05   0.10   0.02
    12   8     0.01   0.01  -0.00    -0.00  -0.00   0.01    -0.01  -0.02   0.00
    13   1    -0.02  -0.05   0.09    -0.01  -0.00   0.04     0.03  -0.09   0.04
    14   1    -0.03  -0.03  -0.04    -0.01   0.00  -0.01    -0.03  -0.09   0.11
    15   1    -0.04   0.01  -0.08    -0.02   0.00  -0.00     0.02   0.01  -0.15
    16   1     0.42  -0.01   0.07     0.02   0.00   0.01     0.45  -0.01   0.07
    17   1    -0.20   0.00  -0.09     0.02   0.03   0.03    -0.15  -0.01  -0.08
    18   1    -0.20   0.43   0.06    -0.27  -0.24  -0.06     0.01   0.05  -0.06
    19   1     0.09  -0.05  -0.08     0.39  -0.03  -0.02    -0.12   0.07   0.05
    20   1     0.01   0.09   0.02     0.22   0.01   0.01    -0.12  -0.03   0.00
    21   1    -0.00   0.02  -0.01    -0.17   0.46   0.07     0.02   0.13   0.02
    22   1    -0.01   0.12  -0.01    -0.11   0.17   0.06    -0.02  -0.22   0.06
    23   1     0.04  -0.02   0.00    -0.06  -0.07   0.01     0.12   0.13   0.04
    24   1    -0.12  -0.09  -0.06    -0.16  -0.26  -0.01     0.07  -0.00   0.02
    25   1     0.12  -0.04  -0.03    -0.07   0.05   0.05    -0.22   0.13   0.14
    26   1     0.08  -0.02  -0.01     0.33  -0.05  -0.01     0.12  -0.14  -0.06
    27   1     0.32  -0.07  -0.01     0.13   0.02   0.07    -0.16   0.04  -0.03
    28   1     0.05  -0.03  -0.01    -0.02  -0.09  -0.03    -0.38   0.18   0.08
    29   1    -0.27  -0.39  -0.10     0.00  -0.05   0.01    -0.27  -0.16  -0.06
    30   1     0.02   0.09  -0.00    -0.00  -0.06  -0.01     0.12  -0.05   0.13
                     37                     38                     39
                      A                      A                      A
 Frequencies --   1154.7680              1179.5244              1185.6716
 Red. masses --      1.6251                 1.9122                 1.4131
 Frc consts  --      1.2768                 1.5675                 1.1705
 IR Inten    --      0.2870                 3.1761                 6.8629
  Atom  AN      X      Y      Z        X      Y      Z        X      Y      Z
     1   6     0.03   0.04   0.01     0.03  -0.01  -0.04     0.04   0.04   0.01
     2   6    -0.01  -0.10  -0.02    -0.07   0.06   0.13    -0.08  -0.04   0.00
     3   6     0.05   0.07  -0.03    -0.00  -0.02  -0.07    -0.01   0.03  -0.01
     4   6    -0.09  -0.02  -0.07     0.00   0.05  -0.01     0.06  -0.00   0.05
     5   6     0.01   0.03   0.07    -0.00  -0.03   0.02    -0.03   0.04  -0.02
     6   6    -0.02  -0.01  -0.03     0.01   0.02  -0.04     0.00  -0.06  -0.01
     7   6     0.04   0.01   0.01    -0.03  -0.02   0.04     0.04   0.03   0.02
     8   6    -0.04   0.02   0.01     0.04  -0.02  -0.06    -0.05  -0.00  -0.05
     9   6    -0.01   0.02   0.02     0.03  -0.04   0.05    -0.02  -0.01  -0.01
    10   6     0.04  -0.01  -0.05    -0.03  -0.02  -0.10    -0.00   0.03   0.02
[...]
 2773,-0.00008497,-0.00001402,0.00001541,-0.00001104,0.00001567,-0.0000
 6116,0.00001457,0.00000004,-0.00001008,-0.00002999,0.00000937,-0.00004
 276,0.00002107,-0.00002982,-0.00005174,-0.00001937,-0.00011038,-0.0011
 3515,-0.00161269,0.00005037,0.00008604,0.00025520,0.00013251,-0.000261
 43,0.00113907,-0.00060872,0.00012494,0.00079269,0.00048935,0.00197997,
 0.00304719,0.00014548,0.12618814,0.23075792,-0.00000151,0.00027579,-0.
 00055353,-0.00267280,0.00129116,-0.00303793,-0.00069237,-0.00123064,0.
 00018371,-0.00003467,0.00039508,-0.00000487,0.00009984,-0.00040429,0.0
 0055274,-0.00156348,-0.00363671,-0.00019417,0.03099471,0.04186676,-0.0
 6039609,-0.01419350,-0.01900746,0.00355427,0.00009433,-0.00001533,-0.0
 0001834,0.00001772,-0.00000131,0.00006354,-0.00000357,0.00046914,-0.00
 044236,-0.00027851,-0.00021080,0.00015684,0.00008556,-0.00018649,0.000
 53157,0.00009509,-0.00001299,0.00032137,0.00000946,-0.00002020,0.00005
 525,0.00009492,-0.00001019,0.00003084,-0.00001875,0.00002682,0.0000059
 1,0.00003569,-0.00000823,-0.00003052,0.00000061,-0.00002367,0.00031982
 ,-0.00019082,-0.00040003,0.00020499,-0.00057813,-0.00009532,0.00044304
 ,0.00010010,0.00031622,-0.00011596,0.01810619,0.02565373,-0.00637419,-
 0.03097822,-0.04491818,0.06315155,0.00090545,-0.00059071,-0.00049633,0
 .00970158,-0.01617063,-0.00216261,0.00126787,-0.00020967,0.00038063,-0
 .00233281,-0.00268486,0.00051535,-0.00024767,-0.00047510,0.00005692,-0
 .00335607,-0.00209543,-0.00469835,-0.01458914,0.02187195,0.00444011,-0
 .12586218,0.11594220,0.01824599,0.00081358,-0.00097481,-0.00020748,0.0
 0017794,0.00005750,0.00007805,0.00004654,-0.00004048,0.00018484,0.0001
 0896,0.00007967,-0.00002532,-0.00007965,0.00003142,0.00010838,0.000150
 05,0.00002071,-0.00023414,0.00004906,0.00009695,-0.00002559,-0.0000942
 8,0.00004107,-0.00008236,-0.00002864,0.00023948,0.00010775,-0.00003733
 ,-0.00002783,-0.00013399,0.00013106,0.00010956,0.00002720,0.00009152,0
 .00008249,-0.00002687,0.00030976,-0.00041606,0.00003420,-0.00088510,0.
 00174120,-0.00011368,0.00126634,-0.00028309,-0.00011072,0.00040419,-0.
 00032574,0.00076011,0.13872820,0.00164542,0.00057725,-0.00098363,0.014
 99083,-0.02420523,-0.00373869,0.00138119,0.00061561,0.00034943,-0.0054
 8848,-0.00298190,0.00105613,-0.00047186,0.00032729,-0.00042809,-0.0003
 4555,0.00107221,0.00009528,-0.00108684,0.00165545,0.00044819,0.1153612
 3,-0.22124206,-0.02612556,0.00183704,-0.00086319,-0.00012385,0.0001930
 9,0.00032868,0.00011080,-0.00013547,-0.00017004,0.00008304,-0.00020911
 ,0.00013813,0.00008196,-0.00010692,-0.00000786,0.00006682,-0.00021726,
 0.00054868,-0.00019743,-0.00097098,0.00059416,0.00080464,-0.00008386,-
 0.00005681,0.00002373,-0.00091772,0.00031694,-0.00043112,-0.00014282,0
 .00034035,-0.00010363,0.00013622,-0.00000873,0.00004984,0.00005180,-0.
 00001877,0.00013392,-0.00001036,-0.00003404,-0.00006110,-0.00006973,0.
 00005380,-0.00015256,0.00012731,0.00018428,0.00040782,0.00038756,0.000
 57492,0.00033288,-0.12485958,0.24215490,-0.00064767,0.00098575,0.00026
 759,-0.00173807,0.00436233,-0.00071789,0.00037676,-0.00061092,-0.00005
 608,0.00054336,0.00007363,-0.00024029,-0.00004703,-0.00037168,0.000010
 88,-0.00302027,-0.00125717,-0.00285856,-0.01297971,0.01950148,0.002409
 51,0.01854168,-0.02693552,-0.05400251,-0.00015684,0.00011127,0.0005020
 2,0.00008526,0.00006016,0.00001796,-0.00013665,0.00010182,-0.00007507,
 0.00000755,0.00000082,-0.00003070,0.00000812,0.00009425,-0.00005124,-0
 .00008086,-0.00017976,0.00000213,0.00035408,0.00007865,0.00005862,0.00
 016566,-0.00007135,0.00001393,-0.00027934,-0.00009431,0.00019803,-0.00
 031913,0.00027516,0.00040015,0.00007501,0.00004019,0.00003735,0.000033
 36,0.00003001,-0.00000946,-0.00033176,0.00016551,0.00025783,-0.0008508
 5,0.00104238,0.00026604,0.00088113,0.00033056,0.00080755,0.00072731,-0
 .00033415,0.00064768,-0.01821247,0.02880167,0.05573591,-0.00245533,-0.
 00414454,-0.00036251,-0.00900877,-0.00023550,0.01789161,0.00025536,0.0
 0052226,0.00172719,0.00013158,0.00115090,0.00001646,-0.00010514,-0.000
 03041,0.00001681,0.00157713,-0.00060767,-0.00034013,0.00807519,-0.0000
 1986,-0.02702684,-0.07848350,0.00108337,0.08119257,0.00002963,-0.00002
 703,-0.00019041,0.00001732,0.00008416,0.00012553,-0.00007768,-0.000260
 88,-0.00023616,0.00029958,0.00016465,0.00002953,0.00009983,-0.00005905
 ,0.00012148,-0.00043917,-0.00028592,0.00151727,0.00034704,-0.00014504,
 -0.00047200,-0.00021271,-0.00045324,-0.00095042,-0.00007200,-0.0000021
 9,0.00001014,0.00056823,-0.00013540,-0.00046558,0.00006372,0.00004891,
 0.00001866,-0.00010086,-0.00003832,-0.00000671,-0.00021153,0.00006169,
 0.00051656,0.00010188,-0.00033498,0.00028192,-0.00398692,0.00039183,-0
 .00406518,0.00128693,-0.00001189,0.00070775,-0.00648263,-0.00044185,0.
 01706818,0.08876373,-0.00244385,-0.00441882,-0.00067895,-0.01102848,-0
 .00199089,0.02529973,0.00065598,0.00086848,0.00118643,-0.00071136,0.00
 115108,0.00131084,0.00002913,-0.00020864,-0.00006583,-0.00038855,0.000
 14642,0.00087325,0.00005715,-0.00039255,-0.00119215,0.00164084,-0.0509
 5977,0.00165730,-0.00005721,0.00013664,-0.00025289,0.00000468,0.000008
 64,0.00001481,0.00014542,-0.00016326,0.00011197,0.00026703,0.00012575,
 0.00000825,0.00021291,0.00001435,-0.00004641,-0.00090630,0.00020628,0.
 00149712,-0.00027115,0.00027562,-0.00003006,-0.00008022,0.00013038,-0.
 00065706,0.00000463,0.00000432,-0.00018378,0.00022941,-0.00050373,-0.0
 0055576,0.00006800,-0.00000167,0.00002479,-0.00003133,0.00003503,-0.00
 017119,0.00011667,0.00017090,0.00004049,-0.00002232,-0.00001025,-0.000
 10536,-0.00052735,0.00099209,-0.00005769,0.00023031,0.00012474,-0.0003
 6941,0.00915646,0.00077778,-0.02620194,0.00358013,0.05334366,0.0003730
 5,0.00158976,0.00122182,0.00227748,-0.00033227,-0.00595682,-0.00108228
 ,-0.00097031,0.00086229,0.00016624,-0.00070608,-0.00045320,-0.00026620
 ,0.00018862,0.00004438,0.00134963,-0.00050809,0.00043884,0.00627135,-0
 .00057139,-0.02236435,0.08213257,0.00242129,-0.26562566,-0.00014572,0.
 00023364,0.00035279,-0.00000759,-0.00002092,-0.00012821,0.00006869,0.0
 0018641,0.00048933,-0.00019467,-0.00007065,-0.00008508,-0.00008615,-0.
 00014387,0.00007677,0.00020098,-0.00001081,-0.00038311,-0.00019665,-0.
 00006691,0.00014933,0.00017901,0.00000284,0.00079747,-0.00002030,0.000
 06833,-0.00000839,-0.00047162,0.00050702,0.00061866,0.00000683,0.00011
 062,-0.00000942,0.00001778,-0.00020416,0.00014207,-0.00080876,0.000797
 53,0.00056689,-0.00016865,-0.00012041,0.00047104,-0.00412898,0.0000362
 2,-0.00155037,-0.00006175,-0.00039995,0.00088750,0.00162575,-0.0005502
 4,-0.00360611,-0.08695156,-0.00135595,0.29291658,-0.00028770,-0.000070
 06,0.00019323,-0.00236528,-0.00237964,-0.00000428,-0.00005897,0.000099
 40,0.00051066,0.01106864,-0.01532565,-0.00358964,0.00114443,-0.0007004
 2,0.00008589,0.00021546,0.00006933,0.00016777,0.00019195,0.00002182,0.
 00005884,0.00070739,-0.00082699,-0.00004721,-0.14088721,0.12212874,0.0
 2622113,-0.01559526,0.02031555,0.00068929,-0.00088230,-0.00503626,-0.0
 0381409,-0.00197726,0.00193888,0.00079441,0.00004205,0.00001966,0.0000
 2311,0.00024145,0.00011710,-0.00015896,0.00014534,0.00006142,-0.000074
 98,-0.00000729,-0.00004657,-0.00000470,0.00006670,0.00009732,0.0000785
 2,0.00073362,0.00075653,-0.00017496,-0.00002179,0.00014823,0.00012416,
 -0.00007037,0.00005703,-0.00006585,-0.00000503,-0.00000501,-0.00000164
 ,0.00003534,0.00006346,0.00001034,-0.00000483,-0.00001585,-0.00002178,
 0.00000938,0.00002278,0.00000565,-0.00017390,-0.00036788,0.00002195,-0
 .00000244,0.00001991,0.00001449,0.15409148,-0.00039963,0.00020700,0.00
 054439,-0.00561420,-0.00282493,0.00067411,-0.00036238,0.00061242,-0.00
 023874,0.01720846,-0.02405285,-0.00530909,0.00179064,0.00055550,0.0002
 6720,-0.00032865,0.00021424,0.00025264,0.00037383,0.00011690,0.0001399
 8,0.00169977,-0.00112482,-0.00032754,0.12113718,-0.20641710,-0.0310690
 7,-0.00079394,0.00194920,0.00023105,-0.00051790,0.00058421,-0.00027839
 ,0.00000171,0.00008770,0.00011896,-0.00000566,-0.00002068,-0.00010790,
 0.00007473,0.00013901,-0.00001824,0.00010735,-0.00000655,-0.00007723,0
 .00000447,-0.00002673,0.00003529,0.00013270,0.00000106,0.00006486,0.00
 014309,0.00110465,0.00047805,-0.00118336,0.00057778,-0.00036950,-0.000
 09321,0.00002697,-0.00000671,0.00000796,-0.00002896,0.00001538,-0.0000
 3083,0.00006632,-0.00000689,-0.00003082,0.00002381,-0.00002906,-0.0001
 4511,0.00008528,-0.00004634,-0.00041614,-0.00066744,0.00007376,-0.0000
 3715,0.00000766,0.00006590,-0.13081350,0.22521306,0.00054123,-0.000041
 31,0.00006809,0.00043693,0.00054182,0.00003174,0.00025519,-0.00015346,
 0.00042760,-0.00114262,0.00303114,-0.00042395,0.00040352,-0.00065855,-
 0.00000523,-0.00020128,0.00011548,-0.00006405,0.00011616,0.00006983,-0
 .00005514,0.00003409,0.00003932,0.00033003,0.02624247,-0.03192627,-0.0
 5574451,-0.01619396,0.02101601,0.00030837,-0.00199320,-0.00354313,-0.0
 0352015,-0.00228119,0.00183527,0.00088086,-0.00002605,0.00004717,0.000
 03038,-0.00052694,-0.00014225,0.00008864,-0.00021112,-0.00020114,0.000
 05154,-0.00001158,0.00000135,0.00001483,0.00002170,0.00009316,0.000059
 16,-0.00058946,0.00008531,0.00031327,-0.00032868,-0.00006677,0.0001601
 4,0.00005203,-0.00011393,-0.00002870,0.00003118,0.00002679,-0.00003209
 ,-0.00001622,-0.00004116,-0.00001340,0.00000955,0.00000394,0.00002538,
 -0.00000797,0.00002415,0.00002610,-0.00004378,0.00004852,-0.00000386,-
 0.00005348,-0.00004500,0.00000802,-0.02439483,0.03437262,0.05959468,0.
 00009394,0.00048556,0.00018980,-0.00021323,0.00084670,-0.00029745,0.00
 005008,0.00018182,-0.00023097,-0.00851222,-0.00207527,0.01711459,0.000
 83527,0.00060822,0.00139714,-0.00002046,-0.00012145,-0.00025434,0.0000
 6217,0.00006217,0.00006028,0.00006627,0.00000467,0.00012063,-0.0901131
 8,-0.00861684,0.09339256,0.00902917,0.00256287,-0.02448968,0.00170913,
 -0.00108158,-0.00058590,-0.00031605,-0.00012877,0.00033878,-0.00006132
 ,-0.00016997,-0.00009836,0.00012703,0.00101795,0.00020035,0.00005619,0
 .00008599,-0.00020289,-0.00010654,0.00002185,-0.00001473,0.00008090,0.
 00003353,0.00002746,-0.00142035,-0.00363065,-0.00027948,-0.00006508,-0
 .00004055,0.00005738,-0.00015485,-0.00022128,-0.00083929,0.00014598,0.
 00014946,-0.00015162,-0.00003726,-0.00005232,-0.00006970,0.00000618,-0
 .00002439,-0.00004122,-0.00002236,-0.00000007,-0.00001039,0.00001626,-
 0.00009077,-0.00008217,0.00003012,0.00004259,-0.00010194,-0.00819414,-
 0.00219555,0.01860632,0.09899767,-0.00004375,-0.00089881,-0.00019428,-
 0.00014489,0.00143490,0.00090979,0.00015372,-0.00022461,-0.00006395,-0
 .01255679,-0.00300088,0.02719838,0.00116529,0.00089176,0.00084277,0.00
 004174,-0.00011744,-0.00003171,0.00001020,0.00009452,0.00005048,-0.000
 12079,-0.00001200,-0.00010934,-0.00800219,-0.05354432,0.02267607,-0.00
 013698,-0.00025992,-0.00087247,-0.00035164,-0.00021311,0.00073816,-0.0
 0001691,0.00007756,-0.00017828,-0.00000474,-0.00009259,-0.00014163,0.0
 0112582,-0.00124500,-0.00065155,0.00014899,0.00027338,-0.00007905,-0.0
 0003730,0.00008860,-0.00017146,0.00006365,-0.00003015,0.00004785,-0.00
 336844,-0.00468092,0.00054824,-0.00004958,-0.00000921,-0.00016026,-0.0
 0020120,0.00019107,-0.00071255,0.00014689,0.00009186,-0.00013820,0.000
 01481,-0.00003581,-0.00009792,-0.00002105,-0.00004060,-0.00005921,0.00
 002223,-0.00000958,-0.00001124,0.00008585,-0.00007749,-0.00011744,0.00
 016420,0.00015107,-0.00018401,0.01037377,0.00308253,-0.02447340,0.0118
 3498,0.05690220,0.00127015,-0.00038266,-0.00009929,0.00063914,-0.00026
 392,-0.00051790,-0.00001683,0.00027573,-0.00017434,0.00101726,0.001423
 62,-0.00161296,-0.00028621,-0.00004565,0.00050979,-0.00005843,0.000014
 52,0.00040143,0.00001991,-0.00000370,-0.00007150,-0.00010712,0.0001262
 2,0.00008454,0.09242313,0.02296485,-0.26104573,0.00676921,0.00224744,-
 0.02044281,0.00178927,-0.00167049,-0.00042052,-0.00114542,0.00039943,0
 .00030566,-0.00001124,0.00005360,-0.00000472,-0.00062805,-0.00108631,0
 .00011691,-0.00037878,-0.00041345,0.00017474,-0.00003202,-0.00002191,0
 .00015792,-0.00001411,0.00011417,-0.00001016,-0.00006657,0.00027229,0.
 00116311,-0.00001147,0.00004653,0.00000275,0.00039717,0.00006349,0.000
 51004,-0.00013075,-0.00013369,-0.00005810,0.00006132,0.00007367,-0.000
 00469,0.00001607,0.00002144,0.00005498,-0.00000078,0.00001169,0.000021
 96,0.00002056,0.00008964,-0.00000342,-0.00008163,-0.00003319,0.0000825
 9,0.00245563,-0.00025304,-0.00452480,-0.10016765,-0.02391684,0.2865946
 2,-0.00007666,0.00003210,-0.00001218,-0.00008523,-0.00029402,-0.000045
 10,0.00023783,-0.00018290,-0.00119212,0.00151611,0.00062923,-0.0003412
 1,-0.00002426,0.00030126,-0.00018232,0.00001398,-0.00002417,0.00015405
 ,-0.00000045,-0.00000348,-0.00000172,-0.00002597,-0.00000242,-0.000033
 12,0.00871968,-0.00266555,-0.02586556,-0.08746992,0.00730907,0.1013511
 6,-0.01112216,0.00014075,0.01803336,-0.00109937,0.00367344,-0.00336513
 ,0.00003606,0.00004617,0.00001285,-0.00006982,0.00004497,-0.00001502,-
 0.00000371,-0.00003083,0.00004739,0.00057302,0.00033468,-0.00024644,-0
 .00007231,-0.00008238,-0.00031952,-0.00017384,-0.00009249,0.00048192,-
 0.00004221,0.00001172,-0.00003104,-0.00003881,-0.00003019,0.00018809,-
 0.00002466,-0.00003037,0.00000812,0.00002926,0.00003929,0.00000004,-0.
 00000190,0.00000350,0.00000471,-0.00000170,0.00001097,0.00000101,0.000
 00263,0.00001478,0.00000350,0.00000489,-0.00000859,0.00001154,0.001743
 93,-0.00004268,0.00074221,-0.00336299,-0.00056138,-0.00378886,0.098758
 86,0.00003540,0.00019570,0.00000670,0.00040567,0.00025276,0.00016949,-
 0.00132812,-0.00041050,0.00331147,0.00044875,0.00006041,-0.00097391,-0
 .00009753,0.00006323,0.00003109,0.00001515,-0.00003147,-0.00000424,-0.
 00000260,-0.00000574,-0.00002689,0.00004759,-0.00000363,0.00001498,-0.
 00053161,0.00026505,0.00169512,0.00856969,-0.05339452,-0.02593366,0.01
 219449,0.00091968,-0.02921498,0.00247637,-0.00260917,0.00361441,-0.000
 03643,-0.00001749,0.00000312,0.00000800,-0.00002002,0.00008401,-0.0000
 1205,0.00001656,0.00002109,-0.00042405,-0.00157499,-0.00001763,0.00005
 117,0.00037674,0.00044728,-0.00024516,0.00001101,0.00008526,0.00002414
 ,-0.00001493,0.00000155,-0.00000093,-0.00004040,0.00004425,-0.00001354
 ,0.00000186,0.00000601,0.00001542,0.00001628,0.00001415,-0.00000476,0.
 00000181,0.00000887,0.00000761,0.00000998,0.00000420,-0.00001317,0.000
 01538,0.00001999,-0.00000685,-0.00002694,0.00001075,-0.00044375,0.0002
 8909,0.00046118,0.00059202,0.00094657,0.00041919,-0.01163250,0.0510002
 9,0.00017059,0.00012395,0.00005233,-0.00038665,0.00004435,-0.00009665,
 0.00069392,0.00015185,-0.00053628,0.00141028,0.00074116,0.00021806,-0.
 00029072,-0.00000570,0.00027886,-0.00002522,0.00000033,0.00004098,-0.0
 0001730,0.00001517,-0.00000127,0.00005650,-0.00002477,-0.00002064,0.00
 785213,-0.00152510,-0.02449152,0.09684836,-0.01992599,-0.24781866,0.00
 118715,-0.00003875,0.00024540,-0.00065548,-0.00071969,-0.00065924,0.00
 000121,0.00001956,0.00006075,-0.00013867,0.00004230,0.00005188,-0.0000
 3323,-0.00006921,0.00003417,-0.00030852,0.00001109,0.00052094,-0.00004
 454,-0.00016601,0.00022503,-0.00069387,-0.00071619,0.00062820,0.000004
 54,0.00001629,-0.00004189,0.00016621,0.00005931,0.00025341,-0.00004272
 ,-0.00003465,0.00001490,-0.00000672,-0.00000544,-0.00000728,0.00000634
 ,0.00000734,0.00001562,0.00000135,-0.00000790,0.00000264,-0.00001245,-
 0.00001634,0.00000740,-0.00003312,-0.00002587,0.00003782,0.00038893,0.
 00040213,0.00146659,-0.00442842,-0.00029753,-0.00208955,-0.10323412,0.
 02191570,0.27506274,0.00005874,-0.00011016,0.00007460,-0.00041201,0.00
 020680,-0.00012231,-0.00205490,0.00275334,0.00044406,-0.00251939,0.002
 14708,-0.00405077,-0.00015763,-0.00160359,0.00039495,-0.00030499,0.000
 22650,-0.00045208,-0.00002200,0.00009019,0.00003171,0.00015712,-0.0000
 4667,0.00002690,-0.01275163,-0.01768077,0.00446048,-0.15302349,-0.1310
 2823,0.02336156,0.01154071,0.01560035,-0.00313026,0.00182662,-0.001282
 45,0.00016184,-0.00001159,0.00002314,0.00005722,-0.00000825,0.00000522
 ,-0.00001875,0.00004867,-0.00004403,-0.00006456,-0.00009588,-0.0000970
 3,-0.00004080,0.00057505,0.00090840,0.00009038,0.00031333,0.00044074,-
 0.00001646,0.00002936,0.00002811,0.00007179,-0.00003927,-0.00000581,-0
 .00013172,0.00000735,-0.00000752,0.00003090,-0.00013823,-0.00020212,0.
 00001011,0.00001575,-0.00000614,-0.00001166,0.00001885,-0.00004587,0.0
 0000798,-0.00000160,-0.00010945,-0.00001005,-0.00001346,0.00001548,-0.
 00000256,0.00009660,0.00032883,0.00052978,0.00129367,0.00026549,0.0000
 4708,-0.00794026,-0.01009841,0.00156423,0.16351275,-0.00018277,-0.0000
 8056,0.00000890,0.00048503,0.00020574,0.00047630,0.00500222,-0.0032308
 3,-0.00071384,0.00051876,0.00083296,0.00017198,0.00014613,0.00013199,0
 .00017970,0.00001325,0.00000516,-0.00002744,0.00001442,-0.00004392,0.0
 0006763,-0.00013230,0.00009053,-0.00018925,0.00155217,0.00232676,-0.00
 115280,-0.12655391,-0.20827771,0.02944594,-0.02215356,-0.02641757,0.00
 492755,0.00001857,0.00600758,-0.00087779,0.00001348,0.00001726,-0.0000
 8944,0.00003826,0.00000573,-0.00001274,0.00001348,0.00004226,0.0000357
 4,0.00009978,0.00046171,0.00016150,-0.00090333,-0.00151960,-0.00010812
 ,0.00000802,-0.00005994,0.00006005,-0.00003916,0.00002614,-0.00002953,
 -0.00000744,-0.00001229,-0.00001711,0.00000087,0.00000045,0.00000983,-
 0.00001736,0.00002082,0.00000311,-0.00000456,0.00000733,-0.00001917,-0
 .00004288,-0.00000911,-0.00002295,0.00002678,0.00005777,0.00002486,0.0
 0002567,0.00000561,-0.00000291,-0.00027932,0.00022566,-0.00040670,-0.0
 0008092,0.00026644,-0.00039265,0.00309204,0.00370739,0.00002861,0.1393
 2857,0.22520625,0.00000588,-0.00009572,0.00006690,-0.00020443,0.000588
 06,-0.00005401,0.00011755,0.00023222,0.00120352,-0.00294047,0.00169735
 ,-0.00354479,-0.00057303,-0.00139941,0.00065594,-0.00031825,0.00016341
 ,-0.00043760,-0.00002594,0.00010261,0.00002171,0.00013999,-0.00003498,
 0.00001720,-0.01407736,-0.01995579,0.00335745,0.02288783,0.02963650,-0
 .05535143,0.00061912,-0.00285052,-0.00058428,-0.00082029,0.00028591,-0
 .00116377,0.00000390,0.00001885,0.00004050,0.00000661,0.00001044,-0.00
 001995,0.00003650,-0.00001363,-0.00004409,-0.00034966,-0.00038236,0.00
 022298,0.00004514,0.00004882,0.00037583,-0.00023240,-0.00008655,0.0003
 3038,0.00002546,0.00002380,0.00003603,0.00008432,0.00000694,-0.0000356
 6,0.00000127,0.00000343,0.00002086,-0.00013252,-0.00018513,0.00000051,
 0.00001093,-0.00000848,-0.00000842,0.00002570,-0.00003139,0.00000663,0
 .00000032,-0.00007207,0.00001459,-0.00000593,0.00000351,0.00000655,0.0
 0050890,0.00040142,0.00053047,0.00084093,-0.00034944,0.00089946,0.0176
 3350,0.02378146,-0.00345477,-0.02331358,-0.03153927,0.05689128\\0.0000
 3963,-0.00000526,-0.00002032,0.00003350,-0.00001440,0.00006241,-0.0000
 7396,-0.00001568,-0.00006927,-0.00000137,-0.00000646,-0.00004199,-0.00
 002358,0.00002056,0.00001870,-0.00004230,0.00001947,-0.00001519,0.0000
 1797,0.00001411,0.00000749,-0.00001490,0.00001479,0.00001177,0.0000768
 5,0.00002177,0.00003982,-0.00005995,-0.00001144,-0.00009521,0.00000825
 ,-0.00003505,-0.00000051,0.00003290,0.00004256,0.00001880,0.00000610,-
 0.00002500,-0.00002092,0.00000145,-0.00001040,-0.00000246,-0.00000825,
 0.00000628,0.00000874,0.00000164,0.00000632,0.00002978,0.00000113,0.00
 000224,0.00001636,0.00000923,0.00000536,-0.00001980,0.00000917,-0.0000
 1000,-0.00000039,-0.00002638,0.00001838,0.00002365,-0.00000744,-0.0000
 0248,-0.00000297,0.00001207,-0.00000907,0.00000503,-0.00000296,0.00000
 733,-0.00001183,0.00001714,0.00000411,0.00000243,0.00000526,0.00001591
 ,-0.00000099,-0.00001345,-0.00000483,0.00000900,0.00000549,-0.00001557
 ,0.00000289,-0.00001681,-0.00001282,0.00000847,0.00001895,-0.00001994,
 0.00002467,-0.00000538,-0.00000081,0.00001184\\\@


 SUPPORT THE RIGHT TO ARM BEARS!
 (ADD A CLAWS TO THE BILL OF RIGHTS)
 Job cpu time:       0 days  0 hours  3 minutes 10.5 seconds.
 Elapsed time:       0 days  0 hours  3 minutes 17.6 seconds.
 File lengths (MBytes):  RWF=    166 Int=      0 D2E=      0 Chk=     16 Scr=      1
 Normal termination of Gaussian 16 at Sat Feb 24 05:07:23 2024.
