 Entering Gaussian System, Link 0=g16
 Input=/Volumes/SSD-PMU3/b3lyp_6-31gd_freq/YKAYMASDSHFOGI-GYJMPZMESA-N_calculating/gaussianinput0.gjf
 Output=/Volumes/SSD-PMU3/b3lyp_6-31gd_freq/YKAYMASDSHFOGI-GYJMPZMESA-N_calculating/gaussianinput0.log
 Initial command:
 /Applications/g16/l1.exe "/Users/macmini_m1_2022/PycharmProjects/sphere_model/sphere_model_lib/Gau-90704.inp" -scrdir="/Users/macmini_m1_2022/PycharmProjects/sphere_model/sphere_model_lib/"
 Entering Link 1 = /Applications/g16/l1.exe PID=     90705.
  
 Copyright (c) 1988,1990,1992,1993,1995,1998,2003,2009,2016,
            Gaussian, Inc.  All Rights Reserved.
  
 This is part of the Gaussian(R) 16 program.  It is based on
 the Gaussian(R) 09 system (copyright 2009, Gaussian, Inc.),
 the Gaussian(R) 03 system (copyright 2003, Gaussian, Inc.),
 the Gaussian(R) 98 system (copyright 1998, Gaussian, Inc.),
 the Gaussian(R) 94 system (copyright 1995, Gaussian, Inc.),
 the Gaussian 92(TM) system (copyright 1992, Gaussian, Inc.),
 the Gaussian 90(TM) system (copyright 1990, Gaussian, Inc.),
 the Gaussian 88(TM) system (copyright 1988, Gaussian, Inc.),
 the Gaussian 86(TM) system (copyright 1986, Carnegie Mellon
 University), and the Gaussian 82(TM) system (copyright 1983,
 Carnegie Mellon University). Gaussian is a federally registered
 trademark of Gaussian, Inc.
  
 This software contains proprietary and confidential information,
 including trade secrets, belonging to Gaussian, Inc.
  
 This software is provided under written license and may be
 used, copied, transmitted, or stored only in accord with that
 written license.
  
 The following legend is applicable only to US Government
 contracts under FAR:
  
                    RESTRICTED RIGHTS LEGEND
  
 Use, reproduction and disclosure by the US Government is
 subject to restrictions as set forth in subparagraphs (a)
 and (c) of the Commercial Computer Software - Restricted
 Rights clause in FAR 52.227-19.
  
 Gaussian, Inc.
 340 Quinnipiac St., Bldg. 40, Wallingford CT 06492
  
  
 ---------------------------------------------------------------
 Warning -- This program may not be used in any manner that
 competes with the business of Gaussian, Inc. or will provide
 assistance to any competitor of Gaussian, Inc.  The licensee
 of this program is prohibited from giving any competitor of
 Gaussian, Inc. access to this program.  By using this program,
 the user acknowledges that Gaussian, Inc. is engaged in the
 business of creating and licensing software in the field of
 computational chemistry and represents and warrants to the
 licensee that it is not a competitor of Gaussian, Inc. and that
 it will not use this program in any manner prohibited above.
 ---------------------------------------------------------------
  

 Cite this work as:
 Gaussian 16, Revision A.03,
 M. J. Frisch, G. W. Trucks, H. B. Schlegel, G. E. Scuseria, 
 M. A. Robb, J. R. Cheeseman, G. Scalmani, V. Barone, 
 G. A. Petersson, H. Nakatsuji, X. Li, M. Caricato, A. V. Marenich, 
 J. Bloino, B. G. Janesko, R. Gomperts, B. Mennucci, H. P. Hratchian, 
 J. V. Ortiz, A. F. Izmaylov, J. L. Sonnenberg, D. Williams-Young, 
 F. Ding, F. Lipparini, F. Egidi, J. Goings, B. Peng, A. Petrone, 
 T. Henderson, D. Ranasinghe, V. G. Zakrzewski, J. Gao, N. Rega, 
 G. Zheng, W. Liang, M. Hada, M. Ehara, K. Toyota, R. Fukuda, 
 J. Hasegawa, M. Ishida, T. Nakajima, Y. Honda, O. Kitao, H. Nakai, 
 T. Vreven, K. Throssell, J. A. Montgomery, Jr., J. E. Peralta, 
 F. Ogliaro, M. J. Bearpark, J. J. Heyd, E. N. Brothers, K. N. Kudin, 
 V. N. Staroverov, T. A. Keith, R. Kobayashi, J. Normand, 
 K. Raghavachari, A. P. Rendell, J. C. Burant, S. S. Iyengar, 
 J. Tomasi, M. Cossi, J. M. Millam, M. Klene, C. Adamo, R. Cammi, 
 J. W. Ochterski, R. L. Martin, K. Morokuma, O. Farkas, 
 J. B. Foresman, and D. J. Fox, Gaussian, Inc., Wallingford CT, 2016.
 
 ******************************************
 Gaussian 16:  EM64M-G16RevA.03 25-Dec-2016
                24-Feb-2024 
 ******************************************
 %nprocshared=10
 Will use up to   10 processors via shared memory.
 %mem=12GB
 %chk= 0.chk
 ---------------------
 # freq b3lyp/6-31g(d)
 ---------------------
 1/10=4,30=1,38=1/1,3;
 2/12=2,17=6,18=5,40=1/2;
 3/5=1,6=6,7=1,11=2,25=1,30=1,71=2,74=-5,140=1/1,2,3;
 4//1;
 5/5=2,38=5,98=1/2;
 8/6=4,10=90,11=11/1;
 11/6=1,8=1,9=11,15=111,16=1/1,2,10;
 10/6=1/2;
 6/7=2,8=2,9=2,10=2,28=1/1;
 7/8=1,10=1,25=1/1,2,3,16;
 1/10=4,30=1/3;
 99//99;
 ---------
 good luck
 ---------
 Symbolic Z-matrix:
 Charge =  0 Multiplicity = 1
 O                     1.21625   0.        0. 
 C                     0.        0.        0. 
 C                    -0.81997  -1.28412   0.00061 
 C                    -1.92289  -1.26553  -1.07718 
 C                    -2.80432   0.       -0.98294 
 C                    -3.92668   0.       -2.00891 
 C                    -5.26546   0.       -1.59661 
 C                    -6.3078    0.00001  -2.52548 
 C                    -6.02682   0.00001  -3.89174 
 C                    -4.69728   0.00002  -4.31892 
 C                    -3.65986   0.00001  -3.38671 
 C                    -1.92289   1.26553  -1.07718 
 C                    -0.81997   1.28412   0.00061 
 H                    -0.14094  -2.13257  -0.12544 
 H                    -1.28933  -1.37862   0.99225 
 H                    -2.5459   -2.16286  -0.98607 
 H                    -1.4573   -1.31054  -2.07079 
 H                    -3.27133   0.        0.01375 
 H                    -5.49449  -0.00001  -0.53291 
 H                    -7.33832  0.        -2.17974 
 H                    -6.83518   0.00002  -4.61797 
 H                    -4.46653   0.00003  -5.38113 
 H                    -2.63122   0.00002  -3.73921 
 H                    -2.5459    2.16286  -0.98607 
 H                    -1.4573    1.31053  -2.07079 
 H                    -1.28933   1.37862   0.99225 
 H                    -0.14094   2.13257  -0.12544 
 

 GradGradGradGradGradGradGradGradGradGradGradGradGradGradGradGradGradGrad
 Berny optimization.
 Initialization pass.
 Trust Radius=3.00D-01 FncErr=1.00D-07 GrdErr=1.00D-07 EigMax=2.50D+02 EigMin=1.00D-04
 Number of steps in this run=      2 maximum allowed number of steps=      2.
 GradGradGradGradGradGradGradGradGradGradGradGradGradGradGradGradGradGrad

                          Input orientation:                          
 ---------------------------------------------------------------------
 Center     Atomic      Atomic             Coordinates (Angstroms)
 Number     Number       Type             X           Y           Z
 ---------------------------------------------------------------------
      1          8           0        1.216254    0.000000    0.000000
      2          6           0        0.000000    0.000000    0.000000
      3          6           0       -0.819969   -1.284115    0.000610
      4          6           0       -1.922888   -1.265526   -1.077181
      5          6           0       -2.804321    0.000000   -0.982935
      6          6           0       -3.926682    0.000002   -2.008914
      7          6           0       -5.265462    0.000001   -1.596607
      8          6           0       -6.307802    0.000007   -2.525475
      9          6           0       -6.026821    0.000012   -3.891741
     10          6           0       -4.697280    0.000015   -4.318915
     11          6           0       -3.659855    0.000009   -3.386710
     12          6           0       -1.922888    1.265526   -1.077181
     13          6           0       -0.819968    1.284115    0.000610
     14          1           0       -0.140943   -2.132568   -0.125438
     15          1           0       -1.289331   -1.378619    0.992253
     16          1           0       -2.545898   -2.162860   -0.986067
     17          1           0       -1.457299   -1.310535   -2.070791
     18          1           0       -3.271334    0.000001    0.013749
     19          1           0       -5.494486   -0.000012   -0.532906
     20          1           0       -7.338324   -0.000001   -2.179737
     21          1           0       -6.835180    0.000016   -4.617971
     22          1           0       -4.466531    0.000029   -5.381131
     23          1           0       -2.631219    0.000021   -3.739210
     24          1           0       -2.545898    2.162860   -0.986068
     25          1           0       -1.457299    1.310534   -2.070792
     26          1           0       -1.289331    1.378619    0.992253
     27          1           0       -0.140943    2.132569   -0.125438
 ---------------------------------------------------------------------
                    Distance matrix (angstroms):
                    1          2          3          4          5
     1  O    0.000000
     2  C    1.216254   0.000000
     3  C    2.407313   1.523582   0.000000
     4  C    3.551913   2.541530   1.542209   0.000000
     5  C    4.138984   2.971595   2.560071   1.545109   0.000000
     6  C    5.521370   4.410733   3.916479   2.546542   1.520634
     7  C    6.675462   5.502204   4.895147   3.611670   2.536495
     8  C    7.936589   6.794585   6.176276   4.788173   3.828029
     9  C    8.222395   7.174135   6.626514   5.134744   4.341159
    10  C    7.322767   6.381024   5.944815   4.450582   3.835630
    11  C    5.936855   4.986416   4.603028   3.154767   2.551484
    12  C    3.551913   2.541530   2.979720   2.531052   1.545109
    13  C    2.407312   1.523581   2.568230   2.979721   2.560072
    14  H    2.530922   2.140898   1.094000   2.198387   3.518058
    15  H    3.027063   2.132494   1.101176   2.167197   2.845550
    16  H    4.450177   3.483086   2.173604   1.096199   2.178246
    17  H    3.626784   2.851210   2.167392   1.098208   2.171497
    18  H    4.487609   3.271363   2.767366   2.147090   1.100673
    19  H    6.731866   5.520269   4.876953   3.828064   2.727547
    20  H    8.827914   7.655211   6.992268   5.669579   4.689298
    21  H    9.281770   8.248960   7.691752   6.186227   5.427827
    22  H    7.826277   6.993316   6.626430   5.157105   4.701816
    23  H    5.365141   4.572199   4.349240   3.031458   2.761705
    24  H    4.450178   3.483086   3.979196   3.485724   2.178246
    25  H    3.626784   2.851210   3.380695   2.800022   2.171497
    26  H    3.027063   2.132494   2.879897   3.416936   2.845550
    27  H    2.530923   2.140899   3.485785   3.953251   3.518058
                    6          7          8          9         10
     6  C    0.000000
     7  C    1.400832   0.000000
     8  C    2.436507   1.396162   0.000000
     9  C    2.820571   2.418121   1.394860   0.000000
    10  C    2.435144   2.780970   2.410437   1.396480   0.000000
    11  C    1.403395   2.404671   2.784484   2.420245   1.394725
    12  C    2.546540   3.611670   4.788169   5.134739   4.450574
    13  C    3.916479   4.895147   6.176274   6.626510   5.944809
    14  H    4.735732   5.742202   6.952568   7.305922   6.549303
    15  H    4.226490   4.940891   6.281725   6.942466   6.459354
    16  H    2.762382   3.527996   4.604312   5.023722   4.518224
    17  H    2.796281   4.055177   5.044962   5.090572   4.155608
    18  H    2.126181   2.563161   3.958257   4.779703   4.561283
    19  H    2.153279   1.088077   2.152165   3.400758   3.869031
    20  H    3.415916   2.153322   1.086973   2.156617   3.398705
    21  H    3.907242   3.404799   2.157931   1.086671   2.158715
    22  H    3.415155   3.867934   3.397801   2.157032   1.086990
    23  H    2.161515   3.395583   3.871746   3.399026   2.145849
    24  H    2.762378   3.527995   4.604305   5.023711   4.518209
    25  H    2.796279   4.055176   5.044958   5.090565   4.155598
    26  H    4.226489   4.940891   6.281722   6.942461   6.459348
    27  H    4.735731   5.742202   6.952564   7.305915   6.549293
                   11         12         13         14         15
    11  C    0.000000
    12  C    3.154760   0.000000
    13  C    4.603023   1.542210   0.000000
    14  H    5.250383   3.953250   3.485783   0.000000
    15  H    5.166751   3.416936   2.879898   1.771007   0.000000
    16  H    3.417893   3.485724   3.979196   2.554488   2.471385
    17  H    2.881045   2.800022   3.380695   2.488560   3.068401
    18  H    3.422582   2.147088   2.767366   3.790326   2.605072
    19  H    3.392649   3.828072   4.876960   5.777045   4.680811
    20  H    3.871423   5.669580   6.992269   7.782691   6.967957
    21  H    3.405685   6.186220   7.691747   8.339279   8.008226
    22  H    2.151381   5.157091   6.626419   7.133091   7.253640
    23  H    1.087358   3.031441   4.349228   4.879422   5.107647
    24  H    3.417880   1.096199   2.173605   4.997519   4.246739
    25  H    2.881036   1.098208   2.167394   4.167991   4.079461
    26  H    5.166746   2.167197   1.101176   3.859594   2.757238
    27  H    5.250376   2.198387   1.094001   4.265137   3.859594
                   16         17         18         19         20
    16  H    0.000000
    17  H    1.757308   0.000000
    18  H    2.490754   3.058355   0.000000
    19  H    3.684757   4.514581   2.289375   0.000000
    20  H    5.391675   6.026261   4.620800   2.472204   0.000000
    21  H    6.022184   6.093215   5.844128   4.299444   2.489606
    22  H    5.261512   4.661696   5.525688   4.956004   4.300711
    23  H    3.502161   2.424720   3.807158   4.298684   4.958709
    24  H    4.325720   3.798176   2.490753   3.684772   5.391675
    25  H    3.798176   2.621069   3.058354   4.514588   6.026261
    26  H    4.246738   4.079461   2.605071   4.680819   6.967957
    27  H    4.997519   4.167992   3.790325   5.777054   7.782692
                   21         22         23         24         25
    21  H    0.000000
    22  H    2.488556   0.000000
    23  H    4.294824   2.462575   0.000000
    24  H    6.022172   5.261487   3.502134   0.000000
    25  H    6.093208   4.661678   2.424696   1.757309   0.000000
    26  H    8.008221   7.253629   5.107635   2.471386   3.068402
    27  H    8.339271   7.133074   4.879404   2.554488   2.488561
                   26         27
    26  H    0.000000
    27  H    1.771008   0.000000
 Stoichiometry    C12H14O
 Framework group  C1[X(C12H14O)]
 Deg. of freedom    75
 Full point group                 C1      NOp   1
 Largest Abelian subgroup         C1      NOp   1
 Largest concise Abelian subgroup C1      NOp   1
                         Standard orientation:                         
 ---------------------------------------------------------------------
 Center     Atomic      Atomic             Coordinates (Angstroms)
 Number     Number       Type             X           Y           Z
 ---------------------------------------------------------------------
      1          8           0        4.219291    0.697541   -0.000040
      2          6           0        3.173319    0.076883   -0.000003
      3          6           0        2.468463   -0.342153   -1.284093
      4          6           0        0.969959    0.021920   -1.265529
      5          6           0        0.260023   -0.508849    0.000029
      6          6           0       -1.228762   -0.199256    0.000009
      7          6           0       -2.169704   -1.237021    0.000071
      8          6           0       -3.540115   -0.970108    0.000058
      9          6           0       -3.995682    0.348260   -0.000020
     10          6           0       -3.070271    1.394095   -0.000081
     11          6           0       -1.702384    1.121804   -0.000067
     12          6           0        0.969955    0.022078    1.265523
     13          6           0        2.468460   -0.341993    1.284137
     14          1           0        2.988101    0.112703   -2.132574
     15          1           0        2.570852   -1.434484   -1.378529
     16          1           0        0.480671   -0.374417   -2.162839
     17          1           0        0.863322    1.114008   -1.310606
     18          1           0        0.367004   -1.604311    0.000098
     19          1           0       -1.823855   -2.268670    0.000123
     20          1           0       -4.249928   -1.793319    0.000100
     21          1           0       -5.061463    0.560306   -0.000031
     22          1           0       -3.413880    2.425347   -0.000131
     23          1           0       -0.997644    1.949868   -0.000106
     24          1           0        0.480663   -0.374146    2.162881
     25          1           0        0.863317    1.114172    1.310463
     26          1           0        2.570848   -1.434312    1.378709
     27          1           0        2.988094    0.112969    2.132563
 ---------------------------------------------------------------------
 Rotational constants (GHZ):           2.3431319           0.3779444           0.3757293
 Standard basis: 6-31G(d) (6D, 7F)
 There are   223 symmetry adapted cartesian basis functions of A   symmetry.
 There are   223 symmetry adapted basis functions of A   symmetry.
   223 basis functions,   420 primitive gaussians,   223 cartesian basis functions
    47 alpha electrons       47 beta electrons
       nuclear repulsion energy       747.3994764406 Hartrees.
 NAtoms=   27 NActive=   27 NUniq=   27 SFac= 1.00D+00 NAtFMM=   60 NAOKFM=F Big=F
 Integral buffers will be    131072 words long.
 Raffenetti 2 integral format.
 Two-electron integral symmetry is turned on.
 One-electron integrals computed using PRISM.
 NBasis=   223 RedAO= T EigKep=  4.61D-04  NBF=   223
 NBsUse=   223 1.00D-06 EigRej= -1.00D+00 NBFU=   223
 ExpMin= 1.61D-01 ExpMax= 5.48D+03 ExpMxC= 8.25D+02 IAcc=3 IRadAn=         5 AccDes= 0.00D+00
 Harris functional with IExCor=  402 and IRadAn=       5 diagonalized for initial guess.
 HarFok:  IExCor=  402 AccDes= 0.00D+00 IRadAn=         5 IDoV= 1 UseB2=F ITyADJ=14
 ICtDFT=  3500011 ScaDFX=  1.000000  1.000000  1.000000  1.000000
 FoFCou: FMM=F IPFlag=           0 FMFlag=      100000 FMFlg1=           0
         NFxFlg=           0 DoJE=T BraDBF=F KetDBF=T FulRan=T
         wScrn=  0.000000 ICntrl=       500 IOpCl=  0 I1Cent=   200000004 NGrid=           0
         NMat0=    1 NMatS0=      1 NMatT0=    0 NMatD0=    1 NMtDS0=    0 NMtDT0=    0
 Petite list used in FoFCou.
 Requested convergence on RMS density matrix=1.00D-08 within 128 cycles.
 Requested convergence on MAX density matrix=1.00D-06.
 Requested convergence on             energy=1.00D-06.
 No special actions if energy rises.
 Integral accuracy reduced to 1.0D-05 until final iterations.
 Initial convergence to 1.0D-05 achieved.  Increase integral accuracy.
 SCF Done:  E(RB3LYP) =  -540.940547356     A.U. after   14 cycles
            NFock= 14  Conv=0.56D-08     -V/T= 2.0097
 DoSCS=F DFT=T ScalE2(SS,OS)=  1.000000  1.000000
 Range of M.O.s used for correlation:     1   223
 NBasis=   223 NAE=    47 NBE=    47 NFC=     0 NFV=     0
 NROrb=    223 NOA=    47 NOB=    47 NVA=   176 NVB=   176
 Symmetrizing basis deriv contribution to polar:
 IMax=3 JMax=2 DiffMx= 0.00D+00
 G2DrvN: will do    28 centers at a time, making    1 passes.
 Calling FoFCou, ICntrl=  3107 FMM=F I1Cent=   0 AccDes= 0.00D+00.
 End of G2Drv F.D. properties file   721 does not exist.
 End of G2Drv F.D. properties file   722 does not exist.
 End of G2Drv F.D. properties file   788 does not exist.
          IDoAtm=111111111111111111111111111
          Differentiating once with respect to electric field.
                with respect to dipole field.
          Differentiating once with respect to nuclear coordinates.
 Keep R1 ints in memory in canonical form, NReq=322414341.
          There are    84 degrees of freedom in the 1st order CPHF.  IDoFFX=6 NUNeed=     3.
     81 vectors produced by pass  0 Test12= 9.85D-15 1.19D-09 XBig12= 1.47D+02 5.89D+00.
 AX will form    81 AO Fock derivatives at one time.
     81 vectors produced by pass  1 Test12= 9.85D-15 1.19D-09 XBig12= 2.61D+01 9.09D-01.
     81 vectors produced by pass  2 Test12= 9.85D-15 1.19D-09 XBig12= 1.93D-01 6.37D-02.
     81 vectors produced by pass  3 Test12= 9.85D-15 1.19D-09 XBig12= 4.95D-04 2.70D-03.
     81 vectors produced by pass  4 Test12= 9.85D-15 1.19D-09 XBig12= 4.55D-07 7.52D-05.
     50 vectors produced by pass  5 Test12= 9.85D-15 1.19D-09 XBig12= 2.78D-10 1.47D-06.
      4 vectors produced by pass  6 Test12= 9.85D-15 1.19D-09 XBig12= 1.56D-13 4.06D-08.
 InvSVY:  IOpt=1 It=  1 EMax= 7.11D-15
 Solved reduced A of dimension   459 with    84 vectors.
 Isotropic polarizability for W=    0.000000      119.78 Bohr**3.
 End of Minotr F.D. properties file   721 does not exist.
 End of Minotr F.D. properties file   722 does not exist.
 End of Minotr F.D. properties file   788 does not exist.

 **********************************************************************

            Population analysis using the SCF density.

 **********************************************************************

 Orbital symmetries:
       Occupied  (A) (A) (A) (A) (A) (A) (A) (A) (A) (A) (A) (A)
                 (A) (A) (A) (A) (A) (A) (A) (A) (A) (A) (A) (A)
                 (A) (A) (A) (A) (A) (A) (A) (A) (A) (A) (A) (A)
                 (A) (A) (A) (A) (A) (A) (A) (A) (A) (A) (A)
       Virtual   (A) (A) (A) (A) (A) (A) (A) (A) (A) (A) (A) (A)
                 (A) (A) (A) (A) (A) (A) (A) (A) (A) (A) (A) (A)
                 (A) (A) (A) (A) (A) (A) (A) (A) (A) (A) (A) (A)
                 (A) (A) (A) (A) (A) (A) (A) (A) (A) (A) (A) (A)
                 (A) (A) (A) (A) (A) (A) (A) (A) (A) (A) (A) (A)
                 (A) (A) (A) (A) (A) (A) (A) (A) (A) (A) (A) (A)
                 (A) (A) (A) (A) (A) (A) (A) (A) (A) (A) (A) (A)
                 (A) (A) (A) (A) (A) (A) (A) (A) (A) (A) (A) (A)
                 (A) (A) (A) (A) (A) (A) (A) (A) (A) (A) (A) (A)
                 (A) (A) (A) (A) (A) (A) (A) (A) (A) (A) (A) (A)
                 (A) (A) (A) (A) (A) (A) (A) (A) (A) (A) (A) (A)
                 (A) (A) (A) (A) (A) (A) (A) (A) (A) (A) (A) (A)
                 (A) (A) (A) (A) (A) (A) (A) (A) (A) (A) (A) (A)
                 (A) (A) (A) (A) (A) (A) (A) (A) (A) (A) (A) (A)
                 (A) (A) (A) (A) (A) (A) (A) (A)
 The electronic state is 1-A.
 Alpha  occ. eigenvalues --  -19.13401 -10.27005 -10.20275 -10.19789 -10.19587
 Alpha  occ. eigenvalues --  -10.19586 -10.19241 -10.19239 -10.19201 -10.19172
 Alpha  occ. eigenvalues --  -10.19045 -10.19036 -10.19024  -1.03275  -0.86179
 Alpha  occ. eigenvalues --   -0.83173  -0.76467  -0.75694  -0.74495  -0.70722
 Alpha  occ. eigenvalues --   -0.63037  -0.61848  -0.60349  -0.57245  -0.53194
 Alpha  occ. eigenvalues --   -0.51664  -0.47104  -0.46085  -0.46022  -0.44817
 Alpha  occ. eigenvalues --   -0.44335  -0.42650  -0.42515  -0.41834  -0.40132
 Alpha  occ. eigenvalues --   -0.39252  -0.37306  -0.36697  -0.35871  -0.35605
 Alpha  occ. eigenvalues --   -0.34345  -0.33111  -0.32816  -0.31882  -0.25124
 Alpha  occ. eigenvalues --   -0.24374  -0.23604
 Alpha virt. eigenvalues --   -0.01413  -0.00364  -0.00114   0.08743   0.09259
 Alpha virt. eigenvalues --    0.09915   0.12495   0.13134   0.14206   0.14719
 Alpha virt. eigenvalues --    0.14944   0.16123   0.16961   0.17021   0.17746
 Alpha virt. eigenvalues --    0.18596   0.18623   0.19429   0.21341   0.23374
 Alpha virt. eigenvalues --    0.24051   0.24661   0.27027   0.27871   0.30418
 Alpha virt. eigenvalues --    0.31930   0.32708   0.33590   0.34876   0.35936
 Alpha virt. eigenvalues --    0.46486   0.50987   0.51114   0.52800   0.53135
 Alpha virt. eigenvalues --    0.54043   0.54752   0.55096   0.56425   0.57023
 Alpha virt. eigenvalues --    0.58870   0.59455   0.60257   0.60813   0.60870
 Alpha virt. eigenvalues --    0.61677   0.62224   0.63099   0.64670   0.65776
 Alpha virt. eigenvalues --    0.67996   0.69154   0.71475   0.72425   0.73346
 Alpha virt. eigenvalues --    0.74410   0.77141   0.79079   0.81978   0.82194
 Alpha virt. eigenvalues --    0.82989   0.83626   0.84467   0.84890   0.85110
 Alpha virt. eigenvalues --    0.85945   0.87292   0.89079   0.89250   0.90418
 Alpha virt. eigenvalues --    0.91407   0.92803   0.93746   0.93949   0.95409
 Alpha virt. eigenvalues --    0.96511   0.97318   0.98503   0.99569   1.01815
 Alpha virt. eigenvalues --    1.09030   1.10422   1.11657   1.12407   1.14391
 Alpha virt. eigenvalues --    1.18112   1.18860   1.20680   1.25733   1.34605
 Alpha virt. eigenvalues --    1.35136   1.36288   1.41395   1.42581   1.43344
 Alpha virt. eigenvalues --    1.44957   1.47895   1.47928   1.49457   1.50820
 Alpha virt. eigenvalues --    1.51509   1.52818   1.61127   1.66539   1.67079
 Alpha virt. eigenvalues --    1.71030   1.72131   1.75554   1.78363   1.80789
 Alpha virt. eigenvalues --    1.81390   1.82178   1.83198   1.86003   1.86968
 Alpha virt. eigenvalues --    1.91570   1.92288   1.93962   1.95064   1.95596
 Alpha virt. eigenvalues --    1.96922   1.97831   2.02625   2.03034   2.03396
 Alpha virt. eigenvalues --    2.04011   2.07455   2.10594   2.13929   2.14129
 Alpha virt. eigenvalues --    2.14630   2.18460   2.20160   2.21422   2.25061
 Alpha virt. eigenvalues --    2.29655   2.30470   2.30983   2.34322   2.35151
 Alpha virt. eigenvalues --    2.40328   2.43065   2.43450   2.46840   2.48218
 Alpha virt. eigenvalues --    2.53178   2.57911   2.60932   2.62566   2.63507
 Alpha virt. eigenvalues --    2.66764   2.67102   2.71980   2.74359   2.74787
 Alpha virt. eigenvalues --    2.76073   2.77016   2.81203   2.95264   2.98120
 Alpha virt. eigenvalues --    3.01558   3.07160   3.40808   4.00319   4.08944
 Alpha virt. eigenvalues --    4.11528   4.12493   4.17167   4.25503   4.28535
 Alpha virt. eigenvalues --    4.32815   4.39476   4.54407   4.56844   4.60910
 Alpha virt. eigenvalues --    4.71287
          Condensed to atoms (all electrons):
               1          2          3          4          5          6
     1  O    7.993970   0.592738  -0.078728   0.001317   0.000091  -0.000000
     2  C    0.592738   4.465337   0.326655  -0.021678  -0.013748   0.000176
     3  C   -0.078728   0.326655   5.332859   0.310642  -0.036214   0.003903
     4  C    0.001317  -0.021678   0.310642   5.091409   0.362182  -0.036855
     5  C    0.000091  -0.013748  -0.036214   0.362182   5.072887   0.359452
     6  C   -0.000000   0.000176   0.003903  -0.036855   0.359452   4.645202
     7  C    0.000000  -0.000003  -0.000063  -0.000190  -0.041084   0.550127
     8  C    0.000000   0.000000   0.000002  -0.000214   0.006695  -0.019756
     9  C   -0.000000   0.000000  -0.000000   0.000014   0.000394  -0.033821
    10  C    0.000000  -0.000000   0.000000   0.000195   0.005828  -0.015749
    11  C   -0.000000  -0.000022   0.000207  -0.006146  -0.062479   0.534102
    12  C    0.001317  -0.021677  -0.001665  -0.049755   0.362182  -0.036855
    13  C   -0.078728   0.326655  -0.144229  -0.001665  -0.036214   0.003903
    14  H    0.004776  -0.023550   0.343664  -0.024234   0.003495  -0.000086
    15  H    0.001273  -0.028701   0.347784  -0.035776  -0.003773  -0.000101
    16  H   -0.000066   0.002937  -0.027009   0.364818  -0.032130  -0.000470
    17  H    0.000415  -0.002822  -0.040370   0.370148  -0.036966  -0.007102
    18  H   -0.000007  -0.002058  -0.001992  -0.050117   0.362203  -0.041780
    19  H   -0.000000  -0.000001  -0.000015   0.000190  -0.011759  -0.042834
    20  H    0.000000  -0.000000  -0.000000   0.000002  -0.000171   0.003692
    21  H   -0.000000   0.000000   0.000000   0.000000   0.000007   0.000727
    22  H    0.000000  -0.000000  -0.000000  -0.000001  -0.000175   0.003431
    23  H   -0.000000  -0.000017  -0.000095   0.000588  -0.008195  -0.047389
    24  H   -0.000066   0.002937  -0.000345   0.005589  -0.032130  -0.000470
    25  H    0.000415  -0.002822   0.000697  -0.007071  -0.036966  -0.007102
    26  H    0.001273  -0.028701   0.003824  -0.001648  -0.003773  -0.000101
    27  H    0.004776  -0.023550   0.006725  -0.000176   0.003495  -0.000086
               7          8          9         10         11         12
     1  O    0.000000   0.000000  -0.000000   0.000000  -0.000000   0.001317
     2  C   -0.000003   0.000000   0.000000  -0.000000  -0.000022  -0.021677
     3  C   -0.000063   0.000002  -0.000000   0.000000   0.000207  -0.001665
     4  C   -0.000190  -0.000214   0.000014   0.000195  -0.006146  -0.049755
     5  C   -0.041084   0.006695   0.000394   0.005828  -0.062479   0.362182
     6  C    0.550127  -0.019756  -0.033821  -0.015749   0.534102  -0.036855
     7  C    4.981226   0.516961  -0.036633  -0.045381  -0.048052  -0.000190
     8  C    0.516961   4.871178   0.553184  -0.026722  -0.046325  -0.000214
     9  C   -0.036633   0.553184   4.851768   0.549178  -0.036236   0.000014
    10  C   -0.045381  -0.026722   0.549178   4.862537   0.525406   0.000195
    11  C   -0.048052  -0.046325  -0.036236   0.525406   4.990396  -0.006147
    12  C   -0.000190  -0.000214   0.000014   0.000195  -0.006147   5.091410
    13  C   -0.000063   0.000002  -0.000000   0.000000   0.000207   0.310642
    14  H    0.000001  -0.000000   0.000000  -0.000000  -0.000005  -0.000176
    15  H   -0.000008   0.000000  -0.000000   0.000000   0.000007  -0.001648
    16  H    0.001323  -0.000039  -0.000009  -0.000055   0.000028   0.005589
    17  H   -0.000007   0.000011  -0.000004  -0.000046   0.004074  -0.007071
    18  H   -0.007646   0.000336  -0.000004  -0.000180   0.005875  -0.050117
    19  H    0.351926  -0.046902   0.004823   0.000361   0.006496   0.000190
    20  H   -0.039133   0.356400  -0.043240   0.004609   0.000814   0.000002
    21  H    0.004640  -0.043108   0.358733  -0.042835   0.004733   0.000000
    22  H    0.000883   0.004580  -0.042769   0.356937  -0.039716  -0.000001
    23  H    0.005908   0.000427   0.004727  -0.043597   0.354109   0.000588
    24  H    0.001323  -0.000039  -0.000009  -0.000055   0.000028   0.364818
    25  H   -0.000007   0.000011  -0.000004  -0.000046   0.004074   0.370147
    26  H   -0.000008   0.000000  -0.000000   0.000000   0.000007  -0.035776
    27  H    0.000001  -0.000000   0.000000  -0.000000  -0.000005  -0.024234
              13         14         15         16         17         18
     1  O   -0.078728   0.004776   0.001273  -0.000066   0.000415  -0.000007
     2  C    0.326655  -0.023550  -0.028701   0.002937  -0.002822  -0.002058
     3  C   -0.144229   0.343664   0.347784  -0.027009  -0.040370  -0.001992
     4  C   -0.001665  -0.024234  -0.035776   0.364818   0.370148  -0.050117
     5  C   -0.036214   0.003495  -0.003773  -0.032130  -0.036966   0.362203
     6  C    0.003903  -0.000086  -0.000101  -0.000470  -0.007102  -0.041780
     7  C   -0.000063   0.000001  -0.000008   0.001323  -0.000007  -0.007646
     8  C    0.000002  -0.000000   0.000000  -0.000039   0.000011   0.000336
     9  C   -0.000000   0.000000  -0.000000  -0.000009  -0.000004  -0.000004
    10  C    0.000000  -0.000000   0.000000  -0.000055  -0.000046  -0.000180
    11  C    0.000207  -0.000005   0.000007   0.000028   0.004074   0.005875
    12  C    0.310642  -0.000176  -0.001648   0.005589  -0.007071  -0.050117
    13  C    5.332859   0.006725   0.003824  -0.000345   0.000697  -0.001992
    14  H    0.006725   0.557125  -0.026434  -0.002392  -0.003303  -0.000039
    15  H    0.003824  -0.026434   0.583926  -0.006383   0.005637   0.005364
    16  H   -0.000345  -0.002392  -0.006383   0.584470  -0.035707  -0.004327
    17  H    0.000697  -0.003303   0.005637  -0.035707   0.592797   0.006209
    18  H   -0.001992  -0.000039   0.005364  -0.004327   0.006209   0.641018
    19  H   -0.000015   0.000000  -0.000003   0.000052   0.000001   0.008512
    20  H   -0.000000   0.000000  -0.000000   0.000001   0.000000  -0.000013
    21  H    0.000000  -0.000000   0.000000  -0.000000  -0.000000  -0.000000
    22  H   -0.000000   0.000000   0.000000   0.000000   0.000004   0.000003
    23  H   -0.000095   0.000004  -0.000001   0.000081   0.002694   0.000017
    24  H   -0.027009   0.000017  -0.000013  -0.000186  -0.000007  -0.004327
    25  H   -0.040370  -0.000036   0.000094  -0.000007   0.004331   0.006209
    26  H    0.347784  -0.000145   0.001194  -0.000013   0.000094   0.005364
    27  H    0.343664  -0.000179  -0.000145   0.000017  -0.000036  -0.000039
              19         20         21         22         23         24
     1  O   -0.000000   0.000000  -0.000000   0.000000  -0.000000  -0.000066
     2  C   -0.000001  -0.000000   0.000000  -0.000000  -0.000017   0.002937
     3  C   -0.000015  -0.000000   0.000000  -0.000000  -0.000095  -0.000345
     4  C    0.000190   0.000002   0.000000  -0.000001   0.000588   0.005589
     5  C   -0.011759  -0.000171   0.000007  -0.000175  -0.008195  -0.032130
     6  C   -0.042834   0.003692   0.000727   0.003431  -0.047389  -0.000470
     7  C    0.351926  -0.039133   0.004640   0.000883   0.005908   0.001323
     8  C   -0.046902   0.356400  -0.043108   0.004580   0.000427  -0.000039
     9  C    0.004823  -0.043240   0.358733  -0.042769   0.004727  -0.000009
    10  C    0.000361   0.004609  -0.042835   0.356937  -0.043597  -0.000055
    11  C    0.006496   0.000814   0.004733  -0.039716   0.354109   0.000028
    12  C    0.000190   0.000002   0.000000  -0.000001   0.000588   0.364818
    13  C   -0.000015  -0.000000   0.000000  -0.000000  -0.000095  -0.027009
    14  H    0.000000   0.000000  -0.000000   0.000000   0.000004   0.000017
    15  H   -0.000003  -0.000000   0.000000   0.000000  -0.000001  -0.000013
    16  H    0.000052   0.000001  -0.000000   0.000000   0.000081  -0.000186
    17  H    0.000001   0.000000  -0.000000   0.000004   0.002694  -0.000007
    18  H    0.008512  -0.000013  -0.000000   0.000003   0.000017  -0.004327
    19  H    0.611464  -0.005632  -0.000181   0.000018  -0.000182   0.000052
    20  H   -0.005632   0.598566  -0.005567  -0.000190   0.000018   0.000001
    21  H   -0.000181  -0.005567   0.598654  -0.005456  -0.000185  -0.000000
    22  H    0.000018  -0.000190  -0.005456   0.597396  -0.005580   0.000000
    23  H   -0.000182   0.000018  -0.000185  -0.005580   0.606100   0.000081
    24  H    0.000052   0.000001  -0.000000   0.000000   0.000081   0.584469
    25  H    0.000001   0.000000  -0.000000   0.000004   0.002694  -0.035707
    26  H   -0.000003  -0.000000   0.000000   0.000000  -0.000001  -0.006383
    27  H    0.000000   0.000000  -0.000000   0.000000   0.000004  -0.002392
              25         26         27
     1  O    0.000415   0.001273   0.004776
     2  C   -0.002822  -0.028701  -0.023550
     3  C    0.000697   0.003824   0.006725
     4  C   -0.007071  -0.001648  -0.000176
     5  C   -0.036966  -0.003773   0.003495
     6  C   -0.007102  -0.000101  -0.000086
     7  C   -0.000007  -0.000008   0.000001
     8  C    0.000011   0.000000  -0.000000
     9  C   -0.000004  -0.000000   0.000000
    10  C   -0.000046   0.000000  -0.000000
    11  C    0.004074   0.000007  -0.000005
    12  C    0.370147  -0.035776  -0.024234
    13  C   -0.040370   0.347784   0.343664
    14  H   -0.000036  -0.000145  -0.000179
    15  H    0.000094   0.001194  -0.000145
    16  H   -0.000007  -0.000013   0.000017
    17  H    0.004331   0.000094  -0.000036
    18  H    0.006209   0.005364  -0.000039
    19  H    0.000001  -0.000003   0.000000
    20  H    0.000000  -0.000000   0.000000
    21  H   -0.000000   0.000000  -0.000000
    22  H    0.000004   0.000000   0.000000
    23  H    0.002694  -0.000001   0.000004
    24  H   -0.035707  -0.006383  -0.002392
    25  H    0.592798   0.005637  -0.003303
    26  H    0.005637   0.583926  -0.026434
    27  H   -0.003303  -0.026434   0.557125
 Mulliken charges:
               1
     1  O   -0.444764
     2  C    0.451914
     3  C   -0.346237
     4  C   -0.271567
     5  C   -0.183135
     6  C    0.185843
     7  C   -0.195850
     8  C   -0.126464
     9  C   -0.130104
    10  C   -0.130582
    11  C   -0.185429
    12  C   -0.271567
    13  C   -0.346237
    14  H    0.164772
    15  H    0.153882
    16  H    0.149822
    17  H    0.146328
    18  H    0.123523
    19  H    0.123442
    20  H    0.129841
    21  H    0.129837
    22  H    0.130632
    23  H    0.127295
    24  H    0.149823
    25  H    0.146328
    26  H    0.153882
    27  H    0.164772
 Sum of Mulliken charges =  -0.00000
 Mulliken charges with hydrogens summed into heavy atoms:
               1
     1  O   -0.444764
     2  C    0.451914
     3  C   -0.027583
     4  C    0.024584
     5  C   -0.059612
     6  C    0.185843
     7  C   -0.072409
     8  C    0.003377
     9  C   -0.000267
    10  C    0.000050
    11  C   -0.058134
    12  C    0.024583
    13  C   -0.027583
 APT charges:
               1
     1  O   -0.655569
     2  C    0.736565
     3  C   -0.050691
     4  C    0.110666
     5  C    0.115855
     6  C    0.069437
     7  C   -0.063123
     8  C    0.007880
     9  C   -0.042742
    10  C    0.016642
    11  C   -0.078618
    12  C    0.110666
    13  C   -0.050691
    14  H   -0.036145
    15  H   -0.011138
    16  H   -0.039787
    17  H   -0.028181
    18  H   -0.062334
    19  H    0.014678
    20  H    0.007760
    21  H    0.012754
    22  H    0.008959
    23  H    0.022409
    24  H   -0.039787
    25  H   -0.028182
    26  H   -0.011138
    27  H   -0.036145
 Sum of APT charges =   0.00000
 APT charges with hydrogens summed into heavy atoms:
               1
     1  O   -0.655569
     2  C    0.736565
     3  C   -0.097974
     4  C    0.042697
     5  C    0.053521
     6  C    0.069437
     7  C   -0.048445
     8  C    0.015640
     9  C   -0.029988
    10  C    0.025601
    11  C   -0.056209
    12  C    0.042697
    13  C   -0.097974
 Electronic spatial extent (au):  <R**2>=           3025.7536
 Charge=             -0.0000 electrons
 Dipole moment (field-independent basis, Debye):
    X=             -2.6251    Y=             -1.3923    Z=              0.0001  Tot=              2.9714
 Quadrupole moment (field-independent basis, Debye-Ang):
   XX=            -90.6146   YY=            -72.6324   ZZ=            -77.6527
   XY=             -6.1492   XZ=              0.0004   YZ=             -0.0002
 Traceless Quadrupole moment (field-independent basis, Debye-Ang):
   XX=            -10.3147   YY=              7.6675   ZZ=              2.6472
   XY=             -6.1492   XZ=              0.0004   YZ=             -0.0002
 Octapole moment (field-independent basis, Debye-Ang**2):
  XXX=           -103.0711  YYY=              2.0995  ZZZ=              0.0000  XYY=             -3.7145
  XXY=            -24.6887  XXZ=              0.0014  XZZ=             20.3266  YZZ=              0.0558
  YYZ=             -0.0001  XYZ=              0.0013
 Hexadecapole moment (field-independent basis, Debye-Ang**3):
 XXXX=          -3503.0954 YYYY=           -380.7136 ZZZZ=           -384.1748 XXXY=           -104.1081
 XXXZ=              0.0060 YYYX=              2.0923 YYYZ=             -0.0023 ZZZX=             -0.0010
 ZZZY=              0.0010 XXYY=           -582.3594 XXZZ=           -620.0883 YYZZ=           -137.6093
 XXYZ=             -0.0020 YYXZ=              0.0005 ZZXY=              5.5519
 N-N= 7.473994764406D+02 E-N=-2.749362348452D+03  KE= 5.357277222310D+02
  Exact polarizability: 164.311   2.439 114.439  -0.000  -0.002  80.592
 Approx polarizability: 223.458   9.423 201.520  -0.001  -0.005 114.007
 Calling FoFJK, ICntrl=    100127 FMM=F ISym2X=0 I1Cent= 0 IOpClX= 0 NMat=1 NMatS=1 NMatT=0.
 Full mass-weighted force constant matrix:
 Low frequencies ---   -3.9624   -0.0010   -0.0007    0.0001    2.8201    6.9631
 Low frequencies ---   38.8524   54.3003   95.4446
 Diagonal vibrational polarizability:
        8.4772515      24.9481357      13.6596864
 Harmonic frequencies (cm**-1), IR intensities (KM/Mole), Raman scattering
 activities (A**4/AMU), depolarization ratios for plane and unpolarized
 incident light, reduced masses (AMU), force constants (mDyne/A),
 and normal coordinates:
                      1                      2                      3
                      A                      A                      A
 Frequencies --     38.8261                54.3002                95.4439
 Red. masses --      3.6356                 6.9217                 3.8198
 Frc consts  --      0.0032                 0.0120                 0.0205
 IR Inten    --      0.3161                 3.0441                 0.0027
  Atom  AN      X      Y      Z        X      Y      Z        X      Y      Z
     1   8    -0.00   0.00   0.12    -0.25   0.41  -0.00    -0.00   0.00   0.10
     2   6    -0.00   0.00   0.03    -0.06   0.08  -0.00    -0.00   0.00   0.06
     3   6     0.03   0.11  -0.02     0.03  -0.11   0.02     0.09  -0.09   0.03
     4   6     0.03   0.11  -0.03     0.01  -0.19  -0.01     0.09  -0.09  -0.12
     5   6     0.00  -0.00  -0.10     0.01  -0.16   0.00     0.00  -0.00  -0.13
     6   6     0.00  -0.00  -0.07     0.02  -0.07   0.00     0.00  -0.00  -0.16
     7   6    -0.00   0.00   0.15    -0.05   0.00  -0.00     0.00  -0.00  -0.14
     8   6    -0.00   0.00   0.23    -0.03   0.11  -0.00     0.00   0.00   0.05
     9   6     0.00   0.00   0.08     0.07   0.14  -0.00     0.00   0.00   0.23
    10   6     0.00  -0.00  -0.14     0.14   0.07   0.00     0.00   0.00   0.17
    11   6     0.00  -0.00  -0.21     0.12  -0.03   0.00     0.00  -0.00  -0.04
    12   6    -0.03  -0.11  -0.03     0.01  -0.19   0.01    -0.09   0.09  -0.12
    13   6    -0.03  -0.11  -0.02     0.03  -0.11  -0.02    -0.09   0.09   0.03
    14   1     0.06   0.19   0.03     0.00  -0.13  -0.01     0.16  -0.15   0.04
    15   1     0.04   0.12  -0.12     0.10  -0.11   0.10     0.10  -0.10   0.12
    16   1     0.06   0.19  -0.08     0.04  -0.25   0.00     0.16  -0.16  -0.13
    17   1     0.04   0.12   0.06    -0.03  -0.19  -0.06     0.09  -0.09  -0.21
    18   1    -0.00  -0.00  -0.19    -0.04  -0.16   0.00    -0.00  -0.00  -0.06
    19   1    -0.00   0.00   0.26    -0.13  -0.03  -0.00    -0.00  -0.00  -0.24
    20   1    -0.00   0.00   0.40    -0.10   0.16  -0.00     0.00   0.00   0.08
    21   1     0.00   0.00   0.14     0.08   0.22  -0.00     0.00   0.00   0.40
    22   1     0.00  -0.00  -0.26     0.22   0.10   0.00     0.00   0.00   0.29
    23   1     0.00  -0.00  -0.38     0.18  -0.09   0.00     0.00  -0.00  -0.06
    24   1    -0.06  -0.19  -0.08     0.04  -0.25  -0.00    -0.16   0.16  -0.13
    25   1    -0.04  -0.12   0.06    -0.03  -0.19   0.06    -0.09   0.09  -0.21
    26   1    -0.04  -0.12  -0.12     0.10  -0.11  -0.10    -0.10   0.10   0.12
    27   1    -0.06  -0.19   0.03     0.00  -0.13   0.01    -0.16   0.15   0.04
                      4                      5                      6
                      A                      A                      A
 Frequencies --    141.9407               179.8360               245.8276
 Red. masses --      3.5683                 2.0282                 4.8405
 Frc consts  --      0.0424                 0.0386                 0.1723
 IR Inten    --      0.9578                 1.2367                 0.3062
  Atom  AN      X      Y      Z        X      Y      Z        X      Y      Z
     1   8     0.14  -0.09   0.00     0.00  -0.00  -0.10    -0.18  -0.07   0.00
     2   6     0.01   0.12  -0.00    -0.00   0.00  -0.01    -0.17  -0.07   0.00
     3   6    -0.01   0.18  -0.01    -0.02  -0.11   0.04    -0.15   0.02  -0.04
     4   6    -0.07  -0.07   0.00     0.05   0.13   0.06    -0.09   0.14   0.00
     5   6    -0.02  -0.14   0.00    -0.00  -0.00  -0.03     0.03   0.03  -0.00
     6   6    -0.02  -0.13   0.00    -0.00  -0.00  -0.04     0.08  -0.09   0.00
     7   6    -0.10  -0.06   0.00    -0.00  -0.00  -0.03     0.10  -0.09   0.00
     8   6    -0.08   0.05  -0.00    -0.00   0.00   0.00     0.12  -0.02  -0.00
     9   6     0.02   0.09  -0.00     0.00   0.00   0.03     0.19   0.01   0.00
    10   6     0.10   0.02   0.00     0.00   0.00  -0.00     0.21  -0.01   0.00
    11   6     0.07  -0.10   0.00     0.00  -0.00  -0.03     0.18  -0.07   0.00
    12   6    -0.07  -0.07  -0.00    -0.05  -0.13   0.06    -0.09   0.14  -0.00
    13   6    -0.01   0.18   0.01     0.02   0.11   0.04    -0.15   0.02   0.04
    14   1    -0.08   0.32   0.02     0.04  -0.30  -0.02    -0.07   0.04   0.01
    15   1     0.18   0.21  -0.11    -0.20  -0.14   0.19    -0.25   0.02  -0.11
    16   1    -0.00  -0.16   0.00    -0.00   0.35  -0.01    -0.18   0.26  -0.00
    17   1    -0.24  -0.09  -0.02     0.22   0.15   0.24    -0.03   0.15   0.14
    18   1     0.02  -0.14   0.00     0.00  -0.00  -0.16     0.17   0.04   0.00
    19   1    -0.18  -0.09   0.00    -0.00  -0.00  -0.05     0.09  -0.09   0.00
    20   1    -0.14   0.11  -0.00    -0.00   0.00   0.01     0.06   0.03  -0.00
    21   1     0.04   0.17  -0.00     0.00   0.00   0.06     0.20   0.05  -0.00
    22   1     0.18   0.04   0.00     0.00   0.00   0.01     0.23  -0.00   0.00
    23   1     0.13  -0.15   0.00     0.00  -0.00  -0.05     0.23  -0.12   0.00
    24   1    -0.00  -0.16  -0.00     0.00  -0.35  -0.01    -0.18   0.26   0.00
    25   1    -0.24  -0.09   0.02    -0.22  -0.15   0.24    -0.03   0.15  -0.14
    26   1     0.18   0.21   0.11     0.20   0.14   0.19    -0.25   0.02   0.11
    27   1    -0.08   0.32  -0.02    -0.04   0.30  -0.02    -0.07   0.04  -0.01
                      7                      8                      9
                      A                      A                      A
 Frequencies --    289.0116               297.1050               417.6777
 Red. masses --      3.6857                 2.8673                 2.9930
 Frc consts  --      0.1814                 0.1491                 0.3076
 IR Inten    --      1.2329                 0.0238                 0.0000
  Atom  AN      X      Y      Z        X      Y      Z        X      Y      Z
     1   8     0.00   0.00   0.06    -0.03  -0.06   0.00     0.00  -0.00  -0.01
     2   6     0.00  -0.00   0.01    -0.09   0.03  -0.00     0.00   0.00   0.01
     3   6     0.06  -0.05  -0.02    -0.04   0.04  -0.03    -0.01   0.01   0.01
     4   6     0.06   0.04  -0.14    -0.07  -0.13  -0.07    -0.01   0.00  -0.00
     5   6     0.00  -0.00  -0.16    -0.01   0.01  -0.00    -0.00   0.00  -0.00
     6   6    -0.00  -0.00   0.07     0.05   0.14  -0.00    -0.00  -0.00  -0.01
     7   6    -0.00   0.00   0.22     0.14   0.08   0.00     0.00   0.00   0.21
     8   6    -0.00   0.00   0.05     0.14  -0.03   0.00    -0.00  -0.00  -0.21
     9   6    -0.00  -0.00  -0.20     0.06  -0.06  -0.00     0.00  -0.00  -0.00
    10   6     0.00   0.00   0.06    -0.02   0.02   0.00     0.00   0.00   0.21
    11   6     0.00   0.00   0.23     0.01   0.13  -0.00    -0.00  -0.00  -0.21
    12   6    -0.06  -0.04  -0.14    -0.07  -0.13   0.07     0.01  -0.00  -0.00
    13   6    -0.06   0.05  -0.02    -0.04   0.04   0.03     0.01  -0.01   0.01
    14   1     0.14  -0.15  -0.02    -0.05   0.12   0.01    -0.00   0.00   0.01
    15   1    -0.01  -0.07   0.08     0.10   0.05  -0.06    -0.01   0.00   0.01
    16   1     0.11   0.08  -0.19    -0.05  -0.37   0.02     0.00  -0.00  -0.00
    17   1     0.12   0.05  -0.11    -0.20  -0.15  -0.29    -0.00   0.00  -0.01
    18   1     0.00  -0.00  -0.23    -0.13  -0.00  -0.00    -0.00   0.00  -0.01
    19   1    -0.00   0.00   0.31     0.24   0.12   0.00     0.00   0.00   0.46
    20   1    -0.00   0.00   0.03     0.19  -0.08   0.00     0.00  -0.00  -0.45
    21   1    -0.00  -0.00  -0.48     0.05  -0.13  -0.00     0.00  -0.00  -0.02
    22   1     0.00   0.00   0.04    -0.11  -0.01   0.00     0.00   0.00   0.45
    23   1     0.00   0.00   0.33    -0.04   0.17  -0.00     0.00  -0.00  -0.46
    24   1    -0.11  -0.08  -0.19    -0.05  -0.37  -0.02    -0.00   0.00  -0.00
    25   1    -0.12  -0.05  -0.11    -0.20  -0.15   0.29     0.00  -0.00  -0.01
    26   1     0.01   0.07   0.08     0.10   0.05   0.06     0.01  -0.00   0.01
    27   1    -0.14   0.15  -0.02    -0.05   0.12  -0.01     0.00  -0.00   0.01
                     10                     11                     12
                      A                      A                      A
 Frequencies --    423.5643               426.6739               475.6856
 Red. masses --      3.5528                 1.9668                 2.3908
 Frc consts  --      0.3755                 0.2110                 0.3187
 IR Inten    --      2.7574                 2.5469                 0.4991
  Atom  AN      X      Y      Z        X      Y      Z        X      Y      Z
     1   8     0.00  -0.00  -0.09     0.11   0.00   0.00    -0.02  -0.03  -0.00
     2   6     0.00   0.00   0.14     0.01   0.16  -0.00    -0.04   0.01  -0.00
     3   6    -0.15   0.07   0.18    -0.06  -0.03   0.10     0.02  -0.00  -0.04
     4   6    -0.14   0.04  -0.12    -0.05   0.01   0.01     0.03   0.03  -0.16
     5   6    -0.00  -0.00  -0.11    -0.05   0.03  -0.00     0.08   0.19  -0.00
     6   6    -0.00   0.00   0.01    -0.02  -0.00   0.00     0.00  -0.07   0.00
     7   6     0.00  -0.00  -0.02     0.02  -0.03  -0.00    -0.05  -0.05   0.00
     8   6     0.00  -0.00  -0.00     0.02  -0.02   0.00    -0.05   0.02  -0.00
     9   6     0.00   0.00   0.02     0.05  -0.01  -0.00    -0.04   0.04  -0.00
    10   6     0.00  -0.00  -0.02     0.04   0.01  -0.00     0.01  -0.01   0.00
    11   6     0.00  -0.00  -0.01     0.03   0.00   0.00    -0.01  -0.09   0.00
    12   6     0.14  -0.04  -0.12    -0.05   0.01  -0.01     0.03   0.03   0.16
    13   6     0.15  -0.07   0.18    -0.06  -0.03  -0.10     0.02  -0.00   0.04
    14   1     0.00  -0.08   0.19    -0.05  -0.39  -0.08     0.14  -0.09  -0.01
    15   1    -0.25   0.05   0.29    -0.16  -0.08   0.50    -0.03  -0.02   0.05
    16   1     0.01  -0.14  -0.12    -0.00  -0.07   0.02     0.02  -0.29  -0.01
    17   1    -0.27   0.02  -0.25    -0.06   0.00  -0.07    -0.02   0.01  -0.50
    18   1    -0.00  -0.00  -0.19    -0.03   0.03   0.00     0.21   0.20  -0.00
    19   1     0.00  -0.00  -0.07     0.04  -0.02  -0.00    -0.12  -0.08   0.00
    20   1    -0.00  -0.00  -0.01     0.00  -0.00   0.00    -0.08   0.05  -0.00
    21   1     0.00   0.00   0.03     0.05  -0.00  -0.00    -0.03   0.07  -0.00
    22   1     0.00  -0.00  -0.05     0.02   0.00  -0.00     0.08   0.01  -0.00
    23   1     0.00  -0.00  -0.03     0.05  -0.02   0.00     0.02  -0.12   0.00
    24   1    -0.01   0.14  -0.12    -0.00  -0.07  -0.02     0.02  -0.29   0.01
    25   1     0.27  -0.02  -0.25    -0.06   0.00   0.07    -0.02   0.01   0.50
    26   1     0.25  -0.05   0.29    -0.16  -0.08  -0.50    -0.03  -0.02  -0.05
    27   1    -0.00   0.08   0.19    -0.05  -0.39   0.08     0.14  -0.09   0.01
                     13                     14                     15
                      A                      A                      A
 Frequencies --    490.5215               547.9544               610.0820
 Red. masses --      3.5855                 3.1266                 4.9034
 Frc consts  --      0.5083                 0.5531                 1.0753
 IR Inten    --     12.2864                 2.5336                 2.3525
  Atom  AN      X      Y      Z        X      Y      Z        X      Y      Z
     1   8    -0.00   0.00   0.29    -0.00  -0.00  -0.10     0.07   0.11  -0.00
     2   6    -0.00  -0.00  -0.09    -0.00   0.00   0.04     0.21  -0.17   0.00
     3   6    -0.09  -0.08  -0.10     0.08   0.01   0.02     0.03  -0.03  -0.01
     4   6    -0.11   0.03  -0.05     0.07   0.01  -0.04    -0.07   0.01   0.01
     5   6     0.00   0.00   0.01     0.00  -0.00  -0.03    -0.21   0.16  -0.00
     6   6     0.00   0.00   0.14     0.00   0.00   0.27    -0.22   0.02  -0.00
     7   6    -0.00  -0.00  -0.01     0.00   0.00   0.05    -0.05  -0.17   0.00
     8   6    -0.00  -0.00  -0.07     0.00  -0.00  -0.14    -0.01  -0.13   0.00
     9   6    -0.00   0.00   0.10    -0.00   0.00   0.19     0.23  -0.03   0.00
    10   6    -0.00  -0.00  -0.06    -0.00  -0.00  -0.13     0.07   0.12  -0.00
    11   6    -0.00  -0.00  -0.02    -0.00   0.00   0.05     0.02   0.09  -0.00
    12   6     0.11  -0.03  -0.05    -0.07  -0.01  -0.04    -0.07   0.01  -0.01
    13   6     0.09   0.08  -0.10    -0.08  -0.01   0.02     0.03  -0.03   0.01
    14   1    -0.10  -0.34  -0.26     0.13   0.12   0.11    -0.09   0.18   0.02
    15   1    -0.25  -0.12   0.13     0.15   0.03  -0.07     0.01   0.00  -0.31
    16   1    -0.17   0.04  -0.02     0.11   0.04  -0.08     0.01  -0.14   0.02
    17   1    -0.07   0.03  -0.04     0.11   0.02  -0.04    -0.04   0.00  -0.21
    18   1     0.00  -0.00  -0.05     0.00  -0.00  -0.06    -0.22   0.16  -0.00
    19   1    -0.00  -0.00  -0.12     0.00  -0.00  -0.22     0.11  -0.12   0.00
    20   1    -0.00  -0.00  -0.20     0.00  -0.00  -0.47    -0.19   0.01  -0.00
    21   1    -0.00   0.00   0.16    -0.00   0.00   0.22     0.23  -0.02  -0.00
    22   1     0.00  -0.00  -0.19    -0.00  -0.00  -0.47    -0.09   0.07  -0.00
    23   1     0.00  -0.00  -0.15    -0.00  -0.00  -0.24     0.19  -0.06  -0.00
    24   1     0.17  -0.04  -0.02    -0.11  -0.04  -0.08     0.01  -0.14  -0.02
    25   1     0.07  -0.03  -0.04    -0.11  -0.02  -0.04    -0.04   0.00   0.21
    26   1     0.25   0.12   0.13    -0.15  -0.03  -0.07     0.01   0.00   0.31
    27   1     0.10   0.34  -0.26    -0.13  -0.12   0.11    -0.09   0.18  -0.02
                     16                     17                     18
                      A                      A                      A
 Frequencies --    635.5757               691.3195               716.2690
 Red. masses --      6.3767                 3.9234                 1.8011
 Frc consts  --      1.5177                 1.1048                 0.5444
 IR Inten    --      0.0086                 0.5214                23.6134
  Atom  AN      X      Y      Z        X      Y      Z        X      Y      Z
     1   8     0.00   0.01  -0.00     0.11   0.13  -0.00    -0.00  -0.00   0.00
     2   6     0.01  -0.01   0.00     0.24  -0.15   0.00    -0.00  -0.00  -0.00
     3   6    -0.01  -0.00   0.01    -0.08  -0.02  -0.05    -0.01   0.00   0.00
     4   6    -0.01  -0.02   0.03    -0.13   0.03   0.00     0.00  -0.00   0.00
     5   6     0.01  -0.02   0.00     0.04  -0.01   0.00    -0.00   0.00  -0.00
     6   6    -0.01  -0.14   0.00     0.13  -0.02   0.00    -0.00  -0.00  -0.12
     7   6     0.20  -0.24   0.00     0.05   0.12  -0.00    -0.00   0.00   0.08
     8   6     0.30   0.20  -0.00     0.04   0.10  -0.00    -0.00  -0.00  -0.15
     9   6     0.02   0.14  -0.00    -0.13   0.02  -0.00     0.00   0.00   0.07
    10   6    -0.21   0.28  -0.00     0.01  -0.12   0.00     0.00  -0.00  -0.14
    11   6    -0.27  -0.16   0.00     0.02  -0.09   0.00     0.00   0.00   0.08
    12   6    -0.01  -0.02  -0.03    -0.13   0.03  -0.00    -0.00   0.00   0.00
    13   6    -0.01  -0.00  -0.01    -0.08  -0.02   0.05     0.01  -0.00   0.00
    14   1    -0.03   0.02   0.00    -0.16  -0.06  -0.13    -0.01  -0.02  -0.01
    15   1     0.00  -0.00  -0.01    -0.31  -0.03  -0.19    -0.02   0.00   0.02
    16   1    -0.01  -0.00   0.02    -0.14  -0.16   0.08     0.00  -0.01   0.01
    17   1    -0.02  -0.02   0.05    -0.28   0.00  -0.12    -0.02  -0.00   0.00
    18   1     0.04  -0.02   0.00     0.12  -0.00  -0.00    -0.00   0.00   0.00
    19   1     0.04  -0.29   0.00    -0.04   0.09  -0.00     0.00   0.00   0.52
    20   1     0.19   0.29  -0.00     0.18  -0.01   0.00    -0.00   0.00   0.19
    21   1    -0.07  -0.29   0.00    -0.13   0.03   0.00     0.00   0.00   0.56
    22   1    -0.04   0.34  -0.00     0.14  -0.07   0.00     0.00   0.00   0.20
    23   1    -0.16  -0.26   0.00    -0.08  -0.00   0.00    -0.00   0.00   0.51
    24   1    -0.01  -0.00  -0.02    -0.14  -0.16  -0.08    -0.00   0.01   0.01
    25   1    -0.02  -0.02  -0.05    -0.28   0.00   0.12     0.02   0.00   0.00
    26   1     0.00  -0.00   0.01    -0.31  -0.03   0.19     0.02  -0.00   0.02
    27   1    -0.03   0.02  -0.00    -0.16  -0.06   0.13     0.01   0.02  -0.01
                     19                     20                     21
                      A                      A                      A
 Frequencies --    750.6358               768.4719               775.4860
 Red. masses --      3.3027                 1.5377                 1.9337
 Frc consts  --      1.0964                 0.5350                 0.6852
 IR Inten    --      2.6410                 7.1661                24.5777
  Atom  AN      X      Y      Z        X      Y      Z        X      Y      Z
     1   8     0.10   0.02  -0.00     0.00  -0.00  -0.02    -0.00  -0.00  -0.01
     2   6     0.01   0.15  -0.00     0.00  -0.00  -0.08     0.00  -0.00  -0.00
     3   6    -0.00  -0.06  -0.23     0.06   0.09  -0.01     0.04   0.01  -0.01
     4   6    -0.04  -0.01  -0.13     0.06   0.05   0.04     0.01   0.03  -0.03
     5   6     0.01  -0.09   0.00     0.00   0.00   0.05     0.00   0.00   0.03
     6   6    -0.03   0.01  -0.00    -0.00  -0.00  -0.02    -0.00   0.00   0.21
     7   6    -0.02  -0.03   0.00    -0.00   0.00   0.01    -0.00  -0.00  -0.09
     8   6    -0.01  -0.04   0.00    -0.00  -0.00   0.00     0.00   0.00   0.00
     9   6     0.04  -0.01   0.00     0.00   0.00   0.02     0.00  -0.00  -0.13
    10   6    -0.02   0.06  -0.00    -0.00   0.00   0.00    -0.00   0.00   0.01
    11   6    -0.01   0.05  -0.00    -0.00   0.00   0.01    -0.00  -0.00  -0.10
    12   6    -0.04  -0.01   0.13    -0.06  -0.05   0.04    -0.01  -0.03  -0.03
    13   6    -0.00  -0.06   0.23    -0.06  -0.09  -0.01    -0.04  -0.01  -0.01
    14   1     0.03  -0.19  -0.29     0.11  -0.28  -0.18     0.09  -0.04  -0.00
    15   1     0.03  -0.08  -0.04    -0.18   0.03   0.33     0.00   0.00   0.04
    16   1    -0.28   0.32  -0.15     0.14  -0.28   0.14     0.02  -0.03  -0.01
    17   1     0.12   0.03   0.18    -0.18   0.01  -0.23    -0.01   0.02  -0.07
    18   1    -0.03  -0.09   0.00    -0.00  -0.00  -0.04     0.00  -0.00  -0.01
    19   1     0.02  -0.02   0.00    -0.00  -0.00  -0.02     0.00   0.00   0.08
    20   1    -0.05  -0.00   0.00    -0.00  -0.00  -0.09    -0.00   0.00   0.54
    21   1     0.04  -0.03   0.00     0.00  -0.00  -0.09     0.00   0.00   0.53
    22   1    -0.09   0.03   0.00    -0.00  -0.00  -0.08     0.00   0.00   0.54
    23   1     0.01   0.04  -0.00     0.00  -0.00  -0.02    -0.00   0.00   0.08
    24   1    -0.28   0.32   0.15    -0.14   0.28   0.14    -0.02   0.03  -0.01
    25   1     0.12   0.03  -0.18     0.18  -0.01  -0.23     0.01  -0.02  -0.07
    26   1     0.03  -0.08   0.04     0.18  -0.03   0.33    -0.00  -0.00   0.04
    27   1     0.03  -0.19   0.29    -0.11   0.28  -0.18    -0.09   0.04  -0.00
                     22                     23                     24
                      A                      A                      A
 Frequencies --    831.1296               859.5127               886.8282
 Red. masses --      2.3165                 1.2477                 3.0485
 Frc consts  --      0.9428                 0.5431                 1.4126
 IR Inten    --      3.2332                 0.0033                 0.6876
  Atom  AN      X      Y      Z        X      Y      Z        X      Y      Z
     1   8     0.04  -0.01   0.00    -0.00   0.00  -0.00     0.02   0.00  -0.00
     2   6    -0.04   0.11  -0.00     0.00  -0.00  -0.00    -0.01   0.06  -0.00
     3   6    -0.02  -0.07  -0.02     0.00   0.00   0.00    -0.09  -0.03  -0.05
     4   6    -0.01  -0.05   0.05    -0.00  -0.00  -0.00     0.04  -0.04   0.15
     5   6    -0.10   0.19  -0.00    -0.00  -0.00  -0.00     0.24   0.08  -0.00
     6   6    -0.00   0.01   0.00    -0.00   0.00   0.00     0.05  -0.01  -0.00
     7   6     0.03   0.03  -0.00     0.00   0.00   0.08    -0.04  -0.06   0.00
     8   6     0.05   0.06  -0.00    -0.00   0.00   0.07    -0.10  -0.08   0.00
     9   6    -0.05   0.02  -0.00     0.00   0.00   0.00     0.04  -0.01   0.00
    10   6     0.05  -0.10   0.00    -0.00  -0.00  -0.07    -0.04   0.10  -0.00
    11   6     0.01  -0.10   0.00     0.00  -0.00  -0.08    -0.01   0.07  -0.00
    12   6    -0.01  -0.05  -0.05     0.00   0.00  -0.00     0.04  -0.04  -0.15
    13   6    -0.02  -0.07   0.02    -0.00  -0.00   0.00    -0.09  -0.03   0.05
    14   1    -0.23   0.20  -0.01     0.00  -0.00  -0.00    -0.31   0.03  -0.15
    15   1     0.36  -0.03  -0.13     0.00  -0.00   0.01    -0.03  -0.02  -0.08
    16   1    -0.15   0.10   0.06     0.00   0.01  -0.01    -0.13  -0.21   0.32
    17   1     0.32  -0.02   0.03    -0.01  -0.00   0.01     0.03  -0.05  -0.03
    18   1    -0.16   0.18  -0.00    -0.00   0.00   0.02     0.37   0.09  -0.00
    19   1     0.00   0.02  -0.00    -0.00  -0.00  -0.51    -0.03  -0.06   0.00
    20   1     0.11   0.01  -0.00     0.00  -0.00  -0.47    -0.20  -0.01  -0.00
    21   1    -0.04   0.06  -0.00     0.00  -0.00   0.00     0.04   0.02  -0.00
    22   1     0.18  -0.06   0.00     0.00   0.00   0.48    -0.15   0.07   0.00
    23   1     0.02  -0.11   0.00    -0.00   0.00   0.51    -0.01   0.07  -0.00
    24   1    -0.15   0.10  -0.06    -0.00  -0.01  -0.01    -0.13  -0.21  -0.32
    25   1     0.32  -0.02  -0.03     0.01   0.00   0.01     0.03  -0.05   0.03
    26   1     0.36  -0.03   0.13    -0.00   0.00   0.01    -0.03  -0.02   0.08
    27   1    -0.23   0.20   0.01    -0.00   0.00  -0.00    -0.31   0.03   0.15
                     25                     26                     27
                      A                      A                      A
 Frequencies --    917.4343               924.1182               960.9076
 Red. masses --      1.4833                 1.3522                 2.0077
 Frc consts  --      0.7356                 0.6804                 1.0922
 IR Inten    --      3.5019                 1.0488                 5.3975
  Atom  AN      X      Y      Z        X      Y      Z        X      Y      Z
     1   8    -0.00   0.00   0.01     0.00  -0.00  -0.01     0.00   0.00   0.03
     2   6    -0.00  -0.00  -0.04     0.00  -0.00  -0.02    -0.00  -0.00  -0.08
     3   6    -0.04   0.04   0.01     0.02   0.08   0.01    -0.11   0.02   0.03
     4   6     0.03  -0.05   0.02    -0.02  -0.07  -0.04     0.10  -0.04   0.05
     5   6     0.00  -0.00  -0.06     0.00   0.00   0.01     0.00  -0.00  -0.11
     6   6     0.00  -0.00  -0.04     0.00   0.00   0.03     0.00   0.00   0.09
     7   6     0.00   0.00   0.09    -0.00  -0.00  -0.03    -0.00  -0.00  -0.07
     8   6    -0.00  -0.00  -0.01    -0.00  -0.00  -0.00    -0.00   0.00   0.02
     9   6    -0.00  -0.00  -0.09     0.00   0.00   0.03     0.00   0.00   0.04
    10   6    -0.00   0.00  -0.00    -0.00   0.00   0.01     0.00  -0.00  -0.04
    11   6    -0.00   0.00   0.08     0.00  -0.00  -0.03    -0.00  -0.00  -0.02
    12   6    -0.03   0.05   0.02     0.02   0.07  -0.04    -0.10   0.04   0.05
    13   6     0.04  -0.04   0.01    -0.02  -0.08   0.01     0.11  -0.02   0.03
    14   1    -0.14  -0.04  -0.09     0.06  -0.15  -0.09    -0.40   0.08  -0.11
    15   1     0.01   0.03   0.14     0.07   0.05   0.32    -0.01   0.03  -0.00
    16   1     0.09   0.07  -0.06    -0.02   0.28  -0.19     0.29  -0.08  -0.04
    17   1     0.06  -0.04   0.12     0.04  -0.04   0.34     0.16  -0.04  -0.06
    18   1     0.00   0.00   0.06     0.00   0.00   0.32     0.00  -0.00  -0.19
    19   1    -0.00  -0.00  -0.50     0.00   0.00   0.19     0.00   0.00   0.36
    20   1    -0.00   0.00   0.07    -0.00   0.00   0.01    -0.00  -0.00  -0.08
    21   1     0.00   0.00   0.55    -0.00  -0.00  -0.20     0.00  -0.00  -0.26
    22   1    -0.00   0.00   0.03    -0.00  -0.00  -0.03     0.00   0.00   0.24
    23   1     0.00  -0.00  -0.47    -0.00   0.00   0.17    -0.00   0.00   0.08
    24   1    -0.09  -0.07  -0.06     0.02  -0.28  -0.19    -0.29   0.08  -0.04
    25   1    -0.06   0.04   0.12    -0.04   0.04   0.34    -0.16   0.04  -0.06
    26   1    -0.01  -0.03   0.14    -0.07  -0.05   0.32     0.01  -0.03  -0.00
    27   1     0.14   0.04  -0.09    -0.06   0.15  -0.09     0.40  -0.08  -0.11
                     28                     29                     30
                      A                      A                      A
 Frequencies --    965.9898               993.4062               994.8274
 Red. masses --      1.3776                 2.4634                 1.2507
 Frc consts  --      0.7574                 1.4323                 0.7293
 IR Inten    --      0.3664                 5.0598                 0.0008
  Atom  AN      X      Y      Z        X      Y      Z        X      Y      Z
     1   8    -0.00   0.00   0.01     0.05   0.04  -0.00    -0.00  -0.00   0.00
     2   6    -0.00  -0.00  -0.02     0.04  -0.01   0.00    -0.00  -0.00  -0.01
     3   6    -0.02   0.00   0.01    -0.10  -0.05   0.14    -0.01   0.00   0.00
     4   6     0.02  -0.01   0.01    -0.03  -0.01  -0.13     0.01  -0.00  -0.00
     5   6     0.00  -0.00  -0.02     0.09  -0.03   0.00    -0.00   0.00  -0.00
     6   6    -0.00   0.00   0.02     0.07  -0.03   0.00    -0.00   0.00   0.00
     7   6     0.00  -0.00   0.07     0.00  -0.01   0.00    -0.00  -0.00  -0.04
     8   6     0.00  -0.00  -0.09    -0.04  -0.04   0.00     0.00   0.00   0.07
     9   6    -0.00   0.00   0.01    -0.01  -0.01  -0.00     0.00  -0.00  -0.08
    10   6     0.00   0.00   0.09    -0.03   0.07  -0.00     0.00   0.00   0.08
    11   6     0.00  -0.00  -0.09     0.02   0.04  -0.00    -0.00  -0.00  -0.04
    12   6    -0.02   0.01   0.01    -0.03  -0.01   0.13    -0.01   0.00  -0.00
    13   6     0.02  -0.00   0.01    -0.10  -0.05  -0.14     0.01  -0.00   0.00
    14   1    -0.08   0.02  -0.02    -0.15   0.27   0.28    -0.03   0.01  -0.01
    15   1    -0.01   0.00  -0.01     0.21   0.00  -0.14    -0.00   0.00  -0.00
    16   1     0.07  -0.02  -0.01    -0.03   0.21  -0.23     0.03  -0.00  -0.01
    17   1     0.02  -0.01  -0.02     0.24   0.03   0.02     0.01  -0.00  -0.00
    18   1     0.00  -0.00  -0.03     0.24  -0.02   0.00    -0.00  -0.00  -0.01
    19   1    -0.00  -0.00  -0.41    -0.01  -0.02   0.00     0.00   0.00   0.28
    20   1    -0.00   0.00   0.52    -0.04  -0.04  -0.00     0.00  -0.00  -0.49
    21   1    -0.00  -0.00  -0.09    -0.02  -0.03   0.00     0.00   0.00   0.54
    22   1    -0.00  -0.00  -0.47    -0.09   0.05  -0.00    -0.00  -0.00  -0.52
    23   1    -0.00   0.00   0.52     0.01   0.05   0.00    -0.00   0.00   0.30
    24   1    -0.07   0.02  -0.01    -0.03   0.21   0.23    -0.03   0.00  -0.01
    25   1    -0.02   0.01  -0.02     0.24   0.03  -0.02    -0.01   0.00  -0.00
    26   1     0.01  -0.00  -0.01     0.21   0.00   0.14     0.00  -0.00  -0.00
    27   1     0.08  -0.02  -0.02    -0.15   0.27  -0.28     0.03  -0.01  -0.01
                     31                     32                     33
                      A                      A                      A
 Frequencies --   1017.6721              1023.3789              1061.2109
 Red. masses --      5.7516                 2.1268                 2.1757
 Frc consts  --      3.5096                 1.3124                 1.4436
 IR Inten    --      1.4810                 1.7873                 1.9495
  Atom  AN      X      Y      Z        X      Y      Z        X      Y      Z
     1   8     0.01   0.01  -0.00     0.01   0.01  -0.00    -0.01  -0.00   0.00
     2   6     0.01  -0.00  -0.00     0.02  -0.00  -0.00     0.00  -0.01   0.00
     3   6    -0.05   0.01   0.00    -0.13   0.04  -0.03     0.00   0.01  -0.01
     4   6     0.05  -0.01  -0.02     0.15  -0.02  -0.03     0.01  -0.00   0.00
     5   6     0.00  -0.01  -0.00    -0.07  -0.03  -0.00    -0.04   0.01  -0.00
     6   6     0.03   0.00   0.00    -0.04   0.01  -0.00     0.02   0.00   0.00
     7   6    -0.11   0.36  -0.00     0.01  -0.04   0.00     0.07   0.03  -0.00
     8   6    -0.04  -0.07  -0.00     0.03   0.03  -0.00    -0.06  -0.17   0.00
     9   6     0.34  -0.06   0.00    -0.03   0.01  -0.00    -0.16   0.03  -0.00
    10   6    -0.02   0.08  -0.00     0.01  -0.04   0.00     0.02   0.18  -0.00
    11   6    -0.23  -0.30   0.00     0.02   0.03  -0.00     0.05  -0.07   0.00
    12   6     0.05  -0.01   0.02     0.15  -0.02   0.03     0.01  -0.00  -0.00
    13   6    -0.05   0.01  -0.00    -0.13   0.04   0.03     0.00   0.01   0.01
    14   1    -0.12   0.02  -0.04    -0.32  -0.02  -0.18     0.00  -0.03  -0.04
    15   1    -0.07   0.01  -0.04    -0.26   0.03  -0.08    -0.04   0.01   0.02
    16   1     0.12   0.00  -0.06     0.40  -0.02  -0.17     0.04   0.00  -0.01
    17   1     0.05  -0.01  -0.01     0.14  -0.02  -0.08     0.00  -0.01   0.00
    18   1    -0.09  -0.02   0.00    -0.17  -0.04  -0.00    -0.11   0.00   0.00
    19   1    -0.04   0.40  -0.00    -0.01  -0.05   0.00     0.39   0.14  -0.00
    20   1     0.02  -0.10   0.00     0.02   0.04  -0.00     0.23  -0.43   0.00
    21   1     0.35  -0.07   0.00    -0.04  -0.00  -0.00    -0.17   0.04  -0.00
    22   1     0.05   0.08  -0.00     0.01  -0.04   0.00     0.40   0.32  -0.00
    23   1    -0.16  -0.38   0.00     0.03   0.02  -0.00     0.31  -0.28   0.00
    24   1     0.12   0.00   0.06     0.40  -0.02   0.17     0.04   0.00   0.01
    25   1     0.05  -0.01   0.01     0.14  -0.02   0.08     0.00  -0.01  -0.00
    26   1    -0.07   0.01   0.04    -0.26   0.03   0.08    -0.04   0.01  -0.02
    27   1    -0.12   0.02   0.04    -0.32  -0.02   0.18     0.00  -0.03   0.04
                     34                     35                     36
                      A                      A                      A
 Frequencies --   1073.2365              1103.3927              1119.1623
 Red. masses --      1.6268                 1.8245                 1.6365
 Frc consts  --      1.1040                 1.3087                 1.2077
 IR Inten    --      2.0729                 2.6628                 0.8461
  Atom  AN      X      Y      Z        X      Y      Z        X      Y      Z
     1   8     0.00   0.00   0.00    -0.01   0.01  -0.00     0.00  -0.00   0.00
     2   6    -0.00   0.00   0.06     0.03  -0.06   0.00    -0.00   0.00   0.00
     3   6    -0.07   0.01  -0.02    -0.01   0.05   0.01    -0.07   0.02   0.00
     4   6     0.10   0.00  -0.07    -0.00  -0.06  -0.03     0.05   0.03  -0.08
     5   6    -0.00   0.00   0.12     0.04   0.06   0.00    -0.00   0.00   0.16
     6   6    -0.00  -0.00  -0.01     0.04   0.07  -0.00    -0.00  -0.00  -0.03
     7   6    -0.00   0.00   0.00     0.08  -0.08   0.00    -0.00   0.00   0.01
     8   6     0.00   0.00   0.00    -0.07  -0.05   0.00     0.00  -0.00   0.00
     9   6     0.00  -0.00  -0.00     0.02   0.08  -0.00    -0.00  -0.00  -0.00
    10   6    -0.00  -0.00  -0.00     0.03  -0.06   0.00     0.00   0.00   0.00
    11   6     0.00   0.00   0.01    -0.10  -0.03   0.00     0.00   0.00   0.01
    12   6    -0.10  -0.00  -0.07    -0.00  -0.06   0.03    -0.05  -0.03  -0.08
    13   6     0.07  -0.01  -0.02    -0.01   0.05  -0.01     0.07  -0.02   0.00
    14   1     0.09  -0.01   0.07     0.04  -0.07  -0.02    -0.07   0.02   0.00
    15   1    -0.43  -0.00  -0.24    -0.04   0.04   0.12     0.30   0.04   0.21
    16   1     0.21   0.03  -0.13    -0.09   0.11  -0.06    -0.23   0.03   0.08
    17   1    -0.06  -0.01   0.05     0.03  -0.05   0.18     0.44   0.06  -0.26
    18   1    -0.00   0.00   0.54    -0.18   0.03  -0.00     0.00  -0.00  -0.04
    19   1    -0.00  -0.00  -0.02     0.35   0.00  -0.00    -0.00  -0.00  -0.05
    20   1     0.00   0.00   0.00    -0.29   0.13  -0.00     0.00  -0.00  -0.00
    21   1     0.00  -0.00  -0.00     0.11   0.52  -0.00    -0.00  -0.00   0.00
    22   1    -0.00  -0.00   0.01     0.22  -0.01   0.00     0.00   0.00  -0.00
    23   1     0.00  -0.00  -0.05    -0.36   0.19  -0.00     0.00  -0.00  -0.00
    24   1    -0.21  -0.03  -0.13    -0.09   0.11   0.06     0.23  -0.03   0.08
    25   1     0.06   0.01   0.05     0.03  -0.05  -0.18    -0.44  -0.06  -0.26
    26   1     0.43   0.00  -0.24    -0.04   0.04  -0.12    -0.30  -0.04   0.21
    27   1    -0.09   0.01   0.07     0.04  -0.07   0.02     0.07  -0.02   0.00
                     37                     38                     39
                      A                      A                      A
 Frequencies --   1133.6209              1185.3288              1193.2313
 Red. masses --      2.0145                 2.2350                 1.0999
 Frc consts  --      1.5253                 1.8502                 0.9226
 IR Inten    --      1.3377                43.0099                 0.0703
  Atom  AN      X      Y      Z        X      Y      Z        X      Y      Z
     1   8    -0.03   0.01  -0.00    -0.00  -0.00  -0.03     0.00   0.00  -0.00
     2   6     0.06  -0.11   0.00    -0.00   0.00   0.22    -0.00   0.00   0.00
     3   6    -0.02   0.11   0.00    -0.04   0.05  -0.10    -0.00  -0.00   0.00
     4   6    -0.01  -0.10  -0.02     0.07  -0.07   0.03     0.00   0.00   0.00
     5   6     0.04   0.11  -0.00    -0.00  -0.00  -0.11     0.01  -0.00  -0.00
     6   6    -0.00  -0.01   0.00     0.00   0.00   0.03    -0.01  -0.00   0.00
     7   6    -0.06   0.02  -0.00    -0.00  -0.00  -0.01    -0.01  -0.01   0.00
     8   6     0.03   0.03  -0.00    -0.00   0.00  -0.00     0.04  -0.03   0.00
     9   6    -0.01  -0.04   0.00    -0.00  -0.00   0.00     0.01   0.06  -0.00
    10   6    -0.03   0.03  -0.00     0.00   0.00  -0.00    -0.04  -0.02   0.00
    11   6     0.07  -0.00  -0.00     0.00  -0.00  -0.01     0.00  -0.01   0.00
    12   6    -0.01  -0.10   0.02    -0.07   0.07   0.03     0.00   0.00  -0.00
    13   6    -0.02   0.11  -0.00     0.04  -0.05  -0.10    -0.00  -0.00  -0.00
    14   1     0.03  -0.14  -0.10     0.13  -0.14  -0.09     0.01   0.00   0.01
    15   1    -0.00   0.08   0.28    -0.23   0.01   0.04    -0.00  -0.00  -0.00
    16   1    -0.20   0.17  -0.03    -0.44  -0.03   0.29    -0.01  -0.00   0.00
    17   1     0.18  -0.07   0.20     0.08  -0.07   0.07    -0.00   0.00  -0.00
    18   1    -0.09   0.10  -0.00    -0.00  -0.00  -0.29     0.01  -0.00  -0.00
    19   1    -0.32  -0.07   0.00    -0.00   0.00   0.02    -0.16  -0.06   0.00
    20   1     0.11  -0.04   0.00    -0.00   0.00   0.00     0.40  -0.34   0.00
    21   1    -0.06  -0.32   0.00    -0.00  -0.00  -0.00     0.13   0.65  -0.00
    22   1    -0.17  -0.02   0.00     0.00   0.00   0.00    -0.44  -0.15   0.00
    23   1     0.27  -0.17   0.00    -0.00   0.00   0.04     0.12  -0.11   0.00
    24   1    -0.20   0.17   0.03     0.44   0.03   0.29    -0.01  -0.00  -0.00
    25   1     0.18  -0.07  -0.20    -0.08   0.07   0.07    -0.00   0.00   0.00
    26   1    -0.00   0.08  -0.28     0.23  -0.01   0.04    -0.00  -0.00   0.00
    27   1     0.03  -0.14   0.10    -0.13   0.14  -0.09     0.01   0.00  -0.01
                     40                     41                     42
                      A                      A                      A
 Frequencies --   1217.4143              1223.6623              1231.5225
 Red. masses --      1.1398                 1.6020                 1.7602
 Frc consts  --      0.9953                 1.4133                 1.5729
 IR Inten    --      0.0761                 1.0791                 2.8410
  Atom  AN      X      Y      Z        X      Y      Z        X      Y      Z
     1   8    -0.00  -0.00   0.00     0.03   0.01  -0.00    -0.05  -0.02   0.00
     2   6     0.00  -0.00   0.00    -0.03   0.06  -0.00     0.02  -0.05   0.00
     3   6     0.00   0.00  -0.00     0.00  -0.03   0.00     0.04   0.02  -0.02
     4   6    -0.00   0.00   0.00     0.01  -0.01  -0.00    -0.04   0.04   0.01
     5   6    -0.01  -0.01   0.00    -0.04   0.07  -0.00    -0.10  -0.01   0.00
     6   6    -0.01  -0.00   0.00     0.17   0.02  -0.00     0.17  -0.06   0.00
     7   6     0.06   0.02  -0.00    -0.00  -0.03   0.00     0.03  -0.00   0.00
     8   6    -0.04   0.03  -0.00    -0.03  -0.03   0.00    -0.05  -0.03   0.00
     9   6    -0.01   0.00  -0.00     0.01   0.00  -0.00     0.01  -0.00   0.00
    10   6    -0.05  -0.02   0.00    -0.05   0.04  -0.00    -0.03   0.05  -0.00
    11   6     0.04  -0.03   0.00     0.05  -0.04   0.00     0.02   0.01  -0.00
    12   6    -0.00   0.00  -0.00     0.01  -0.01   0.00    -0.04   0.04  -0.01
    13   6     0.00   0.00   0.00     0.00  -0.03  -0.00     0.04   0.02   0.02
    14   1    -0.02  -0.01  -0.02     0.16   0.05   0.14    -0.33  -0.06  -0.29
    15   1     0.02   0.00   0.02    -0.25  -0.03  -0.19     0.31   0.02   0.19
    16   1     0.01  -0.00  -0.00     0.04   0.01  -0.02     0.16   0.00  -0.09
    17   1     0.03   0.01  -0.03    -0.18  -0.03   0.12     0.07   0.04  -0.13
    18   1     0.05  -0.01   0.00    -0.57   0.02  -0.00    -0.00   0.00   0.00
    19   1     0.49   0.17  -0.00    -0.31  -0.15   0.00    -0.19  -0.08   0.00
    20   1    -0.35   0.31  -0.00    -0.19   0.10  -0.00    -0.10   0.01  -0.00
    21   1    -0.00   0.03  -0.00    -0.01  -0.08   0.00     0.02   0.05  -0.00
    22   1    -0.48  -0.16   0.00    -0.21  -0.01   0.00    -0.17   0.00  -0.00
    23   1     0.37  -0.32   0.00     0.05  -0.03   0.00    -0.20   0.20  -0.00
    24   1     0.01  -0.00   0.00     0.04   0.01   0.02     0.16   0.00   0.09
    25   1     0.03   0.01   0.03    -0.18  -0.03  -0.12     0.07   0.04   0.13
    26   1     0.02   0.00  -0.02    -0.25  -0.03   0.19     0.31   0.02  -0.19
    27   1    -0.02  -0.01   0.02     0.16   0.05  -0.14    -0.33  -0.06   0.29
                     43                     44                     45
                      A                      A                      A
 Frequencies --   1275.0065              1289.3969              1312.8950
 Red. masses --      1.5252                 1.4085                 1.8991
 Frc consts  --      1.4609                 1.3797                 1.9286
 IR Inten    --      9.8148                 1.0512                 3.6663
  Atom  AN      X      Y      Z        X      Y      Z        X      Y      Z
     1   8    -0.00  -0.00  -0.03    -0.01  -0.02   0.00    -0.02  -0.01   0.00
     2   6    -0.00   0.00   0.17    -0.02   0.03  -0.00     0.02  -0.02   0.00
     3   6     0.07  -0.01  -0.02     0.07  -0.02   0.02    -0.00  -0.02   0.01
     4   6    -0.03   0.03  -0.02    -0.05  -0.04  -0.01     0.00   0.06  -0.02
     5   6    -0.00   0.00   0.04     0.07   0.09  -0.00     0.11  -0.05   0.00
     6   6     0.00  -0.00  -0.01    -0.04  -0.00  -0.00    -0.04   0.17  -0.00
     7   6    -0.00  -0.00   0.00    -0.01   0.00  -0.00    -0.06  -0.05   0.00
     8   6     0.00  -0.00   0.00     0.01   0.01  -0.00     0.06  -0.04   0.00
     9   6     0.00   0.00  -0.00    -0.00  -0.00   0.00     0.00   0.05  -0.00
    10   6    -0.00   0.00   0.00     0.01  -0.01   0.00    -0.05  -0.05   0.00
    11   6     0.00   0.00   0.00     0.00   0.00  -0.00     0.02  -0.05   0.00
    12   6     0.03  -0.03  -0.02    -0.05  -0.04   0.01     0.00   0.06   0.02
    13   6    -0.07   0.01  -0.02     0.07  -0.02  -0.02    -0.00  -0.02  -0.01
    14   1    -0.52  -0.06  -0.40    -0.24  -0.00  -0.15    -0.24   0.02  -0.11
    15   1     0.03  -0.01  -0.02    -0.13  -0.03  -0.12     0.32  -0.00   0.11
    16   1     0.11   0.03  -0.10     0.33   0.10  -0.28    -0.01  -0.04   0.03
    17   1    -0.03   0.03  -0.07    -0.27  -0.04   0.25    -0.21   0.04  -0.00
    18   1    -0.00   0.00   0.10     0.24   0.10  -0.00    -0.47  -0.10   0.00
    19   1    -0.00  -0.00  -0.01     0.06   0.03  -0.00    -0.16  -0.08   0.00
    20   1    -0.00   0.00  -0.00     0.05  -0.03   0.00    -0.11   0.10  -0.00
    21   1     0.00  -0.00  -0.00    -0.01  -0.03   0.00    -0.01  -0.04   0.00
    22   1     0.00   0.00  -0.00     0.00  -0.01   0.00     0.23   0.04  -0.00
    23   1    -0.00  -0.00  -0.01     0.03  -0.03   0.00     0.25  -0.25   0.00
    24   1    -0.11  -0.03  -0.10     0.33   0.10   0.28    -0.01  -0.04  -0.03
    25   1     0.03  -0.03  -0.07    -0.27  -0.04  -0.25    -0.21   0.04   0.00
    26   1    -0.03   0.01  -0.02    -0.13  -0.03   0.12     0.32  -0.00  -0.11
[...]
 1,-0.00005411,-0.00009151,0.00005507,-0.00004949,0.00000459,-0.0000383
 7,0.00000864,-0.00001100,-0.00000795,0.00001325,0.00001513,0.00000308,
 -0.00000004,0.00000355,0.00001230,0.00002733,0.,-0.00004250,0.00097945
 ,0.00000003,-0.00028141,0.32881212,0.,-0.00001824,0.,0.,0.00004569,0.,
 -0.00000129,-0.00000102,-0.00002234,-0.00003308,0.00007882,-0.00006111
 ,0.00000002,0.00007202,0.,0.00000003,0.00729150,0.00000012,0.00000016,
 0.00221630,-0.00000004,-0.00000216,-0.03559358,0.00000093,-0.00000005,
 0.00254092,-0.00000008,-0.00000008,0.00703072,0.,-0.00000002,-0.000355
 14,0.00000003,0.00003309,0.00007882,0.00006112,0.00000129,-0.00000102,
 0.00002234,-0.00000150,0.00000244,-0.00000220,-0.00000365,0.00000271,-
 0.00000203,0.00000394,-0.00001191,-0.00000352,0.00000207,-0.00002388,-
 0.00000479,0.,-0.00004543,0.,0.,-0.00382694,-0.00000006,0.00000208,0.0
 2540952,-0.00001562,0.,0.00000423,0.00003079,0.,0.00000085,-0.00002872
 ,0.00005024,0.00001770,-0.00007185,-0.00008249,-0.00013677,-0.00075083
 ,0.,0.00061915,-0.00300561,0.00000006,-0.00266705,-0.02149608,-0.00000
 012,0.01101746,0.08361031,0.00000076,-0.08867331,0.03149910,0.00000015
 ,-0.00448665,-0.00020594,0.00000009,-0.00589734,-0.00065255,0.,-0.0010
 9728,-0.00007185,0.00008249,-0.00013677,-0.00002872,-0.00005024,0.0000
 1770,-0.00001726,0.00000252,-0.00001616,0.00000298,-0.00000041,0.00000
 058,-0.00000027,0.00001695,0.00000478,-0.00000936,-0.00000235,0.000010
 17,0.00003311,0.,-0.00001556,0.00042964,-0.00000003,0.00096621,-0.0905
 5837,-0.00000086,0.08956451,-0.00006976,0.,0.00000187,0.00007619,0.,-0
 .00000735,0.00001154,-0.00000126,-0.00000614,-0.00003760,-0.00001838,0
 .00004094,0.00009450,0.,-0.00001521,-0.00020368,0.,0.00105683,0.000762
 04,0.,0.00175569,0.00883695,-0.00000003,0.00610764,-0.21468085,0.00000
 078,-0.13832907,-0.01737042,0.00000015,-0.02283066,-0.00420642,-0.0000
 0006,0.00357853,-0.00003760,0.00001838,0.00004094,0.00001154,0.0000012
 7,-0.00000614,-0.00001513,0.00000358,-0.00000579,-0.00000505,-0.000006
 49,-0.00001316,0.00000704,0.00000434,-0.00001366,0.00005166,-0.0000282
 8,-0.00002662,-0.00001858,0.,-0.00007537,0.00031910,0.,0.00039854,0.00
 083942,0.,-0.00045113,0.22560405,0.,-0.00000193,0.,0.,0.00000391,0.,0.
 00004184,-0.00003505,-0.00003622,0.00008973,0.00004792,-0.00000668,0.,
 -0.00109530,0.,-0.00000004,-0.00064081,0.00000005,0.00000006,0.0073218
 2,0.00000009,0.00000008,0.00210414,-0.00000006,0.00000070,-0.03495636,
 0.00000096,0.00000008,0.00201048,-0.00000005,-0.00000006,0.00704786,-0
 .00000002,-0.00008973,0.00004791,0.00000669,-0.00004184,-0.00003505,0.
 00003622,0.00001445,0.00000083,0.00001276,-0.00000698,0.00000263,-0.00
 000468,0.00000197,0.00001992,0.00001899,0.00003959,-0.00002584,-0.0000
 1286,0.,0.00001669,0.,0.,0.00036425,0.,0.00000002,-0.00390624,-0.00000
 004,-0.00000086,0.02520181,-0.00005968,0.,0.00000408,0.00006687,0.,-0.
 00000936,-0.00001598,0.00001001,0.00001543,-0.00000812,-0.00004912,0.0
 0001019,-0.00005177,0.,0.00004420,0.00099057,0.,-0.00046804,0.00315406
 ,0.00000007,-0.00476861,-0.02570128,0.00000011,-0.01565348,-0.13833196
 ,0.00000078,-0.18485784,0.00897110,-0.00000006,0.01059732,0.00227133,0
 .00000004,0.00019941,-0.00000812,0.00004912,0.00001019,-0.00001598,-0.
 00001001,0.00001543,-0.00001620,0.00000288,-0.00000904,0.00000755,-0.0
 0000576,0.00000413,0.00000630,-0.00000865,-0.00000276,-0.00002942,0.00
 002349,0.00000541,0.00002321,0.,0.00008457,-0.00131632,0.,-0.00097265,
 0.00032990,-0.00000003,0.00109921,0.14968954,-0.00000088,0.19342305,-0
 .00003223,0.,0.00001007,0.00005004,0.,-0.00000718,-0.00001965,0.000016
 47,0.00001179,0.00009173,-0.00008009,-0.00000886,0.00075137,0.,-0.0009
 8456,-0.00356396,0.,-0.00270668,-0.00126138,0.,-0.00047435,-0.00569426
 ,-0.00000004,0.00060775,-0.00112481,-0.00000030,0.03132398,-0.07317569
 ,-0.00000076,0.05781448,0.00916297,0.00000025,-0.02467147,0.00009173,0
 .00008009,-0.00000886,-0.00001965,-0.00001647,0.00001179,-0.00001661,0
 .00000360,-0.00000555,0.00000609,-0.00000411,0.00001593,-0.00001061,0.
 00001397,0.00000387,-0.00003397,0.00002539,0.00002089,-0.00026754,0.,-
 0.00032030,0.00020484,0.,0.00005047,-0.00021300,0.00000001,0.00169444,
 0.00106525,0.00000001,-0.00047888,0.07298545,0.,-0.00001423,0.,0.,0.00
 002727,0.,-0.00002425,-0.00001525,-0.00001131,0.00009833,-0.00003933,-
 0.00001153,0.,0.00028325,0.,0.,0.00750472,0.,-0.00000005,-0.00018208,0
 .,0.00000003,0.00680855,0.00000012,0.00000015,0.00245906,-0.00000004,-
 0.00000094,-0.03570941,0.00000385,-0.00000004,0.00227201,0.00000015,-0
 .00009833,-0.00003933,0.00001153,0.00002425,-0.00001525,0.00001131,0.0
 0000262,-0.00000112,0.00000370,-0.00000423,0.00000321,0.00000289,-0.00
 000808,-0.00001392,0.00001642,0.00001377,-0.00000236,0.00003726,0.,-0.
 00015077,0.,0.,-0.00123866,-0.00000001,0.,0.00033563,0.,0.,-0.00378034
 ,-0.00000002,0.00000081,0.02550677,-0.00012950,0.,0.00001954,0.0001569
 7,0.,-0.00002240,-0.00003879,0.00004641,0.00003356,0.00004389,-0.00014
 414,-0.00007743,0.00086728,0.,-0.00059442,-0.00406273,0.00000009,-0.00
 033900,-0.00046722,0.,0.00069980,0.00195414,0.00000009,0.00141759,-0.0
 0037548,0.00000009,-0.00565446,0.05774924,0.00000365,-0.32542341,0.006
 93871,0.00000020,-0.01672345,0.00004389,0.00014413,-0.00007743,-0.0000
 3879,-0.00004641,0.00003356,-0.00004450,0.00000732,-0.00002657,0.00001
 012,-0.00001097,0.00001182,0.00000539,0.00000852,-0.00000651,-0.000017
 53,0.00000461,0.00002410,-0.00026269,0.,-0.00028974,0.00003671,-0.0000
 0002,-0.00009637,-0.00007734,0.,-0.00038640,0.00030718,-0.00000007,0.0
 0084419,-0.06231673,-0.00000398,0.34562910,-0.00001635,0.,0.00000561,-
 0.00000377,0.,-0.00004352,0.00017302,-0.00015912,-0.00012815,-0.000344
 92,0.00027325,0.00015649,-0.00071467,0.00000004,-0.00053950,-0.0029664
 1,-0.00000009,0.00177807,0.00159244,-0.00000006,0.00108238,0.00054332,
 0.,-0.00055140,-0.00128636,-0.00000003,-0.00449072,-0.01914738,-0.0000
 0020,0.01042629,-0.30510465,-0.00000293,0.08393280,-0.00034494,-0.0002
 7326,0.00015644,0.00017303,0.00015913,-0.00012816,0.00004416,0.0000008
 1,0.00004101,-0.00006653,-0.00001609,-0.00008681,0.00002162,0.00003820
 ,-0.00003277,0.00025332,0.00019588,-0.00077103,0.00021680,0.,0.0001744
 0,-0.00022823,0.,-0.00006506,-0.00007074,0.00000001,0.00008771,-0.0010
 7273,0.,0.00055502,0.00107900,0.00000005,-0.00023570,0.32701845,0.,-0.
 00012391,0.,0.,0.00032738,0.,0.00026839,-0.00018956,-0.00027615,-0.000
 13087,0.00015092,0.00059841,0.,-0.00341828,-0.00000003,-0.00000013,0.0
 0303099,-0.00000007,-0.00000008,0.00633372,0.00000001,0.,-0.00028337,0
 .00000004,0.00000005,0.00729055,0.00000010,0.00000016,0.00244512,-0.00
 000003,-0.00000325,-0.03549619,0.00000130,0.00013086,0.00015092,-0.000
 59839,-0.00026838,-0.00018955,0.00027615,0.00004464,-0.00000314,0.0000
 4746,-0.00006755,-0.00000640,-0.00010225,-0.00000404,0.00000475,0.0000
 8257,0.00068819,-0.00029055,0.00033179,0.,-0.00026635,0.,0.,0.00050527
 ,0.,0.,-0.00129104,0.,0.00000002,0.00028923,0.,0.00000001,-0.00398423,
 -0.00000006,0.00000326,0.02530905,0.00016732,0.,-0.00000286,-0.0001952
 7,0.00000001,-0.00001243,-0.00026441,0.00009556,0.00018546,0.00015448,
 0.00000896,-0.00076303,0.00080763,0.,0.00114547,0.03095870,0.00000023,
 -0.00467708,-0.00024227,0.00000011,-0.00591827,-0.00055392,0.,-0.00109
 222,-0.00304950,0.00000008,-0.00259623,-0.02182753,-0.00000018,0.01084
 874,0.08488651,0.00000111,-0.08982300,0.00015450,-0.00000896,-0.000763
 07,-0.00026443,-0.00009557,0.00018548,-0.00000065,-0.00001252,-0.00001
 973,0.00009526,0.00001215,0.00011897,-0.00002041,-0.00009831,0.0001637
 3,-0.00069161,0.00063322,-0.00008060,-0.00004386,0.,0.00022307,0.00169
 322,-0.00000002,-0.00048798,0.00008279,0.,0.00019136,-0.00113815,0.,0.
 00038721,0.00038280,-0.00000005,0.00100149,-0.09047368,-0.00000120,0.0
 9160329,-0.00177691,0.00178436,0.00077668,-0.00085075,-0.00477319,-0.0
 0386524,-0.00002790,0.00014216,0.00059582,-0.00253444,-0.00291585,0.00
 014147,0.01131420,-0.01706779,-0.00271287,0.00132934,-0.00045327,0.000
 10876,0.00020343,0.00014985,0.00022599,-0.00009198,0.00001622,-0.00009
 110,-0.00000906,-0.00001648,0.00011045,0.00013625,0.00000675,-0.000049
 70,-0.00009055,0.00004938,0.00006937,-0.13444712,0.12334434,0.01651034
 ,-0.01428856,0.02002764,-0.00043389,0.00007293,0.00010665,0.00011810,-
 0.00001395,-0.00005171,0.00001232,0.00091569,-0.00114030,0.00004533,-0
 .00001821,-0.00005206,-0.00015713,0.00075679,0.00084506,-0.00011294,-0
 .00001739,-0.00003684,0.00003182,0.00001325,-0.00000394,-0.00000027,0.
 00000704,-0.00000197,0.00000630,-0.00001061,0.00000808,0.00000539,0.00
 002163,0.00000404,-0.00002041,0.14604883,0.00001170,0.00013564,0.00017
 428,-0.00063723,0.00051947,-0.00041289,-0.00034147,0.00075152,-0.00021
 427,-0.00530188,-0.00370653,0.00084011,0.01496293,-0.02246971,-0.00376
 902,0.00136946,0.00065530,0.00099329,-0.00034253,0.00029282,-0.0000625
 9,-0.00017170,-0.00004547,-0.00004123,-0.00009498,-0.00001339,0.000067
 38,0.00014285,-0.00008464,-0.00000241,-0.00011106,0.00027973,-0.000572
 94,0.12170038,-0.22172863,-0.02021798,-0.00106645,0.00243448,0.0000145
 7,0.00011743,0.00005433,0.00005572,0.00000441,-0.00002404,0.00004192,0
 .00114030,-0.00161858,-0.00006781,-0.00006416,0.00031561,-0.00007249,0
 .00015192,0.00109197,0.00043716,-0.00002650,-0.00006830,0.00003821,-0.
 00001513,-0.00001191,-0.00001695,-0.00000434,0.00001992,0.00000865,-0.
 00001397,-0.00001392,-0.00000852,-0.00003820,0.00000474,0.00009831,-0.
 13088574,0.24112674,-0.00234185,0.00186344,0.00092340,-0.00173697,-0.0
 0376730,-0.00385713,0.00025764,-0.00011364,0.00032983,0.00019928,0.000
 21557,0.00035207,-0.00130461,0.00296711,-0.00060752,0.00034968,-0.0004
 9260,0.00018134,-0.00024601,-0.00001007,0.00007370,0.00003214,0.000036
 12,0.00006721,0.00004448,0.00000019,-0.00010629,-0.00023107,0.00010990
 ,-0.00001045,0.00033395,0.00004955,-0.00027764,0.01622029,-0.02062015,
 -0.05237304,-0.01578202,0.02215609,-0.00044246,0.00004173,0.00009225,0
 .00006783,-0.00001606,-0.00000683,0.00001674,0.00004533,0.00006781,0.0
 0055223,-0.00023216,0.00037029,0.00028850,-0.00058221,0.00006210,0.000
 24310,0.00003028,-0.00000990,-0.00004239,0.00000308,0.00000352,0.00000
 478,-0.00001366,-0.00001899,-0.00000276,0.00000387,-0.00001642,-0.0000
 0651,-0.00003276,-0.00008258,0.00016373,-0.01379274,0.02230370,0.05505
 851,-0.00018215,-0.00024987,0.00033669,0.00173897,-0.00076240,-0.00049
 281,0.00000304,0.00003136,-0.00022863,0.00045656,0.00138188,-0.0005738
 1,-0.01033508,-0.00167846,0.01811294,0.00129633,0.00036557,0.00119571,
 -0.00069452,0.00010185,-0.00011782,0.00030018,0.00001211,0.00033227,0.
 00027882,-0.00003307,-0.00029823,-0.00025935,0.00021062,-0.00050654,-0
 .00050697,0.00026663,0.00038285,-0.09592287,-0.00140571,0.09923945,0.0
 0947000,0.00094918,-0.02388226,0.00006674,0.00003781,0.00004886,-0.000
 11697,0.00000857,0.00000819,-0.00001821,0.00006416,-0.00023216,0.00064
 039,-0.00036384,-0.00026380,-0.00164650,-0.00384425,-0.00022199,0.0001
 6223,0.00000006,-0.00015259,-0.00000004,-0.00000207,-0.00000936,0.0000
 5166,-0.00003960,-0.00002942,-0.00003397,-0.00001377,-0.00001753,0.000
 25324,-0.00068824,-0.00069174,-0.00833335,-0.00081794,0.01726813,0.105
 39837,-0.00015955,0.00016704,-0.00014503,-0.00027738,-0.00034376,0.000
 75100,0.00023255,-0.00015568,-0.00015813,-0.00046200,0.00211524,0.0011
 4389,-0.01331617,-0.00272946,0.02575372,0.00124943,0.00056554,0.000246
 50,-0.00045913,0.00022282,-0.00005619,0.00016795,0.00002974,0.00019175
 ,0.00020075,0.00001530,-0.00015594,-0.00006829,0.00004344,-0.00030774,
 -0.00040217,-0.00002782,0.00035892,-0.00104548,-0.05169932,0.00737881,
 -0.00005373,-0.00009820,-0.00048793,0.00006750,-0.00000623,0.00004275,
 -0.00006338,0.00010110,-0.00015391,0.00005205,0.00031561,-0.00037028,0
 .00036385,-0.00034417,-0.00059882,-0.00344415,-0.00444023,0.00058755,0
 .00013199,-0.00005668,-0.00007743,-0.00000355,-0.00002388,0.00000235,0
 .00002828,-0.00002584,-0.00002349,-0.00002539,-0.00000236,-0.00000461,
 -0.00019590,-0.00029053,-0.00063330,0.01166993,0.00156079,-0.02513599,
 0.00604331,0.05393969,-0.00127369,0.00039386,0.00036027,0.00206606,-0.
 00162060,-0.00053995,-0.00007740,0.00035437,-0.00030598,-0.00004073,-0
 .00035800,0.00009223,0.00189417,0.00040925,-0.00228614,-0.00058488,0.0
 0049245,0.00014601,0.00021182,0.00003099,0.00006603,-0.00009028,-0.000
 05174,-0.00006201,-0.00004175,0.00005453,0.00007707,-0.00004019,-0.000
 06701,0.00022740,-0.00003323,-0.00067046,-0.00044173,0.09977097,0.0071
 1583,-0.25549102,0.00745962,0.00127901,-0.02105056,0.00002367,0.000107
 90,0.00000202,-0.00000155,-0.00003716,0.00014622,-0.00015713,0.0000724
 9,0.00028850,-0.00026383,0.00059882,0.00032783,-0.00011730,0.00026239,
 0.00110895,-0.00003974,0.00001749,0.00004605,0.00001230,0.00000478,0.0
 0001017,-0.00002662,0.00001286,0.00000541,0.00002089,-0.00003726,0.000
 02410,-0.00077113,-0.00033184,-0.00008074,0.00153221,-0.00042172,-0.00
 263962,-0.10561557,-0.00761094,0.28143442,-0.00120942,0.00381488,-0.00
 329446,-0.01133438,-0.00031260,0.01782557,0.00030147,-0.00020190,-0.00
 113513,-0.00009485,-0.00030751,-0.00000523,0.00157549,0.00061199,-0.00
 040151,-0.00000702,0.00035294,-0.00001309,0.00008413,-0.00001065,0.000
 06160,-0.00004540,-0.00001834,-0.00004409,-0.00002705,0.00000764,0.000
 04401,0.00002096,-0.00006015,0.00007004,0.00002922,-0.00006780,-0.0001
 2562,0.00960860,-0.00296220,-0.02491261,-0.09190041,0.00777718,0.10428
 106,-0.00009209,-0.00007750,-0.00033510,0.00059799,0.00037636,-0.00025
 649,-0.00001395,-0.00000441,-0.00001606,-0.00011697,0.00006338,-0.0000
 0155,-0.00020910,-0.00003796,0.00046251,-0.00002779,-0.00000174,0.0000
 0908,0.00000864,0.00000365,0.00000298,-0.00000505,0.00000698,0.0000075
 5,0.00000609,0.00000423,0.00001012,-0.00006653,0.00006755,0.00009526,0
 .00155274,-0.00000456,0.00091191,-0.00325390,-0.00046885,-0.00385418,0
 .10283680,0.00254794,-0.00272744,0.00357139,0.01239322,0.00144545,-0.0
 2881577,-0.00141417,-0.00043612,0.00336302,0.00040709,0.00025509,0.000
 18926,0.00052230,0.00008889,-0.00103021,-0.00011376,0.00000282,0.00003
 548,0.00003160,-0.00001050,0.00001337,-0.00000928,-0.00000887,-0.00000
 324,0.00000466,-0.00000212,0.00001861,0.00001071,-0.00000642,0.0000046
 3,0.00000930,-0.00000160,0.00002492,-0.00086490,0.00037077,0.00130532,
 0.00906382,-0.05372926,-0.02487560,0.00008164,0.00041080,0.00042513,-0
 .00037637,-0.00159237,-0.00002486,0.00005171,-0.00002404,0.00000683,-0
 .00000857,0.00010110,0.00003716,-0.00025952,0.00004611,0.00006581,-0.0
 0002129,0.00001236,-0.00000045,0.00001100,0.00000271,0.00000041,0.0000
 0649,0.00000263,0.00000576,0.00000411,0.00000321,0.00001097,0.00001609
 ,-0.00000640,-0.00001215,-0.00051882,0.00019013,0.00039922,0.00048266,
 0.00099903,0.00038555,-0.01156966,0.05097039,-0.00071378,-0.00063687,-
 0.00077941,0.00095673,0.00001760,0.00073377,0.00058240,0.00012489,-0.0
 0066187,-0.00034313,-0.00006102,-0.00006514,0.00153046,0.00063847,0.00
 044622,-0.00032948,0.00018628,0.00031552,0.00006038,-0.00000461,-0.000
 05613,-0.00005054,0.00001098,-0.00003567,-0.00004797,0.00001079,0.0000
 3182,0.00000427,-0.00005783,0.00014182,0.00020284,-0.00007570,-0.00007
 885,0.00891818,-0.00194692,-0.02481574,0.09988967,-0.01913002,-0.24418
 862,-0.00003365,-0.00017305,0.00023042,-0.00025650,0.00002487,0.000529
 93,0.00001232,-0.00004192,0.00001674,0.00000819,0.00015391,0.00014622,
 -0.00079410,-0.00073948,0.00056369,-0.00004076,-0.00001417,0.00002275,
 -0.00000795,0.00000203,0.00000059,-0.00001316,0.00000468,0.00000413,0.
 00001593,-0.00000289,0.00001182,-0.00008682,0.00010225,0.00011898,0.00
 038201,0.00041121,0.00136455,-0.00445817,-0.00017153,-0.00229579,-0.10
 683614,0.02127597,0.27136050,0.00178991,-0.00136145,0.00013387,0.01173
 744,0.01581869,-0.00287363,-0.00211180,0.00275939,0.00041135,-0.000263
 95,0.00021891,-0.00010745,-0.00222893,0.00176186,-0.00404697,-0.000133
 94,-0.00128249,0.00041766,-0.00012273,-0.00002598,-0.00030494,-0.00002
 225,0.00010975,0.00001270,-0.00006514,-0.00000874,-0.00004518,0.000023
 09,0.00007712,-0.00000181,-0.00023498,0.00000302,-0.00005842,-0.012981
 30,-0.01726500,0.00398573,-0.15289600,-0.13155137,0.02155778,0.0005986
 4,0.00091399,0.00009154,-0.00009209,-0.00008164,-0.00003365,0.00007293
 ,-0.00011743,0.00004173,0.00006674,-0.00006750,0.00002367,0.00030660,0
 .00042469,-0.00002435,0.00001728,-0.00004227,0.00002622,-0.00004949,0.
 00000150,-0.00001726,-0.00001513,-0.00001445,-0.00001620,-0.00001661,-
 0.00000262,-0.00004450,0.00004416,-0.00004464,-0.00000065,0.00013865,0
 .00033645,0.00057034,0.00118735,0.00023753,0.00003750,-0.00821821,-0.0
 1048799,0.00144877,0.16346977,0.00006619,0.00600460,-0.00080837,-0.022
 16727,-0.02653573,0.00450716,0.00501130,-0.00322919,-0.00070839,0.0004
 5463,0.00023984,0.00039934,0.00076762,0.00110227,0.00032096,0.00007169
 ,0.00019485,0.00010197,0.00005203,-0.00002698,-0.00002848,-0.00001373,
 -0.00002188,-0.00002194,-0.00000689,0.00000147,0.00001528,0.00001201,-
 0.00000833,0.00000447,-0.00005577,-0.00000839,0.00001703,0.00148408,0.
 00219908,-0.00110202,-0.12708012,-0.20924664,0.02693082,-0.00091399,-0
 .00151355,-0.00007961,0.00007749,0.00041079,0.00017305,-0.00010665,0.0
 0005433,-0.00009225,-0.00003780,-0.00000623,-0.00010790,-0.00002329,-0
 .00005293,0.00005934,0.00000442,0.00000413,-0.00000080,-0.00000459,0.0
 0000244,-0.00000252,-0.00000358,0.00000083,-0.00000288,-0.00000360,-0.
 00000112,-0.00000732,-0.00000081,-0.00000314,0.00001252,-0.00023651,0.
 00035192,-0.00042238,-0.00005656,0.00016882,-0.00038582,0.00301902,0.0
 0364364,0.00009209,0.13969067,0.22627510,-0.00074741,0.00027271,-0.001
 15790,0.00068972,-0.00257298,-0.00066595,-0.00004615,0.00030015,0.0012
 3148,-0.00007846,0.00051061,-0.00010995,-0.00281655,0.00132460,-0.0037
 0814,-0.00047432,-0.00112288,0.00071687,-0.00016756,-0.00000320,-0.000
 33563,-0.00002224,0.00012290,0.00001724,-0.00007109,-0.00001273,-0.000
 04343,0.00001732,0.00005946,0.00003386,-0.00011719,0.00003078,-0.00000
 628,-0.01462288,-0.02019917,0.00324603,0.02110153,0.02713193,-0.054516
 91,0.00009154,0.00007961,0.00038392,-0.00033510,-0.00042513,0.00023042
 ,0.00011810,-0.00005572,0.00006783,0.00004886,-0.00004275,0.00000202,-
 0.00025473,-0.00007650,0.00028804,-0.00000166,-0.00005039,0.00001731,-
 0.00003837,0.00000220,-0.00001616,-0.00000579,-0.00001276,-0.00000904,
 -0.00000555,-0.00000370,-0.00002657,0.00004101,-0.00004746,-0.00001974
 ,0.00056390,0.00039632,0.00067826,0.00086738,-0.00036600,0.00083087,0.
 01744957,0.02362345,-0.00306224,-0.02118388,-0.02886335,0.05593381\\0.
 00002694,0.00000008,-0.00001109,0.00008729,0.,0.00005871,-0.00014485,0
 .00000344,-0.00011322,0.00007497,-0.00003983,0.00003401,-0.00002952,-0
 .00000012,-0.00002366,-0.00000547,-0.00000006,0.00002879,-0.00001482,0
 .00000056,0.00000390,-0.00001464,0.00000082,-0.00000381,-0.00000970,-0
 .00000026,0.00001549,0.00002762,-0.00000035,-0.00000316,0.00000398,-0.
 00000079,-0.00002688,0.00007438,0.00003995,0.00003445,-0.00014413,-0.0
 0000379,-0.00011320,0.00001303,-0.00001427,0.00001368,0.00001898,-0.00
 001102,0.00002118,-0.00001060,0.00000896,0.00000228,-0.00001536,0.0000
 0196,0.00001966,0.00002936,0.00000012,0.00000687,0.00000555,-0.0000003
 7,-0.00001133,0.00000719,-0.00000030,-0.00000545,0.00000722,-0.0000000
 1,0.00000160,-0.00000264,0.00000035,0.00000449,0.00000926,0.00000044,0
 .00001037,-0.00001062,-0.00000899,0.00000219,-0.00001523,-0.00000203,0
 .00001910,0.00001882,0.00001105,0.00002137,0.00001301,0.00001445,0.000
 01366\\\@


 MAN IS A SINGULAR CREATURE.  HE HAS A SET OF GIFTS
 WHICH MAKE HIM UNIQUE AMONG THE ANIMALS: SO THAT, 
 UNLIKE THEM, HE IS NOT A FIGURE IN THE LANDSCAPE --
 HE IS A SHAPER OF THE LANDSCAPE.

                       -- JACOB BRONOWSKI
 Job cpu time:       0 days  0 hours  2 minutes 29.2 seconds.
 Elapsed time:       0 days  0 hours  2 minutes 37.0 seconds.
 File lengths (MBytes):  RWF=    161 Int=      0 D2E=      0 Chk=     16 Scr=      1
 Normal termination of Gaussian 16 at Sat Feb 24 03:58:17 2024.
