 Entering Gaussian System, Link 0=g16
 Input=/Volumes/SSD-PMU3/b3lyp_6-31gd_freq/XZESRFFZOCOPEM-HEXZWALJSA-N_calculating/gaussianinput2.gjf
 Output=/Volumes/SSD-PMU3/b3lyp_6-31gd_freq/XZESRFFZOCOPEM-HEXZWALJSA-N_calculating/gaussianinput2.log
 Initial command:
 /Applications/g16/l1.exe "/Users/macmini_m1_2022/PycharmProjects/sphere_model/sphere_model_lib/Gau-73752.inp" -scrdir="/Users/macmini_m1_2022/PycharmProjects/sphere_model/sphere_model_lib/"
 Entering Link 1 = /Applications/g16/l1.exe PID=     73753.
  
 Copyright (c) 1988,1990,1992,1993,1995,1998,2003,2009,2016,
            Gaussian, Inc.  All Rights Reserved.
  
 This is part of the Gaussian(R) 16 program.  It is based on
 the Gaussian(R) 09 system (copyright 2009, Gaussian, Inc.),
 the Gaussian(R) 03 system (copyright 2003, Gaussian, Inc.),
 the Gaussian(R) 98 system (copyright 1998, Gaussian, Inc.),
 the Gaussian(R) 94 system (copyright 1995, Gaussian, Inc.),
 the Gaussian 92(TM) system (copyright 1992, Gaussian, Inc.),
 the Gaussian 90(TM) system (copyright 1990, Gaussian, Inc.),
 the Gaussian 88(TM) system (copyright 1988, Gaussian, Inc.),
 the Gaussian 86(TM) system (copyright 1986, Carnegie Mellon
 University), and the Gaussian 82(TM) system (copyright 1983,
 Carnegie Mellon University). Gaussian is a federally registered
 trademark of Gaussian, Inc.
  
 This software contains proprietary and confidential information,
 including trade secrets, belonging to Gaussian, Inc.
  
 This software is provided under written license and may be
 used, copied, transmitted, or stored only in accord with that
 written license.
  
 The following legend is applicable only to US Government
 contracts under FAR:
  
                    RESTRICTED RIGHTS LEGEND
  
 Use, reproduction and disclosure by the US Government is
 subject to restrictions as set forth in subparagraphs (a)
 and (c) of the Commercial Computer Software - Restricted
 Rights clause in FAR 52.227-19.
  
 Gaussian, Inc.
 340 Quinnipiac St., Bldg. 40, Wallingford CT 06492
  
  
 ---------------------------------------------------------------
 Warning -- This program may not be used in any manner that
 competes with the business of Gaussian, Inc. or will provide
 assistance to any competitor of Gaussian, Inc.  The licensee
 of this program is prohibited from giving any competitor of
 Gaussian, Inc. access to this program.  By using this program,
 the user acknowledges that Gaussian, Inc. is engaged in the
 business of creating and licensing software in the field of
 computational chemistry and represents and warrants to the
 licensee that it is not a competitor of Gaussian, Inc. and that
 it will not use this program in any manner prohibited above.
 ---------------------------------------------------------------
  

 Cite this work as:
 Gaussian 16, Revision A.03,
 M. J. Frisch, G. W. Trucks, H. B. Schlegel, G. E. Scuseria, 
 M. A. Robb, J. R. Cheeseman, G. Scalmani, V. Barone, 
 G. A. Petersson, H. Nakatsuji, X. Li, M. Caricato, A. V. Marenich, 
 J. Bloino, B. G. Janesko, R. Gomperts, B. Mennucci, H. P. Hratchian, 
 J. V. Ortiz, A. F. Izmaylov, J. L. Sonnenberg, D. Williams-Young, 
 F. Ding, F. Lipparini, F. Egidi, J. Goings, B. Peng, A. Petrone, 
 T. Henderson, D. Ranasinghe, V. G. Zakrzewski, J. Gao, N. Rega, 
 G. Zheng, W. Liang, M. Hada, M. Ehara, K. Toyota, R. Fukuda, 
 J. Hasegawa, M. Ishida, T. Nakajima, Y. Honda, O. Kitao, H. Nakai, 
 T. Vreven, K. Throssell, J. A. Montgomery, Jr., J. E. Peralta, 
 F. Ogliaro, M. J. Bearpark, J. J. Heyd, E. N. Brothers, K. N. Kudin, 
 V. N. Staroverov, T. A. Keith, R. Kobayashi, J. Normand, 
 K. Raghavachari, A. P. Rendell, J. C. Burant, S. S. Iyengar, 
 J. Tomasi, M. Cossi, J. M. Millam, M. Klene, C. Adamo, R. Cammi, 
 J. W. Ochterski, R. L. Martin, K. Morokuma, O. Farkas, 
 J. B. Foresman, and D. J. Fox, Gaussian, Inc., Wallingford CT, 2016.
 
 ******************************************
 Gaussian 16:  EM64M-G16RevA.03 25-Dec-2016
                23-Feb-2024 
 ******************************************
 %nprocshared=10
 Will use up to   10 processors via shared memory.
 %mem=12GB
 %chk= 2.chk
 ---------------------
 # freq b3lyp/6-31g(d)
 ---------------------
 1/10=4,30=1,38=1/1,3;
 2/12=2,17=6,18=5,40=1/2;
 3/5=1,6=6,7=1,11=2,25=1,30=1,71=2,74=-5,140=1/1,2,3;
 4//1;
 5/5=2,38=5,98=1/2;
 8/6=4,10=90,11=11/1;
 11/6=1,8=1,9=11,15=111,16=1/1,2,10;
 10/6=1/2;
 6/7=2,8=2,9=2,10=2,28=1/1;
 7/8=1,10=1,25=1/1,2,3,16;
 1/10=4,30=1/3;
 99//99;
 ---------
 good luck
 ---------
 Symbolic Z-matrix:
 Charge =  0 Multiplicity = 1
 O                     1.21601   0.        0. 
 C                     0.        0.        0. 
 C                    -0.84891  -1.26801   0.00042 
 C                    -1.7381   -1.26207   1.26836 
 C                    -1.74614  -1.2575   -1.26049 
 C                    -2.63563   0.       -1.24335 
 C                    -1.74614   1.2575   -1.26049 
 C                    -0.84891   1.26801   0.00042 
 C                    -1.7381    1.26207   1.26836 
 C                    -2.64911   0.        1.30812 
 C                    -3.48538  0.         2.59399 
 C                    -4.88875   0.00003   2.58685 
 C                    -5.61939   0.00003   3.77305 
 C                    -4.96692  -0.00001   5.00949 
 C                    -5.79839  -0.00002   6.24412 
 O                    -7.01421   0.00047   6.25744 
 O                    -5.04933   0.00048   7.3725 
 C                    -5.79372   0.00106   8.5995 
 C                    -3.56556  -0.00004   5.03633 
 C                    -2.84516  -0.00004   3.84717 
 C                    -3.5155    0.        0.02324 
 H                    -0.17946  -2.13421   0.00407 
 H                    -1.10441  -1.30161   2.16203 
 H                    -2.36104  -2.16628   1.28346 
 H                    -2.36388  -2.16563  -1.27488 
 H                    -1.12684  -1.27605  -2.16664 
 H                    -3.28481   0.       -2.12829 
 H                    -1.12684   1.27605  -2.16664 
 H                    -2.36388   2.16563  -1.27488 
 H                    -0.17946   2.13421   0.00407 
 H                    -1.10441   1.30161   2.16202 
 H                    -2.36104   2.16628   1.28346 
 H                    -5.43109   0.00006   1.64836 
 H                    -6.7045    0.00005   3.7567 
 H                    -5.04688   0.00142   9.39412 
 H                    -6.42633  -0.88819   8.66615 
 H                    -6.42631   0.89038   8.66533 
 H                    -3.04639  -0.00007   5.98829 
 H                    -1.76023  -0.00006   3.90051 
 H                    -4.16859   0.8827    0.01317 
 H                    -4.16859  -0.8827    0.01317 
 

 GradGradGradGradGradGradGradGradGradGradGradGradGradGradGradGradGradGrad
 Berny optimization.
 Initialization pass.
 Trust Radius=3.00D-01 FncErr=1.00D-07 GrdErr=1.00D-07 EigMax=2.50D+02 EigMin=1.00D-04
 Number of steps in this run=      2 maximum allowed number of steps=      2.
 GradGradGradGradGradGradGradGradGradGradGradGradGradGradGradGradGradGrad

                          Input orientation:                          
 ---------------------------------------------------------------------
 Center     Atomic      Atomic             Coordinates (Angstroms)
 Number     Number       Type             X           Y           Z
 ---------------------------------------------------------------------
      1          8           0        1.216008    0.000000    0.000000
      2          6           0        0.000000    0.000000    0.000000
      3          6           0       -0.848906   -1.268007    0.000418
      4          6           0       -1.738102   -1.262074    1.268364
      5          6           0       -1.746135   -1.257502   -1.260485
      6          6           0       -2.635629    0.000000   -1.243346
      7          6           0       -1.746135    1.257502   -1.260485
      8          6           0       -0.848906    1.268007    0.000418
      9          6           0       -1.738102    1.262074    1.268364
     10          6           0       -2.649105    0.000000    1.308121
     11          6           0       -3.485375   -0.000001    2.593987
     12          6           0       -4.888746    0.000029    2.586846
     13          6           0       -5.619395    0.000029    3.773052
     14          6           0       -4.966923   -0.000011    5.009493
     15          6           0       -5.798392   -0.000024    6.244120
     16          8           0       -7.014212    0.000465    6.257438
     17          8           0       -5.049331    0.000480    7.372501
     18          6           0       -5.793717    0.001059    8.599504
     19          6           0       -3.565555   -0.000038    5.036326
     20          6           0       -2.845155   -0.000036    3.847166
     21          6           0       -3.515496    0.000000    0.023237
     22          1           0       -0.179460   -2.134205    0.004072
     23          1           0       -1.104412   -1.301609    2.162026
     24          1           0       -2.361042   -2.166277    1.283460
     25          1           0       -2.363877   -2.165633   -1.274881
     26          1           0       -1.126840   -1.276049   -2.166638
     27          1           0       -3.284806    0.000000   -2.128294
     28          1           0       -1.126841    1.276049   -2.166638
     29          1           0       -2.363878    2.165632   -1.274881
     30          1           0       -0.179460    2.134206    0.004072
     31          1           0       -1.104411    1.301608    2.162025
     32          1           0       -2.361042    2.166276    1.283461
     33          1           0       -5.431094    0.000055    1.648361
     34          1           0       -6.704499    0.000052    3.756698
     35          1           0       -5.046883    0.001421    9.394123
     36          1           0       -6.426326   -0.888188    8.666154
     37          1           0       -6.426308    0.890380    8.665330
     38          1           0       -3.046386   -0.000066    5.988287
     39          1           0       -1.760230   -0.000062    3.900505
     40          1           0       -4.168593    0.882700    0.013172
     41          1           0       -4.168591   -0.882702    0.013171
 ---------------------------------------------------------------------
                    Distance matrix (angstroms):
                    1          2          3          4          5
     1  O    0.000000
     2  C    1.216008   0.000000
     3  C    2.423162   1.525937   0.000000
     4  C    3.453743   2.494509   1.548674   0.000000
     5  C    3.456071   2.493817   1.547581   2.528866   0.000000
     6  C    4.047347   2.914181   2.519359   2.950775   1.540391
     7  C    3.456071   2.493817   2.961941   3.569791   2.515004
     8  C    2.423162   1.525937   2.536014   2.966423   2.961941
     9  C    3.453743   2.494509   2.966423   2.524148   3.569791
    10  C    4.080475   2.954478   2.560985   1.557029   2.999067
    11  C    5.369522   4.344722   3.909656   2.530428   4.411714
    12  C    6.630218   5.530968   4.961636   3.641134   5.124387
    13  C    7.807602   6.768569   6.212749   4.788612   6.474567
    14  C    7.957616   7.054456   6.607322   5.100405   7.160125
    15  C    9.390998   8.521173   8.067776   6.544988   8.620971
    16  O   10.338861   9.399718   8.875264   7.370360   9.265759
    17  O    9.675135   8.935856   8.579058   7.058241   9.328562
    18  C   11.094490  10.369119  10.000298   8.472847  10.732487
    19  C    6.944633   6.170718   5.860742   4.373769   6.673929
    20  C    5.594080   4.784934   4.515554   3.077097   5.373748
    21  C    4.731561   3.515573   2.952806   2.510438   2.521883
    22  H    2.549937   2.141741   1.094747   2.188244   2.195947
    23  H    3.428249   2.754681   2.176916   1.096247   3.482432
    24  H    4.374393   3.451745   2.177072   1.098119   2.770494
    25  H    4.373884   3.450102   2.174226   2.770579   1.098414
    26  H    3.436795   2.755429   2.184821   3.488993   1.097717
    27  H    4.978651   3.914024   3.474603   3.939849   2.168389
    28  H    3.436795   2.755430   3.353446   4.314504   2.761072
    29  H    4.373885   3.450102   3.963761   4.313799   3.478457
    30  H    2.549938   2.141742   3.467452   3.944936   3.944269
    31  H    3.428247   2.754679   3.367603   2.787949   4.321392
    32  H    4.374393   3.451745   3.965735   3.484518   4.309528
    33  H    6.848435   5.675727   5.031913   3.921168   4.860222
    34  H    8.766254   7.685251   7.071463   5.696478   7.165120
    35  H   11.290410  10.663985  10.367071   8.864108  11.224994
    36  H   11.588631  10.825376  10.312461   8.766215  10.980835
    37  H   11.588171  10.824886  10.528378   9.018173  11.182094
    38  H    7.350346   6.718634   6.503166   5.057860   7.471044
    39  H    4.906316   4.279293   4.201056   2.919132   5.311984
    40  H    5.456488   4.261045   3.955506   3.476039   3.474330
    41  H    5.456486   4.261043   3.341995   2.761650   2.762421
                    6          7          8          9         10
     6  C    0.000000
     7  C    1.540391   0.000000
     8  C    2.519359   1.547581   0.000000
     9  C    2.950775   2.528866   1.548674   0.000000
    10  C    2.551503   2.999067   2.560985   1.557029   0.000000
    11  C    3.930292   4.411714   3.909656   2.530429   1.533884
    12  C    4.443749   5.124373   4.961621   3.641114   2.578978
    13  C    5.836704   6.474556   6.212737   4.788596   3.859858
    14  C    6.673300   7.160128   6.607327   5.100411   4.367200
    15  C    8.128051   8.620978   8.067783   6.544998   5.855091
    16  O    8.685260   9.265632   8.875132   7.370200   6.599235
    17  O    8.947557   9.328433   8.578916   7.058070   6.522100
    18  C   10.337080  10.732239  10.000030   8.472531   7.940583
    19  C    6.348153   6.673944   5.860758   4.373791   3.839192
    20  C    5.094822   5.373765   4.515575   3.077127   2.546603
    21  C    1.542206   2.521883   2.952806   2.510438   1.549697
    22  H    3.484774   3.944268   3.467451   3.944935   3.514900
    23  H    3.954159   4.321393   3.367604   2.787950   2.193038
    24  H    3.339596   4.309528   3.965736   3.484519   2.185485
    25  H    2.182844   3.478457   3.963762   4.313799   3.382783
    26  H    2.181104   2.761072   3.353446   4.314504   4.002442
    27  H    1.097526   2.168389   3.474603   3.939849   3.494719
    28  H    2.181103   1.097717   2.184821   3.488993   4.002442
    29  H    2.182843   1.098414   2.174226   2.770579   3.382782
    30  H    3.484774   2.195947   1.094747   2.188244   3.514900
    31  H    3.954158   3.482432   2.176914   1.096247   2.193038
    32  H    3.339596   2.770495   2.177072   1.098118   2.185484
    33  H    4.022014   4.860193   5.031885   3.921132   2.802718
    34  H    6.446405   7.165101   7.071444   5.696455   4.737272
    35  H   10.907332  11.224676  10.366723   8.863703   8.434025
    36  H   10.646899  11.182412  10.528617   9.018335   8.318469
    37  H   10.646308  10.980009  10.311679   8.765417   8.317966
    38  H    7.243289   7.471066   6.503192   5.057893   4.696998
    39  H    5.217809   5.312013   4.201094   2.919185   2.740539
    40  H    2.169787   2.762423   3.341997   2.761651   2.182864
    41  H    2.169786   3.474330   3.955505   3.476039   2.182864
                   11         12         13         14         15
    11  C    0.000000
    12  C    1.403389   0.000000
    13  C    2.438080   1.393174   0.000000
    14  C    2.833664   2.423908   1.398037   0.000000
    15  C    4.321287   3.768701   2.477543   1.488504   0.000000
    16  O    5.086606   4.241562   2.849156   2.397657   1.215893
    17  O    5.027937   4.788349   3.644311   2.364445   1.354377
    18  C    6.433870   6.080381   4.829599   3.683988   2.355389
    19  C    2.443655   2.784023   2.411249   1.401625   2.538568
    20  C    1.407245   2.400973   2.775230   2.419277   3.803551
    21  C    2.570926   2.908248   4.299710   5.193206   6.626538
    22  H    4.710792   5.779537   6.953636   7.247677   8.664025
    23  H    2.747682   4.024415   4.967367   4.972044   6.355396
    24  H    2.770263   3.575050   4.637652   5.036531   6.412190
    25  H    4.573386   5.096861   6.385148   7.138566   8.545240
    26  H    5.463930   6.194830   7.555881   8.238408   9.705281
    27  H    4.726538   4.980479   6.346353   7.333316   8.741592
    28  H    5.463931   6.194818   7.555871   8.238411   9.705287
    29  H    4.573386   5.096835   6.385128   7.138572   8.545252
    30  H    4.710793   5.779516   6.953619   7.247684   8.664037
    31  H    2.747684   4.024397   4.967353   4.972050   6.355407
    32  H    2.770263   3.575014   4.637624   5.036539   6.412205
    33  H    2.163338   1.083926   2.133019   3.393032   4.610413
    34  H    3.422668   2.159980   1.085227   2.142117   2.647319
    35  H    6.977117   6.809114   5.650151   4.385359   3.238408
    36  H    6.805092   6.333330   5.038106   4.036073   2.655068
    37  H    6.804636   6.332834   5.037680   4.035808   2.655062
    38  H    3.422570   3.868345   3.395238   2.155574   2.763872
    39  H    2.164050   3.393127   3.861269   3.393042   4.668970
    40  H    2.811860   2.814521   4.125607   5.136120   6.500781
    41  H    2.811860   2.814541   4.125621   5.136118   6.500777
                   16         17         18         19         20
    16  O    0.000000
    17  O    2.259231   0.000000
    18  C    2.641000   1.435147   0.000000
    19  C    3.658463   2.767545   4.202493   0.000000
    20  C    4.815646   4.157689   5.592740   1.390352   0.000000
    21  C    7.148865   7.507618   8.873705   5.013339   3.882240
    22  H    9.506589   9.086598  10.486214   6.429921   5.141009
    23  H    7.307088   6.663848   8.070170   4.001614   2.750268
    24  H    7.147532   6.999868   8.366905   4.497493   3.391099
    25  H    9.113365   9.310259  10.675291   6.779761   5.581828
    26  H   10.356432  10.392816  11.803413   7.710916   6.383311
    27  H    9.177634   9.663263  11.017272   7.170119   5.991612
    28  H   10.356317  10.392698  11.803184   7.710928   6.383325
    29  H    9.113143   9.310035  10.674861   6.779785   5.581856
    30  H    9.506381   9.086373  10.485783   6.429947   5.141040
    31  H    7.306923   6.663662   8.069830   4.001639   2.750303
    32  H    7.147250   6.999570   8.366356   4.497529   3.391144
    33  H    4.873382   5.736856   6.960595   3.867628   3.394381
    34  H    2.519846   3.976633   4.927707   3.389752   3.860404
    35  H    3.702591   2.021624   1.090496   4.602687   5.967943
    36  H    2.633862   2.087914   1.093342   4.706216   6.069287
    37  H    2.633538   2.087916   1.093342   4.705999   6.068954
    38  H    3.976944   2.434715   3.790288   1.084328   2.150556
    39  H    5.758425   4.782566   6.192706   2.132906   1.086235
    40  H    6.918580   7.464163   8.783132   5.135655   4.150930
    41  H    6.918700   7.464278   8.783347   5.135644   4.150916
                   21         22         23         24         25
    21  C    0.000000
    22  H    3.960345   0.000000
    23  H    3.475907   2.491088   0.000000
    24  H    2.759290   2.529261   1.760298   0.000000
    25  H    2.775122   2.531479   3.761000   2.558343   0.000000
    26  H    3.482748   2.519115   4.328798   3.770801   1.765461
    27  H    2.163863   4.329548   4.985494   4.145620   2.503276
    28  H    3.482747   4.152029   5.038071   5.027528   3.764394
    29  H    2.775121   4.989589   5.041859   5.030959   4.331265
    30  H    3.960346   4.268411   4.161385   4.989017   4.989591
    31  H    3.475907   4.161383   2.603217   3.791731   5.041859
    32  H    2.759290   4.989015   3.791731   4.332553   5.030960
    33  H    2.512080   5.902407   4.547346   3.775098   4.758505
    34  H    4.910038   7.823899   5.966429   5.447523   6.989133
    35  H    9.495191  10.790077   8.339316   8.814506  11.212595
    36  H    9.163068  10.752096   8.414117   8.524331  10.814783
    37  H    9.162498  11.099037   8.684489   8.964460  11.164692
    38  H    5.983468   6.970269   4.483921   5.224707   7.609803
    39  H    4.256074   4.715463   2.268575   3.449984   5.642580
    40  H    1.098088   5.001498   4.333357   3.765253   3.769405
    41  H    1.098088   4.180850   3.765933   2.555080   2.561637
                   26         27         28         29         30
    26  H    0.000000
    27  H    2.507307   0.000000
    28  H    2.552098   2.507306   0.000000
    29  H    3.764394   2.503275   1.765460   0.000000
    30  H    4.152030   4.329549   2.519116   2.531480   0.000000
    31  H    5.038069   4.985493   4.328797   3.761000   2.491087
    32  H    5.027528   4.145620   3.770801   2.558344   2.529262
    33  H    5.891457   4.343924   5.891432   4.758454   5.902368
    34  H    8.235571   6.806426   8.235554   6.989100   7.823870
    35  H   12.273951  11.656372  12.273655  11.212046  10.789515
    36  H   12.065835  11.277328  12.252259  11.164832  11.099093
    37  H   12.251910  11.276707  12.065016  10.813760  10.751168
    38  H    8.474408   8.120082   8.474428   7.609841   6.970309
    39  H    6.232138   6.218581   6.232164   5.642627   4.715519
    40  H    4.320189   2.479136   3.762785   2.561638   4.180853
    41  H    3.762783   2.479135   4.320187   3.769404   5.001498
                   31         32         33         34         35
    31  H    0.000000
    32  H    1.760297   0.000000
    33  H    4.547315   3.775034   0.000000
    34  H    5.966407   5.447481   2.463056   0.000000
    35  H    8.338874   8.813806   7.755285   5.876075   0.000000
    36  H    8.684566   8.964398   7.143450   4.996910   1.795607
    37  H    8.413363   8.523279   7.142897   4.996473   1.795606
    38  H    4.483961   5.224760   4.951948   4.285065   3.949900
    39  H    2.268646   3.450060   4.306669   4.946360   6.401713
    40  H    3.765935   2.555082   2.246512   4.606938   9.463101
    41  H    4.333357   3.765254   2.246557   4.606960   9.463368
                   36         37         38         39         40
    36  H    0.000000
    37  H    1.778568   0.000000
    38  H    4.402695   4.402650   0.000000
    39  H    6.728494   6.728204   2.452148   0.000000
    40  H    9.116332   8.941878   6.143340   4.657342   0.000000
    41  H    8.942679   9.115973   6.143322   4.657319   1.765402
                   41
    41  H    0.000000
 Stoichiometry    C18H20O3
 Framework group  C1[X(C18H20O3)]
 Deg. of freedom   117
 Full point group                 C1      NOp   1
 Largest Abelian subgroup         C1      NOp   1
 Largest concise Abelian subgroup C1      NOp   1
                         Standard orientation:                         
 ---------------------------------------------------------------------
 Center     Atomic      Atomic             Coordinates (Angstroms)
 Number     Number       Type             X           Y           Z
 ---------------------------------------------------------------------
      1          8           0        4.416630   -2.323099   -0.000021
      2          6           0        3.762145   -1.298245    0.000012
      3          6           0        3.304964   -0.582924   -1.267973
      4          6           0        1.757749   -0.515947   -1.262123
      5          6           0        3.884745    0.851909   -1.257338
      6          6           0        3.391482    1.592267    0.000186
      7          6           0        3.884603    0.851739    1.257666
      8          6           0        3.304820   -0.583096    1.268041
      9          6           0        1.757607   -0.516117    1.262025
     10          6           0        1.233847    0.230365   -0.000028
     11          6           0       -0.299983    0.243092   -0.000115
     12          6           0       -1.049292    1.429699   -0.000047
     13          6           0       -2.442282    1.407047   -0.000127
     14          6           0       -3.133181    0.191661   -0.000288
     15          6           0       -4.621243    0.227919   -0.000383
     16          8           0       -5.286851    1.245447    0.000137
     17          8           0       -5.169083   -1.010712    0.000006
     18          6           0       -6.603850   -1.043744    0.000502
     19          6           0       -2.401546   -1.003857   -0.000355
     20          6           0       -1.011584   -0.970978   -0.000272
     21          6           0        1.850438    1.652116    0.000103
     22          1           0        3.662245   -1.149043   -2.134189
     23          1           0        1.345638   -1.531009   -1.301750
     24          1           0        1.409797    0.001004   -2.166310
     25          1           0        3.564446    1.380353   -2.165451
     26          1           0        4.981773    0.817681   -1.275825
     27          1           0        3.787916    2.615695    0.000278
     28          1           0        4.981628    0.817509    1.276273
     29          1           0        3.564200    1.380061    2.165814
     30          1           0        3.662003   -1.149331    2.134222
     31          1           0        1.345493   -1.531186    1.301467
     32          1           0        1.409551    0.000711    2.166243
     33          1           0       -0.550240    2.391906    0.000073
     34          1           0       -3.012527    2.330377   -0.000074
     35          1           0       -6.871593   -2.100860    0.000777
     36          1           0       -7.000457   -0.546393   -0.888734
     37          1           0       -6.999854   -0.546085    0.889834
     38          1           0       -2.924432   -1.953782   -0.000477
     39          1           0       -0.472606   -1.914063   -0.000331
     40          1           0        1.507359    2.207905    0.882821
     41          1           0        1.507461    2.208023   -0.882581
 ---------------------------------------------------------------------
 Rotational constants (GHZ):           0.9441720           0.1342696           0.1265431
 Standard basis: 6-31G(d) (6D, 7F)
 There are   355 symmetry adapted cartesian basis functions of A   symmetry.
 There are   355 symmetry adapted basis functions of A   symmetry.
   355 basis functions,   668 primitive gaussians,   355 cartesian basis functions
    76 alpha electrons       76 beta electrons
       nuclear repulsion energy      1658.3119474195 Hartrees.
 NAtoms=   41 NActive=   41 NUniq=   41 SFac= 1.00D+00 NAtFMM=   60 NAOKFM=F Big=F
 Integral buffers will be    131072 words long.
 Raffenetti 2 integral format.
 Two-electron integral symmetry is turned on.
 One-electron integrals computed using PRISM.
 NBasis=   355 RedAO= T EigKep=  3.94D-04  NBF=   355
 NBsUse=   355 1.00D-06 EigRej= -1.00D+00 NBFU=   355
 ExpMin= 1.61D-01 ExpMax= 5.48D+03 ExpMxC= 8.25D+02 IAcc=3 IRadAn=         5 AccDes= 0.00D+00
 Harris functional with IExCor=  402 and IRadAn=       5 diagonalized for initial guess.
 HarFok:  IExCor=  402 AccDes= 0.00D+00 IRadAn=         5 IDoV= 1 UseB2=F ITyADJ=14
 ICtDFT=  3500011 ScaDFX=  1.000000  1.000000  1.000000  1.000000
 FoFCou: FMM=F IPFlag=           0 FMFlag=      100000 FMFlg1=           0
         NFxFlg=           0 DoJE=T BraDBF=F KetDBF=T FulRan=T
         wScrn=  0.000000 ICntrl=       500 IOpCl=  0 I1Cent=   200000004 NGrid=           0
         NMat0=    1 NMatS0=      1 NMatT0=    0 NMatD0=    1 NMtDS0=    0 NMtDT0=    0
 Petite list used in FoFCou.
 Requested convergence on RMS density matrix=1.00D-08 within 128 cycles.
 Requested convergence on MAX density matrix=1.00D-06.
 Requested convergence on             energy=1.00D-06.
 No special actions if energy rises.
 Integral accuracy reduced to 1.0D-05 until final iterations.
 Initial convergence to 1.0D-05 achieved.  Increase integral accuracy.
 SCF Done:  E(RB3LYP) =  -923.663562264     A.U. after   15 cycles
            NFock= 15  Conv=0.53D-08     -V/T= 2.0094
 DoSCS=F DFT=T ScalE2(SS,OS)=  1.000000  1.000000
 Range of M.O.s used for correlation:     1   355
 NBasis=   355 NAE=    76 NBE=    76 NFC=     0 NFV=     0
 NROrb=    355 NOA=    76 NOB=    76 NVA=   279 NVB=   279
 Symmetrizing basis deriv contribution to polar:
 IMax=3 JMax=2 DiffMx= 0.00D+00
 G2DrvN: will do    42 centers at a time, making    1 passes.
 Calling FoFCou, ICntrl=  3107 FMM=F I1Cent=   0 AccDes= 0.00D+00.
 End of G2Drv F.D. properties file   721 does not exist.
 End of G2Drv F.D. properties file   722 does not exist.
 End of G2Drv F.D. properties file   788 does not exist.
          IDoAtm=11111111111111111111111111111111111111111
          Differentiating once with respect to electric field.
                with respect to dipole field.
          Differentiating once with respect to nuclear coordinates.
 CalDSu exits because no D1Ps are significant.
          There are   126 degrees of freedom in the 1st order CPHF.  IDoFFX=6 NUNeed=     3.
    123 vectors produced by pass  0 Test12= 2.12D-14 1.00D-09 XBig12= 2.28D+02 9.30D+00.
 AX will form   123 AO Fock derivatives at one time.
    123 vectors produced by pass  1 Test12= 2.12D-14 1.00D-09 XBig12= 3.58D+01 1.37D+00.
    123 vectors produced by pass  2 Test12= 2.12D-14 1.00D-09 XBig12= 2.93D-01 7.63D-02.
    123 vectors produced by pass  3 Test12= 2.12D-14 1.00D-09 XBig12= 1.21D-03 4.71D-03.
    123 vectors produced by pass  4 Test12= 2.12D-14 1.00D-09 XBig12= 1.70D-06 1.47D-04.
     82 vectors produced by pass  5 Test12= 2.12D-14 1.00D-09 XBig12= 1.64D-09 3.83D-06.
     10 vectors produced by pass  6 Test12= 2.12D-14 1.00D-09 XBig12= 1.18D-12 1.39D-07.
      3 vectors produced by pass  7 Test12= 2.12D-14 1.00D-09 XBig12= 9.18D-16 3.39D-09.
 InvSVY:  IOpt=1 It=  1 EMax= 5.39D-15
 Solved reduced A of dimension   710 with   126 vectors.
 Isotropic polarizability for W=    0.000000      189.21 Bohr**3.
 End of Minotr F.D. properties file   721 does not exist.
 End of Minotr F.D. properties file   722 does not exist.
 End of Minotr F.D. properties file   788 does not exist.

 **********************************************************************

            Population analysis using the SCF density.

 **********************************************************************

 Orbital symmetries:
       Occupied  (A) (A) (A) (A) (A) (A) (A) (A) (A) (A) (A) (A)
                 (A) (A) (A) (A) (A) (A) (A) (A) (A) (A) (A) (A)
                 (A) (A) (A) (A) (A) (A) (A) (A) (A) (A) (A) (A)
                 (A) (A) (A) (A) (A) (A) (A) (A) (A) (A) (A) (A)
                 (A) (A) (A) (A) (A) (A) (A) (A) (A) (A) (A) (A)
                 (A) (A) (A) (A) (A) (A) (A) (A) (A) (A) (A) (A)
                 (A) (A) (A) (A)
       Virtual   (A) (A) (A) (A) (A) (A) (A) (A) (A) (A) (A) (A)
                 (A) (A) (A) (A) (A) (A) (A) (A) (A) (A) (A) (A)
                 (A) (A) (A) (A) (A) (A) (A) (A) (A) (A) (A) (A)
                 (A) (A) (A) (A) (A) (A) (A) (A) (A) (A) (A) (A)
                 (A) (A) (A) (A) (A) (A) (A) (A) (A) (A) (A) (A)
                 (A) (A) (A) (A) (A) (A) (A) (A) (A) (A) (A) (A)
                 (A) (A) (A) (A) (A) (A) (A) (A) (A) (A) (A) (A)
                 (A) (A) (A) (A) (A) (A) (A) (A) (A) (A) (A) (A)
                 (A) (A) (A) (A) (A) (A) (A) (A) (A) (A) (A) (A)
                 (A) (A) (A) (A) (A) (A) (A) (A) (A) (A) (A) (A)
                 (A) (A) (A) (A) (A) (A) (A) (A) (A) (A) (A) (A)
                 (A) (A) (A) (A) (A) (A) (A) (A) (A) (A) (A) (A)
                 (A) (A) (A) (A) (A) (A) (A) (A) (A) (A) (A) (A)
                 (A) (A) (A) (A) (A) (A) (A) (A) (A) (A) (A) (A)
                 (A) (A) (A) (A) (A) (A) (A) (A) (A) (A) (A) (A)
                 (A) (A) (A) (A) (A) (A) (A) (A) (A) (A) (A) (A)
                 (A) (A) (A) (A) (A) (A) (A) (A) (A) (A) (A) (A)
                 (A) (A) (A) (A) (A) (A) (A) (A) (A) (A) (A) (A)
                 (A) (A) (A) (A) (A) (A) (A) (A) (A) (A) (A) (A)
                 (A) (A) (A) (A) (A) (A) (A) (A) (A) (A) (A) (A)
                 (A) (A) (A) (A) (A) (A) (A) (A) (A) (A) (A) (A)
                 (A) (A) (A) (A) (A) (A) (A) (A) (A) (A) (A) (A)
                 (A) (A) (A) (A) (A) (A) (A) (A) (A) (A) (A) (A)
                 (A) (A) (A)
 The electronic state is 1-A.
 Alpha  occ. eigenvalues --  -19.19211 -19.13530 -19.13240 -10.31374 -10.26632
 Alpha  occ. eigenvalues --  -10.24053 -10.21518 -10.20969 -10.20434 -10.20070
 Alpha  occ. eigenvalues --  -10.19993 -10.19838 -10.19730 -10.19729 -10.19719
 Alpha  occ. eigenvalues --  -10.19710 -10.19708 -10.19624 -10.19476 -10.19475
 Alpha  occ. eigenvalues --  -10.19191  -1.09993  -1.03358  -1.01025  -0.88621
 Alpha  occ. eigenvalues --   -0.86229  -0.80258  -0.78466  -0.77211  -0.75485
 Alpha  occ. eigenvalues --   -0.75270  -0.71702  -0.68228  -0.65850  -0.63430
 Alpha  occ. eigenvalues --   -0.61147  -0.60757  -0.58645  -0.57507  -0.56359
 Alpha  occ. eigenvalues --   -0.53657  -0.51179  -0.48432  -0.48013  -0.47566
 Alpha  occ. eigenvalues --   -0.46592  -0.45924  -0.45641  -0.44609  -0.44507
 Alpha  occ. eigenvalues --   -0.44353  -0.44156  -0.42901  -0.42417  -0.41215
 Alpha  occ. eigenvalues --   -0.40716  -0.40496  -0.40336  -0.40090  -0.37277
 Alpha  occ. eigenvalues --   -0.36966  -0.36657  -0.36605  -0.35483  -0.34878
 Alpha  occ. eigenvalues --   -0.34466  -0.34027  -0.33710  -0.31175  -0.30444
 Alpha  occ. eigenvalues --   -0.30106  -0.29788  -0.27276  -0.25910  -0.25155
 Alpha  occ. eigenvalues --   -0.23269
 Alpha virt. eigenvalues --   -0.04520  -0.01260  -0.00882   0.05574   0.06423
 Alpha virt. eigenvalues --    0.09173   0.10959   0.11360   0.11635   0.11792
 Alpha virt. eigenvalues --    0.12801   0.12959   0.13447   0.14093   0.14668
 Alpha virt. eigenvalues --    0.15428   0.15517   0.16085   0.16467   0.16709
 Alpha virt. eigenvalues --    0.17750   0.18224   0.18411   0.18896   0.19070
 Alpha virt. eigenvalues --    0.19748   0.20035   0.21319   0.22234   0.22264
 Alpha virt. eigenvalues --    0.23693   0.24415   0.24902   0.25713   0.26727
 Alpha virt. eigenvalues --    0.27393   0.27538   0.28071   0.28811   0.29261
 Alpha virt. eigenvalues --    0.31951   0.33281   0.33705   0.34585   0.36621
 Alpha virt. eigenvalues --    0.39430   0.40957   0.49275   0.50308   0.50587
 Alpha virt. eigenvalues --    0.50604   0.51625   0.51708   0.51896   0.52757
 Alpha virt. eigenvalues --    0.54134   0.55093   0.55785   0.55826   0.56728
 Alpha virt. eigenvalues --    0.58077   0.58422   0.58741   0.59047   0.59610
 Alpha virt. eigenvalues --    0.59756   0.61549   0.62024   0.62029   0.63684
 Alpha virt. eigenvalues --    0.64158   0.65048   0.66008   0.67278   0.67552
 Alpha virt. eigenvalues --    0.68774   0.69640   0.70717   0.71077   0.71975
 Alpha virt. eigenvalues --    0.72244   0.74403   0.75864   0.77026   0.77031
 Alpha virt. eigenvalues --    0.77970   0.78519   0.78797   0.81059   0.81539
 Alpha virt. eigenvalues --    0.81663   0.82356   0.83412   0.83533   0.84922
 Alpha virt. eigenvalues --    0.85182   0.85247   0.85877   0.86080   0.87049
 Alpha virt. eigenvalues --    0.87741   0.88075   0.89786   0.89995   0.91019
 Alpha virt. eigenvalues --    0.91476   0.92962   0.93277   0.94380   0.95745
 Alpha virt. eigenvalues --    0.95958   0.96012   0.96988   0.97873   0.98809
 Alpha virt. eigenvalues --    0.99452   0.99491   1.00101   1.02259   1.03406
 Alpha virt. eigenvalues --    1.06922   1.09051   1.10432   1.10605   1.12317
 Alpha virt. eigenvalues --    1.13734   1.15235   1.15755   1.16711   1.17513
 Alpha virt. eigenvalues --    1.18729   1.21052   1.22016   1.26213   1.26507
 Alpha virt. eigenvalues --    1.27922   1.28583   1.30201   1.30888   1.31246
 Alpha virt. eigenvalues --    1.36810   1.38803   1.39987   1.42113   1.42205
 Alpha virt. eigenvalues --    1.44044   1.44762   1.46205   1.48360   1.48410
 Alpha virt. eigenvalues --    1.50659   1.51733   1.52044   1.55068   1.58030
 Alpha virt. eigenvalues --    1.60339   1.64665   1.64863   1.66124   1.67396
 Alpha virt. eigenvalues --    1.68892   1.70043   1.71929   1.73035   1.73299
 Alpha virt. eigenvalues --    1.74235   1.76474   1.76695   1.77122   1.78287
 Alpha virt. eigenvalues --    1.78945   1.79533   1.82244   1.82767   1.84127
 Alpha virt. eigenvalues --    1.86070   1.86473   1.87567   1.88043   1.89972
 Alpha virt. eigenvalues --    1.90163   1.92304   1.93554   1.94013   1.94386
 Alpha virt. eigenvalues --    1.99364   2.01116   2.02065   2.02439   2.03326
 Alpha virt. eigenvalues --    2.03749   2.04689   2.06836   2.07296   2.08331
 Alpha virt. eigenvalues --    2.09578   2.10895   2.11451   2.12411   2.13173
 Alpha virt. eigenvalues --    2.13655   2.14877   2.15305   2.17866   2.18076
 Alpha virt. eigenvalues --    2.20902   2.23373   2.24717   2.25187   2.26234
 Alpha virt. eigenvalues --    2.27548   2.28908   2.29211   2.31445   2.32237
 Alpha virt. eigenvalues --    2.32328   2.34757   2.34872   2.38536   2.39123
 Alpha virt. eigenvalues --    2.40807   2.42194   2.43936   2.46794   2.47301
 Alpha virt. eigenvalues --    2.48019   2.50310   2.50386   2.51493   2.52871
 Alpha virt. eigenvalues --    2.58953   2.60802   2.61676   2.61687   2.65723
 Alpha virt. eigenvalues --    2.65973   2.68416   2.69869   2.70008   2.71837
 Alpha virt. eigenvalues --    2.73361   2.74372   2.75032   2.75559   2.78258
 Alpha virt. eigenvalues --    2.79623   2.80341   2.82681   2.84441   2.87805
 Alpha virt. eigenvalues --    2.96769   3.00429   3.01329   3.03173   3.06561
 Alpha virt. eigenvalues --    3.13471   3.20989   3.43085   3.96968   4.08797
 Alpha virt. eigenvalues --    4.10106   4.11804   4.14012   4.17221   4.25595
 Alpha virt. eigenvalues --    4.26574   4.28249   4.30503   4.31852   4.32349
 Alpha virt. eigenvalues --    4.44780   4.48675   4.53120   4.57528   4.69002
 Alpha virt. eigenvalues --    4.74548   4.79893   4.82189   4.84648
          Condensed to atoms (all electrons):
               1          2          3          4          5          6
     1  O    8.011954   0.578896  -0.073865   0.000934   0.000986   0.000053
     2  C    0.578896   4.516717   0.331156  -0.028882  -0.029494  -0.020551
     3  C   -0.073865   0.331156   5.233862   0.316491   0.338956  -0.027626
     4  C    0.000934  -0.028882   0.316491   5.173533  -0.038824  -0.015027
     5  C    0.000986  -0.029494   0.338956  -0.038824   5.094878   0.374401
     6  C    0.000053  -0.020551  -0.027626  -0.015027   0.374401   4.937392
     7  C    0.000986  -0.029494  -0.008181  -0.002542  -0.048962   0.374401
     8  C   -0.073865   0.331156  -0.125271  -0.006800  -0.008181  -0.027626
     9  C    0.000934  -0.028882  -0.006800  -0.054031  -0.002542  -0.015027
    10  C    0.000057  -0.019512  -0.020697   0.365555  -0.016420  -0.018966
    11  C    0.000001   0.000059   0.004144  -0.044835  -0.000079   0.003463
    12  C    0.000000   0.000001  -0.000069   0.000960  -0.000010   0.000541
    13  C    0.000000   0.000000   0.000001  -0.000160   0.000000  -0.000008
    14  C   -0.000000  -0.000000  -0.000000   0.000002  -0.000000   0.000000
    15  C    0.000000   0.000000  -0.000000  -0.000000   0.000000  -0.000000
    16  O    0.000000   0.000000   0.000000  -0.000000  -0.000000   0.000000
    17  O    0.000000  -0.000000   0.000000  -0.000000  -0.000000   0.000000
    18  C    0.000000  -0.000000  -0.000000   0.000000   0.000000  -0.000000
    19  C   -0.000000  -0.000000  -0.000000   0.000286   0.000000   0.000001
    20  C   -0.000001  -0.000059   0.000307  -0.008252  -0.000002  -0.000095
    21  C   -0.000032  -0.003195  -0.012489  -0.057178  -0.045425   0.362349
    22  H    0.004268  -0.031401   0.345184  -0.030564  -0.031239   0.004203
    23  H    0.000779  -0.000814  -0.037646   0.361418   0.005087   0.000023
    24  H   -0.000079   0.003483  -0.029636   0.357234  -0.006131  -0.000773
    25  H   -0.000082   0.003541  -0.031240  -0.005873   0.361219  -0.033144
    26  H    0.000717  -0.000899  -0.039243   0.005145   0.368084  -0.035183
    27  H   -0.000000   0.000300   0.004668   0.000089  -0.038064   0.370207
    28  H    0.000717  -0.000899  -0.000045   0.000046  -0.004417  -0.035183
    29  H   -0.000082   0.003541  -0.000300   0.000105   0.005219  -0.033144
    30  H    0.004268  -0.031401   0.007044  -0.000077  -0.000062   0.004203
    31  H    0.000779  -0.000814   0.000474  -0.005739  -0.000011   0.000023
    32  H   -0.000079   0.003483  -0.000384   0.005779   0.000111  -0.000773
    33  H    0.000000  -0.000001  -0.000005   0.000245  -0.000004   0.000031
    34  H    0.000000  -0.000000  -0.000000   0.000001  -0.000000  -0.000000
    35  H    0.000000  -0.000000  -0.000000   0.000000  -0.000000  -0.000000
    36  H    0.000000   0.000000  -0.000000   0.000000   0.000000   0.000000
    37  H    0.000000   0.000000   0.000000   0.000000   0.000000   0.000000
    38  H    0.000000  -0.000000  -0.000000  -0.000000  -0.000000  -0.000000
    39  H   -0.000001  -0.000049  -0.000107   0.000185  -0.000003  -0.000002
    40  H    0.000000   0.000163  -0.000152   0.005920   0.005156  -0.035470
    41  H    0.000000   0.000163  -0.001161  -0.005707  -0.003675  -0.035470
               7          8          9         10         11         12
     1  O    0.000986  -0.073865   0.000934   0.000057   0.000001   0.000000
     2  C   -0.029494   0.331156  -0.028882  -0.019512   0.000059   0.000001
     3  C   -0.008181  -0.125271  -0.006800  -0.020697   0.004144  -0.000069
     4  C   -0.002542  -0.006800  -0.054031   0.365555  -0.044835   0.000960
     5  C   -0.048962  -0.008181  -0.002542  -0.016420  -0.000079  -0.000010
     6  C    0.374401  -0.027626  -0.015027  -0.018966   0.003463   0.000541
     7  C    5.094878   0.338956  -0.038823  -0.016420  -0.000079  -0.000010
     8  C    0.338956   5.233862   0.316491  -0.020697   0.004144  -0.000069
     9  C   -0.038823   0.316491   5.173531   0.365557  -0.044837   0.000959
    10  C   -0.016420  -0.020697   0.365557   4.957433   0.358155  -0.052268
    11  C   -0.000079   0.004144  -0.044837   0.358155   4.710471   0.542756
    12  C   -0.000010  -0.000069   0.000959  -0.052268   0.542756   5.046523
    13  C    0.000000   0.000001  -0.000160   0.006617  -0.021449   0.455114
    14  C   -0.000000  -0.000000   0.000002   0.000346  -0.025026  -0.027545
    15  C    0.000000  -0.000000  -0.000000   0.000004   0.000552   0.006272
    16  O   -0.000000   0.000000  -0.000000  -0.000000  -0.000005   0.000870
    17  O   -0.000000   0.000000  -0.000000  -0.000000  -0.000001  -0.000044
    18  C    0.000000  -0.000000   0.000000   0.000000   0.000000   0.000001
    19  C    0.000000  -0.000000   0.000286   0.005094  -0.021205  -0.045063
    20  C   -0.000002   0.000307  -0.008252  -0.053368   0.513983  -0.046977
    21  C   -0.045425  -0.012489  -0.057178   0.369740  -0.041192  -0.010177
    22  H   -0.000062   0.007044  -0.000077   0.003556  -0.000100   0.000001
    23  H   -0.000011   0.000474  -0.005739  -0.031906  -0.009285  -0.000244
    24  H    0.000111  -0.000384   0.005779  -0.033148  -0.001969   0.001151
    25  H    0.005219  -0.000300   0.000105  -0.001158  -0.000091  -0.000003
    26  H   -0.004417  -0.000045   0.000046   0.000201   0.000012   0.000000
    27  H   -0.038063   0.004668   0.000089   0.004055  -0.000094   0.000001
    28  H    0.368084  -0.039243   0.005145   0.000201   0.000012   0.000000
    29  H    0.361219  -0.031240  -0.005873  -0.001158  -0.000091  -0.000003
    30  H   -0.031239   0.345184  -0.030563   0.003556  -0.000100   0.000001
    31  H    0.005087  -0.037646   0.361419  -0.031907  -0.009284  -0.000244
    32  H   -0.006131  -0.029636   0.357234  -0.033148  -0.001969   0.001151
    33  H   -0.000004  -0.000005   0.000245  -0.015815  -0.039328   0.355231
    34  H   -0.000000  -0.000000   0.000001  -0.000138   0.003308  -0.038963
    35  H   -0.000000  -0.000000   0.000000   0.000000   0.000000  -0.000000
    36  H    0.000000   0.000000   0.000000  -0.000000  -0.000000  -0.000000
    37  H    0.000000  -0.000000   0.000000  -0.000000  -0.000000  -0.000000
    38  H   -0.000000  -0.000000  -0.000000  -0.000144   0.003178   0.000479
    39  H   -0.000003  -0.000107   0.000185  -0.007498  -0.047017   0.005557
    40  H   -0.003675  -0.001161  -0.005707  -0.031100  -0.006161   0.001621
    41  H    0.005156  -0.000152   0.005920  -0.031100  -0.006160   0.001620
              13         14         15         16         17         18
     1  O    0.000000  -0.000000   0.000000   0.000000   0.000000   0.000000
     2  C    0.000000  -0.000000   0.000000   0.000000  -0.000000  -0.000000
     3  C    0.000001  -0.000000  -0.000000   0.000000   0.000000  -0.000000
     4  C   -0.000160   0.000002  -0.000000  -0.000000  -0.000000   0.000000
     5  C    0.000000  -0.000000   0.000000  -0.000000  -0.000000   0.000000
     6  C   -0.000008   0.000000  -0.000000   0.000000   0.000000  -0.000000
     7  C    0.000000  -0.000000   0.000000  -0.000000  -0.000000   0.000000
     8  C    0.000001  -0.000000  -0.000000   0.000000   0.000000  -0.000000
     9  C   -0.000160   0.000002  -0.000000  -0.000000  -0.000000   0.000000
    10  C    0.006617   0.000346   0.000004  -0.000000  -0.000000   0.000000
    11  C   -0.021449  -0.025026   0.000552  -0.000005  -0.000001   0.000000
    12  C    0.455114  -0.027545   0.006272   0.000870  -0.000044   0.000001
    13  C    5.044575   0.518733  -0.042074   0.001418   0.004677  -0.000207
    14  C    0.518733   4.891948   0.341423  -0.082249  -0.090805   0.007898
    15  C   -0.042074   0.341423   4.388586   0.541872   0.255660  -0.021274
    16  O    0.001418  -0.082249   0.541872   8.084887  -0.090110   0.003735
    17  O    0.004677  -0.090805   0.255660  -0.090110   8.260152   0.210592
    18  C   -0.000207   0.007898  -0.021274   0.003735   0.210592   4.890473
    19  C   -0.068929   0.496116  -0.040368   0.004198   0.002272  -0.000349
    20  C   -0.048763  -0.020285   0.004861  -0.000065   0.000476   0.000001
    21  C    0.000178  -0.000016  -0.000000   0.000000   0.000000  -0.000000
    22  H   -0.000000   0.000000  -0.000000  -0.000000  -0.000000   0.000000
    23  H    0.000007  -0.000008  -0.000000   0.000000   0.000000  -0.000000
    24  H   -0.000017  -0.000010  -0.000000   0.000000   0.000000  -0.000000
    25  H   -0.000000  -0.000000  -0.000000  -0.000000  -0.000000   0.000000
    26  H   -0.000000   0.000000  -0.000000   0.000000   0.000000  -0.000000
    27  H    0.000000  -0.000000  -0.000000   0.000000   0.000000   0.000000
    28  H   -0.000000   0.000000  -0.000000   0.000000   0.000000  -0.000000
    29  H   -0.000000  -0.000000  -0.000000  -0.000000  -0.000000   0.000000
    30  H   -0.000000   0.000000  -0.000000  -0.000000  -0.000000   0.000000
    31  H    0.000007  -0.000008  -0.000000   0.000000   0.000000  -0.000000
    32  H   -0.000017  -0.000010  -0.000000   0.000000   0.000000  -0.000000
    33  H   -0.045500   0.003585  -0.000166  -0.000001   0.000000  -0.000000
    34  H    0.351975  -0.039882  -0.009698   0.014294   0.000317  -0.000024
    35  H    0.000000   0.000108   0.004370   0.000748  -0.032924   0.377905
    36  H   -0.000003  -0.000207  -0.004890   0.006268  -0.031635   0.373773
    37  H   -0.000003  -0.000208  -0.004887   0.006284  -0.031647   0.373767
    38  H    0.005701  -0.035205  -0.010080   0.000108   0.011067  -0.000389
    39  H    0.000691   0.003245  -0.000157   0.000000  -0.000003  -0.000000
    40  H    0.000053  -0.000007  -0.000000   0.000000   0.000000   0.000000
    41  H    0.000053  -0.000007  -0.000000   0.000000   0.000000   0.000000
              19         20         21         22         23         24
     1  O   -0.000000  -0.000001  -0.000032   0.004268   0.000779  -0.000079
     2  C   -0.000000  -0.000059  -0.003195  -0.031401  -0.000814   0.003483
     3  C   -0.000000   0.000307  -0.012489   0.345184  -0.037646  -0.029636
     4  C    0.000286  -0.008252  -0.057178  -0.030564   0.361418   0.357234
     5  C    0.000000  -0.000002  -0.045425  -0.031239   0.005087  -0.006131
     6  C    0.000001  -0.000095   0.362349   0.004203   0.000023  -0.000773
     7  C    0.000000  -0.000002  -0.045425  -0.000062  -0.000011   0.000111
     8  C   -0.000000   0.000307  -0.012489   0.007044   0.000474  -0.000384
     9  C    0.000286  -0.008252  -0.057178  -0.000077  -0.005739   0.005779
    10  C    0.005094  -0.053368   0.369740   0.003556  -0.031906  -0.033148
    11  C   -0.021205   0.513983  -0.041192  -0.000100  -0.009285  -0.001969
    12  C   -0.045063  -0.046977  -0.010177   0.000001  -0.000244   0.001151
    13  C   -0.068929  -0.048763   0.000178  -0.000000   0.000007  -0.000017
    14  C    0.496116  -0.020285  -0.000016   0.000000  -0.000008  -0.000010
    15  C   -0.040368   0.004861  -0.000000  -0.000000  -0.000000  -0.000000
    16  O    0.004198  -0.000065   0.000000  -0.000000   0.000000   0.000000
    17  O    0.002272   0.000476   0.000000  -0.000000   0.000000   0.000000
    18  C   -0.000349   0.000001  -0.000000   0.000000  -0.000000  -0.000000
    19  C    5.034338   0.477538  -0.000151  -0.000000   0.000024  -0.000049
    20  C    0.477538   5.048793   0.005540  -0.000007   0.005259  -0.000209
    21  C   -0.000151   0.005540   5.151281   0.000160   0.005654  -0.005555
    22  H   -0.000000  -0.000007   0.000160   0.597391  -0.002778  -0.003807
    23  H    0.000024   0.005259   0.005654  -0.002778   0.589531  -0.034362
    24  H   -0.000049  -0.000209  -0.005555  -0.003807  -0.034362   0.592165
    25  H   -0.000000   0.000000  -0.003789  -0.003975  -0.000059   0.005665
    26  H    0.000000  -0.000000   0.004966  -0.002460  -0.000158  -0.000045
    27  H   -0.000000   0.000002  -0.038623  -0.000145   0.000017  -0.000097
    28  H    0.000000  -0.000000   0.004966  -0.000083  -0.000005   0.000001
    29  H   -0.000000   0.000000  -0.003789   0.000023   0.000001  -0.000005
    30  H   -0.000000  -0.000007   0.000160  -0.000178  -0.000073   0.000023
    31  H    0.000024   0.005259   0.005654  -0.000073   0.003103  -0.000008
    32  H   -0.000049  -0.000209  -0.005555   0.000023  -0.000008  -0.000196
    33  H    0.000613   0.006028   0.007999   0.000000  -0.000007  -0.000023
    34  H    0.005940   0.000436   0.000005   0.000000   0.000000   0.000001
    35  H   -0.000069  -0.000001  -0.000000   0.000000  -0.000000   0.000000
    36  H    0.000054   0.000001   0.000000   0.000000   0.000000  -0.000000
    37  H    0.000054   0.000001   0.000000  -0.000000   0.000000   0.000000
    38  H    0.354210  -0.041690   0.000002   0.000000   0.000006   0.000000
    39  H   -0.037561   0.353185   0.000089   0.000005   0.003557   0.000054
    40  H   -0.000000  -0.000081   0.359010   0.000018  -0.000167  -0.000077
    41  H   -0.000000  -0.000081   0.359011  -0.000076  -0.000042   0.005294
              25         26         27         28         29         30
     1  O   -0.000082   0.000717  -0.000000   0.000717  -0.000082   0.004268
     2  C    0.003541  -0.000899   0.000300  -0.000899   0.003541  -0.031401
     3  C   -0.031240  -0.039243   0.004668  -0.000045  -0.000300   0.007044
     4  C   -0.005873   0.005145   0.000089   0.000046   0.000105  -0.000077
     5  C    0.361219   0.368084  -0.038064  -0.004417   0.005219  -0.000062
     6  C   -0.033144  -0.035183   0.370207  -0.035183  -0.033144   0.004203
     7  C    0.005219  -0.004417  -0.038063   0.368084   0.361219  -0.031239
     8  C   -0.000300  -0.000045   0.004668  -0.039243  -0.031240   0.345184
     9  C    0.000105   0.000046   0.000089   0.005145  -0.005873  -0.030563
    10  C   -0.001158   0.000201   0.004055   0.000201  -0.001158   0.003556
    11  C   -0.000091   0.000012  -0.000094   0.000012  -0.000091  -0.000100
    12  C   -0.000003   0.000000   0.000001   0.000000  -0.000003   0.000001
    13  C   -0.000000  -0.000000   0.000000  -0.000000  -0.000000  -0.000000
    14  C   -0.000000   0.000000  -0.000000   0.000000  -0.000000   0.000000
    15  C   -0.000000  -0.000000  -0.000000  -0.000000  -0.000000  -0.000000
    16  O   -0.000000   0.000000   0.000000   0.000000  -0.000000  -0.000000
    17  O   -0.000000   0.000000   0.000000   0.000000  -0.000000  -0.000000
    18  C    0.000000  -0.000000   0.000000  -0.000000   0.000000   0.000000
    19  C   -0.000000   0.000000  -0.000000   0.000000  -0.000000  -0.000000
    20  C    0.000000  -0.000000   0.000002  -0.000000   0.000000  -0.000007
    21  C   -0.003789   0.004966  -0.038623   0.004966  -0.003789   0.000160
    22  H   -0.003975  -0.002460  -0.000145  -0.000083   0.000023  -0.000178
    23  H   -0.000059  -0.000158   0.000017  -0.000005   0.000001  -0.000073
    24  H    0.005665  -0.000045  -0.000097   0.000001  -0.000005   0.000023
    25  H    0.598406  -0.034993  -0.003329   0.000012  -0.000199   0.000023
    26  H   -0.034993   0.591524  -0.003309   0.004345   0.000012  -0.000083
    27  H   -0.003329  -0.003309   0.623347  -0.003309  -0.003329  -0.000145
    28  H    0.000012   0.004345  -0.003309   0.591523  -0.034993  -0.002460
    29  H   -0.000199   0.000012  -0.003329  -0.034993   0.598405  -0.003975
    30  H    0.000023  -0.000083  -0.000145  -0.002460  -0.003975   0.597391
    31  H    0.000001  -0.000005   0.000017  -0.000158  -0.000059  -0.002778
    32  H   -0.000005   0.000001  -0.000097  -0.000045   0.005665  -0.003807
    33  H   -0.000001  -0.000000   0.000006  -0.000000  -0.000001   0.000000
    34  H    0.000000  -0.000000   0.000000  -0.000000   0.000000   0.000000
    35  H   -0.000000   0.000000   0.000000   0.000000  -0.000000   0.000000
    36  H    0.000000   0.000000  -0.000000  -0.000000  -0.000000  -0.000000
    37  H   -0.000000  -0.000000  -0.000000   0.000000   0.000000   0.000000
    38  H    0.000000  -0.000000   0.000000  -0.000000   0.000000   0.000000
    39  H    0.000000  -0.000000   0.000000  -0.000000   0.000000   0.000005
    40  H   -0.000054  -0.000161  -0.003659  -0.000028   0.004638  -0.000076
    41  H    0.004638  -0.000028  -0.003659  -0.000161  -0.000054   0.000018
              31         32         33         34         35         36
     1  O    0.000779  -0.000079   0.000000   0.000000   0.000000   0.000000
     2  C   -0.000814   0.003483  -0.000001  -0.000000  -0.000000   0.000000
     3  C    0.000474  -0.000384  -0.000005  -0.000000  -0.000000  -0.000000
     4  C   -0.005739   0.005779   0.000245   0.000001   0.000000   0.000000
     5  C   -0.000011   0.000111  -0.000004  -0.000000  -0.000000   0.000000
     6  C    0.000023  -0.000773   0.000031  -0.000000  -0.000000   0.000000
     7  C    0.005087  -0.006131  -0.000004  -0.000000  -0.000000   0.000000
     8  C   -0.037646  -0.029636  -0.000005  -0.000000  -0.000000   0.000000
     9  C    0.361419   0.357234   0.000245   0.000001   0.000000   0.000000
    10  C   -0.031907  -0.033148  -0.015815  -0.000138   0.000000  -0.000000
    11  C   -0.009284  -0.001969  -0.039328   0.003308   0.000000  -0.000000
    12  C   -0.000244   0.001151   0.355231  -0.038963  -0.000000  -0.000000
    13  C    0.000007  -0.000017  -0.045500   0.351975   0.000000  -0.000003
    14  C   -0.000008  -0.000010   0.003585  -0.039882   0.000108  -0.000207
    15  C   -0.000000  -0.000000  -0.000166  -0.009698   0.004370  -0.004890
    16  O    0.000000   0.000000  -0.000001   0.014294   0.000748   0.006268
    17  O    0.000000   0.000000   0.000000   0.000317  -0.032924  -0.031635
    18  C   -0.000000  -0.000000  -0.000000  -0.000024   0.377905   0.373773
    19  C    0.000024  -0.000049   0.000613   0.005940  -0.000069   0.000054
    20  C    0.005259  -0.000209   0.006028   0.000436  -0.000001   0.000001
    21  C    0.005654  -0.005555   0.007999   0.000005  -0.000000   0.000000
    22  H   -0.000073   0.000023   0.000000   0.000000   0.000000   0.000000
    23  H    0.003103  -0.000008  -0.000007   0.000000  -0.000000   0.000000
    24  H   -0.000008  -0.000196  -0.000023   0.000001   0.000000  -0.000000
    25  H    0.000001  -0.000005  -0.000001   0.000000  -0.000000   0.000000
    26  H   -0.000005   0.000001  -0.000000  -0.000000   0.000000   0.000000
    27  H    0.000017  -0.000097   0.000006   0.000000   0.000000  -0.000000
    28  H   -0.000158  -0.000045  -0.000000  -0.000000   0.000000  -0.000000
    29  H   -0.000059   0.005665  -0.000001   0.000000  -0.000000  -0.000000
    30  H   -0.002778  -0.003807   0.000000   0.000000   0.000000  -0.000000
    31  H    0.589530  -0.034362  -0.000007   0.000000  -0.000000   0.000000
    32  H   -0.034362   0.592164  -0.000023   0.000001   0.000000   0.000000
    33  H   -0.000007  -0.000023   0.591603  -0.004708   0.000000   0.000000
    34  H    0.000000   0.000001  -0.004708   0.555330  -0.000000  -0.000002
    35  H   -0.000000   0.000000   0.000000  -0.000000   0.549255  -0.031446
    36  H    0.000000   0.000000   0.000000  -0.000002  -0.031446   0.554128
    37  H    0.000000  -0.000000   0.000000  -0.000002  -0.031445  -0.037367
    38  H    0.000006   0.000000   0.000018  -0.000171  -0.000007   0.000022
    39  H    0.003557   0.000054  -0.000172   0.000019  -0.000000  -0.000000
    40  H   -0.000042   0.005294   0.002261   0.000003  -0.000000   0.000000
    41  H   -0.000167  -0.000077   0.002261   0.000003  -0.000000  -0.000000
              37         38         39         40         41
     1  O    0.000000   0.000000  -0.000001   0.000000   0.000000
     2  C    0.000000  -0.000000  -0.000049   0.000163   0.000163
     3  C    0.000000  -0.000000  -0.000107  -0.000152  -0.001161
     4  C    0.000000  -0.000000   0.000185   0.005920  -0.005707
     5  C    0.000000  -0.000000  -0.000003   0.005156  -0.003675
     6  C    0.000000  -0.000000  -0.000002  -0.035470  -0.035470
     7  C    0.000000  -0.000000  -0.000003  -0.003675   0.005156
     8  C   -0.000000  -0.000000  -0.000107  -0.001161  -0.000152
     9  C    0.000000  -0.000000   0.000185  -0.005707   0.005920
    10  C   -0.000000  -0.000144  -0.007498  -0.031100  -0.031100
    11  C   -0.000000   0.003178  -0.047017  -0.006161  -0.006160
    12  C   -0.000000   0.000479   0.005557   0.001621   0.001620
    13  C   -0.000003   0.005701   0.000691   0.000053   0.000053
    14  C   -0.000208  -0.035205   0.003245  -0.000007  -0.000007
    15  C   -0.004887  -0.010080  -0.000157  -0.000000  -0.000000
    16  O    0.006284   0.000108   0.000000   0.000000   0.000000
    17  O   -0.031647   0.011067  -0.000003   0.000000   0.000000
    18  C    0.373767  -0.000389  -0.000000   0.000000   0.000000
    19  C    0.000054   0.354210  -0.037561  -0.000000  -0.000000
    20  C    0.000001  -0.041690   0.353185  -0.000081  -0.000081
    21  C    0.000000   0.000002   0.000089   0.359010   0.359011
    22  H   -0.000000   0.000000   0.000005   0.000018  -0.000076
    23  H    0.000000   0.000006   0.003557  -0.000167  -0.000042
    24  H    0.000000   0.000000   0.000054  -0.000077   0.005294
    25  H   -0.000000   0.000000   0.000000  -0.000054   0.004638
    26  H   -0.000000  -0.000000  -0.000000  -0.000161  -0.000028
    27  H   -0.000000   0.000000   0.000000  -0.003659  -0.003659
    28  H    0.000000  -0.000000  -0.000000  -0.000028  -0.000161
    29  H    0.000000   0.000000   0.000000   0.004638  -0.000054
    30  H    0.000000   0.000000   0.000005  -0.000076   0.000018
    31  H    0.000000   0.000006   0.003557  -0.000042  -0.000167
    32  H   -0.000000   0.000000   0.000054   0.005294  -0.000077
    33  H    0.000000   0.000018  -0.000172   0.002261   0.002261
    34  H   -0.000002  -0.000171   0.000019   0.000003   0.000003
    35  H   -0.031445  -0.000007  -0.000000  -0.000000  -0.000000
    36  H   -0.037367   0.000022  -0.000000   0.000000  -0.000000
    37  H    0.554114   0.000022  -0.000000  -0.000000   0.000000
    38  H    0.000022   0.561828  -0.004960   0.000000   0.000000
    39  H   -0.000000  -0.004960   0.592380   0.000002   0.000002
    40  H   -0.000000   0.000000   0.000002   0.603993  -0.038758
    41  H    0.000000   0.000000   0.000002  -0.038758   0.603994
 Mulliken charges:
               1
     1  O   -0.458242
     2  C    0.453690
     3  C   -0.167369
     4  C   -0.289439
     5  C   -0.280550
     6  C   -0.097223
     7  C   -0.280551
     8  C   -0.167369
     9  C   -0.289438
    10  C   -0.003559
    11  C    0.176119
    12  C   -0.199121
    13  C   -0.162513
    14  C    0.058073
    15  C    0.589994
    16  O   -0.492252
    17  O   -0.468044
    18  C   -0.215902
    19  C   -0.167255
    20  C   -0.193571
    21  C   -0.294506
    22  H    0.145149
    23  H    0.148373
    24  H    0.145618
    25  H    0.139468
    26  H    0.145976
    27  H    0.128455
    28  H    0.145976
    29  H    0.139468
    30  H    0.145149
    31  H    0.148373
    32  H    0.145619
    33  H    0.135649
    34  H    0.161956
    35  H    0.163506
    36  H    0.171304
    37  H    0.171317
    38  H    0.156001
    39  H    0.134869
    40  H    0.138404
    41  H    0.138403
 Sum of Mulliken charges =  -0.00000
 Mulliken charges with hydrogens summed into heavy atoms:
               1
     1  O   -0.458242
     2  C    0.453690
     3  C   -0.022221
     4  C    0.004552
     5  C    0.004893
     6  C    0.031231
     7  C    0.004893
     8  C   -0.022221
     9  C    0.004554
    10  C   -0.003559
    11  C    0.176119
    12  C   -0.063472
    13  C   -0.000557
    14  C    0.058073
    15  C    0.589994
    16  O   -0.492252
    17  O   -0.468044
    18  C    0.290225
    19  C   -0.011255
    20  C   -0.058702
    21  C   -0.017699
 APT charges:
               1
     1  O   -0.646176
     2  C    0.701112
     3  C   -0.046788
     4  C    0.072884
     5  C    0.111468
     6  C    0.119960
     7  C    0.111468
     8  C   -0.046788
     9  C    0.072880
    10  C    0.086349
    11  C    0.143914
    12  C   -0.137333
    13  C    0.048269
    14  C   -0.300388
    15  C    1.376771
    16  O   -0.783140
    17  O   -0.926051
    18  C    0.556396
    19  C    0.056313
    20  C   -0.145065
    21  C    0.050659
    22  H   -0.060772
    23  H   -0.024284
    24  H   -0.035325
    25  H   -0.042302
    26  H   -0.045618
    27  H   -0.076396
    28  H   -0.045618
    29  H   -0.042302
    30  H   -0.060772
    31  H   -0.024285
    32  H   -0.035324
    33  H    0.037571
    34  H    0.060113
    35  H   -0.015848
    36  H   -0.034780
    37  H   -0.034762
    38  H    0.051100
    39  H    0.027128
    40  H   -0.037119
    41  H   -0.037120
 Sum of APT charges =   0.00000
 APT charges with hydrogens summed into heavy atoms:
               1
     1  O   -0.646176
     2  C    0.701112
     3  C   -0.107560
     4  C    0.013275
     5  C    0.023547
     6  C    0.043564
     7  C    0.023548
     8  C   -0.107560
     9  C    0.013272
    10  C    0.086349
    11  C    0.143914
    12  C   -0.099762
    13  C    0.108382
    14  C   -0.300388
    15  C    1.376771
    16  O   -0.783140
    17  O   -0.926051
    18  C    0.471006
    19  C    0.107413
    20  C   -0.117937
    21  C   -0.023580
 Electronic spatial extent (au):  <R**2>=           8362.5582
 Charge=             -0.0000 electrons
 Dipole moment (field-independent basis, Debye):
    X=             -0.3267    Y=              1.0255    Z=             -0.0001  Tot=              1.0762
 Quadrupole moment (field-independent basis, Debye-Ang):
   XX=           -129.5825   YY=           -127.0916   ZZ=           -120.8750
   XY=             25.5361   XZ=              0.0006   YZ=             -0.0007
 Traceless Quadrupole moment (field-independent basis, Debye-Ang):
   XX=             -3.7328   YY=             -1.2419   ZZ=              4.9747
   XY=             25.5361   XZ=              0.0006   YZ=             -0.0007
 Octapole moment (field-independent basis, Debye-Ang**2):
  XXX=           -146.0027  YYY=              9.6203  ZZZ=              0.0038  XYY=            -37.3418
  XXY=            -13.5082  XXZ=              0.0069  XZZ=             -1.2310  YZZ=             -2.9544
  YYZ=              0.0014  XYZ=              0.0054
 Hexadecapole moment (field-independent basis, Debye-Ang**3):
 XXXX=          -8717.7791 YYYY=          -1138.5169 ZZZZ=           -568.7667 XXXY=            774.6778
 XXXZ=             -0.0622 YYYX=             96.8729 YYYZ=             -0.0001 ZZZX=             -0.0130
 ZZZY=             -0.0001 XXYY=          -1912.4753 XXZZ=          -1577.8199 YYZZ=           -284.7472
 XXYZ=             -0.0435 YYXZ=             -0.0082 ZZXY=            -15.7593
 N-N= 1.658311947420D+03 E-N=-5.463560398207D+03  KE= 9.150383927674D+02
  Exact polarizability: 265.690  -1.218 176.053  -0.002   0.003 125.891
 Approx polarizability: 332.863 -16.668 309.870  -0.003   0.011 192.604
 Calling FoFJK, ICntrl=    100127 FMM=F ISym2X=0 I1Cent= 0 IOpClX= 0 NMat=1 NMatS=1 NMatT=0.
 Full mass-weighted force constant matrix:
 Low frequencies ---   -3.3332   -1.5094   -0.0008   -0.0005    0.0007   10.2374
 Low frequencies ---   36.4236   39.5482   65.6554
 Diagonal vibrational polarizability:
       36.4336001      13.8753349      64.5025864
 Harmonic frequencies (cm**-1), IR intensities (KM/Mole), Raman scattering
 activities (A**4/AMU), depolarization ratios for plane and unpolarized
 incident light, reduced masses (AMU), force constants (mDyne/A),
 and normal coordinates:
                      1                      2                      3
                      A                      A                      A
 Frequencies --     36.3665                39.5467                65.6551
 Red. masses --      4.9770                 4.6624                 8.1168
 Frc consts  --      0.0039                 0.0043                 0.0206
 IR Inten    --      2.4572                 0.0663                 2.8248
  Atom  AN      X      Y      Z        X      Y      Z        X      Y      Z
     1   8    -0.00  -0.00   0.11     0.00   0.00  -0.11     0.46   0.27   0.00
     2   6    -0.00  -0.00   0.05     0.00   0.00  -0.07     0.15   0.07   0.00
     3   6    -0.01  -0.07   0.02    -0.08  -0.00  -0.04     0.02  -0.02   0.00
     4   6    -0.01  -0.07   0.02    -0.08  -0.01   0.07     0.01  -0.11   0.01
     5   6    -0.01  -0.07  -0.07    -0.08  -0.00  -0.08    -0.06   0.02  -0.01
     6   6     0.00   0.00  -0.11     0.00   0.00  -0.05    -0.08  -0.01   0.00
     7   6     0.01   0.07  -0.07     0.08   0.00  -0.08    -0.06   0.02   0.01
     8   6     0.01   0.07   0.02     0.08   0.00  -0.04     0.02  -0.02  -0.00
     9   6     0.01   0.07   0.02     0.08   0.01   0.07     0.01  -0.11  -0.01
    10   6     0.00   0.00  -0.02     0.00  -0.00   0.10    -0.02  -0.11  -0.00
    11   6     0.00   0.00   0.00     0.00  -0.00   0.16    -0.03  -0.12  -0.00
    12   6     0.00   0.00   0.12     0.00  -0.00   0.08     0.00  -0.10   0.00
    13   6     0.00   0.00   0.15     0.00  -0.00   0.04     0.00  -0.06   0.00
    14   6    -0.00   0.00   0.06     0.00  -0.00   0.08    -0.03  -0.04  -0.00
    15   6     0.00   0.00   0.07     0.00  -0.00  -0.05    -0.03   0.05   0.00
    16   8     0.00  -0.00   0.30    -0.00   0.00  -0.16     0.04   0.10   0.00
    17   8    -0.00  -0.00  -0.20    -0.00   0.00  -0.06    -0.12   0.09  -0.00
    18   6    -0.00  -0.00  -0.22    -0.00   0.00  -0.23    -0.13   0.21   0.00
    19   6    -0.00   0.00  -0.05    -0.00  -0.00   0.20    -0.07  -0.06  -0.00
    20   6     0.00   0.00  -0.07    -0.00  -0.00   0.24    -0.06  -0.10  -0.00
    21   6     0.00   0.00  -0.10     0.00  -0.00   0.05    -0.08  -0.09  -0.00
    22   1    -0.01  -0.12   0.05    -0.14  -0.00  -0.06     0.05   0.00   0.00
    23   1    -0.00  -0.07   0.07    -0.08  -0.01   0.10     0.06  -0.13   0.03
    24   1    -0.01  -0.12  -0.01    -0.14  -0.01   0.09    -0.02  -0.14   0.00
    25   1    -0.01  -0.13  -0.10    -0.15  -0.00  -0.06    -0.10   0.00  -0.00
    26   1    -0.01  -0.07  -0.08    -0.09   0.00  -0.15    -0.06   0.07  -0.03
    27   1     0.00   0.00  -0.17     0.00   0.00  -0.08    -0.13   0.01   0.00
    28   1     0.01   0.07  -0.08     0.09  -0.00  -0.15    -0.06   0.07   0.03
    29   1     0.01   0.13  -0.10     0.15   0.00  -0.06    -0.10   0.00   0.00
    30   1     0.01   0.12   0.05     0.14   0.00  -0.06     0.05   0.00  -0.00
    31   1     0.00   0.07   0.07     0.08   0.01   0.10     0.06  -0.13  -0.03
    32   1     0.01   0.12  -0.01     0.14   0.01   0.09    -0.02  -0.14  -0.00
    33   1     0.00  -0.00   0.17     0.00  -0.00   0.03     0.02  -0.11   0.00
    34   1     0.00   0.00   0.24     0.00  -0.00  -0.05     0.03  -0.04   0.00
    35   1    -0.00  -0.00  -0.48    -0.00   0.00  -0.21    -0.22   0.23  -0.00
    36   1     0.01   0.22  -0.10     0.11  -0.04  -0.29    -0.09   0.25   0.00
    37   1    -0.01  -0.22  -0.10    -0.11   0.04  -0.29    -0.09   0.24  -0.00
    38   1    -0.00   0.00  -0.12    -0.00  -0.00   0.25    -0.09  -0.05  -0.00
    39   1    -0.00   0.00  -0.14    -0.00  -0.00   0.32    -0.09  -0.12  -0.00
    40   1     0.02   0.04  -0.12     0.05   0.01   0.07    -0.10  -0.10  -0.00
    41   1    -0.02  -0.04  -0.12    -0.05  -0.01   0.07    -0.10  -0.10   0.00
                      4                      5                      6
                      A                      A                      A
 Frequencies --     75.4297               107.2447               114.9977
 Red. masses --      4.0440                 5.6356                 2.5069
 Frc consts  --      0.0136                 0.0382                 0.0195
 IR Inten    --      0.3149                 1.0837                 1.4692
  Atom  AN      X      Y      Z        X      Y      Z        X      Y      Z
     1   8     0.00   0.00  -0.03     0.26   0.12   0.00     0.00   0.00  -0.02
     2   6     0.00   0.00  -0.01    -0.01  -0.05   0.00    -0.00  -0.00  -0.00
     3   6     0.01   0.03  -0.00    -0.08  -0.10   0.00    -0.04  -0.01   0.01
     4   6     0.01   0.02  -0.02    -0.07   0.00   0.01    -0.04  -0.01   0.07
     5   6     0.01   0.03   0.04     0.01  -0.13  -0.01    -0.05  -0.00  -0.03
     6   6    -0.00  -0.00   0.05     0.06  -0.10  -0.00     0.00  -0.00  -0.01
     7   6    -0.01  -0.03   0.04     0.01  -0.13   0.01     0.05   0.00  -0.03
     8   6    -0.01  -0.03  -0.00    -0.08  -0.10  -0.00     0.04   0.01   0.01
     9   6    -0.01  -0.02  -0.02    -0.07   0.00  -0.01     0.04   0.01   0.07
    10   6    -0.00   0.00  -0.01    -0.03   0.05  -0.00    -0.00   0.00   0.08
    11   6     0.00   0.00  -0.03    -0.03   0.12  -0.00    -0.00   0.00   0.07
    12   6     0.00   0.00  -0.25    -0.02   0.13  -0.00    -0.00   0.00   0.04
    13   6     0.00   0.00  -0.23    -0.03   0.13  -0.00    -0.00   0.00  -0.05
    14   6    -0.00   0.00  -0.01    -0.03   0.13   0.00    -0.00   0.00  -0.12
    15   6    -0.00   0.00   0.05    -0.03   0.03   0.00    -0.00   0.00  -0.10
    16   8     0.00  -0.00   0.22    -0.13  -0.03   0.00    -0.00  -0.00  -0.00
    17   8    -0.00  -0.00  -0.11     0.10  -0.03   0.00     0.00  -0.00  -0.14
    18   6    -0.00   0.00  -0.04     0.11  -0.23  -0.00     0.00  -0.00   0.18
    19   6    -0.00  -0.00   0.17    -0.03   0.13   0.00    -0.00   0.00  -0.09
    20   6    -0.00  -0.00   0.16    -0.04   0.13   0.00    -0.00   0.00   0.01
    21   6    -0.00  -0.00   0.02     0.06   0.01  -0.00     0.00   0.00   0.05
    22   1     0.03   0.05  -0.01    -0.11  -0.11  -0.00    -0.08  -0.01  -0.00
    23   1     0.01   0.03  -0.04    -0.14   0.03   0.02    -0.04  -0.02   0.10
    24   1     0.02   0.04  -0.01    -0.04   0.01   0.00    -0.08  -0.03   0.08
    25   1     0.03   0.05   0.05     0.03  -0.11  -0.00    -0.10  -0.01  -0.02
    26   1     0.01   0.03   0.05     0.00  -0.20  -0.01    -0.06   0.00  -0.08
    27   1    -0.00  -0.00   0.08     0.13  -0.13   0.00     0.00  -0.00  -0.03
    28   1    -0.01  -0.03   0.05     0.00  -0.20   0.01     0.06  -0.01  -0.08
    29   1    -0.03  -0.05   0.05     0.03  -0.11   0.00     0.10   0.01  -0.02
    30   1    -0.03  -0.05  -0.01    -0.11  -0.11   0.00     0.08   0.01  -0.00
    31   1    -0.01  -0.03  -0.04    -0.14   0.03  -0.02     0.04   0.02   0.10
    32   1    -0.02  -0.04  -0.01    -0.04   0.01  -0.00     0.08   0.03   0.08
    33   1     0.00   0.00  -0.42    -0.01   0.12  -0.00    -0.00   0.00   0.09
    34   1     0.00   0.00  -0.37    -0.03   0.14  -0.00    -0.00   0.00  -0.06
    35   1    -0.00  -0.00  -0.26     0.26  -0.26   0.00     0.00  -0.00  -0.12
    36   1    -0.05   0.20   0.10     0.04  -0.28  -0.00    -0.22   0.32   0.46
    37   1     0.05  -0.20   0.10     0.04  -0.28   0.00     0.22  -0.32   0.46
    38   1    -0.00  -0.00   0.33    -0.03   0.14   0.00    -0.00   0.00  -0.13
    39   1    -0.00  -0.00   0.32    -0.04   0.12   0.00    -0.00   0.00   0.03
    40   1    -0.03  -0.01   0.02     0.09   0.03  -0.00     0.03   0.00   0.07
    41   1     0.03   0.01   0.02     0.09   0.03   0.00    -0.03  -0.00   0.07
                      7                      8                      9
                      A                      A                      A
 Frequencies --    137.7962               176.7898               188.4332
 Red. masses --      1.3074                 4.0347                 4.0414
 Frc consts  --      0.0146                 0.0743                 0.0845
 IR Inten    --      0.0169                 0.7549                 1.9930
  Atom  AN      X      Y      Z        X      Y      Z        X      Y      Z
     1   8    -0.00  -0.00  -0.01    -0.06  -0.03  -0.00     0.00   0.00  -0.02
     2   6     0.00   0.00  -0.00     0.03   0.03   0.00    -0.00  -0.00   0.00
     3   6    -0.02  -0.00   0.00     0.03   0.03  -0.00    -0.04  -0.00   0.02
     4   6    -0.01  -0.01   0.03     0.02  -0.11   0.01    -0.03  -0.03   0.10
     5   6    -0.02   0.00  -0.01    -0.09   0.08  -0.01    -0.09   0.02  -0.03
     6   6    -0.00   0.00  -0.00    -0.12   0.04  -0.00     0.00  -0.00   0.01
     7   6     0.02  -0.00  -0.01    -0.09   0.08   0.01     0.09  -0.02  -0.03
     8   6     0.02   0.00   0.00     0.03   0.03   0.00     0.04   0.00   0.02
     9   6     0.01   0.01   0.03     0.02  -0.11  -0.01     0.03   0.03   0.10
    10   6    -0.00  -0.00   0.03    -0.01  -0.12   0.00    -0.00   0.00   0.09
    11   6    -0.00  -0.00   0.02    -0.00  -0.09  -0.00    -0.00   0.00  -0.01
    12   6     0.00  -0.00  -0.01     0.08  -0.03  -0.00    -0.00   0.00  -0.10
    13   6     0.00  -0.00  -0.04     0.08   0.08  -0.00    -0.00  -0.00  -0.15
    14   6     0.00   0.00  -0.05     0.02   0.12   0.00     0.00  -0.00  -0.11
    15   6     0.00   0.00  -0.02     0.03   0.12   0.00     0.00  -0.00   0.08
    16   8     0.00   0.00   0.08    -0.02   0.08  -0.00     0.00  -0.00   0.08
    17   8    -0.00   0.00  -0.07     0.14   0.07   0.00     0.00  -0.00   0.25
    18   6     0.00  -0.00   0.02     0.16  -0.14  -0.00    -0.00   0.00  -0.14
    19   6    -0.00  -0.00  -0.04    -0.06   0.07  -0.00     0.00  -0.00  -0.18
    20   6    -0.00  -0.00  -0.00    -0.06  -0.04  -0.00     0.00   0.00  -0.12
    21   6    -0.00  -0.00   0.02    -0.11  -0.09  -0.00     0.00   0.00   0.10
    22   1    -0.03  -0.00   0.00     0.07   0.05   0.00    -0.07  -0.00   0.01
    23   1    -0.01  -0.01   0.04     0.11  -0.15   0.05    -0.01  -0.04   0.16
    24   1    -0.03  -0.01   0.03    -0.04  -0.17  -0.00    -0.09  -0.08   0.10
    25   1    -0.04  -0.00  -0.00    -0.16   0.05   0.00    -0.20   0.00  -0.00
    26   1    -0.02   0.01  -0.03    -0.09   0.17  -0.04    -0.09   0.06  -0.14
    27   1    -0.00   0.00  -0.01    -0.20   0.07  -0.00     0.00  -0.00  -0.00
    28   1     0.02  -0.01  -0.03    -0.09   0.17   0.04     0.09  -0.06  -0.14
    29   1     0.04   0.00  -0.00    -0.16   0.05  -0.00     0.20  -0.00  -0.00
    30   1     0.03   0.00   0.00     0.07   0.05  -0.00     0.07   0.00   0.01
    31   1     0.01   0.01   0.04     0.11  -0.15  -0.05     0.01   0.04   0.16
    32   1     0.03   0.01   0.03    -0.04  -0.17   0.00     0.09   0.08   0.10
    33   1     0.00  -0.00   0.00     0.14  -0.07  -0.00    -0.00   0.00  -0.09
    34   1     0.00  -0.00  -0.04     0.15   0.12  -0.00    -0.00  -0.00  -0.15
    35   1     0.00   0.00   0.60     0.31  -0.18  -0.00    -0.00   0.00  -0.36
    36   1    -0.04  -0.49  -0.24     0.08  -0.21  -0.00     0.25   0.12  -0.18
    37   1     0.04   0.49  -0.24     0.08  -0.21   0.00    -0.25  -0.12  -0.18
    38   1    -0.00  -0.00  -0.05    -0.14   0.11  -0.00     0.00  -0.00  -0.22
    39   1    -0.00  -0.00   0.02    -0.12  -0.08  -0.00     0.00   0.00  -0.12
    40   1     0.01  -0.00   0.03    -0.15  -0.12   0.00     0.03  -0.03   0.13
    41   1    -0.01   0.00   0.03    -0.15  -0.12  -0.00    -0.03   0.03   0.13
                     10                     11                     12
                      A                      A                      A
 Frequencies --    207.6741               277.5442               280.2275
 Red. masses --      6.4546                 2.6394                 2.3294
 Frc consts  --      0.1640                 0.1198                 0.1078
 IR Inten    --      0.2816                 0.5537                 0.9010
  Atom  AN      X      Y      Z        X      Y      Z        X      Y      Z
     1   8     0.00   0.11   0.00    -0.00  -0.00   0.06    -0.00  -0.00   0.14
     2   6    -0.15   0.01  -0.00    -0.00  -0.00   0.03    -0.00  -0.00   0.05
     3   6    -0.18  -0.03  -0.01     0.06   0.03   0.01    -0.02  -0.05   0.00
     4   6    -0.15   0.03  -0.01     0.06  -0.06   0.01    -0.02   0.13  -0.09
     5   6    -0.15  -0.04  -0.01    -0.11   0.10  -0.06    -0.04  -0.04  -0.05
     6   6    -0.09  -0.03  -0.00    -0.00  -0.00   0.04     0.00   0.00  -0.05
     7   6    -0.15  -0.04   0.01     0.11  -0.10  -0.06     0.04   0.04  -0.05
     8   6    -0.18  -0.03   0.01    -0.06  -0.03   0.01     0.02   0.05   0.00
     9   6    -0.15   0.03   0.01    -0.06   0.06   0.01     0.02  -0.13  -0.09
    10   6    -0.07   0.04  -0.00     0.00  -0.00  -0.05     0.00   0.00  -0.01
    11   6     0.01   0.02   0.00     0.00   0.00  -0.11    -0.00  -0.00   0.01
    12   6     0.04   0.02   0.00     0.00   0.00  -0.07    -0.00  -0.00   0.01
    13   6     0.06  -0.04   0.00     0.00   0.00   0.06    -0.00   0.00  -0.02
    14   6     0.15  -0.07   0.00     0.00   0.00   0.12    -0.00   0.00  -0.02
    15   6     0.20  -0.04   0.00     0.00  -0.00   0.02    -0.00   0.00  -0.00
    16   8     0.26  -0.00   0.00    -0.00  -0.00  -0.05     0.00   0.00   0.01
    17   8     0.16  -0.01   0.00    -0.00  -0.00  -0.07     0.00   0.00   0.01
    18   6     0.16   0.11  -0.00     0.00   0.00   0.02    -0.00  -0.00  -0.00
    19   6     0.13  -0.08   0.00     0.00   0.00   0.07    -0.00  -0.00  -0.00
    20   6     0.11  -0.03   0.00     0.00   0.00  -0.07    -0.00  -0.00   0.01
    21   6    -0.07   0.03  -0.00    -0.00  -0.00   0.08    -0.00  -0.00   0.14
    22   1    -0.17  -0.04  -0.00     0.10   0.04   0.01    -0.02  -0.08   0.02
    23   1    -0.20   0.05  -0.02     0.11  -0.09   0.10    -0.17   0.20  -0.30
    24   1    -0.15   0.06   0.01     0.03  -0.17  -0.04     0.14   0.34  -0.03
    25   1    -0.16  -0.03  -0.00    -0.36   0.07   0.01    -0.10  -0.08  -0.06
    26   1    -0.15  -0.07  -0.05    -0.11   0.25  -0.26    -0.04   0.01  -0.10
    27   1    -0.04  -0.05  -0.00    -0.00  -0.00   0.09     0.00   0.00  -0.10
    28   1    -0.15  -0.07   0.05     0.11  -0.25  -0.26     0.04  -0.01  -0.10
    29   1    -0.16  -0.03   0.00     0.36  -0.07   0.01     0.10   0.08  -0.06
    30   1    -0.17  -0.04   0.00    -0.10  -0.04   0.01     0.02   0.08   0.02
    31   1    -0.20   0.05   0.01    -0.11   0.09   0.10     0.17  -0.20  -0.30
    32   1    -0.15   0.06  -0.01    -0.03   0.17  -0.04    -0.14  -0.34  -0.03
    33   1     0.04   0.02   0.00     0.00   0.00  -0.11    -0.00  -0.00   0.02
[...]
 .00000050,0.00000014,-0.00000174,-0.00000041,0.00000010,-0.00000236,0.
 00000077,0.00000004,-0.00000136,-0.00000104,0.00000102,0.00000032,0.00
 000130,0.00000065,-0.00000098,-0.00000161,-0.00000077,-0.00000073,-0.0
 0000075,0.00000142,-0.00000028,0.00000243,0.00000103,-0.00000554,-0.00
 000558,0.00000035,-0.00002979,-0.00235947,0.00268557,0.00089670,0.0157
 7064,-0.02093637,0.00033403,-0.13807432,0.24769877,0.00003533,0.000000
 44,0.00000287,-0.00004085,-0.00000145,-0.00000597,0.00000631,-0.000006
 38,0.00000654,0.00000218,0.00002689,-0.00002783,0.00000457,0.00000658,
 0.00000024,-0.00001212,0.00000131,0.00000711,0.00000508,-0.00000731,0.
 00000005,0.00000572,0.00000666,0.00000595,0.00000025,-0.00002801,-0.00
 002148,-0.00001147,-0.00001402,0.00003318,-0.00009625,0.00001508,-0.00
 006040,0.00012992,-0.00006457,-0.00012482,0.00013325,0.00008938,0.0001
 9950,-0.00005917,0.00106647,-0.00056024,0.00755267,-0.00167386,0.00498
 414,-0.00336547,0.00019866,-0.00001339,0.02328277,-0.02704909,-0.01730
 038,-0.00101501,-0.00040407,-0.05018474,0.00000475,-0.00008745,-0.0000
 3856,-0.00011506,0.00004786,0.00000925,0.00002877,-0.00000211,-0.00000
 764,0.00000795,-0.00000168,-0.00000908,-0.00000637,0.00000377,0.000000
 81,-0.00000316,0.00000221,0.00000080,-0.00000236,-0.00000018,0.0000021
 1,0.00000311,-0.00000101,-0.00000619,0.00000140,-0.00000004,-0.0000102
 7,0.00000326,0.00000129,-0.00000604,-0.00000240,0.00000056,0.00000196,
 0.00000787,0.00000176,-0.00000865,-0.00000546,-0.00000296,0.00000051,-
 0.00000336,-0.00000135,0.00000003,0.00000125,-0.00001678,-0.00002562,-
 0.00002131,0.00001504,-0.00002692,-0.01174318,0.02018859,0.00369840,-0
 .00185623,-0.00031251,0.00182087,-0.01269047,0.00807836,0.05764204,-0.
 00001114,0.,-0.00001213,0.00002086,0.,0.00000393,-0.00001502,-0.000002
 61,-0.00000228,0.00007612,-0.00003217,-0.00002682,0.00001401,-0.000006
 83,-0.00000398,0.00007997,0.,0.00005612,0.00001401,0.00000683,-0.00000
 398,-0.00001502,0.00000262,-0.00000228,0.00007612,0.00003216,-0.000026
 83,0.00064086,0.00000004,0.00059067,-0.00156179,0.00000010,0.00307594,
 -0.00056167,0.,0.00068065,-0.00605558,0.00000004,0.00166782,-0.0101859
 6,0.00000133,-0.02907556,-0.00047100,-0.00000136,-0.00396703,0.0009295
 5,0.00000009,0.00084282,0.00053834,0.00000064,0.00148775,0.00019538,0.
 00000048,0.00108193,-0.12671875,0.00000374,-0.12034278,0.01201329,-0.0
 0000073,0.01657112,-0.00021254,0.,0.00015522,-0.00000197,0.00000201,0.
 00000110,-0.00003364,0.00002411,-0.00001114,-0.00001193,0.00000654,-0.
 00000567,-0.00000199,0.00000102,0.00000029,-0.00000247,0.00000237,-0.0
 0000483,-0.00002053,0.,0.00002823,-0.00000247,-0.00000237,-0.00000483,
 -0.00000199,-0.00000102,0.00000029,-0.00000197,-0.00000201,0.00000110,
 -0.00003364,-0.00002411,-0.00001114,-0.00001193,-0.00000654,-0.0000056
 7,0.00009830,-0.00000002,-0.00006214,-0.00053014,0.00000002,-0.0016798
 2,-0.00007683,0.,0.00001390,0.00015455,0.00004453,-0.00018901,0.000154
 59,-0.00004473,-0.00018899,0.13047282,0.,-0.00001293,0.,0.,0.00001817,
 0.,-0.00002484,-0.00002153,0.00001072,0.00015961,-0.00006371,-0.000076
 17,0.00001526,-0.00000130,-0.00001127,0.,-0.00003531,0.,-0.00001526,-0
 .00000129,0.00001127,0.00002482,-0.00002153,-0.00001072,-0.00015958,-0
 .00006370,0.00007617,0.00000005,0.00011551,0.00000002,0.00000053,0.007
 86429,0.00000058,-0.00000037,-0.00022784,0.00000031,-0.00000002,0.0057
 0255,-0.00000046,0.00000262,0.00277007,0.00000004,-0.00000106,-0.00378
 923,0.00000127,0.00000047,0.00056063,-0.00000043,0.00000053,0.00040219
 ,-0.00000085,-0.00000015,-0.00026015,0.00000013,0.00000096,-0.03760749
 ,0.00000752,0.00000076,0.00337979,-0.00000029,-0.00000001,-0.00013364,
 0.00000001,0.00000529,-0.00000184,-0.00000682,-0.00000856,0.00000518,-
 0.00005621,-0.00000960,-0.00001719,-0.00001697,-0.00000169,-0.00000182
 ,-0.00000056,-0.00000003,-0.00000155,-0.00000113,0.,-0.00000172,0.,0.0
 0000003,-0.00000156,0.00000113,0.00000169,-0.00000182,0.00000055,-0.00
 000530,-0.00000184,0.00000683,0.00000855,0.00000518,0.00005620,0.00000
 961,-0.00001718,0.00001697,-0.00000006,-0.00119134,0.00000002,-0.00000
 003,0.00073904,0.00000014,0.00000004,0.00005420,-0.00000008,-0.0000756
 3,-0.00002423,0.00008172,0.00007559,-0.00002429,-0.00008165,-0.0000040
 7,0.02614851,0.00007736,0.,0.00001931,-0.00010330,0.,-0.00000916,0.000
 03288,-0.00002463,0.00001854,-0.00007425,0.00010439,-0.00003624,-0.000
 01026,0.00002555,0.00000380,-0.00015965,0.,-0.00005735,-0.00001026,-0.
 00002555,0.00000380,0.00003288,0.00002462,0.00001853,-0.00007426,-0.00
 010439,-0.00003622,-0.00111298,-0.00000005,-0.00052096,0.00382950,0.00
 000005,-0.00224052,0.00085031,0.00000004,0.00022092,0.00064908,-0.0000
 0016,0.00139581,-0.00010109,-0.00000053,0.00338613,-0.00046512,-0.0000
 0016,-0.00054024,-0.00032312,0.00000010,0.00016042,0.00283056,-0.00000
 066,-0.00180571,0.00019918,0.00000017,0.00001224,-0.12246732,0.0000080
 9,-0.27905949,-0.01402395,0.00000086,-0.01824633,0.00040956,0.,-0.0002
 0969,0.00002168,-0.00000597,-0.00002122,0.00003216,-0.00001341,0.00001
 678,0.00000153,-0.00001295,-0.00000399,-0.00000216,-0.00000150,0.00000
 314,0.00001130,-0.00000687,-0.00000406,0.00003805,0.,-0.00005731,0.000
 01130,0.00000687,-0.00000406,-0.00000216,0.00000150,0.00000314,0.00002
 168,0.00000597,-0.00002121,0.00003216,0.00001341,0.00001678,0.00000153
 ,0.00001295,-0.00000399,-0.00005640,-0.00000002,-0.00006067,0.00016004
 ,0.00000008,0.00017275,-0.00000045,-0.00000003,-0.00002155,-0.00002320
 ,-0.00000076,0.00001636,-0.00002324,0.00000077,0.00001645,0.12968340,-
 0.00000779,0.29643550,-0.00007636,0.,-0.00002191,0.00009988,0.00000002
 ,0.00005594,0.00032973,-0.00016737,0.00013471,-0.00056746,0.00041626,0
 .00001663,-0.00011076,-0.00000638,0.00006389,-0.00015171,0.,0.00000435
 ,-0.00011075,0.00000638,0.00006387,0.00032969,0.00016734,0.00013468,-0
 .00056738,-0.00041619,0.00001651,-0.00092721,-0.00000010,0.00112206,-0
 .01180388,0.00000026,-0.00003970,0.00051330,0.00000032,-0.00302622,0.0
 0070829,-0.00000008,-0.00003448,0.00069486,-0.00000017,0.00351199,-0.0
 0026681,-0.00000021,-0.00146083,-0.00050390,0.00000025,0.00052669,0.00
 009467,0.00000027,0.00056308,0.00007854,-0.00000007,-0.00019319,-0.013
 81613,0.00000036,-0.00251444,-0.33598973,0.00000716,-0.01434498,0.0002
 8352,0.,-0.00029694,0.00002999,0.00000945,-0.00003898,0.00064268,0.000
 17718,0.00098962,0.00006706,0.00007009,0.00009243,-0.00000110,0.000007
 00,-0.00000819,0.00004234,-0.00002828,0.00005193,0.00004773,0.,-0.0000
 3911,0.00004234,0.00002828,0.00005192,-0.00000110,-0.00000700,-0.00000
 819,0.00002999,-0.00000945,-0.00003897,0.00064256,-0.00017722,0.000989
 47,0.00006705,-0.00007009,0.00009245,-0.00068449,0.00000002,0.00021257
 ,-0.00007687,-0.00000004,0.00002461,0.00000416,0.00000001,0.00004020,-
 0.00002833,0.00000297,0.00002299,-0.00002832,-0.00000296,0.00002300,0.
 00105385,-0.00000014,0.00013395,0.35987101,0.00000001,-0.00013809,0.,-
 0.00000001,0.00035045,0.,0.00032612,-0.00014394,0.00025710,-0.00034369
 ,0.00009681,-0.00068197,-0.00012472,0.00000563,0.00008692,0.,0.0000614
 4,0.,0.00012473,0.00000563,-0.00008692,-0.00032612,-0.00014394,-0.0002
 5708,0.00034369,0.00009679,0.00068186,-0.00000005,-0.00316920,-0.00000
 010,0.00000090,0.00274831,0.00000007,0.00000011,0.00601106,0.00000041,
 0.00000001,-0.00036081,0.00000003,-0.00000013,0.00761974,-0.00000020,0
 .00000024,0.00066243,0.00000022,-0.00000007,-0.00036370,0.00000007,-0.
 00000005,-0.00000764,-0.00000011,0.,0.00001876,0.00000004,-0.00000011,
 0.00255524,0.00000002,0.00000705,-0.03555135,0.00000031,0.00000002,-0.
 00030600,0.,0.00002853,-0.00000865,-0.00005131,0.00074293,-0.00048587,
 -0.00087587,-0.00001168,0.00000806,-0.00006384,-0.00000605,-0.00001304
 ,-0.00001220,0.00003329,-0.00000484,0.00005200,0.,-0.00002252,0.,-0.00
 003328,-0.00000484,-0.00005201,0.00000605,-0.00001304,0.00001220,-0.00
 002852,-0.00000865,0.00005130,-0.00074293,-0.00048604,0.00087565,0.000
 01167,0.00000807,0.00006382,0.00000006,0.00048584,0.,-0.00000002,-0.00
 110616,-0.00000004,0.,0.00000380,0.,-0.00000546,-0.00000363,-0.0000040
 8,0.00000547,-0.00000362,0.00000407,-0.00000010,-0.00424127,0.,-0.0000
 0784,0.02586442,-0.00013192,-0.00000001,0.00001032,0.00017139,0.000000
 03,-0.00006642,0.00025654,-0.00005221,0.00008316,-0.00015905,-0.000180
 25,-0.00089375,-0.00010692,0.00000270,0.00002490,0.00002882,0.,0.00005
 474,-0.00010690,-0.00000269,0.00002489,0.00025651,0.00005221,0.0000831
 3,-0.00015902,0.00018020,-0.00089362,-0.00032963,-0.00000006,0.0010215
 3,-0.02853338,0.00000052,0.00432557,-0.00184390,0.00000013,-0.00524591
 ,-0.00000703,0.,-0.00122807,0.00196877,0.00000070,-0.00450388,0.001094
 37,0.00000032,0.00109306,0.00052029,-0.00000039,-0.00055253,-0.0001368
 8,-0.00000015,-0.00021250,-0.00002612,-0.00000001,0.00004731,0.0297014
 1,-0.00000066,0.00461633,-0.01507080,0.00000030,-0.06065341,-0.0000062
 2,-0.00000002,0.00001647,-0.00001213,0.00001294,0.00000497,0.00063325,
 -0.00101256,-0.00079330,0.00004521,0.00009144,0.00018653,0.00001116,0.
 00000885,-0.00000404,0.00003003,-0.00001651,0.00005657,0.00000768,0.,0
 .00002919,0.00003002,0.00001651,0.00005656,0.00001116,-0.00000885,-0.0
 0000403,-0.00001213,-0.00001294,0.00000496,0.00063324,0.00101240,-0.00
 079250,0.00004520,-0.00009144,0.00018651,-0.00162937,0.00000004,0.0001
 1360,0.00003555,0.00000002,0.00010752,0.00000195,0.,-0.00002322,0.0000
 0995,-0.00000581,-0.00000360,0.00000995,0.00000582,-0.00000362,-0.0003
 1457,-0.00000019,0.00102908,0.01298068,-0.00000036,0.06250767,-0.00002
 279,-0.00038484,-0.00000448,0.00023658,0.00098723,0.00000637,0.0004357
 4,-0.00040023,-0.00007508,-0.00139729,-0.00159381,-0.00367133,-0.00105
 176,-0.00161662,0.00384938,-0.01225924,0.01555172,0.00039005,0.0002597
 3,0.00140598,-0.00075065,-0.00011561,-0.00050560,-0.00003503,0.0003342
 1,0.00151855,0.00068910,-0.01222139,0.01532878,-0.00096993,0.00005593,
 -0.00018243,0.00090771,-0.00014948,-0.00062156,0.00047539,0.00018057,-
 0.00001423,-0.00003345,0.00011371,0.00005319,0.00001493,-0.00001232,0.
 00001360,0.00002776,0.00002413,-0.00000715,-0.00000559,-0.00000043,-0.
 00000625,0.00000176,-0.00000171,0.00000245,0.00000111,-0.00010645,0.00
 001001,0.00011574,-0.00003378,-0.00019229,-0.00029585,-0.13674484,0.11
 889180,-0.00236833,-0.00001245,-0.00001989,0.00003222,-0.00060185,0.00
 112518,0.00003345,0.00011714,0.00021931,0.00002642,0.00011915,0.000228
 98,-0.00002700,-0.00058770,0.00107012,-0.00003878,0.00088691,-0.000360
 65,-0.00006327,0.00042061,-0.00019845,0.00001332,-0.00010376,-0.000993
 56,0.00021216,-0.00005754,-0.00004082,0.00001214,0.00038111,-0.0002437
 5,-0.00001830,-0.00004791,-0.00091261,-0.00021068,-0.00006695,-0.00045
 943,0.00104747,0.00001337,-0.00002380,-0.00001905,0.00000005,0.0000007
 8,0.00000048,-0.00000095,-0.00000076,0.00000007,0.00000141,-0.00000067
 ,-0.00000077,0.00000365,0.00002330,-0.00001346,0.00001952,0.00004319,0
 .00005141,0.14976856,0.00019757,0.00015688,-0.00000338,-0.00027769,-0.
 00039267,0.00000865,-0.00013481,0.00012741,0.00001965,-0.00013868,0.00
 096476,0.00077434,-0.00042795,0.00105804,-0.00065231,-0.00072577,-0.00
 051208,-0.00040889,-0.00066345,0.00060341,0.00032284,0.00012419,0.0000
 0987,-0.00001192,-0.00070869,0.00055650,-0.00024383,-0.00057520,-0.000
 80356,0.00041272,0.00048855,0.00012206,-0.00039459,0.00103868,0.000577
 78,0.00052672,-0.00045016,0.00005176,-0.00030956,0.00003448,-0.0000821
 2,-0.00006725,-0.00002125,-0.00001676,0.00008250,-0.00001232,0.0000099
 8,-0.00005471,-0.00000671,0.00000754,-0.00012546,-0.00001851,-0.000002
 88,0.00003645,0.00003933,-0.00000296,-0.00009636,-0.00018266,-0.000001
 63,0.00027353,0.11892153,-0.21709402,0.00232021,0.00003834,-0.00003991
 ,0.00000003,0.00039640,0.00012111,-0.00009000,-0.00012857,0.00043550,-
 0.00014676,-0.00012515,0.00043019,0.00012828,0.00036247,0.00010838,0.0
 0010128,-0.00001702,0.00011518,-0.00052687,-0.00002783,0.00020744,-0.0
 0010635,0.00017606,0.00051578,0.00006778,0.00000240,0.00002175,0.00001
 001,0.00001082,0.00020767,0.00011023,0.00013696,0.00049867,-0.00010417
 ,-0.00076436,-0.00043387,-0.00010948,-0.00001411,0.00003134,0.00004872
 ,-0.00000096,-0.00000052,-0.00000881,0.00000682,0.00000073,-0.00000429
 ,0.00000442,0.00000099,-0.00000281,-0.00001936,0.00000100,0.00001168,-
 0.00007716,-0.00000780,-0.00008086,-0.13207778,0.23357290,-0.00002229,
 0.00002077,-0.00002065,0.00003061,-0.00005700,-0.00005723,0.00006713,-
 0.00007462,-0.00043663,-0.00296618,-0.00101657,-0.00526667,0.00320514,
 0.00137419,-0.00503481,0.01738043,-0.02337729,-0.00024903,-0.00061084,
 -0.00101607,0.00102281,-0.00002808,0.00000931,-0.00025084,0.00071181,0
 .00113506,0.00095869,-0.01636990,0.02300634,-0.00032236,-0.00027374,0.
 00036747,0.00144427,0.00029255,0.00011597,-0.00038995,0.00020156,-0.00
 007943,-0.00027270,0.00019420,-0.00002279,0.00020028,0.00007025,0.0000
 1793,-0.00012141,-0.00003517,-0.00000842,0.00004184,0.00000126,-0.0000
 0478,0.00010143,0.00001496,0.00000169,-0.00003684,-0.00015719,-0.00000
 959,0.00019989,-0.00011733,-0.00026764,-0.00022908,-0.00229147,0.00113
 315,-0.04740329,0.00002001,-0.00000044,0.00027465,-0.00143333,0.001476
 52,0.00015778,0.00019875,-0.00023695,-0.00001011,-0.00025348,0.0003155
 0,-0.00000729,0.00139923,-0.00141732,0.00007701,-0.00077888,-0.0002335
 9,0.00097197,-0.00042047,-0.00003102,-0.00007087,-0.00006415,0.0006931
 9,0.00008848,-0.00000471,0.00000300,0.00008496,0.00034961,-0.00003749,
 -0.00006180,0.00007439,-0.00065021,0.00009458,0.00085286,0.00092193,-0
 .00116287,0.00000550,0.00003972,-0.00001796,0.00000087,0.00000034,0.00
 000636,-0.00000525,-0.00000106,0.00000484,-0.00000382,0.00000013,0.000
 00420,-0.00000040,0.00003117,0.00000524,0.00007296,0.00006875,0.000094
 92,0.00023874,-0.00194839,0.05604643,-0.00002279,0.00038484,-0.0000044
 8,0.00023658,-0.00098724,0.00000637,-0.00011562,0.00050561,-0.00003504
 ,0.00033418,-0.00151855,0.00068914,0.00025973,-0.00140598,-0.00075069,
 -0.01225926,-0.01555182,0.00039008,-0.00105177,0.00161662,0.00384940,0
 .00043576,0.00040025,-0.00007507,-0.00139728,0.00159379,-0.00367133,-0
 .01222131,-0.01532884,-0.00096987,0.00005598,0.00018243,0.00090773,-0.
 00014939,0.00062151,0.00047526,0.00018055,0.00001423,-0.00003349,0.000
 11371,-0.00005320,0.00001492,-0.00001231,-0.00001360,0.00002774,0.0000
 2413,0.00000713,-0.00000559,-0.00000043,0.00000625,0.00000177,-0.00000
 171,-0.00000245,0.00000111,-0.00010646,-0.00001000,0.00011575,-0.00003
 376,0.00019232,-0.00029587,-0.13674388,-0.11889110,-0.00236821,-0.0000
 5754,0.00004082,0.00001214,0.00038112,0.00024375,-0.00001830,-0.000047
 89,0.00091257,-0.00021075,-0.00010380,0.00099362,0.00021212,0.00042061
 ,0.00019845,0.00001331,0.00088691,0.00036065,-0.00006327,-0.00058771,-
 0.00107013,-0.00003878,0.00011916,-0.00022898,-0.00002700,-0.00001245,
 0.00001989,0.00003221,-0.00060184,-0.00112517,0.00003344,0.00011714,-0
 .00021931,0.00002642,-0.00006690,0.00045939,0.00104723,0.00001337,0.00
 002380,-0.00001905,0.00000005,-0.00000078,0.00000048,0.00000141,0.0000
 0067,-0.00000077,-0.00000095,0.00000075,0.00000007,0.00000365,-0.00002
 331,-0.00001345,0.00001952,-0.00004319,0.00005140,0.01222413,0.0156170
 9,0.00045385,0.14976738,-0.00019757,0.00015688,0.00000338,0.00027769,-
 0.00039267,-0.00000865,-0.00012420,0.00000988,0.00001192,0.00070869,0.
 00055648,0.00024384,0.00066345,0.00060341,-0.00032283,0.00072570,-0.00
 051214,0.00040889,0.00042794,0.00105804,0.00065233,0.00013482,0.000127
 42,-0.00001965,0.00013869,0.00096475,-0.00077434,0.00057524,-0.0008035
 3,-0.00041269,-0.00048854,0.00012213,0.00039461,-0.00103854,0.00057788
 ,-0.00052670,0.00045011,0.00005175,0.00030950,-0.00003446,-0.00008220,
 0.00006725,0.00002124,-0.00001685,-0.00008251,0.00001232,0.00001000,0.
 00005471,0.00000672,0.00000765,0.00012546,0.00001851,-0.00000291,-0.00
 003645,-0.00003933,-0.00000296,0.00009636,0.00018265,-0.00000163,-0.00
 027354,-0.11892097,-0.21709407,-0.00232037,-0.00000240,0.00002175,-0.0
 0001001,-0.00001081,0.00020768,-0.00011023,-0.00013704,0.00049873,0.00
 010418,-0.00017605,0.00051577,-0.00006779,0.00002783,0.00020744,0.0001
 0635,0.00001702,0.00011518,0.00052687,-0.00036247,0.00010838,-0.000101
 28,0.00012515,0.00043019,-0.00012828,-0.00003834,-0.00003991,-0.000000
 04,-0.00039639,0.00012112,0.00008999,0.00012858,0.00043549,0.00014676,
 0.00076425,-0.00043400,0.00010949,0.00001411,0.00003135,-0.00004871,0.
 00000096,-0.00000052,0.00000881,-0.00000443,0.00000099,0.00000281,-0.0
 0000682,0.00000073,0.00000429,0.00001936,0.00000100,-0.00001168,0.0000
 7716,-0.00000781,0.00008085,-0.01561702,-0.02112384,-0.00024145,0.1320
 7720,0.23357295,-0.00002229,-0.00002077,-0.00002065,0.00003061,0.00005
 700,-0.00005723,-0.00002808,-0.00000931,-0.00025084,0.00071181,-0.0011
 3506,0.00095870,-0.00061084,0.00101607,0.00102283,0.01738044,0.0233773
 5,-0.00024906,0.00320515,-0.00137419,-0.00503482,0.00006713,0.00007461
 ,-0.00043663,-0.00296621,0.00101657,-0.00526668,-0.01636983,-0.0230063
 8,-0.00032244,-0.00027380,-0.00036751,0.00144432,0.00029256,-0.0001159
 9,-0.00038983,0.00020155,0.00007942,-0.00027271,0.00019421,0.00002278,
 0.00020027,0.00007024,-0.00001801,-0.00012142,-0.00003517,0.00000846,0
 .00004184,0.00000126,0.00000487,0.00010143,0.00001496,-0.00000172,-0.0
 0003684,-0.00015721,0.00000957,0.00019990,-0.00011732,0.00026767,-0.00
 022909,-0.00229147,-0.00113337,-0.04740337,-0.00000471,-0.00000300,0.0
 0008496,0.00034961,0.00003749,-0.00006180,0.00007429,0.00065029,0.0000
 9455,-0.00006413,-0.00069323,0.00008844,-0.00042047,0.00003102,-0.0000
 7087,-0.00077888,0.00023359,0.00097197,0.00139924,0.00141733,0.0000770
 1,-0.00025348,-0.00031550,-0.00000729,0.00002001,0.00000044,0.00027465
 ,-0.00143332,-0.00147652,0.00015779,0.00019875,0.00023696,-0.00001011,
 0.00085266,-0.00092187,-0.00116260,0.00000550,-0.00003972,-0.00001796,
 0.00000087,-0.00000034,0.00000636,-0.00000382,-0.00000012,0.00000421,-
 0.00000525,0.00000106,0.00000484,-0.00000040,-0.00003117,0.00000524,0.
 00007296,-0.00006875,0.00009490,0.00045384,0.00024146,-0.00045825,0.00
 023902,0.00194853,0.05604624\\-0.00012467,0.00000002,-0.00003878,0.000
 04148,-0.00000011,0.00009267,0.00002825,0.00001547,-0.00013796,-0.0000
 1337,-0.00000812,0.00007569,-0.00000176,-0.00002570,0.00001890,0.00001
 037,-0.00000005,-0.00003693,-0.00000150,0.00002585,0.00001878,0.000028
 35,-0.00001584,-0.00013769,-0.00001357,0.00000851,0.00007559,0.0000204
 6,0.00000047,-0.00002194,-0.00002416,0.00000070,-0.00000090,0.00001094
 ,-0.00000215,0.00000615,0.00000878,0.00000364,-0.00002993,0.00000104,0
 .00003244,0.00003782,-0.00003664,-0.00012065,-0.00006303,0.00004118,0.
 00004734,0.00002133,0.00006161,0.00003572,0.00010020,-0.00002663,0.000
 00060,-0.00001411,-0.00001237,0.00000376,-0.00001155,-0.00003525,-0.00
 000232,0.00002426,0.00003168,0.00000030,0.00002687,-0.00000475,0.00001
 354,0.00001347,0.00000551,0.00000087,-0.00000107,0.00000089,0.00001197
 ,0.00000849,0.00000476,-0.00001110,-0.00000246,-0.00000155,-0.00000327
 ,0.00000109,0.00000923,0.,0.00000318,-0.00000179,0.00000323,0.00000135
 ,0.00000476,0.00001091,-0.00000249,-0.00000447,-0.00001311,0.00001345,
 0.00000565,-0.00000078,-0.00000164,0.00000107,-0.00001243,0.00000846,0
 .00000781,-0.00000034,0.00000485,0.00000407,0.00000017,-0.00000436,0.0
 0001132,0.00000097,-0.00002766,-0.00001012,0.00000477,-0.00000145,-0.0
 0001059,-0.00000514,0.00000162,-0.00001122,0.00000057,-0.00000230,-0.0
 0001611,-0.00000051,-0.00001109,0.00000560,-0.00000016,-0.00000329,0.0
 0000572,-0.00000006,-0.00000362\\\@


 Where a calculator on the ENIAC is equipped with 18,000
 vacuum tubes and weighs 30 tons, computers inthe future
 may  have only 1,000 vacuum tubes and weigh only 1 1/2 tons.
              ---Popular Mechanics, March 1949
 Job cpu time:       0 days  0 hours  8 minutes 26.3 seconds.
 Elapsed time:       0 days  0 hours  9 minutes 27.2 seconds.
 File lengths (MBytes):  RWF=    597 Int=      0 D2E=      0 Chk=     11 Scr=      1
 Normal termination of Gaussian 16 at Fri Feb 23 20:34:25 2024.
