 Entering Gaussian System, Link 0=g16
 Input=/Volumes/SSD-PMU3/b3lyp_6-31gd_freq/XZESRFFZOCOPEM-HEXZWALJSA-N_calculating/gaussianinput1.gjf
 Output=/Volumes/SSD-PMU3/b3lyp_6-31gd_freq/XZESRFFZOCOPEM-HEXZWALJSA-N_calculating/gaussianinput1.log
 Initial command:
 /Applications/g16/l1.exe "/Users/macmini_m1_2022/PycharmProjects/sphere_model/sphere_model_lib/Gau-73538.inp" -scrdir="/Users/macmini_m1_2022/PycharmProjects/sphere_model/sphere_model_lib/"
 Entering Link 1 = /Applications/g16/l1.exe PID=     73539.
  
 Copyright (c) 1988,1990,1992,1993,1995,1998,2003,2009,2016,
            Gaussian, Inc.  All Rights Reserved.
  
 This is part of the Gaussian(R) 16 program.  It is based on
 the Gaussian(R) 09 system (copyright 2009, Gaussian, Inc.),
 the Gaussian(R) 03 system (copyright 2003, Gaussian, Inc.),
 the Gaussian(R) 98 system (copyright 1998, Gaussian, Inc.),
 the Gaussian(R) 94 system (copyright 1995, Gaussian, Inc.),
 the Gaussian 92(TM) system (copyright 1992, Gaussian, Inc.),
 the Gaussian 90(TM) system (copyright 1990, Gaussian, Inc.),
 the Gaussian 88(TM) system (copyright 1988, Gaussian, Inc.),
 the Gaussian 86(TM) system (copyright 1986, Carnegie Mellon
 University), and the Gaussian 82(TM) system (copyright 1983,
 Carnegie Mellon University). Gaussian is a federally registered
 trademark of Gaussian, Inc.
  
 This software contains proprietary and confidential information,
 including trade secrets, belonging to Gaussian, Inc.
  
 This software is provided under written license and may be
 used, copied, transmitted, or stored only in accord with that
 written license.
  
 The following legend is applicable only to US Government
 contracts under FAR:
  
                    RESTRICTED RIGHTS LEGEND
  
 Use, reproduction and disclosure by the US Government is
 subject to restrictions as set forth in subparagraphs (a)
 and (c) of the Commercial Computer Software - Restricted
 Rights clause in FAR 52.227-19.
  
 Gaussian, Inc.
 340 Quinnipiac St., Bldg. 40, Wallingford CT 06492
  
  
 ---------------------------------------------------------------
 Warning -- This program may not be used in any manner that
 competes with the business of Gaussian, Inc. or will provide
 assistance to any competitor of Gaussian, Inc.  The licensee
 of this program is prohibited from giving any competitor of
 Gaussian, Inc. access to this program.  By using this program,
 the user acknowledges that Gaussian, Inc. is engaged in the
 business of creating and licensing software in the field of
 computational chemistry and represents and warrants to the
 licensee that it is not a competitor of Gaussian, Inc. and that
 it will not use this program in any manner prohibited above.
 ---------------------------------------------------------------
  

 Cite this work as:
 Gaussian 16, Revision A.03,
 M. J. Frisch, G. W. Trucks, H. B. Schlegel, G. E. Scuseria, 
 M. A. Robb, J. R. Cheeseman, G. Scalmani, V. Barone, 
 G. A. Petersson, H. Nakatsuji, X. Li, M. Caricato, A. V. Marenich, 
 J. Bloino, B. G. Janesko, R. Gomperts, B. Mennucci, H. P. Hratchian, 
 J. V. Ortiz, A. F. Izmaylov, J. L. Sonnenberg, D. Williams-Young, 
 F. Ding, F. Lipparini, F. Egidi, J. Goings, B. Peng, A. Petrone, 
 T. Henderson, D. Ranasinghe, V. G. Zakrzewski, J. Gao, N. Rega, 
 G. Zheng, W. Liang, M. Hada, M. Ehara, K. Toyota, R. Fukuda, 
 J. Hasegawa, M. Ishida, T. Nakajima, Y. Honda, O. Kitao, H. Nakai, 
 T. Vreven, K. Throssell, J. A. Montgomery, Jr., J. E. Peralta, 
 F. Ogliaro, M. J. Bearpark, J. J. Heyd, E. N. Brothers, K. N. Kudin, 
 V. N. Staroverov, T. A. Keith, R. Kobayashi, J. Normand, 
 K. Raghavachari, A. P. Rendell, J. C. Burant, S. S. Iyengar, 
 J. Tomasi, M. Cossi, J. M. Millam, M. Klene, C. Adamo, R. Cammi, 
 J. W. Ochterski, R. L. Martin, K. Morokuma, O. Farkas, 
 J. B. Foresman, and D. J. Fox, Gaussian, Inc., Wallingford CT, 2016.
 
 ******************************************
 Gaussian 16:  EM64M-G16RevA.03 25-Dec-2016
                23-Feb-2024 
 ******************************************
 %nprocshared=10
 Will use up to   10 processors via shared memory.
 %mem=12GB
 %chk= 1.chk
 ---------------------
 # freq b3lyp/6-31g(d)
 ---------------------
 1/10=4,30=1,38=1/1,3;
 2/12=2,17=6,18=5,40=1/2;
 3/5=1,6=6,7=1,11=2,25=1,30=1,71=2,74=-5,140=1/1,2,3;
 4//1;
 5/5=2,38=5,98=1/2;
 8/6=4,10=90,11=11/1;
 11/6=1,8=1,9=11,15=111,16=1/1,2,10;
 10/6=1/2;
 6/7=2,8=2,9=2,10=2,28=1/1;
 7/8=1,10=1,25=1/1,2,3,16;
 1/10=4,30=1/3;
 99//99;
 ---------
 good luck
 ---------
 Symbolic Z-matrix:
 Charge =  0 Multiplicity = 1
 O                     1.21585   0.        0. 
 C                     0.        0.        0. 
 C                    -0.84997  -1.26605  -0.00046 
 C                    -1.75264  -1.25645   1.25761 
 C                    -1.73076  -1.26214  -1.27359 
 C                    -2.62667  -0.00934  -1.27024 
 C                    -1.74213   1.25316  -1.26856 
 C                    -0.85224   1.26383  -0.00046 
 C                    -1.74933   1.25134   1.26159 
 C                    -2.66794  -0.00595   1.2836 
 C                    -3.58009   0.03576   2.5154 
 C                    -3.57475  -0.96393   3.49978 
 C                    -4.41687  -0.89854   4.60951 
 C                    -5.29543   0.1779    4.76649 
 C                    -6.21772   0.30599   5.92766 
 O                    -6.99199   1.22856   6.09462 
 O                    -6.10516  -0.72777   6.79519 
 C                    -6.9701   -0.66238   7.93854 
 C                    -5.31432   1.18496   3.79228 
 C                    -4.47187   1.11079   2.69058 
 C                    -3.52423  -0.01603  -0.01675 
 H                    -0.18181  -2.13294   0.01523 
 H                    -1.12418  -1.28408   2.15694 
 H                    -2.36027  -2.17105   1.26108 
 H                    -1.098    -1.27997  -2.17039 
 H                    -2.34421  -2.17305  -1.29499 
 H                    -3.26045  -0.00998  -2.16645 
 H                    -1.11489   1.28138  -2.16894 
 H                    -2.36469   2.15815  -1.28328 
 H                    -0.18703   2.13321   0.00852 
 H                    -2.35391   2.16626   1.27615 
 H                    -1.13013   1.26861   2.16763 
 H                    -2.90712  -1.81348   3.41313 
 H                    -4.39203  -1.68469   5.35597 
 H                    -8.01833  -0.6522    7.62794 
 H                    -6.75122  -1.55747   8.52171 
 H                    -6.7663    0.23797   8.52431 
 H                    -5.99747   2.0187    3.91777 
 H                    -4.51087   1.90723   1.95304 
 H                    -4.18922   0.85601  -0.03507 
 H                    -4.17044  -0.90397  -0.01711 
 

 GradGradGradGradGradGradGradGradGradGradGradGradGradGradGradGradGradGrad
 Berny optimization.
 Initialization pass.
 Trust Radius=3.00D-01 FncErr=1.00D-07 GrdErr=1.00D-07 EigMax=2.50D+02 EigMin=1.00D-04
 Number of steps in this run=      2 maximum allowed number of steps=      2.
 GradGradGradGradGradGradGradGradGradGradGradGradGradGradGradGradGradGrad

                          Input orientation:                          
 ---------------------------------------------------------------------
 Center     Atomic      Atomic             Coordinates (Angstroms)
 Number     Number       Type             X           Y           Z
 ---------------------------------------------------------------------
      1          8           0        1.215853    0.000000    0.000000
      2          6           0        0.000000    0.000000    0.000000
      3          6           0       -0.849966   -1.266053   -0.000463
      4          6           0       -1.752636   -1.256451    1.257609
      5          6           0       -1.730764   -1.262135   -1.273585
      6          6           0       -2.626667   -0.009341   -1.270244
      7          6           0       -1.742133    1.253160   -1.268556
      8          6           0       -0.852239    1.263828   -0.000463
      9          6           0       -1.749326    1.251338    1.261585
     10          6           0       -2.667944   -0.005954    1.283597
     11          6           0       -3.580091    0.035762    2.515400
     12          6           0       -3.574746   -0.963932    3.499781
     13          6           0       -4.416867   -0.898537    4.609514
     14          6           0       -5.295429    0.177896    4.766485
     15          6           0       -6.217717    0.305987    5.927655
     16          8           0       -6.991988    1.228555    6.094620
     17          8           0       -6.105159   -0.727771    6.795188
     18          6           0       -6.970099   -0.662379    7.938538
     19          6           0       -5.314321    1.184964    3.792281
     20          6           0       -4.471874    1.110795    2.690579
     21          6           0       -3.524230   -0.016030   -0.016749
     22          1           0       -0.181812   -2.132945    0.015227
     23          1           0       -1.124175   -1.284076    2.156941
     24          1           0       -2.360267   -2.171048    1.261081
     25          1           0       -1.098002   -1.279973   -2.170394
     26          1           0       -2.344211   -2.173054   -1.294990
     27          1           0       -3.260449   -0.009981   -2.166446
     28          1           0       -1.114891    1.281380   -2.168938
     29          1           0       -2.364685    2.158152   -1.283276
     30          1           0       -0.187034    2.133206    0.008517
     31          1           0       -2.353911    2.166255    1.276154
     32          1           0       -1.130130    1.268614    2.167631
     33          1           0       -2.907123   -1.813480    3.413130
     34          1           0       -4.392027   -1.684691    5.355974
     35          1           0       -8.018334   -0.652201    7.627938
     36          1           0       -6.751223   -1.557474    8.521710
     37          1           0       -6.766296    0.237973    8.524306
     38          1           0       -5.997468    2.018704    3.917767
     39          1           0       -4.510870    1.907231    1.953035
     40          1           0       -4.189222    0.856012   -0.035065
     41          1           0       -4.170440   -0.903970   -0.017111
 ---------------------------------------------------------------------
                    Distance matrix (angstroms):
                    1          2          3          4          5
     1  O    0.000000
     2  C    1.215853   0.000000
     3  C    2.422911   1.524904   0.000000
     4  C    3.460083   2.496394   1.548435   0.000000
     5  C    3.449283   2.492097   1.548115   2.531295   0.000000
     6  C    4.047044   2.917702   2.519590   2.951145   1.540177
     7  C    3.453886   2.492924   2.958117   3.560866   2.515326
     8  C    2.423689   1.524327   2.529882   2.957240   2.961948
     9  C    3.456838   2.493509   2.956158   2.507794   3.570011
    10  C    4.090420   2.960673   2.557675   1.549905   2.999246
    11  C    5.415680   4.375565   3.934193   2.567381   4.411457
    12  C    6.010613   5.094746   4.446056   2.903961   5.125838
    13  C    7.333657   6.446992   5.840354   4.296684   6.477515
    14  C    8.071420   7.126892   6.676146   5.188540   7.159816
    15  C    9.512554   8.595972   8.150254   6.647367   8.628419
    16  O   10.296718   9.356369   9.005417   7.551340   9.390126
    17  O   10.015061   9.163907   8.607420   7.063196   9.193801
    18  C   11.422300  10.584962  10.042320   8.497626  10.614780
    19  C    7.643867   6.635325   6.350028   5.007062   6.670320
    20  C    6.389313   5.335798   5.099934   3.879628   5.372065
    21  C    4.740140   3.524306   2.952035   2.510215   2.519709
    22  H    2.550128   2.140734   1.094613   2.186148   2.195131
    23  H    3.431760   2.750457   2.174835   1.097508   3.483811
    24  H    4.369486   3.445959   2.165991   1.098051   2.765308
    25  H    3.420945   2.748554   2.184105   3.490029   1.097712
    26  H    4.367290   3.448839   2.175137   2.775947   1.098430
    27  H    4.973014   3.914603   3.475576   3.943519   2.169107
    28  H    3.431996   2.754852   3.355873   4.311442   2.765940
    29  H    4.373176   3.449080   3.957924   4.300025   3.478550
    30  H    2.553181   2.141407   3.463311   3.937146   3.944012
    31  H    4.366285   3.444144   3.958831   3.475168   4.317793
    32  H    3.436807   2.754124   3.347187   2.755287   4.313632
    33  H    5.651292   4.836272   4.022958   2.507866   4.863445
    34  H    7.935550   7.128432   6.435283   4.893503   7.156251
    35  H   11.995041  11.086229  10.485934   8.955735  10.915249
    36  H   11.769434  10.982908  10.370014   8.822905  11.010905
    37  H   11.680545  10.885917  10.485072   8.954048  11.117804
    38  H    8.453169   7.442693   7.255269   5.985122   7.477888
    39  H    6.344071   5.272554   5.223802   4.254451   5.308950
    40  H    5.472552   4.275929   3.956638   3.474256   3.473398
    41  H    5.461649   4.267321   3.340199   2.755890   2.767495
                    6          7          8          9         10
     6  C    0.000000
     7  C    1.541529   0.000000
     8  C    2.526242   1.549221   0.000000
     9  C    2.961283   2.530152   1.548446   0.000000
    10  C    2.554177   2.992654   2.560848   1.557282   0.000000
    11  C    3.904120   4.379323   3.908822   2.530094   1.533327
    12  C    4.956131   5.568753   4.962526   3.639931   2.579047
    13  C    6.210237   6.807034   6.215648   4.790237   3.862274
    14  C    6.602988   7.085466   6.606435   5.100142   4.366691
    15  C    8.050144   8.527218   8.052850   6.529350   5.853672
    16  O    8.650412   9.043116   8.651462   7.130515   6.585386
    17  O    8.812902   9.379981   8.817058   7.315116   6.535526
    18  C   10.202623  10.759716  10.206185   8.689101   7.951583
    19  C    5.854828   6.194937   5.856731   4.372415   3.836026
    20  C    4.510833   4.811081   4.512968   3.077993   2.545759
    21  C    1.541724   2.520661   2.962742   2.527972   1.556993
    22  H    3.484171   3.943147   3.462338   3.932414   3.509089
    23  H    3.953230   4.307374   3.349650   2.760580   2.186218
    24  H    3.339394   4.301901   3.957779   3.476489   2.186962
    25  H    2.182107   2.764956   3.352600   4.313959   4.002236
    26  H    2.182212   3.478813   3.964081   4.314675   3.383820
    27  H    1.097660   2.169566   3.480452   3.952950   3.500554
    28  H    2.181531   1.097687   2.184394   3.488825   3.998650
    29  H    2.183307   1.098544   2.175527   2.770793   3.371077
    30  H    3.489634   2.196299   1.094713   2.188293   3.515217
    31  H    3.360321   2.771924   2.167751   1.096726   2.194804
    32  H    3.961285   3.490296   2.185836   1.097553   2.184242
    33  H    5.026685   5.716613   5.034381   3.919534   2.803439
    34  H    7.059041   7.716042   7.065075   5.689302   4.730209
    35  H   10.424058  11.052995  10.640328   9.135336   8.324360
    36  H   10.737367  11.350769  10.741750   9.252989   8.454032
    37  H   10.636301  11.053188  10.425936   8.885044   8.323692
    38  H    6.510816   6.752176   6.511202   5.068616   4.703597
    39  H    4.196784   4.297949   4.197106   2.921374   2.739489
    40  H    2.171654   2.769020   3.361989   2.791178   2.190009
    41  H    2.180353   3.480804   3.963595   3.484567   2.180772
                   11         12         13         14         15
    11  C    0.000000
    12  C    1.403005   0.000000
    13  C    2.440988   1.394615   0.000000
    14  C    2.833720   2.422614   1.398291   0.000000
    15  C    4.321293   3.806910   2.536027   1.488401   0.000000
    16  O    5.086709   4.818478   3.655312   2.397111   1.215938
    17  O    5.027478   4.161546   2.767067   2.364642   1.354230
    18  C    6.433505   5.596599   4.202043   3.684088   2.355305
    19  C    2.441033   2.780186   2.411280   1.401291   2.479626
    20  C    1.407715   2.400862   2.778984   2.420316   3.764883
    21  C    2.533295   3.642397   4.793530   5.104320   6.534103
    22  H    4.743675   5.002070   6.369217   7.352790   8.794165
    23  H    2.811048   2.812652   4.123782   5.132879   6.533816
    24  H    2.816256   2.818486   4.130483   5.140094   6.541600
    25  H    5.463386   6.195565   7.558274   8.237965   9.711084
    26  H    4.574422   5.095687   6.386193   7.139897   8.562493
    27  H    4.692968   5.754558   6.931123   7.227861   8.623209
    28  H    5.437996   6.574701   7.848726   8.172800   9.620033
    29  H    4.517930   5.838603   6.948365   7.007873   8.382953
    30  H    4.711324   5.766956   6.946375   7.249634   8.645465
    31  H    2.752862   4.029023   4.975945   4.978806   6.326615
    32  H    2.764629   3.568618   4.632707   5.029257   6.399060
    33  H    2.162984   1.083956   2.132553   3.391335   4.666370
    34  H    3.418780   2.152416   1.084370   2.152409   2.760935
    35  H    6.805097   6.073247   4.705542   4.036234   2.655430
    36  H    6.976406   5.971773   4.603118   4.385494   3.238246
    37  H    6.804391   6.072596   4.705005   4.035874   2.654837
    38  H    3.426719   3.865283   3.389264   2.145170   2.649822
    39  H    2.164486   3.392982   3.864978   3.394353   4.612474
    40  H    2.747494   4.023048   4.970149   4.973773   6.322290
    41  H    2.764999   3.567489   4.633186   5.031781   6.402779
                   16         17         18         19         20
    16  O    0.000000
    17  O    2.259308   0.000000
    18  C    2.641239   1.435147   0.000000
    19  C    2.849076   3.647113   4.831741   0.000000
    20  C    4.237020   4.784951   6.076705   1.388872   0.000000
    21  C    7.136047   7.319170   8.693582   4.376702   3.081783
    22  H    9.728165   9.111993  10.536710   7.184518   6.006995
    23  H    7.499991   6.828837   8.245496   5.131064   4.150574
    24  H    7.508211   6.836198   8.253185   5.137726   4.156061
    25  H   10.456684  10.283881  11.706983   7.707578   6.381837
    26  H    9.369051   9.037951  10.437386   6.780720   5.585282
    27  H    9.148965   9.429660  10.784147   6.415038   5.129754
    28  H   10.140486  10.454426  11.841568   7.292506   5.908751
    29  H    8.758392   9.358487  10.686772   5.950523   4.618303
    30  H    9.174227   9.448190  10.803263   6.442446   5.157386
    31  H    6.753418   7.273719   8.584738   4.007225   2.756875
    32  H    7.055794   7.081719   8.434295   4.489314   3.386094
    33  H    5.755909   4.779594   6.189679   3.863810   3.394394
    34  H    3.973965   2.433486   3.789619   3.395686   3.863347
    35  H    2.634709   2.087923   1.093331   5.039755   6.329538
    36  H    3.702795   2.021555   1.090501   5.652712   6.805673
    37  H    2.633546   2.087969   1.093295   5.039552   6.329183
    38  H    2.520336   3.979230   4.929586   1.085154   2.158177
    39  H    4.875374   5.738592   6.962539   2.133080   1.086187
    40  H    6.750357   7.268531   8.580043   4.002828   2.752080
    41  H    7.061307   7.083897   8.437346   4.492614   3.388470
                   21         22         23         24         25
    21  C    0.000000
    22  H    3.956527   0.000000
    23  H    3.477518   2.489089   0.000000
    24  H    2.762564   2.509835   1.765562   0.000000
    25  H    3.481712   2.518711   4.327416   3.763290   0.000000
    26  H    2.771118   2.528685   3.767572   2.556122   1.765492
    27  H    2.165829   4.329513   4.987851   4.150720   2.507802
    28  H    3.481394   4.159186   5.029402   5.023470   2.561409
    29  H    2.770506   4.986437   5.022240   5.021528   3.769903
    30  H    3.969475   4.266159   4.143884   4.981813   4.150579
    31  H    2.793495   4.979063   3.767336   4.337334   5.033139
    32  H    3.486193   4.135548   2.552719   3.763820   5.031380
    33  H    3.921188   4.367508   2.244367   2.249049   5.893495
    34  H    5.692421   6.815455   4.590551   4.597036   8.225607
    35  H    8.890609  11.025291   8.823860   8.652022  12.012177
    36  H    9.257149  10.763298   8.499924   8.507273  12.097810
    37  H    9.139208  11.017309   8.642540   8.830114  12.198784
    38  H    5.073211   8.141736   6.144742   6.151523   8.482437
    39  H    2.924456   6.230479   4.657867   4.662215   6.229655
    40  H    1.096817   4.999573   4.333518   3.766718   4.321771
    41  H    1.098192   4.173797   3.761743   2.552643   3.770661
                   26         27         28         29         30
    26  H    0.000000
    27  H    2.505556   0.000000
    28  H    3.769367   2.504204   0.000000
    29  H    4.331270   2.506628   1.764968   0.000000
    30  H    4.989631   4.332389   2.515519   2.532097   0.000000
    31  H    5.043855   4.172446   3.766541   2.559466   2.510648
    32  H    5.030787   4.995727   4.336615   3.771493   2.509726
    33  H    4.755266   5.874446   6.629460   6.174490   5.879337
    34  H    6.976200   7.789219   8.727056   7.934557   7.800872
    35  H   10.683038  10.907790  12.139812  10.921152  11.275785
    36  H   10.778140  11.349754  12.414398  11.365973  11.365921
    37  H   11.035690  11.253649  12.139709  10.920162  10.926905
    38  H    7.621677   6.973126   7.837805   6.345660   7.004034
    39  H    5.647371   4.712683   5.377269   3.891373   4.746343
    40  H    3.763870   2.480997   3.766412   2.565645   4.201266
    41  H    2.564890   2.499388   4.329260   3.773661   5.009253
                   31         32         33         34         35
    31  H    0.000000
    32  H    1.760151   0.000000
    33  H    4.550934   3.769387   0.000000
    34  H    5.968973   5.433922   2.448708   0.000000
    35  H    8.965185   8.997324   6.725894   4.402040   0.000000
    36  H    9.257461   8.941911   6.398456   3.950174   1.795527
    37  H    8.701903   8.557798   6.725013   4.401377   1.778619
    38  H    4.502821   5.226528   4.948790   4.284975   4.998300
    39  H    2.275463   3.447214   4.306689   4.949346   7.145454
    40  H    2.608524   3.792117   4.545329   5.963187   8.698185
    41  H    3.794548   4.328591   3.766926   5.434029   8.562503
                   36         37         38         39         40
    36  H    0.000000
    37  H    1.795512   0.000000
    38  H    5.878221   4.998230   0.000000
    39  H    7.756987   7.145276   2.466287   0.000000
    40  H    9.252414   8.960252   4.499610   2.271797   0.000000
    41  H    8.944214   8.999906   5.230996   3.449669   1.760174
                   41
    41  H    0.000000
 Stoichiometry    C18H20O3
 Framework group  C1[X(C18H20O3)]
 Deg. of freedom   117
 Full point group                 C1      NOp   1
 Largest Abelian subgroup         C1      NOp   1
 Largest concise Abelian subgroup C1      NOp   1
                         Standard orientation:                         
 ---------------------------------------------------------------------
 Center     Atomic      Atomic             Coordinates (Angstroms)
 Number     Number       Type             X           Y           Z
 ---------------------------------------------------------------------
      1          8           0       -4.621205   -1.477543   -1.566347
      2          6           0       -3.876021   -0.827671   -0.858769
      3          6           0       -3.353953   -1.306410    0.491634
      4          6           0       -1.806640   -1.337040    0.441303
      5          6           0       -3.820106   -0.306330    1.577545
      6          6           0       -3.269858    1.094609    1.250826
      7          6           0       -3.812140    1.551746   -0.117848
      8          6           0       -3.355554    0.559635   -1.216634
      9          6           0       -1.808494    0.508092   -1.257083
     10          6           0       -1.226602    0.063213    0.117184
     11          6           0        0.305725    0.072182    0.062552
     12          6           0        1.081458   -1.074590    0.289653
     13          6           0        2.474383   -1.035123    0.233492
     14          6           0        3.135604    0.163025   -0.053644
     15          6           0        4.618233    0.270287   -0.128789
     16          8           0        5.223614    1.295142   -0.377164
     17          8           0        5.235967   -0.910585    0.111801
     18          6           0        6.669440   -0.872823    0.053713
     19          6           0        2.376207    1.318265   -0.282449
     20          6           0        0.989439    1.268836   -0.224182
     21          6           0       -1.729272    1.051133    1.210603
     22          1           0       -3.750034   -2.309029    0.681507
     23          1           0       -1.481161   -2.065168   -0.312632
     24          1           0       -1.430403   -1.687867    1.411397
     25          1           0       -4.916527   -0.286879    1.627079
     26          1           0       -3.459966   -0.641051    2.559792
     27          1           0       -3.589569    1.803452    2.025542
     28          1           0       -4.908056    1.609575   -0.094609
     29          1           0       -3.443287    2.557674   -0.360444
     30          1           0       -3.757184    0.841209   -2.195309
     31          1           0       -1.427521    1.499623   -1.530093
     32          1           0       -1.472085   -0.184762   -2.039006
     33          1           0        0.604815   -2.021826    0.514414
     34          1           0        3.049918   -1.936535    0.412583
     35          1           0        7.066455   -0.176615    0.797384
     36          1           0        6.997156   -1.890734    0.267373
     37          1           0        7.006321   -0.560289   -0.938319
     38          1           0        2.893069    2.246088   -0.505062
     39          1           0        0.429613    2.181707   -0.406017
     40          1           0       -1.337210    2.056944    1.016598
     41          1           0       -1.332452    0.742161    2.186869
 ---------------------------------------------------------------------
 Rotational constants (GHZ):           0.9717234           0.1314496           0.1273366
 Standard basis: 6-31G(d) (6D, 7F)
 There are   355 symmetry adapted cartesian basis functions of A   symmetry.
 There are   355 symmetry adapted basis functions of A   symmetry.
   355 basis functions,   668 primitive gaussians,   355 cartesian basis functions
    76 alpha electrons       76 beta electrons
       nuclear repulsion energy      1657.6960309126 Hartrees.
 NAtoms=   41 NActive=   41 NUniq=   41 SFac= 1.00D+00 NAtFMM=   60 NAOKFM=F Big=F
 Integral buffers will be    131072 words long.
 Raffenetti 2 integral format.
 Two-electron integral symmetry is turned on.
 One-electron integrals computed using PRISM.
 NBasis=   355 RedAO= T EigKep=  3.94D-04  NBF=   355
 NBsUse=   355 1.00D-06 EigRej= -1.00D+00 NBFU=   355
 ExpMin= 1.61D-01 ExpMax= 5.48D+03 ExpMxC= 8.25D+02 IAcc=3 IRadAn=         5 AccDes= 0.00D+00
 Harris functional with IExCor=  402 and IRadAn=       5 diagonalized for initial guess.
 HarFok:  IExCor=  402 AccDes= 0.00D+00 IRadAn=         5 IDoV= 1 UseB2=F ITyADJ=14
 ICtDFT=  3500011 ScaDFX=  1.000000  1.000000  1.000000  1.000000
 FoFCou: FMM=F IPFlag=           0 FMFlag=      100000 FMFlg1=           0
         NFxFlg=           0 DoJE=T BraDBF=F KetDBF=T FulRan=T
         wScrn=  0.000000 ICntrl=       500 IOpCl=  0 I1Cent=   200000004 NGrid=           0
         NMat0=    1 NMatS0=      1 NMatT0=    0 NMatD0=    1 NMtDS0=    0 NMtDT0=    0
 Petite list used in FoFCou.
 Requested convergence on RMS density matrix=1.00D-08 within 128 cycles.
 Requested convergence on MAX density matrix=1.00D-06.
 Requested convergence on             energy=1.00D-06.
 No special actions if energy rises.
 Integral accuracy reduced to 1.0D-05 until final iterations.
 Initial convergence to 1.0D-05 achieved.  Increase integral accuracy.
 SCF Done:  E(RB3LYP) =  -923.663426177     A.U. after   15 cycles
            NFock= 15  Conv=0.50D-08     -V/T= 2.0094
 DoSCS=F DFT=T ScalE2(SS,OS)=  1.000000  1.000000
 Range of M.O.s used for correlation:     1   355
 NBasis=   355 NAE=    76 NBE=    76 NFC=     0 NFV=     0
 NROrb=    355 NOA=    76 NOB=    76 NVA=   279 NVB=   279
 Symmetrizing basis deriv contribution to polar:
 IMax=3 JMax=2 DiffMx= 0.00D+00
 G2DrvN: will do    42 centers at a time, making    1 passes.
 Calling FoFCou, ICntrl=  3107 FMM=F I1Cent=   0 AccDes= 0.00D+00.
 End of G2Drv F.D. properties file   721 does not exist.
 End of G2Drv F.D. properties file   722 does not exist.
 End of G2Drv F.D. properties file   788 does not exist.
          IDoAtm=11111111111111111111111111111111111111111
          Differentiating once with respect to electric field.
                with respect to dipole field.
          Differentiating once with respect to nuclear coordinates.
 CalDSu exits because no D1Ps are significant.
          There are   126 degrees of freedom in the 1st order CPHF.  IDoFFX=6 NUNeed=     3.
    123 vectors produced by pass  0 Test12= 2.12D-14 1.00D-09 XBig12= 2.28D+02 9.46D+00.
 AX will form   123 AO Fock derivatives at one time.
    123 vectors produced by pass  1 Test12= 2.12D-14 1.00D-09 XBig12= 3.48D+01 1.12D+00.
    123 vectors produced by pass  2 Test12= 2.12D-14 1.00D-09 XBig12= 3.01D-01 7.80D-02.
    123 vectors produced by pass  3 Test12= 2.12D-14 1.00D-09 XBig12= 9.97D-04 3.68D-03.
    123 vectors produced by pass  4 Test12= 2.12D-14 1.00D-09 XBig12= 1.50D-06 1.19D-04.
     84 vectors produced by pass  5 Test12= 2.12D-14 1.00D-09 XBig12= 1.40D-09 3.50D-06.
     12 vectors produced by pass  6 Test12= 2.12D-14 1.00D-09 XBig12= 1.04D-12 1.28D-07.
      3 vectors produced by pass  7 Test12= 2.12D-14 1.00D-09 XBig12= 7.76D-16 3.01D-09.
 InvSVY:  IOpt=1 It=  1 EMax= 1.24D-14
 Solved reduced A of dimension   714 with   126 vectors.
 Isotropic polarizability for W=    0.000000      189.18 Bohr**3.
 End of Minotr F.D. properties file   721 does not exist.
 End of Minotr F.D. properties file   722 does not exist.
 End of Minotr F.D. properties file   788 does not exist.

 **********************************************************************

            Population analysis using the SCF density.

 **********************************************************************

 Orbital symmetries:
       Occupied  (A) (A) (A) (A) (A) (A) (A) (A) (A) (A) (A) (A)
                 (A) (A) (A) (A) (A) (A) (A) (A) (A) (A) (A) (A)
                 (A) (A) (A) (A) (A) (A) (A) (A) (A) (A) (A) (A)
                 (A) (A) (A) (A) (A) (A) (A) (A) (A) (A) (A) (A)
                 (A) (A) (A) (A) (A) (A) (A) (A) (A) (A) (A) (A)
                 (A) (A) (A) (A) (A) (A) (A) (A) (A) (A) (A) (A)
                 (A) (A) (A) (A)
       Virtual   (A) (A) (A) (A) (A) (A) (A) (A) (A) (A) (A) (A)
                 (A) (A) (A) (A) (A) (A) (A) (A) (A) (A) (A) (A)
                 (A) (A) (A) (A) (A) (A) (A) (A) (A) (A) (A) (A)
                 (A) (A) (A) (A) (A) (A) (A) (A) (A) (A) (A) (A)
                 (A) (A) (A) (A) (A) (A) (A) (A) (A) (A) (A) (A)
                 (A) (A) (A) (A) (A) (A) (A) (A) (A) (A) (A) (A)
                 (A) (A) (A) (A) (A) (A) (A) (A) (A) (A) (A) (A)
                 (A) (A) (A) (A) (A) (A) (A) (A) (A) (A) (A) (A)
                 (A) (A) (A) (A) (A) (A) (A) (A) (A) (A) (A) (A)
                 (A) (A) (A) (A) (A) (A) (A) (A) (A) (A) (A) (A)
                 (A) (A) (A) (A) (A) (A) (A) (A) (A) (A) (A) (A)
                 (A) (A) (A) (A) (A) (A) (A) (A) (A) (A) (A) (A)
                 (A) (A) (A) (A) (A) (A) (A) (A) (A) (A) (A) (A)
                 (A) (A) (A) (A) (A) (A) (A) (A) (A) (A) (A) (A)
                 (A) (A) (A) (A) (A) (A) (A) (A) (A) (A) (A) (A)
                 (A) (A) (A) (A) (A) (A) (A) (A) (A) (A) (A) (A)
                 (A) (A) (A) (A) (A) (A) (A) (A) (A) (A) (A) (A)
                 (A) (A) (A) (A) (A) (A) (A) (A) (A) (A) (A) (A)
                 (A) (A) (A) (A) (A) (A) (A) (A) (A) (A) (A) (A)
                 (A) (A) (A) (A) (A) (A) (A) (A) (A) (A) (A) (A)
                 (A) (A) (A) (A) (A) (A) (A) (A) (A) (A) (A) (A)
                 (A) (A) (A) (A) (A) (A) (A) (A) (A) (A) (A) (A)
                 (A) (A) (A) (A) (A) (A) (A) (A) (A) (A) (A) (A)
                 (A) (A) (A)
 The electronic state is 1-A.
 Alpha  occ. eigenvalues --  -19.19228 -19.13493 -19.13267 -10.31395 -10.26587
 Alpha  occ. eigenvalues --  -10.24072 -10.21516 -10.20985 -10.20456 -10.20087
 Alpha  occ. eigenvalues --  -10.19953 -10.19867 -10.19759 -10.19715 -10.19711
 Alpha  occ. eigenvalues --  -10.19700 -10.19698 -10.19693 -10.19512 -10.19485
 Alpha  occ. eigenvalues --  -10.19198  -1.10015  -1.03327  -1.01049  -0.88623
 Alpha  occ. eigenvalues --   -0.86244  -0.80263  -0.78506  -0.77162  -0.75525
 Alpha  occ. eigenvalues --   -0.75293  -0.71716  -0.68334  -0.65524  -0.63538
 Alpha  occ. eigenvalues --   -0.61948  -0.59975  -0.58716  -0.57660  -0.56336
 Alpha  occ. eigenvalues --   -0.53658  -0.51204  -0.48374  -0.48034  -0.47700
 Alpha  occ. eigenvalues --   -0.46666  -0.46174  -0.45407  -0.44889  -0.44491
 Alpha  occ. eigenvalues --   -0.44203  -0.43701  -0.42863  -0.42376  -0.41299
 Alpha  occ. eigenvalues --   -0.41089  -0.40407  -0.40354  -0.40093  -0.37144
 Alpha  occ. eigenvalues --   -0.36941  -0.36545  -0.36377  -0.35999  -0.35233
 Alpha  occ. eigenvalues --   -0.34201  -0.34139  -0.33603  -0.30805  -0.30522
 Alpha  occ. eigenvalues --   -0.30131  -0.29988  -0.27292  -0.25897  -0.25197
 Alpha  occ. eigenvalues --   -0.23241
 Alpha virt. eigenvalues --   -0.04545  -0.01379  -0.00711   0.05545   0.06343
 Alpha virt. eigenvalues --    0.09340   0.10657   0.11311   0.11615   0.12363
 Alpha virt. eigenvalues --    0.12628   0.12815   0.13464   0.13941   0.14620
 Alpha virt. eigenvalues --    0.15343   0.15610   0.15815   0.16173   0.17029
 Alpha virt. eigenvalues --    0.17732   0.18217   0.18651   0.18798   0.19125
 Alpha virt. eigenvalues --    0.19542   0.20768   0.21457   0.21552   0.22707
 Alpha virt. eigenvalues --    0.23087   0.23656   0.24641   0.25947   0.26739
 Alpha virt. eigenvalues --    0.27622   0.27999   0.28585   0.28842   0.29057
 Alpha virt. eigenvalues --    0.31732   0.33333   0.33842   0.34353   0.36515
 Alpha virt. eigenvalues --    0.40382   0.40862   0.49114   0.49565   0.50373
 Alpha virt. eigenvalues --    0.50731   0.51080   0.51900   0.52376   0.52979
 Alpha virt. eigenvalues --    0.54264   0.54756   0.55177   0.55673   0.57173
 Alpha virt. eigenvalues --    0.57612   0.58421   0.58791   0.58881   0.59114
 Alpha virt. eigenvalues --    0.60822   0.61375   0.62013   0.63525   0.63829
 Alpha virt. eigenvalues --    0.64198   0.65248   0.66025   0.66662   0.67505
 Alpha virt. eigenvalues --    0.68019   0.68863   0.71146   0.71355   0.71877
 Alpha virt. eigenvalues --    0.72025   0.74979   0.75238   0.76752   0.76987
 Alpha virt. eigenvalues --    0.77788   0.78527   0.78785   0.80662   0.81461
 Alpha virt. eigenvalues --    0.81932   0.82347   0.82907   0.84000   0.84339
 Alpha virt. eigenvalues --    0.85076   0.85314   0.85923   0.86251   0.86786
 Alpha virt. eigenvalues --    0.87518   0.88221   0.89312   0.90869   0.91393
 Alpha virt. eigenvalues --    0.92360   0.92468   0.93773   0.93821   0.94865
 Alpha virt. eigenvalues --    0.96140   0.96775   0.97619   0.97869   0.98586
 Alpha virt. eigenvalues --    0.98839   0.99409   1.01239   1.03502   1.04709
 Alpha virt. eigenvalues --    1.08694   1.08844   1.09505   1.10344   1.10907
 Alpha virt. eigenvalues --    1.13764   1.15373   1.16323   1.16845   1.17553
 Alpha virt. eigenvalues --    1.18679   1.21780   1.23374   1.25085   1.25722
 Alpha virt. eigenvalues --    1.26930   1.28336   1.29036   1.30709   1.31027
 Alpha virt. eigenvalues --    1.36806   1.38449   1.38887   1.40830   1.44000
 Alpha virt. eigenvalues --    1.44776   1.45165   1.46126   1.48033   1.49687
 Alpha virt. eigenvalues --    1.50536   1.51496   1.52334   1.53388   1.60156
 Alpha virt. eigenvalues --    1.60529   1.64108   1.64946   1.65747   1.67267
 Alpha virt. eigenvalues --    1.68963   1.69973   1.71449   1.72819   1.73957
 Alpha virt. eigenvalues --    1.74404   1.76136   1.76607   1.76781   1.78508
 Alpha virt. eigenvalues --    1.78697   1.80750   1.82099   1.83486   1.84235
 Alpha virt. eigenvalues --    1.85012   1.85838   1.86541   1.88471   1.89737
 Alpha virt. eigenvalues --    1.89916   1.91964   1.93859   1.94646   1.96394
 Alpha virt. eigenvalues --    1.99327   2.00592   2.01184   2.02533   2.03443
 Alpha virt. eigenvalues --    2.03704   2.04568   2.07174   2.07562   2.08365
 Alpha virt. eigenvalues --    2.09509   2.10687   2.11407   2.12024   2.13065
 Alpha virt. eigenvalues --    2.13703   2.15032   2.15427   2.17604   2.18209
 Alpha virt. eigenvalues --    2.20556   2.21894   2.23417   2.25317   2.27577
 Alpha virt. eigenvalues --    2.28375   2.28634   2.29349   2.30768   2.32108
 Alpha virt. eigenvalues --    2.33285   2.34640   2.35546   2.38037   2.39115
 Alpha virt. eigenvalues --    2.40067   2.41876   2.44847   2.46081   2.46744
 Alpha virt. eigenvalues --    2.47440   2.49416   2.51893   2.52570   2.56175
 Alpha virt. eigenvalues --    2.58538   2.59811   2.61422   2.61763   2.63226
 Alpha virt. eigenvalues --    2.68047   2.68244   2.69784   2.70796   2.71493
 Alpha virt. eigenvalues --    2.73085   2.73629   2.75207   2.75940   2.77293
 Alpha virt. eigenvalues --    2.80937   2.81319   2.82191   2.83343   2.88368
 Alpha virt. eigenvalues --    2.96380   3.00340   3.01240   3.03166   3.06975
 Alpha virt. eigenvalues --    3.13491   3.21038   3.43089   3.96948   4.08725
 Alpha virt. eigenvalues --    4.09761   4.11049   4.14041   4.17158   4.25396
 Alpha virt. eigenvalues --    4.26467   4.28762   4.29983   4.30619   4.34066
 Alpha virt. eigenvalues --    4.43572   4.49656   4.53897   4.56703   4.70082
 Alpha virt. eigenvalues --    4.72184   4.79689   4.84082   4.84716
          Condensed to atoms (all electrons):
               1          2          3          4          5          6
     1  O    8.010218   0.580374  -0.073983   0.000986   0.000911   0.000046
     2  C    0.580374   4.513536   0.330204  -0.027853  -0.029248  -0.020475
     3  C   -0.073983   0.330204   5.231227   0.321956   0.338682  -0.027681
     4  C    0.000986  -0.027853   0.321956   5.180300  -0.038005  -0.014266
     5  C    0.000911  -0.029248   0.338682  -0.038005   5.094695   0.374753
     6  C    0.000046  -0.020475  -0.027681  -0.014266   0.374753   4.943138
     7  C    0.000962  -0.029585  -0.007987  -0.003050  -0.049309   0.374835
     8  C   -0.073654   0.330693  -0.125627  -0.006136  -0.008377  -0.028395
     9  C    0.000915  -0.027800  -0.007041  -0.058679  -0.002495  -0.014650
    10  C    0.000107  -0.019408  -0.018044   0.362780  -0.016388  -0.021477
    11  C    0.000001   0.000012   0.003447  -0.038263  -0.000053   0.004097
    12  C   -0.000000  -0.000013   0.000536  -0.009648  -0.000012  -0.000067
    13  C   -0.000000   0.000000  -0.000007   0.000215   0.000000   0.000001
    14  C   -0.000000  -0.000000   0.000000  -0.000014  -0.000000  -0.000000
    15  C    0.000000   0.000000  -0.000000  -0.000000   0.000000  -0.000000
    16  O    0.000000  -0.000000   0.000000   0.000000  -0.000000   0.000000
    17  O    0.000000  -0.000000   0.000000   0.000000  -0.000000   0.000000
    18  C    0.000000   0.000000  -0.000000  -0.000000   0.000000  -0.000000
    19  C   -0.000000   0.000000   0.000001  -0.000150   0.000000  -0.000000
    20  C   -0.000000  -0.000007  -0.000097   0.005437  -0.000001   0.000323
    21  C   -0.000031  -0.002787  -0.013357  -0.057250  -0.045929   0.354758
    22  H    0.004278  -0.031702   0.345981  -0.031199  -0.031318   0.004215
    23  H    0.000757  -0.001018  -0.039425   0.361605   0.005092  -0.000040
    24  H   -0.000084   0.003536  -0.030951   0.354094  -0.006001  -0.000775
    25  H    0.000756  -0.000891  -0.039658   0.005128   0.368220  -0.034905
    26  H   -0.000082   0.003533  -0.030929  -0.006122   0.361146  -0.033413
    27  H   -0.000000   0.000293   0.004658   0.000103  -0.037933   0.369263
    28  H    0.000720  -0.000834  -0.000071   0.000059  -0.004250  -0.034788
    29  H   -0.000082   0.003550  -0.000320   0.000117   0.005258  -0.033801
    30  H    0.004182  -0.031506   0.007119  -0.000062  -0.000058   0.004155
    31  H   -0.000081   0.003531  -0.000321   0.005798   0.000099  -0.000698
    32  H    0.000719  -0.001304   0.000466  -0.006573  -0.000009  -0.000037
    33  H   -0.000000  -0.000015   0.000066   0.007826  -0.000004  -0.000007
    34  H    0.000000  -0.000000  -0.000000   0.000003  -0.000000  -0.000000
    35  H    0.000000   0.000000   0.000000   0.000000   0.000000  -0.000000
    36  H    0.000000  -0.000000  -0.000000  -0.000000  -0.000000  -0.000000
    37  H    0.000000   0.000000   0.000000   0.000000  -0.000000   0.000000
    38  H    0.000000  -0.000000  -0.000000   0.000001  -0.000000  -0.000000
    39  H   -0.000000  -0.000004  -0.000002   0.000088  -0.000001  -0.000132
    40  H    0.000000   0.000144  -0.000075   0.005763   0.005104  -0.033655
    41  H    0.000000   0.000141  -0.001131  -0.005856  -0.003909  -0.034024
               7          8          9         10         11         12
     1  O    0.000962  -0.073654   0.000915   0.000107   0.000001  -0.000000
     2  C   -0.029585   0.330693  -0.027800  -0.019408   0.000012  -0.000013
     3  C   -0.007987  -0.125627  -0.007041  -0.018044   0.003447   0.000536
     4  C   -0.003050  -0.006136  -0.058679   0.362780  -0.038263  -0.009648
     5  C   -0.049309  -0.008377  -0.002495  -0.016388  -0.000053  -0.000012
     6  C    0.374835  -0.028395  -0.014650  -0.021477   0.004097  -0.000067
     7  C    5.097914   0.338694  -0.039029  -0.016454   0.000034  -0.000003
     8  C    0.338694   5.236404   0.314989  -0.020483   0.004064  -0.000057
     9  C   -0.039029   0.314989   5.173688   0.364559  -0.044237   0.001132
    10  C   -0.016454  -0.020483   0.364559   4.960655   0.356924  -0.052283
    11  C    0.000034   0.004064  -0.044237   0.356924   4.709575   0.544278
    12  C   -0.000003  -0.000057   0.001132  -0.052283   0.544278   5.037149
    13  C    0.000000   0.000001  -0.000166   0.006650  -0.022962   0.460282
    14  C   -0.000000  -0.000000   0.000001   0.000352  -0.024975  -0.020407
    15  C   -0.000000  -0.000000  -0.000000   0.000005   0.000568   0.004642
    16  O   -0.000000   0.000000  -0.000000  -0.000000  -0.000005  -0.000064
    17  O    0.000000   0.000000  -0.000000  -0.000000  -0.000000   0.000514
    18  C   -0.000000  -0.000000   0.000000  -0.000000   0.000000   0.000000
    19  C   -0.000000  -0.000000   0.000298   0.005140  -0.019366  -0.046740
    20  C   -0.000049   0.000316  -0.008650  -0.053373   0.513011  -0.047039
    21  C   -0.046490  -0.012794  -0.052423   0.370975  -0.047598   0.001084
    22  H   -0.000048   0.007131  -0.000077   0.003467  -0.000103   0.000005
    23  H    0.000008   0.000476  -0.006467  -0.029731  -0.006545   0.001701
    24  H    0.000134  -0.000403   0.005970  -0.028063  -0.006550   0.001868
    25  H   -0.004321  -0.000028   0.000042   0.000184   0.000012   0.000000
    26  H    0.005229  -0.000299   0.000104  -0.001145  -0.000095  -0.000003
    27  H   -0.037682   0.004609   0.000086   0.004146  -0.000094   0.000001
    28  H    0.367635  -0.039191   0.005110   0.000187   0.000012  -0.000000
    29  H    0.360761  -0.031679  -0.005611  -0.001302  -0.000079   0.000001
    30  H   -0.031042   0.345438  -0.030534   0.003537  -0.000103   0.000000
    31  H   -0.005862  -0.029493   0.355566  -0.030578  -0.008977  -0.000242
    32  H    0.005039  -0.037631   0.363884  -0.034434  -0.002304   0.001226
    33  H   -0.000001  -0.000006   0.000253  -0.015768  -0.039079   0.354474
    34  H   -0.000000  -0.000000   0.000001  -0.000141   0.003334  -0.041193
    35  H    0.000000   0.000000  -0.000000  -0.000000  -0.000000   0.000001
    36  H   -0.000000  -0.000000  -0.000000   0.000000   0.000000  -0.000001
    37  H    0.000000  -0.000000   0.000000  -0.000000  -0.000000   0.000001
    38  H   -0.000000  -0.000000  -0.000000  -0.000140   0.003142   0.000445
    39  H   -0.000014  -0.000116   0.000171  -0.007648  -0.047349   0.005603
    40  H   -0.003590  -0.001092  -0.004922  -0.033461  -0.008759  -0.000208
    41  H    0.005105  -0.000137   0.005766  -0.035893  -0.001837   0.001272
              13         14         15         16         17         18
     1  O   -0.000000  -0.000000   0.000000   0.000000   0.000000   0.000000
     2  C    0.000000  -0.000000   0.000000  -0.000000  -0.000000   0.000000
     3  C   -0.000007   0.000000  -0.000000   0.000000   0.000000  -0.000000
     4  C    0.000215  -0.000014  -0.000000   0.000000   0.000000  -0.000000
     5  C    0.000000  -0.000000   0.000000  -0.000000  -0.000000   0.000000
     6  C    0.000001  -0.000000  -0.000000   0.000000   0.000000  -0.000000
     7  C    0.000000  -0.000000  -0.000000  -0.000000   0.000000  -0.000000
     8  C    0.000001  -0.000000  -0.000000   0.000000   0.000000  -0.000000
     9  C   -0.000166   0.000001  -0.000000  -0.000000  -0.000000   0.000000
    10  C    0.006650   0.000352   0.000005  -0.000000  -0.000000  -0.000000
    11  C   -0.022962  -0.024975   0.000568  -0.000005  -0.000000   0.000000
    12  C    0.460282  -0.020407   0.004642  -0.000064   0.000514   0.000000
    13  C    5.057938   0.500505  -0.040101   0.004245   0.002441  -0.000364
    14  C    0.500505   4.890331   0.342243  -0.081926  -0.091001   0.007897
    15  C   -0.040101   0.342243   4.388381   0.541591   0.255564  -0.021293
    16  O    0.004245  -0.081926   0.541591   8.085073  -0.090115   0.003757
    17  O    0.002441  -0.091001   0.255564  -0.090115   8.259886   0.210624
    18  C   -0.000364   0.007897  -0.021293   0.003757   0.210624   4.890495
    19  C   -0.069014   0.514165  -0.042343   0.001182   0.004638  -0.000203
    20  C   -0.047123  -0.027029   0.006397   0.000833  -0.000048   0.000001
    21  C   -0.000166   0.000001   0.000000  -0.000000  -0.000000   0.000000
    22  H    0.000000  -0.000000  -0.000000  -0.000000   0.000000   0.000000
    23  H    0.000066  -0.000007  -0.000000   0.000000   0.000000   0.000000
    24  H    0.000064  -0.000006  -0.000000   0.000000   0.000000  -0.000000
    25  H   -0.000000   0.000000  -0.000000   0.000000   0.000000  -0.000000
    26  H   -0.000000  -0.000000  -0.000000  -0.000000  -0.000000   0.000000
    27  H   -0.000000   0.000000  -0.000000  -0.000000  -0.000000   0.000000
    28  H    0.000000   0.000000   0.000000  -0.000000   0.000000  -0.000000
    29  H   -0.000000  -0.000000  -0.000000  -0.000000  -0.000000   0.000000
    30  H   -0.000000   0.000000  -0.000000  -0.000000  -0.000000   0.000000
    31  H    0.000007  -0.000007  -0.000000   0.000000   0.000000  -0.000000
    32  H   -0.000017  -0.000012  -0.000000   0.000000   0.000000  -0.000000
    33  H   -0.044635   0.003417  -0.000149   0.000000  -0.000004  -0.000000
    34  H    0.353794  -0.035496  -0.010251   0.000108   0.011149  -0.000393
    35  H    0.000057  -0.000214  -0.004877   0.006254  -0.031658   0.373738
    36  H   -0.000071   0.000111   0.004370   0.000748  -0.032934   0.377898
    37  H    0.000057  -0.000212  -0.004880   0.006279  -0.031624   0.373817
    38  H    0.005951  -0.039400  -0.009559   0.014223   0.000314  -0.000024
    39  H    0.000690   0.003415  -0.000175  -0.000001   0.000000  -0.000000
    40  H    0.000005  -0.000006  -0.000000   0.000000   0.000000  -0.000000
    41  H   -0.000022  -0.000011  -0.000000   0.000000   0.000000  -0.000000
              19         20         21         22         23         24
     1  O   -0.000000  -0.000000  -0.000031   0.004278   0.000757  -0.000084
     2  C    0.000000  -0.000007  -0.002787  -0.031702  -0.001018   0.003536
     3  C    0.000001  -0.000097  -0.013357   0.345981  -0.039425  -0.030951
     4  C   -0.000150   0.005437  -0.057250  -0.031199   0.361605   0.354094
     5  C    0.000000  -0.000001  -0.045929  -0.031318   0.005092  -0.006001
     6  C   -0.000000   0.000323   0.354758   0.004215  -0.000040  -0.000775
     7  C   -0.000000  -0.000049  -0.046490  -0.000048   0.000008   0.000134
     8  C   -0.000000   0.000316  -0.012794   0.007131   0.000476  -0.000403
     9  C    0.000298  -0.008650  -0.052423  -0.000077  -0.006467   0.005970
    10  C    0.005140  -0.053373   0.370975   0.003467  -0.029731  -0.028063
    11  C   -0.019366   0.513011  -0.047598  -0.000103  -0.006545  -0.006550
    12  C   -0.046740  -0.047039   0.001084   0.000005   0.001701   0.001868
    13  C   -0.069014  -0.047123  -0.000166   0.000000   0.000066   0.000064
    14  C    0.514165  -0.027029   0.000001  -0.000000  -0.000007  -0.000006
    15  C   -0.042343   0.006397   0.000000  -0.000000  -0.000000  -0.000000
    16  O    0.001182   0.000833  -0.000000  -0.000000   0.000000   0.000000
    17  O    0.004638  -0.000048  -0.000000   0.000000   0.000000   0.000000
    18  C   -0.000203   0.000001   0.000000   0.000000   0.000000  -0.000000
    19  C    5.020857   0.472722   0.000282  -0.000000   0.000001   0.000001
    20  C    0.472722   5.055765  -0.008455   0.000002  -0.000084  -0.000132
    21  C    0.000282  -0.008455   5.147963   0.000143   0.005789  -0.005588
    22  H   -0.000000   0.000002   0.000143   0.598777  -0.002660  -0.003985
    23  H    0.000001  -0.000084   0.005789  -0.002660   0.591848  -0.038928
    24  H    0.000001  -0.000132  -0.005588  -0.003985  -0.038928   0.599400
    25  H    0.000000  -0.000000   0.005020  -0.002442  -0.000157  -0.000046
    26  H    0.000000   0.000000  -0.003626  -0.004122  -0.000060   0.005750
    27  H   -0.000000  -0.000008  -0.038037  -0.000144   0.000018  -0.000097
    28  H    0.000000   0.000001   0.005009  -0.000080  -0.000005   0.000000
    29  H   -0.000000  -0.000034  -0.003419   0.000023   0.000001  -0.000005
    30  H   -0.000000  -0.000006   0.000134  -0.000183  -0.000090   0.000024
    31  H    0.000025   0.005030  -0.004799   0.000023   0.000005  -0.000201
    32  H   -0.000043  -0.000222   0.005622  -0.000089   0.004868  -0.000014
    33  H    0.000618   0.006003   0.000246   0.000003   0.002031   0.002004
    34  H    0.005698   0.000473   0.000001   0.000000   0.000003   0.000002
    35  H   -0.000004  -0.000000   0.000000  -0.000000   0.000000  -0.000000
    36  H    0.000001  -0.000000  -0.000000   0.000000   0.000000   0.000000
    37  H   -0.000004  -0.000000  -0.000000  -0.000000  -0.000000   0.000000
    38  H    0.352237  -0.039524   0.000000   0.000000   0.000000   0.000000
    39  H   -0.038852   0.353507   0.000181   0.000000   0.000002  -0.000000
    40  H    0.000003   0.005026   0.359454   0.000017  -0.000168  -0.000053
    41  H   -0.000053  -0.000205   0.360998  -0.000076  -0.000065   0.005354
              25         26         27         28         29         30
     1  O    0.000756  -0.000082  -0.000000   0.000720  -0.000082   0.004182
     2  C   -0.000891   0.003533   0.000293  -0.000834   0.003550  -0.031506
     3  C   -0.039658  -0.030929   0.004658  -0.000071  -0.000320   0.007119
     4  C    0.005128  -0.006122   0.000103   0.000059   0.000117  -0.000062
     5  C    0.368220   0.361146  -0.037933  -0.004250   0.005258  -0.000058
     6  C   -0.034905  -0.033413   0.369263  -0.034788  -0.033801   0.004155
     7  C   -0.004321   0.005229  -0.037682   0.367635   0.360761  -0.031042
     8  C   -0.000028  -0.000299   0.004609  -0.039191  -0.031679   0.345438
     9  C    0.000042   0.000104   0.000086   0.005110  -0.005611  -0.030534
    10  C    0.000184  -0.001145   0.004146   0.000187  -0.001302   0.003537
    11  C    0.000012  -0.000095  -0.000094   0.000012  -0.000079  -0.000103
    12  C    0.000000  -0.000003   0.000001  -0.000000   0.000001   0.000000
    13  C   -0.000000  -0.000000  -0.000000   0.000000  -0.000000  -0.000000
    14  C    0.000000  -0.000000   0.000000   0.000000  -0.000000   0.000000
    15  C   -0.000000  -0.000000  -0.000000   0.000000  -0.000000  -0.000000
    16  O    0.000000  -0.000000  -0.000000  -0.000000  -0.000000  -0.000000
    17  O    0.000000  -0.000000  -0.000000   0.000000  -0.000000  -0.000000
    18  C   -0.000000   0.000000   0.000000  -0.000000   0.000000   0.000000
    19  C    0.000000   0.000000  -0.000000   0.000000  -0.000000  -0.000000
    20  C   -0.000000   0.000000  -0.000008   0.000001  -0.000034  -0.000006
    21  C    0.005020  -0.003626  -0.038037   0.005009  -0.003419   0.000134
    22  H   -0.002442  -0.004122  -0.000144  -0.000080   0.000023  -0.000183
    23  H   -0.000157  -0.000060   0.000018  -0.000005   0.000001  -0.000090
    24  H   -0.000046   0.005750  -0.000097   0.000000  -0.000005   0.000024
    25  H    0.591167  -0.034995  -0.003313   0.004221   0.000006  -0.000085
    26  H   -0.034995   0.598780  -0.003210   0.000006  -0.000201   0.000023
    27  H   -0.003313  -0.003210   0.622188  -0.003406  -0.003221  -0.000140
    28  H    0.004221   0.000006  -0.003406   0.591121  -0.035011  -0.002531
    29  H    0.000006  -0.000201  -0.003221  -0.035011   0.600800  -0.004014
    30  H   -0.000085   0.000023  -0.000140  -0.002531  -0.004014   0.596954
    31  H    0.000001  -0.000004  -0.000078  -0.000059   0.005769  -0.004109
    32  H   -0.000005   0.000001   0.000018  -0.000157  -0.000063  -0.002502
    33  H   -0.000000  -0.000002   0.000000  -0.000000   0.000000   0.000000
    34  H   -0.000000   0.000000   0.000000  -0.000000   0.000000   0.000000
    35  H   -0.000000   0.000000   0.000000   0.000000  -0.000000  -0.000000
    36  H   -0.000000   0.000000   0.000000  -0.000000  -0.000000   0.000000
    37  H    0.000000  -0.000000  -0.000000   0.000000   0.000000   0.000000
    38  H   -0.000000   0.000000   0.000000  -0.000000   0.000000   0.000000
    39  H   -0.000000  -0.000000   0.000005  -0.000000   0.000043   0.000003
    40  H   -0.000161  -0.000049  -0.003816  -0.000044   0.004689  -0.000059
    41  H   -0.000032   0.004595  -0.003436  -0.000160  -0.000058   0.000017
              31         32         33         34         35         36
     1  O   -0.000081   0.000719  -0.000000   0.000000   0.000000   0.000000
     2  C    0.003531  -0.001304  -0.000015  -0.000000   0.000000  -0.000000
     3  C   -0.000321   0.000466   0.000066  -0.000000   0.000000  -0.000000
     4  C    0.005798  -0.006573   0.007826   0.000003   0.000000  -0.000000
     5  C    0.000099  -0.000009  -0.000004  -0.000000   0.000000  -0.000000
     6  C   -0.000698  -0.000037  -0.000007  -0.000000  -0.000000  -0.000000
     7  C   -0.005862   0.005039  -0.000001  -0.000000   0.000000  -0.000000
     8  C   -0.029493  -0.037631  -0.000006  -0.000000   0.000000  -0.000000
     9  C    0.355566   0.363884   0.000253   0.000001  -0.000000  -0.000000
    10  C   -0.030578  -0.034434  -0.015768  -0.000141  -0.000000   0.000000
    11  C   -0.008977  -0.002304  -0.039079   0.003334  -0.000000   0.000000
    12  C   -0.000242   0.001226   0.354474  -0.041193   0.000001  -0.000001
    13  C    0.000007  -0.000017  -0.044635   0.353794   0.000057  -0.000071
    14  C   -0.000007  -0.000012   0.003417  -0.035496  -0.000214   0.000111
    15  C   -0.000000  -0.000000  -0.000149  -0.010251  -0.004877   0.004370
    16  O    0.000000   0.000000   0.000000   0.000108   0.006254   0.000748
    17  O    0.000000   0.000000  -0.000004   0.011149  -0.031658  -0.032934
    18  C   -0.000000  -0.000000  -0.000000  -0.000393   0.373738   0.377898
    19  C    0.000025  -0.000043   0.000618   0.005698  -0.000004   0.000001
    20  C    0.005030  -0.000222   0.006003   0.000473  -0.000000  -0.000000
    21  C   -0.004799   0.005622   0.000246   0.000001   0.000000  -0.000000
    22  H    0.000023  -0.000089   0.000003   0.000000  -0.000000   0.000000
    23  H    0.000005   0.004868   0.002031   0.000003   0.000000   0.000000
    24  H   -0.000201  -0.000014   0.002004   0.000002  -0.000000   0.000000
    25  H    0.000001  -0.000005  -0.000000  -0.000000  -0.000000  -0.000000
    26  H   -0.000004   0.000001  -0.000002   0.000000   0.000000   0.000000
    27  H   -0.000078   0.000018   0.000000   0.000000   0.000000   0.000000
    28  H   -0.000059  -0.000157  -0.000000  -0.000000   0.000000  -0.000000
    29  H    0.005769  -0.000063   0.000000   0.000000  -0.000000  -0.000000
    30  H   -0.004109  -0.002502   0.000000   0.000000  -0.000000   0.000000
    31  H    0.594217  -0.034240  -0.000008   0.000000   0.000000  -0.000000
    32  H   -0.034240   0.585627  -0.000030   0.000001   0.000000   0.000000
    33  H   -0.000008  -0.000030   0.592458  -0.005002  -0.000000  -0.000000
    34  H    0.000000   0.000001  -0.005002   0.562389   0.000022  -0.000008
    35  H    0.000000   0.000000  -0.000000   0.000022   0.554357  -0.031485
    36  H   -0.000000   0.000000  -0.000000  -0.000008  -0.031485   0.549422
    37  H   -0.000000  -0.000000  -0.000000   0.000022  -0.037356  -0.031422
    38  H    0.000005   0.000000   0.000019  -0.000171  -0.000002  -0.000000
    39  H    0.003803   0.000052  -0.000173   0.000018   0.000000   0.000000
    40  H    0.003406  -0.000055  -0.000005   0.000000  -0.000000  -0.000000
    41  H   -0.000068  -0.000161  -0.000016   0.000001  -0.000000   0.000000
              37         38         39         40         41
     1  O    0.000000   0.000000  -0.000000   0.000000   0.000000
     2  C    0.000000  -0.000000  -0.000004   0.000144   0.000141
     3  C    0.000000  -0.000000  -0.000002  -0.000075  -0.001131
     4  C    0.000000   0.000001   0.000088   0.005763  -0.005856
     5  C   -0.000000  -0.000000  -0.000001   0.005104  -0.003909
     6  C    0.000000  -0.000000  -0.000132  -0.033655  -0.034024
     7  C    0.000000  -0.000000  -0.000014  -0.003590   0.005105
     8  C   -0.000000  -0.000000  -0.000116  -0.001092  -0.000137
     9  C    0.000000  -0.000000   0.000171  -0.004922   0.005766
    10  C   -0.000000  -0.000140  -0.007648  -0.033461  -0.035893
    11  C   -0.000000   0.003142  -0.047349  -0.008759  -0.001837
    12  C    0.000001   0.000445   0.005603  -0.000208   0.001272
    13  C    0.000057   0.005951   0.000690   0.000005  -0.000022
    14  C   -0.000212  -0.039400   0.003415  -0.000006  -0.000011
    15  C   -0.004880  -0.009559  -0.000175  -0.000000  -0.000000
    16  O    0.006279   0.014223  -0.000001   0.000000   0.000000
    17  O   -0.031624   0.000314   0.000000   0.000000   0.000000
    18  C    0.373817  -0.000024  -0.000000  -0.000000  -0.000000
    19  C   -0.000004   0.352237  -0.038852   0.000003  -0.000053
    20  C   -0.000000  -0.039524   0.353507   0.005026  -0.000205
    21  C   -0.000000   0.000000   0.000181   0.359454   0.360998
    22  H   -0.000000   0.000000   0.000000   0.000017  -0.000076
    23  H   -0.000000   0.000000   0.000002  -0.000168  -0.000065
    24  H    0.000000   0.000000  -0.000000  -0.000053   0.005354
    25  H    0.000000  -0.000000  -0.000000  -0.000161  -0.000032
    26  H   -0.000000   0.000000  -0.000000  -0.000049   0.004595
    27  H   -0.000000   0.000000   0.000005  -0.003816  -0.003436
    28  H    0.000000  -0.000000  -0.000000  -0.000044  -0.000160
    29  H    0.000000   0.000000   0.000043   0.004689  -0.000058
    30  H    0.000000   0.000000   0.000003  -0.000059   0.000017
    31  H   -0.000000   0.000005   0.003803   0.003406  -0.000068
    32  H   -0.000000   0.000000   0.000052  -0.000055  -0.000161
    33  H   -0.000000   0.000019  -0.000173  -0.000005  -0.000016
    34  H    0.000022  -0.000171   0.000018   0.000000   0.000001
    35  H   -0.037356  -0.000002   0.000000  -0.000000  -0.000000
    36  H   -0.031422  -0.000000   0.000000  -0.000000   0.000000
    37  H    0.553735  -0.000002   0.000000   0.000000   0.000000
    38  H   -0.000002   0.555063  -0.004685   0.000006   0.000000
    39  H    0.000000  -0.004685   0.595063   0.003943   0.000073
    40  H    0.000000   0.000006   0.003943   0.600693  -0.034171
    41  H    0.000000   0.000000   0.000073  -0.034171   0.599159
 Mulliken charges:
               1
     1  O   -0.457934
     2  C    0.454902
     3  C   -0.167634
     4  C   -0.309132
     5  C   -0.280661
     6  C   -0.096298
     7  C   -0.281833
     8  C   -0.167217
     9  C   -0.289756
    10  C   -0.003455
    11  C    0.176821
    12  C   -0.198236
    13  C   -0.168324
    14  C    0.058285
    15  C    0.589866
    16  O   -0.492183
    17  O   -0.467746
    18  C   -0.215951
    19  C   -0.161096
    20  C   -0.192759
    21  C   -0.274910
    22  H    0.144165
    23  H    0.151178
    24  H    0.143682
    25  H    0.146281
    26  H    0.139189
    27  H    0.129227
    28  H    0.146510
    29  H    0.137883
    30  H    0.145436
    31  H    0.142541
    32  H    0.152377
    33  H    0.135488
    34  H    0.155634
    35  H    0.171167
    36  H    0.163374
    37  H    0.171590
    38  H    0.162102
    39  H    0.132493
    40  H    0.136097
    41  H    0.138840
 Sum of Mulliken charges =  -0.00000
 Mulliken charges with hydrogens summed into heavy atoms:
               1
     1  O   -0.457934
     2  C    0.454902
     3  C   -0.023469
     4  C   -0.014272
     5  C    0.004809
     6  C    0.032928
     7  C    0.002559
     8  C   -0.021782
     9  C    0.005162
    10  C   -0.003455
    11  C    0.176821
    12  C   -0.062748
    13  C   -0.012691
    14  C    0.058285
    15  C    0.589866
    16  O   -0.492183
    17  O   -0.467746
    18  C    0.290179
    19  C    0.001007
    20  C   -0.060266
    21  C    0.000027
 APT charges:
               1
     1  O   -0.648293
     2  C    0.699503
     3  C   -0.035070
     4  C    0.079609
     5  C    0.111270
     6  C    0.108521
     7  C    0.115216
     8  C   -0.049043
     9  C    0.076972
    10  C    0.082443
    11  C    0.144099
    12  C   -0.142565
    13  C    0.053695
    14  C   -0.300252
    15  C    1.377509
    16  O   -0.780720
    17  O   -0.929410
    18  C    0.557023
    19  C    0.050817
    20  C   -0.139466
    21  C    0.046020
    22  H   -0.055418
    23  H   -0.029402
    24  H   -0.036318
    25  H   -0.045503
    26  H   -0.042532
    27  H   -0.082337
    28  H   -0.046658
    29  H   -0.041848
    30  H   -0.060722
    31  H   -0.029426
    32  H   -0.028425
    33  H    0.037046
    34  H    0.049776
    35  H   -0.034879
    36  H   -0.016204
    37  H   -0.034423
    38  H    0.061482
    39  H    0.026033
    40  H   -0.031154
    41  H   -0.036964
 Sum of APT charges =   0.00000
 APT charges with hydrogens summed into heavy atoms:
               1
     1  O   -0.648293
     2  C    0.699503
     3  C   -0.090489
     4  C    0.013889
     5  C    0.023235
     6  C    0.026184
     7  C    0.026710
     8  C   -0.109765
     9  C    0.019121
    10  C    0.082443
    11  C    0.144099
    12  C   -0.105520
    13  C    0.103471
    14  C   -0.300252
    15  C    1.377509
    16  O   -0.780720
    17  O   -0.929410
    18  C    0.471517
    19  C    0.112299
    20  C   -0.113433
    21  C   -0.022098
 Electronic spatial extent (au):  <R**2>=           8398.4365
 Charge=              0.0000 electrons
 Dipole moment (field-independent basis, Debye):
    X=              0.6658    Y=              0.0945    Z=              2.2725  Tot=              2.3699
 Quadrupole moment (field-independent basis, Debye-Ang):
   XX=           -130.6924   YY=           -122.3018   ZZ=           -125.1084
   XY=            -20.4781   XZ=             -7.8376   YZ=             -4.2305
 Traceless Quadrupole moment (field-independent basis, Debye-Ang):
   XX=             -4.6582   YY=              3.7325   ZZ=              0.9258
   XY=            -20.4781   XZ=             -7.8376   YZ=             -4.2305
 Octapole moment (field-independent basis, Debye-Ang**2):
  XXX=            176.6263  YYY=             -3.4992  ZZZ=             -0.4156  XYY=             10.3637
  XXY=            -26.0509  XXZ=             61.7601  XZZ=             20.1186  YZZ=              4.0206
  YYZ=              4.8017  XYZ=             22.2464
 Hexadecapole moment (field-independent basis, Debye-Ang**3):
 XXXX=          -8792.4046 YYYY=           -975.0802 ZZZZ=           -672.2950 XXXY=           -662.5845
 XXXZ=           -146.9228 YYYX=            -29.1925 YYYZ=            -12.4583 ZZZX=            -11.6049
 ZZZY=             -3.9112 XXYY=          -1812.7173 XXZZ=          -1707.2931 YYZZ=           -287.7672
 XXYZ=            -63.3855 YYXZ=            -14.0560 ZZXY=            -23.6628
 N-N= 1.657696030913D+03 E-N=-5.462317263076D+03  KE= 9.150397059907D+02
  Exact polarizability: 266.799  -0.292 170.932   0.042  -7.926 129.798
 Approx polarizability: 333.930  10.400 298.070   3.218 -17.522 203.029
 Calling FoFJK, ICntrl=    100127 FMM=F ISym2X=0 I1Cent= 0 IOpClX= 0 NMat=1 NMatS=1 NMatT=0.
 Full mass-weighted force constant matrix:
 Low frequencies ---   -7.6541   -0.0009   -0.0006   -0.0004    2.4204    4.0181
 Low frequencies ---   31.3859   45.2922   69.2144
 Diagonal vibrational polarizability:
       37.4138389      13.3666943      53.7446143
 Harmonic frequencies (cm**-1), IR intensities (KM/Mole), Raman scattering
 activities (A**4/AMU), depolarization ratios for plane and unpolarized
 incident light, reduced masses (AMU), force constants (mDyne/A),
 and normal coordinates:
                      1                      2                      3
                      A                      A                      A
 Frequencies --     31.3630                45.2861                69.2132
 Red. masses --      4.6297                 5.9630                 4.2431
 Frc consts  --      0.0027                 0.0072                 0.0120
 IR Inten    --      0.9256                 1.5172                 1.2137
  Atom  AN      X      Y      Z        X      Y      Z        X      Y      Z
     1   8    -0.10   0.10   0.02    -0.14  -0.02   0.16    -0.12   0.09   0.01
     2   6    -0.05   0.05   0.01    -0.06  -0.02   0.08    -0.04   0.03  -0.02
     3   6     0.01  -0.02  -0.03     0.01   0.02   0.07    -0.01  -0.01  -0.04
     4   6     0.00  -0.03  -0.10     0.01  -0.00  -0.01    -0.01  -0.03  -0.05
     5   6     0.06  -0.07   0.03     0.07   0.06   0.06     0.01  -0.03  -0.02
     6   6     0.06  -0.06   0.08     0.07   0.04  -0.02     0.02  -0.03   0.00
     7   6     0.01   0.01   0.12     0.01   0.00  -0.02     0.02   0.01   0.01
     8   6    -0.05   0.06   0.05    -0.05  -0.04  -0.00     0.00   0.02  -0.01
     9   6    -0.05   0.04  -0.01    -0.05  -0.06  -0.07    -0.00  -0.01  -0.02
    10   6     0.00  -0.02  -0.06     0.01  -0.02  -0.08     0.01  -0.03  -0.03
    11   6     0.00  -0.03  -0.10     0.00  -0.03  -0.13     0.01  -0.03  -0.01
    12   6     0.01  -0.01  -0.03     0.00  -0.05  -0.22     0.02   0.03   0.22
    13   6     0.01  -0.00  -0.01     0.00  -0.04  -0.19     0.02   0.04   0.25
    14   6     0.00  -0.01  -0.06     0.01  -0.01  -0.05     0.01   0.00   0.06
    15   6     0.00   0.00  -0.02     0.01   0.02   0.09     0.01   0.02   0.06
    16   8    -0.00  -0.02  -0.14     0.02   0.08   0.35    -0.01   0.05   0.16
    17   8     0.02   0.05   0.19     0.01  -0.02  -0.08     0.02  -0.00  -0.09
    18   6     0.02   0.07   0.27     0.01   0.02   0.09     0.02   0.01  -0.15
    19   6    -0.00  -0.03  -0.15     0.01   0.00   0.00    -0.01  -0.05  -0.14
    20   6    -0.00  -0.04  -0.16     0.01  -0.01  -0.05    -0.01  -0.06  -0.18
    21   6     0.06  -0.07   0.01     0.06   0.02  -0.09     0.02  -0.04  -0.01
    22   1     0.01  -0.03  -0.06     0.01   0.03   0.12    -0.02  -0.01  -0.06
    23   1    -0.02  -0.00  -0.14    -0.05  -0.03  -0.01     0.00  -0.02  -0.05
    24   1     0.03  -0.07  -0.12     0.06   0.02  -0.02    -0.02  -0.04  -0.04
    25   1     0.07  -0.06   0.08     0.07   0.07   0.11     0.01  -0.02  -0.01
    26   1     0.10  -0.12   0.00     0.12   0.10   0.05     0.02  -0.05  -0.03
    27   1     0.10  -0.09   0.12     0.11   0.08  -0.04     0.04  -0.04   0.02
    28   1     0.01   0.02   0.17     0.01   0.01   0.03     0.03   0.02   0.02
    29   1     0.01   0.02   0.15     0.01  -0.01  -0.07     0.04   0.00   0.03
    30   1    -0.09   0.11   0.08    -0.09  -0.07   0.01    -0.00   0.04   0.00
    31   1    -0.05   0.05   0.01    -0.05  -0.07  -0.12     0.01  -0.02  -0.02
    32   1    -0.09   0.07  -0.06    -0.09  -0.09  -0.06    -0.02  -0.01  -0.03
    33   1     0.01  -0.00   0.01    -0.00  -0.07  -0.30     0.03   0.06   0.36
    34   1     0.01   0.01   0.05     0.00  -0.05  -0.24     0.03   0.08   0.41
    35   1    -0.04   0.20   0.18    -0.08  -0.14   0.29     0.05  -0.11  -0.05
    36   1     0.03   0.11   0.45     0.01  -0.02  -0.11     0.03  -0.02  -0.34
    37   1     0.07  -0.08   0.24     0.12   0.26   0.20    -0.03   0.18  -0.11
    38   1    -0.01  -0.04  -0.20     0.01   0.02   0.10    -0.02  -0.07  -0.27
    39   1    -0.01  -0.05  -0.21     0.01  -0.00  -0.00    -0.02  -0.10  -0.34
    40   1     0.06  -0.06   0.03     0.06   0.01  -0.14     0.04  -0.04  -0.00
    41   1     0.10  -0.11  -0.02     0.10   0.05  -0.10     0.03  -0.06  -0.02
                      4                      5                      6
                      A                      A                      A
 Frequencies --     78.0953                95.3980               120.5715
 Red. masses --      5.3318                 5.3229                 2.0930
 Frc consts  --      0.0192                 0.0285                 0.0179
 IR Inten    --      1.5833                 1.2986                 0.8574
  Atom  AN      X      Y      Z        X      Y      Z        X      Y      Z
     1   8     0.24  -0.16  -0.08     0.26  -0.05  -0.16    -0.07   0.04   0.03
     2   6     0.06  -0.05   0.01     0.03   0.05  -0.01     0.01  -0.01  -0.01
     3   6     0.06  -0.01   0.02    -0.09   0.07   0.05     0.02  -0.02  -0.02
     4   6     0.05   0.06  -0.03    -0.08  -0.02   0.07     0.02   0.00   0.03
     5   6     0.06  -0.06   0.06    -0.06   0.10   0.03    -0.04  -0.03  -0.03
     6   6    -0.02  -0.03   0.06     0.03   0.07   0.04    -0.04  -0.02  -0.01
     7   6    -0.10  -0.04   0.10     0.06   0.09   0.04    -0.00  -0.02  -0.03
     8   6    -0.08   0.02   0.06     0.01   0.07   0.05     0.04  -0.02  -0.02
     9   6    -0.08   0.10   0.00     0.00  -0.02   0.05     0.04  -0.00   0.04
    10   6    -0.01   0.09  -0.03    -0.02  -0.05   0.05     0.01   0.01   0.05
    11   6    -0.01   0.10  -0.07    -0.03  -0.10   0.01     0.01   0.03   0.06
    12   6    -0.03   0.11   0.01    -0.02  -0.10   0.01     0.01   0.03   0.05
    13   6    -0.03   0.08   0.02    -0.02  -0.10  -0.03     0.01   0.02  -0.02
    14   6    -0.01   0.05  -0.05    -0.03  -0.10  -0.08     0.01   0.00  -0.08
    15   6    -0.00  -0.02   0.01    -0.04  -0.01  -0.04     0.01  -0.01  -0.08
    16   8     0.07  -0.04   0.11    -0.11   0.05   0.06     0.03  -0.01  -0.03
    17   8    -0.09  -0.08  -0.04     0.04   0.02  -0.10    -0.01  -0.03  -0.11
    18   6    -0.09  -0.18   0.06     0.05   0.19   0.07    -0.00  -0.00   0.14
    19   6     0.01   0.05  -0.14    -0.05  -0.11  -0.11     0.01   0.01  -0.04
    20   6     0.00   0.07  -0.15    -0.04  -0.11  -0.06     0.01   0.02   0.03
    21   6    -0.01   0.05   0.00     0.03  -0.02   0.05    -0.04   0.00   0.04
    22   1     0.11  -0.04   0.01    -0.14   0.09   0.05     0.02  -0.03  -0.03
    23   1     0.06   0.08  -0.05    -0.12  -0.05   0.09     0.06   0.01   0.04
    24   1     0.09   0.07  -0.04    -0.11  -0.01   0.08    -0.01   0.01   0.04
    25   1     0.06  -0.10   0.10    -0.06   0.17   0.00    -0.04  -0.05  -0.07
    26   1     0.11  -0.07   0.03    -0.10   0.08   0.04    -0.07  -0.03  -0.02
    27   1    -0.02  -0.06   0.09     0.07   0.09   0.04    -0.08  -0.03  -0.02
    28   1    -0.10  -0.11   0.14     0.07   0.16   0.04    -0.00  -0.04  -0.07
    29   1    -0.18  -0.01   0.10     0.12   0.07   0.03    -0.00  -0.02  -0.02
    30   1    -0.12   0.02   0.07     0.03   0.08   0.04     0.07  -0.02  -0.03
    31   1    -0.14   0.14   0.03     0.06  -0.04   0.05     0.04   0.00   0.04
    32   1    -0.07   0.15  -0.03    -0.04  -0.04   0.05     0.08   0.00   0.05
    33   1    -0.04   0.13   0.07    -0.02  -0.09   0.06     0.02   0.03   0.08
    34   1    -0.05   0.08   0.08    -0.01  -0.09  -0.01     0.01   0.02  -0.03
    35   1    -0.08  -0.30   0.17    -0.11   0.10   0.24    -0.13  -0.33   0.53
    36   1    -0.18  -0.23  -0.04     0.14   0.19  -0.07    -0.04  -0.09  -0.24
    37   1     0.00  -0.09   0.12     0.13   0.40   0.16     0.17   0.44   0.35
    38   1     0.03   0.03  -0.19    -0.05  -0.12  -0.14     0.00   0.01  -0.07
    39   1     0.02   0.07  -0.21    -0.04  -0.12  -0.08     0.01   0.03   0.05
    40   1    -0.07   0.07  -0.01     0.09  -0.04   0.06    -0.05   0.01   0.06
    41   1     0.04   0.06  -0.02     0.01  -0.05   0.05    -0.07   0.00   0.05
                      7                      8                      9
                      A                      A                      A
 Frequencies --    138.7107               160.6612               193.7574
 Red. masses --      1.5218                 3.9872                 4.4501
 Frc consts  --      0.0173                 0.0606                 0.0984
 IR Inten    --      0.1284                 1.1958                 2.2286
  Atom  AN      X      Y      Z        X      Y      Z        X      Y      Z
     1   8    -0.02   0.02   0.01    -0.03  -0.03   0.03    -0.03   0.03  -0.00
     2   6     0.01  -0.00  -0.01    -0.02  -0.02  -0.00     0.01  -0.01  -0.01
     3   6     0.00  -0.01  -0.01     0.02   0.00  -0.02    -0.02  -0.01   0.00
     4   6     0.01   0.00   0.03     0.02   0.08  -0.04    -0.01   0.02   0.11
     5   6    -0.03  -0.01  -0.02     0.01  -0.04   0.01    -0.14  -0.01  -0.04
     6   6    -0.02  -0.01  -0.00    -0.08  -0.00  -0.01    -0.10  -0.02   0.01
     7   6     0.00  -0.01  -0.01    -0.16  -0.05   0.01    -0.04  -0.01  -0.02
     8   6     0.03  -0.01  -0.01    -0.07   0.01  -0.01     0.02  -0.01   0.01
     9   6     0.02  -0.00   0.03    -0.06   0.12  -0.00     0.02   0.01   0.09
    10   6     0.00   0.00   0.04    -0.02   0.10  -0.02    -0.01   0.02   0.10
    11   6     0.00   0.01   0.03    -0.00   0.05   0.01     0.01   0.02   0.01
    12   6     0.01   0.01   0.02    -0.05   0.01   0.02     0.02   0.00  -0.08
    13   6     0.01   0.01  -0.02    -0.04  -0.08   0.03     0.02  -0.01  -0.16
    14   6     0.00  -0.00  -0.06     0.04  -0.13   0.03     0.04  -0.01  -0.13
    15   6     0.00  -0.00  -0.03     0.04  -0.11   0.00     0.06   0.02   0.07
    16   8     0.02   0.02   0.08    -0.03  -0.06   0.01     0.07   0.01   0.08
    17   8    -0.01  -0.02  -0.10     0.16  -0.05  -0.04     0.06   0.05   0.23
    18   6    -0.00  -0.01   0.05     0.16   0.17  -0.01     0.05  -0.04  -0.13
    19   6    -0.00  -0.00  -0.05     0.09  -0.09   0.03     0.03  -0.03  -0.18
    20   6     0.00   0.00  -0.01     0.08   0.00   0.02     0.02  -0.01  -0.11
    21   6    -0.02  -0.00   0.03    -0.07   0.10  -0.04    -0.08  -0.00   0.10
    22   1     0.01  -0.01  -0.02     0.08  -0.02  -0.02    -0.01  -0.02  -0.02
    23   1     0.03   0.00   0.04     0.04   0.11  -0.06     0.04  -0.00   0.15
    24   1    -0.01   0.00   0.04     0.04   0.08  -0.05    -0.07   0.06   0.14
    25   1    -0.03  -0.02  -0.05     0.01  -0.10   0.06    -0.15  -0.01  -0.17
    26   1    -0.05  -0.01  -0.01     0.07  -0.03  -0.01    -0.26  -0.01  -0.00
    27   1    -0.04  -0.01  -0.01    -0.11  -0.02  -0.00    -0.15  -0.02  -0.01
    28   1     0.00  -0.01  -0.04    -0.17  -0.18   0.03    -0.04  -0.01  -0.07
    29   1     0.01  -0.01  -0.01    -0.29  -0.00   0.01    -0.02  -0.01  -0.00
    30   1     0.04  -0.01  -0.01    -0.08  -0.01  -0.00     0.07  -0.02  -0.01
    31   1     0.03  -0.00   0.03    -0.13   0.16   0.05     0.01   0.02   0.11
    32   1     0.05  -0.00   0.04    -0.01   0.19  -0.04     0.07   0.03   0.10
    33   1     0.01   0.02   0.06    -0.09   0.04   0.02     0.03   0.01  -0.06
    34   1     0.01   0.01  -0.03    -0.10  -0.13   0.04     0.01  -0.02  -0.17
    35   1    -0.11   0.40  -0.27     0.04   0.26  -0.04     0.30  -0.14  -0.16
    36   1     0.00   0.11   0.61     0.32   0.23   0.03     0.04  -0.09  -0.31
    37   1     0.10  -0.52  -0.08     0.13   0.18  -0.02    -0.19   0.03  -0.19
    38   1    -0.01  -0.00  -0.07     0.14  -0.12   0.03     0.02  -0.03  -0.22
    39   1    -0.00   0.00  -0.00     0.14   0.04   0.01     0.03  -0.01  -0.11
    40   1    -0.02   0.00   0.04    -0.14   0.12  -0.08    -0.08   0.01   0.15
    41   1    -0.04  -0.00   0.04    -0.05   0.16  -0.03    -0.15  -0.02   0.12
                     10                     11                     12
                      A                      A                      A
 Frequencies --    213.7728               269.5240               282.8220
 Red. masses --      5.8729                 2.7385                 2.4009
 Frc consts  --      0.1581                 0.1172                 0.1131
 IR Inten    --      1.1334                 2.1492                 0.5306
  Atom  AN      X      Y      Z        X      Y      Z        X      Y      Z
     1   8    -0.00  -0.07  -0.08    -0.00  -0.08   0.07    -0.00  -0.08   0.08
     2   6    -0.15   0.00   0.01    -0.00  -0.04   0.03     0.00  -0.03   0.02
     3   6    -0.17   0.03   0.03     0.03  -0.01   0.00    -0.02   0.04   0.03
     4   6    -0.14  -0.05  -0.00     0.03   0.01  -0.02    -0.03  -0.02  -0.14
     5   6    -0.15   0.06   0.01    -0.10   0.01  -0.08    -0.01   0.07   0.01
     6   6    -0.05   0.02   0.02     0.02  -0.02   0.01    -0.00   0.05  -0.04
     7   6    -0.07   0.05   0.04     0.14   0.08  -0.01    -0.02  -0.01  -0.07
     8   6    -0.16   0.02   0.04    -0.03  -0.02   0.00     0.01  -0.02  -0.04
     9   6    -0.14  -0.07  -0.02    -0.03  -0.00  -0.02     0.03   0.18   0.05
    10   6    -0.06  -0.07  -0.04    -0.00   0.02  -0.03     0.00  -0.00   0.00
    11   6     0.00  -0.03  -0.03    -0.01   0.09  -0.06     0.01  -0.05   0.02
    12   6     0.09   0.02  -0.00    -0.05   0.08  -0.04     0.02  -0.04   0.02
    13   6     0.11   0.09   0.05    -0.06   0.03   0.02     0.03  -0.02   0.01
    14   6     0.13   0.09   0.05    -0.01   0.00   0.04     0.01  -0.01  -0.01
    15   6     0.17   0.05  -0.03    -0.02  -0.07   0.02     0.01   0.04  -0.01
    16   8     0.23   0.01  -0.05    -0.00  -0.08   0.00    -0.01   0.05  -0.01
    17   8     0.13   0.01  -0.09     0.01  -0.06  -0.01    -0.00   0.04  -0.00
    18   6     0.14  -0.09   0.06     0.01   0.09  -0.01    -0.00  -0.05   0.01
    19   6     0.05   0.05   0.07     0.03   0.03   0.02    -0.01  -0.02  -0.01
    20   6     0.03  -0.02   0.02     0.02   0.09  -0.04    -0.01  -0.05   0.01
    21   6    -0.04  -0.07  -0.02     0.01  -0.11   0.10     0.00  -0.07   0.07
    22   1    -0.19   0.04   0.05     0.06  -0.02   0.01    -0.03   0.05   0.07
    23   1    -0.20  -0.09   0.01     0.00   0.01  -0.03    -0.15   0.08  -0.30
    24   1    -0.15  -0.05   0.00     0.06   0.01  -0.04     0.08  -0.19  -0.25
    25   1    -0.15   0.13  -0.02    -0.11   0.05  -0.29    -0.01   0.05  -0.00
    26   1    -0.20   0.04   0.03    -0.31   0.00  -0.00    -0.00   0.11   0.02
    27   1     0.03   0.03   0.04     0.01  -0.02   0.02    -0.00   0.09  -0.08
    28   1    -0.07   0.12   0.08     0.16   0.33  -0.03    -0.02  -0.04  -0.04
    29   1    -0.02   0.03   0.02     0.38  -0.01  -0.01    -0.06  -0.01  -0.11
    30   1    -0.15   0.04   0.05    -0.06  -0.02   0.02     0.03  -0.06  -0.05
    31   1    -0.10  -0.10  -0.07    -0.05  -0.00  -0.05    -0.12   0.31   0.29
    32   1    -0.23  -0.11  -0.02    -0.01  -0.02  -0.00     0.19   0.41  -0.08
    33   1     0.14  -0.01  -0.02    -0.09   0.10  -0.06     0.04  -0.05   0.01
[...]
 1063,-0.01339970,0.05027668,0.25179206,0.00004064,0.00000098,0.0000035
 2,-0.00004686,-0.00000159,-0.00000818,0.00000227,0.00000375,0.00000530
 ,0.00000024,0.00001551,-0.00001485,0.00000379,0.00000770,-0.00000156,-
 0.00001960,-0.00000179,0.00000118,0.00000244,-0.00000781,0.00000081,0.
 00000799,0.00000515,0.00000621,-0.00000263,-0.00002853,-0.00002563,-0.
 00004222,0.00002178,0.00000431,-0.00003694,0.00008930,-0.00001289,-0.0
 0003515,0.00011919,0.00004933,-0.00003508,-0.00003227,-0.00003559,0.00
 057566,0.00071213,-0.00018683,0.00270848,-0.00922689,0.00340106,-0.002
 44949,0.00296834,0.00121665,0.00467722,-0.01847870,-0.02980976,-0.0302
 6280,-0.10960095,-0.11867898,0.00008757,-0.00015400,0.00020248,0.00009
 014,-0.00006578,-0.00016001,0.00004615,0.00000011,-0.00001071,0.000006
 87,-0.00000269,-0.00000609,-0.00000587,-0.00000075,0.00000043,0.000000
 91,0.00000500,0.00000462,0.00000447,-0.00000166,-0.00000638,-0.0000020
 5,0.00000018,0.00000265,0.00000415,0.,-0.00001311,0.00000455,0.0000013
 1,-0.00000614,-0.00000246,0.00000009,0.00000257,0.00000900,0.00000255,
 -0.00000903,-0.00000312,-0.00000526,0.00000173,-0.00000122,-0.00000300
 ,0.00000287,0.00001108,-0.00001290,-0.00000129,-0.00020062,0.00010146,
 -0.00000598,-0.00379921,-0.00885130,-0.00337625,0.00403392,0.01423583,
 0.01246711,0.02461859,0.12814590,0.13503742,-0.00003549,-0.00002231,-0
 .00000915,0.00004599,0.00004896,0.00000703,-0.00007341,0.00005508,-0.0
 0003861,-0.00014494,-0.00018273,0.00019346,0.00000148,-0.00000272,-0.0
 0002874,0.00001940,-0.00002284,0.00002026,-0.00000606,0.00001612,-0.00
 000911,-0.00001862,-0.00003013,-0.00002595,-0.00004406,0.00001788,0.00
 009877,-0.00021782,0.00073383,-0.00031015,0.00284320,0.00165260,0.0053
 9299,-0.00001511,-0.00061330,0.00023473,0.00325860,0.00120066,0.001844
 30,0.00356174,0.00092792,-0.00037824,-0.00221050,-0.00152752,-0.000657
 62,-0.00061944,-0.00071032,0.00101774,0.00007999,0.00051000,-0.0004370
 3,-0.00001067,0.00007417,0.00015262,-0.16140471,0.14571908,0.02626967,
 -0.00714262,0.01410829,0.00075098,-0.00005736,0.00005030,-0.00018602,-
 0.00002387,-0.00000272,0.00003495,-0.00001834,0.00002310,-0.00001342,0
 .00002104,-0.00001154,-0.00000046,0.00000212,-0.00000246,0.00000588,0.
 00000221,-0.00000213,-0.00000035,-0.00000328,-0.00000195,0.00001296,-0
 .00000133,-0.00000339,0.00000205,0.00000746,-0.00000753,0.00000332,-0.
 00001781,-0.00000441,0.00001811,-0.00002267,-0.00000684,0.00002525,-0.
 00002409,0.00000085,-0.00000735,-0.00057919,-0.00034214,-0.00039370,0.
 00047964,0.00008597,0.00027558,0.00001820,-0.00001753,-0.00001948,0.00
 001248,0.00001076,-0.00001517,0.00001564,-0.00001440,0.00000452,0.1638
 7387,0.00001155,0.00000024,-0.00000148,-0.00001818,-0.00000171,-0.0000
 0029,-0.00002129,-0.00001569,0.00000955,-0.00005204,-0.00000804,-0.000
 04870,0.00000699,0.00000748,-0.00001044,-0.00002396,-0.00001768,0.0000
 0256,-0.00000060,-0.00000131,0.00000295,-0.00000006,0.00001213,-0.0000
 0283,-0.00004208,-0.00005805,0.00002534,-0.00009715,0.00006278,0.00015
 925,0.00195299,0.00303441,0.00208294,-0.00053347,0.00021278,0.00025233
 ,0.00066592,-0.00055754,0.00502063,0.01501868,-0.01415520,-0.00298554,
 0.00133937,-0.00344000,-0.00219878,-0.00087562,0.00215541,-0.00130745,
 -0.00030241,0.00071392,-0.00015763,0.00000119,0.00001923,0.00012950,0.
 14472657,-0.22419422,-0.01795530,-0.00104927,0.00384487,0.00105129,0.0
 0004282,0.00003155,-0.00011763,0.00000070,0.00000098,-0.00000402,-0.00
 001550,0.00000974,-0.00000211,0.00001536,-0.00001448,0.00000669,0.0000
 0138,-0.00000135,-0.00000450,-0.00000112,-0.00000190,0.00000162,0.0000
 0426,0.00000004,-0.00001348,0.00000137,-0.00000102,-0.00000323,0.00000
 063,0.00000048,0.00000192,0.00000156,0.00000113,-0.00000380,-0.0000227
 1,0.00000896,0.00001145,-0.00000657,-0.00000293,-0.00000043,-0.0003403
 7,-0.00028087,-0.00034406,0.00101198,-0.00056874,-0.00011507,-0.000011
 43,-0.00002466,0.00000786,-0.00001107,0.00003092,-0.00000594,0.0000040
 5,-0.00001018,0.00003736,-0.15972119,0.23364707,0.00000784,0.00002490,
 0.00000028,-0.00002918,-0.00006380,0.00000986,0.00005181,-0.00012532,0
 .00004204,0.00009688,0.00011138,-0.00037395,0.00000736,0.00000685,0.00
 001371,-0.00004141,-0.00000330,-0.00000787,0.00001329,-0.00002228,0.00
 001017,-0.00000829,0.00004961,-0.00000288,-0.00009367,-0.00016179,0.00
 007865,0.00050332,-0.00099685,0.00039057,0.00510091,0.00250011,-0.0017
 2755,0.00015401,0.00037150,-0.00086420,0.00237751,0.00428041,-0.002140
 82,-0.01439558,0.01668779,0.00746329,-0.00350247,0.00181051,-0.0006675
 9,0.00118492,-0.00153641,-0.00052720,0.00036935,-0.00129720,0.00089894
 ,0.00022582,0.00002738,-0.00019116,0.02729332,-0.01936655,-0.05774720,
 0.01576731,-0.02007929,0.00136614,0.00007460,-0.00001140,-0.00000585,0
 .00002970,0.00000382,-0.00004876,-0.00000056,0.00001991,0.00001404,-0.
 00000237,-0.00002941,-0.00000240,-0.00000422,0.00000167,-0.00000771,-0
 .00000312,0.00000018,-0.00000061,0.00000599,0.00000012,-0.00002415,-0.
 00000214,0.00000341,-0.00000271,-0.00000581,0.00001315,-0.00000291,0.0
 0000906,0.00000392,-0.00001054,-0.00001335,0.00007011,0.00000170,-0.00
 000698,0.00001666,-0.00000302,-0.00039177,-0.00034414,-0.00021793,-0.0
 0064617,0.00118069,0.00046862,0.00000145,0.00005333,-0.00000589,0.0000
 0639,-0.00003657,0.00003646,-0.00004101,0.00002666,-0.00001827,-0.0319
 9513,0.01799264,0.05408570,0.00015727,-0.00014020,0.00003894,-0.000096
 68,0.00034907,-0.00014760,0.00002853,-0.00005784,0.00004359,-0.0001343
 2,-0.00012431,-0.00012726,-0.00001263,0.00000787,0.00003894,-0.0000877
 6,0.00009699,-0.00000834,-0.00000594,0.00005963,0.00004184,0.00016987,
 -0.00056589,0.00005811,-0.00081824,0.00072417,0.00031353,-0.00102182,-
 0.00136712,-0.00166437,0.00345553,0.01391325,-0.01476293,0.00034628,0.
 00491933,0.00307097,-0.00078632,0.00032367,0.00032551,0.00156310,0.003
 27131,0.00530664,0.00078831,-0.00071426,0.00039222,-0.00009439,0.00016
 139,0.00000085,-0.00037274,-0.00009356,0.00035224,0.00001549,-0.000099
 42,-0.00002831,0.00373297,-0.01570495,0.01410073,-0.04834558,0.0165366
 1,0.00109690,0.00002932,0.00008917,0.00027443,0.00000610,-0.00001905,-
 0.00001156,0.00005175,0.00001395,0.00001879,0.00003673,-0.00013513,-0.
 00003791,0.00000596,0.00000607,-0.00000131,-0.00000815,-0.00001980,-0.
 00000235,0.00000802,-0.00001291,-0.00005417,0.00000320,-0.00002484,-0.
 00003595,0.00000184,-0.00002980,0.00003290,-0.00002130,0.00000946,0.00
 002250,-0.00155443,-0.00057742,0.00070883,0.00010176,-0.00002946,0.000
 01545,0.00030742,0.00095298,-0.00069009,-0.00053301,-0.00048179,-0.000
 45245,-0.00001657,-0.00000119,0.00001838,-0.00002233,-0.00000103,0.000
 03265,0.00000089,0.00000537,0.00000175,-0.00160688,-0.00169172,-0.0020
 7738,0.04437033,-0.00012004,0.00007828,-0.00001091,0.00010604,-0.00021
 119,0.00006276,0.00005565,0.00001715,0.00001210,0.00000853,0.00000293,
 -0.00026663,-0.00008897,-0.00010136,0.00020851,-0.00026981,0.00045574,
 -0.00038882,0.00002203,0.00001793,0.00003389,0.00001699,0.00024776,-0.
 00002651,-0.00004578,-0.00031710,0.00008335,-0.00202861,-0.00071819,0.
 00041941,-0.00047809,-0.01429759,0.01762657,0.00551218,-0.00117921,-0.
 00049023,0.00031571,-0.00003091,-0.00073088,0.00252251,0.00310690,0.00
 104602,0.00048622,0.00024192,-0.00036205,-0.00015211,0.00006401,0.0001
 6998,-0.00013219,-0.00012483,0.00012250,0.00004608,-0.00000559,-0.0001
 3356,0.00048308,0.00440314,-0.00240653,0.01626458,-0.20344399,0.144056
 38,0.00072489,-0.00073109,0.00024883,0.00000073,0.00001108,-0.00004013
 ,-0.00016281,0.00006065,-0.00002632,0.00002723,0.00008517,0.00006066,-
 0.00008901,0.00007048,-0.00001011,0.00001120,-0.00000223,-0.00000735,0
 .00004707,-0.00000185,-0.00004270,-0.00004146,-0.00001267,0.00002249,0
 .00000488,0.00003544,-0.00002570,-0.00001348,-0.00001201,-0.00001102,-
 0.00044021,0.00066319,0.00015435,-0.00019670,0.00010139,-0.00000134,0.
 00002892,-0.00070041,0.00113312,-0.00047281,-0.00029717,-0.00023955,-0
 .00001708,0.00000431,0.00001900,-0.00000137,-0.00000773,0.00000991,-0.
 00000726,0.00000711,0.00000527,-0.00192928,-0.00040149,-0.00118663,-0.
 01962534,0.21230438,0.00001314,-0.00007986,0.00001849,0.00004041,0.000
 19740,-0.00010969,-0.00005143,0.00006173,-0.00000906,-0.00024741,-0.00
 013952,0.00014960,0.00001884,-0.00002807,0.00004814,0.00001223,0.00013
 211,-0.00002871,0.00005363,-0.00001330,0.00001851,0.00005923,-0.000408
 93,-0.00001989,0.00038382,0.00050415,-0.00015543,-0.00092143,-0.000572
 71,-0.00130141,-0.00053889,-0.00241606,0.00591254,0.00248685,0.0003508
 6,0.00223019,0.00031875,-0.00073097,-0.00003778,0.00604501,-0.00002107
 ,-0.00074008,-0.00079818,0.00130972,0.00037731,0.00031325,-0.00026817,
 -0.00015074,0.00038954,0.00006888,-0.00079946,-0.00017259,0.00006919,0
 .00009707,-0.00197629,0.02016350,-0.01462862,0.00141020,0.14364104,-0.
 18053770,0.00031068,-0.00044096,-0.00061167,-0.00003193,-0.00000796,0.
 00003674,-0.00001392,0.00004610,0.00000018,0.00001142,-0.00003437,-0.0
 0001815,-0.00001067,0.00001491,0.00001242,-0.00000264,-0.00000151,-0.0
 0000561,-0.00000378,-0.00001069,0.00001121,-0.00002802,0.00000711,-0.0
 0001038,0.00000191,0.00001740,-0.00001222,-0.00004729,0.00000026,0.000
 04793,0.00074763,-0.00051732,0.00022138,-0.00003753,0.00001361,0.00005
 222,0.00023112,-0.00015087,0.00031860,-0.00046106,-0.00022472,-0.00033
 070,0.00002386,-0.00000594,-0.00001518,0.00003292,0.00000950,-0.000055
 01,0.00002466,-0.00000950,-0.00003530,-0.00184240,-0.00150760,-0.00022
 069,-0.00624167,-0.15797706,0.19164775,-0.00002687,-0.00036427,-0.0000
 0637,0.00022008,0.00094020,0.00001798,0.00044295,-0.00039164,-0.000042
 08,-0.00109691,-0.00157633,-0.00357911,-0.00113429,-0.00163313,0.00382
 077,-0.01239833,0.01541031,0.00007452,0.00029656,0.00142045,-0.0007979
 6,-0.00010795,-0.00046919,-0.00000572,0.00045504,0.00135406,0.00068026
 ,-0.01192078,0.01482255,-0.00111608,-0.00022583,-0.00064293,0.00103282
 ,0.00021220,0.00026819,-0.00026845,-0.00015684,0.00005469,0.00020409,-
 0.00000078,-0.00019977,0.00008089,0.00001581,-0.00002728,-0.00005284,-
 0.00000576,-0.00001099,0.00001585,-0.00001838,-0.00002549,0.00006030,0
 .00001472,0.00000333,-0.00001549,0.00028436,-0.00020758,-0.00000828,0.
 00000795,0.00082615,0.00057339,-0.14124575,0.12160562,-0.00324882,-0.0
 0000245,-0.00002196,0.00002058,-0.00057439,0.00109000,0.00000927,0.000
 10496,0.00027622,0.00003224,-0.00058273,0.00106516,-0.00005925,0.00011
 863,0.00023353,-0.00002747,0.00088885,-0.00034329,-0.00003451,0.000429
 41,-0.00020200,0.00001924,-0.00008940,-0.00097641,0.00019934,-0.000054
 92,-0.00003761,0.00000324,-0.00009101,-0.00082929,-0.00019580,0.000327
 58,-0.00018684,0.00000281,-0.00003443,-0.00007863,0.00005983,-0.000009
 05,-0.00001024,-0.00001682,-0.00000250,0.00000106,0.00000178,-0.000001
 42,-0.00000214,0.00000391,-0.00000290,0.00000099,0.00000281,0.00004932
 ,0.00002830,-0.00001015,0.00027622,-0.00035479,0.00049108,0.15317342,0
 .00018582,0.00015736,-0.00000006,-0.00025506,-0.00039821,0.00000542,-0
 .00011590,0.00008172,0.00003379,-0.00021001,0.00103958,0.00052759,-0.0
 0040458,0.00102362,-0.00067257,-0.00092442,-0.00047766,-0.00028387,-0.
 00064190,0.00062374,0.00030342,0.00007911,0.00000503,-0.00001726,-0.00
 053165,0.00060644,-0.00000243,-0.00092563,-0.00063612,0.00046456,0.000
 86734,-0.00002099,-0.00050205,-0.00010350,-0.00009991,0.00035285,0.000
 14348,-0.00002909,-0.00021364,-0.00001235,0.00021247,0.00002316,0.0000
 1290,-0.00000914,0.00007498,-0.00001703,0.00002933,-0.00003648,0.00001
 812,0.00004506,-0.00008561,-0.00001611,-0.00000386,0.00002999,-0.00036
 621,0.00007388,0.00004684,-0.00026881,-0.00064189,-0.00082755,0.121915
 63,-0.21557649,0.00391696,0.00004442,-0.00003290,-0.00001269,0.0003628
 9,0.00015520,-0.00006659,-0.00013964,0.00041735,-0.00014248,0.00036561
 ,0.00011795,0.00010118,-0.00012650,0.00043939,0.00012827,0.00001322,0.
 00012184,-0.00053421,-0.00002618,0.00020633,-0.00010167,0.00017873,0.0
 0054000,0.00005400,-0.00000241,0.00001932,0.00001277,0.00013481,0.0004
 3282,-0.00005876,0.00003880,0.00014779,0.00007496,-0.00001733,0.000074
 96,-0.00007937,-0.00001805,0.00000016,0.00000344,0.00000229,-0.0000023
 7,-0.00000212,0.00000111,0.00000401,-0.00000599,0.00000392,-0.00000276
 ,-0.00000406,-0.00004372,-0.00001586,0.00001431,0.00022246,0.00045521,
 -0.00101618,-0.13544503,0.23237992,-0.00004241,0.00002764,-0.00002138,
 0.00005408,-0.00008705,-0.00005429,0.00007523,-0.00004361,-0.00046174,
 -0.00297495,-0.00110418,-0.00538880,0.00327258,0.00137845,-0.00492723,
 0.01744821,-0.02305498,0.00004609,-0.00062581,-0.00100246,0.00097409,-
 0.00007941,0.00000328,-0.00027240,0.00097104,0.00088234,0.00122391,-0.
 01639757,0.02270776,-0.00151541,-0.00069638,0.00057936,0.00159406,0.00
 025032,0.00025157,-0.00028861,-0.00028124,0.00004952,0.00023935,0.0000
 5107,-0.00027846,0.00022340,0.00010190,-0.00003595,-0.00018435,-0.0000
 4536,0.00001453,0.00006337,-0.00004689,-0.00006339,0.00013909,0.000036
 07,0.00000519,-0.00004856,0.00044099,-0.00011110,-0.00023413,-0.000053
 09,0.00048856,-0.00091094,-0.00237327,0.00260952,-0.04700285,0.0000162
 4,0.00000481,0.00028555,-0.00147815,0.00147880,0.00009291,0.00021658,-
 0.00021678,0.00001964,0.00140029,-0.00140672,0.00009344,-0.00024533,0.
 00030574,-0.00001854,-0.00076933,-0.00022121,0.00093978,-0.00041244,-0
 .00003138,-0.00006764,-0.00007496,0.00067505,0.00010504,-0.00001703,0.
 00000246,0.00009980,0.00000851,-0.00062038,0.00013726,0.00033550,-0.00
 001732,-0.00007431,-0.00002056,-0.00011756,0.00011291,-0.00000752,-0.0
 0001315,-0.00000597,-0.00000676,0.00000226,0.00000542,-0.00000269,-0.0
 0000495,0.00000844,-0.00000654,0.00000295,0.00000773,0.00000373,-0.000
 00159,-0.00004373,0.00013053,-0.00117212,-0.00138383,0.00162404,-0.001
 88739,0.05667450,-0.00000616,0.00037249,-0.00000262,0.00020331,-0.0009
 5590,0.00000349,-0.00011354,0.00050050,-0.00000828,0.00026807,-0.00148
 895,0.00068345,0.00031712,-0.00142754,-0.00075301,-0.01186714,-0.01552
 085,0.00006408,-0.00115561,0.00157827,0.00386028,0.00048169,0.00045109
 ,-0.00000365,-0.00116052,0.00129377,-0.00357298,-0.01132951,-0.0146565
 2,-0.00132737,-0.00001527,0.00042141,0.00100876,0.00023359,0.00005217,
 -0.00008366,0.00000905,-0.00000909,-0.00012500,-0.00002171,0.00011697,
 -0.00007511,0.00000303,0.00000929,0.00003645,-0.00000043,-0.00000149,0
 .00000212,-0.00000182,0.00001397,-0.00000716,-0.00000169,-0.00000471,-
 0.00000033,-0.00017173,-0.00021285,0.00015694,0.00031937,0.00015967,-0
 .00026414,-0.13513464,-0.11858775,0.00012381,-0.00005722,0.00003795,-0
 .00000181,0.00038755,0.00023200,0.00002362,-0.00010917,0.00092720,-0.0
 0025810,0.00041526,0.00020243,0.00001139,-0.00010117,0.00095598,0.0002
 0746,0.00081919,0.00033501,-0.00001526,-0.00057963,-0.00108441,-0.0000
 6645,0.00012196,-0.00023800,-0.00003066,0.00001103,0.00001488,-0.00000
 334,0.00005626,-0.00020641,0.00003474,-0.00055402,-0.00101533,0.000008
 78,-0.00001984,0.00003220,-0.00004628,0.00001084,-0.00000344,-0.000018
 58,0.00000094,-0.00000048,-0.00000019,-0.00000062,0.00000002,-0.000001
 19,0.00000031,0.00000132,0.00000011,0.00000590,0.00000211,-0.00001009,
 0.00008219,-0.00001730,0.00000694,0.01246559,0.01602133,0.00022076,0.1
 4618920,-0.00018011,0.00015485,0.00000289,0.00026722,-0.00038808,-0.00
 000646,-0.00013713,0.00004144,0.00001470,0.00072016,0.00055596,0.00028
 745,0.00065452,0.00060745,-0.00033221,0.00101213,-0.00033187,0.0003056
 3,0.00042489,0.00103853,0.00062842,0.00012153,0.00010635,-0.00001453,0
 .00025374,0.00103910,-0.00054719,0.00034014,-0.00096118,-0.00040546,-0
 .00026861,0.00050185,0.00039466,0.00020688,0.00012799,-0.00030087,-0.0
 0003850,0.00006700,-0.00002290,0.00007608,-0.00002930,-0.00007704,-0.0
 0003246,0.00000529,0.00001421,0.00002707,0.00000373,0.00000048,0.00001
 581,0.00001711,-0.00001367,-0.00001034,-0.00000316,-0.00000593,-0.0000
 0243,0.00012777,-0.00009311,0.00040706,-0.00049204,0.00009008,-0.11928
 687,-0.22006314,-0.00023853,-0.00000419,0.00001905,-0.00000155,0.00002
 936,0.00018742,-0.00010269,-0.00013527,0.00052490,0.00008689,0.0000372
 8,0.00020659,0.00010277,-0.00018764,0.00055279,-0.00005131,-0.00003920
 ,0.00009877,0.00054735,-0.00033828,0.00012739,-0.00010485,0.00012348,0
 .00042721,-0.00012512,-0.00003970,-0.00003820,0.00000466,0.00013864,0.
 00034298,0.00013755,-0.00031038,0.00011984,0.00004179,-0.00003270,0.00
 000531,0.00000194,0.00000561,0.00000059,-0.00001965,0.00000396,-0.0000
 0165,-0.00000143,-0.00000003,-0.00000067,-0.00000207,0.00000147,0.0000
 0268,0.00000104,-0.00001250,-0.00002118,-0.00001006,-0.00014571,0.0001
 6245,-0.00002414,-0.01536399,-0.02146321,0.00002191,0.13169899,0.23662
 130,-0.00001544,-0.00002042,-0.00002419,0.00001811,0.00005755,-0.00005
 024,-0.00002483,-0.00000449,-0.00026720,0.00073397,-0.00112002,0.00100
 857,-0.00064347,0.00103693,0.00102430,0.01659933,0.02338194,0.00021610
 ,0.00323902,-0.00136896,-0.00501535,0.00008216,0.00005214,-0.00043114,
 -0.00312973,0.00107121,-0.00535379,-0.01625052,-0.02312076,-0.00180289
 ,-0.00104986,-0.00084768,0.00163237,0.00011277,0.00029493,0.00008050,0
 .00006786,0.00001603,-0.00013329,-0.00008248,0.00004673,0.00004654,0.0
 0009107,0.00001123,-0.00014440,-0.00004897,0.00003159,0.00004636,-0.00
 002013,-0.00002892,0.00006715,0.00001714,0.00000228,-0.00003281,0.0000
 3832,-0.00004079,0.00001810,0.00031211,-0.00007827,0.00003891,0.000340
 45,0.00036661,-0.04783281,-0.00000613,-0.00000298,0.00010161,0.0003616
 6,0.00000614,-0.00003329,0.00005752,0.00067000,0.00010648,-0.00040720,
 0.00001822,-0.00007320,-0.00007052,-0.00070505,0.00008145,-0.00081809,
 0.00018517,0.00090322,0.00140415,0.00144146,0.00010702,-0.00024887,-0.
 00031016,-0.00001358,0.00002098,-0.00000091,0.00029487,0.00022581,0.00
 020489,0.00000862,-0.00144335,-0.00150017,0.00022016,-0.00003599,0.000
 00349,-0.00003654,-0.00000112,-0.00000716,-0.00000819,-0.00000299,0.00
 000070,0.00000357,-0.00000106,-0.00000302,0.00000347,-0.00000354,0.000
 00246,0.00000484,-0.00000082,-0.00000395,-0.00001456,-0.00009356,0.000
 06108,0.00001700,0.00045416,0.00038456,-0.00018104,0.00022206,-0.00018
 363,0.05541727\\-0.00020278,-0.00003128,0.00005836,0.00009465,0.000094
 04,-0.00000659,0.00004603,-0.00001941,-0.00003002,0.00000407,0.0000645
 1,0.00003126,0.00004722,0.00000921,-0.00001969,0.00005345,-0.00006434,
 -0.00003511,-0.00000945,0.00001849,-0.00000687,-0.00000209,-0.00006355
 ,-0.00002411,-0.00002502,0.00004614,0.00003103,0.00001455,-0.00005329,
 -0.00000387,0.00003061,0.00004404,0.00003136,-0.00000928,-0.00002915,-
 0.00001105,0.00001196,-0.00001030,-0.00000338,-0.00002226,-0.00000793,
 0.00001768,-0.00002177,0.00000909,-0.00000867,0.00003341,0.00000138,0.
 00001022,0.00004709,-0.00006356,0.00002845,-0.00002730,0.00005377,-0.0
 0001074,0.00000007,0.00002004,-0.00001069,-0.00000769,-0.00001449,-0.0
 0001614,-0.00001224,-0.00000925,0.00001859,-0.00001174,0.00000616,0.00
 000222,-0.00000683,0.00000340,0.00000676,-0.00000815,0.00001379,-0.000
 00849,-0.00000078,-0.00000060,0.00000367,-0.00000550,0.00000670,-0.000
 00135,0.00000205,-0.00000581,0.00000069,-0.00000024,0.00000074,0.00000
 398,-0.00000011,0.00000060,0.00000341,-0.00001580,-0.00001146,0.000002
 42,0.00001967,0.00000787,-0.00001095,-0.00000874,0.00000655,-0.0000134
 3,-0.00001909,0.00001384,-0.00000028,0.00000023,0.00001078,-0.00000847
 ,0.00001143,-0.00000226,0.00000587,0.00001641,0.00000230,-0.00002959,-
 0.00001145,-0.00001684,-0.00000652,0.00000471,-0.00000768,-0.00000378,
 -0.00000673,-0.00000800,-0.00000555,-0.00001771,-0.00000758,0.00001573
 ,0.00001514,-0.00000669,0.00000362\\\@


 KNOWING HOW CONTENTED, FREE, AND JOYFUL IS LIFE IN
 THE REALMS OF SCIENCE, ONE FERVENTLY WISHES THAT
 MANY WOULD ENTER HER PORTALS.
   --  DMITRI IVANOVICH MENDELEEV
 "FIRST PRINCIPLES OF CHEMISTRY", LONGMANS, GREEN,
 AND CO.  LONDON, 1891
 Job cpu time:       0 days  0 hours  8 minutes 30.1 seconds.
 Elapsed time:       0 days  0 hours  9 minutes 34.3 seconds.
 File lengths (MBytes):  RWF=    597 Int=      0 D2E=      0 Chk=     16 Scr=      1
 Normal termination of Gaussian 16 at Fri Feb 23 20:24:54 2024.
