 Entering Gaussian System, Link 0=g16
 Input=/Volumes/SSD-PMU3/b3lyp_6-31gd_freq/XZESRFFZOCOPEM-HEXZWALJSA-N_calculating/gaussianinput0.gjf
 Output=/Volumes/SSD-PMU3/b3lyp_6-31gd_freq/XZESRFFZOCOPEM-HEXZWALJSA-N_calculating/gaussianinput0.log
 Initial command:
 /Applications/g16/l1.exe "/Users/macmini_m1_2022/PycharmProjects/sphere_model/sphere_model_lib/Gau-73322.inp" -scrdir="/Users/macmini_m1_2022/PycharmProjects/sphere_model/sphere_model_lib/"
 Entering Link 1 = /Applications/g16/l1.exe PID=     73323.
  
 Copyright (c) 1988,1990,1992,1993,1995,1998,2003,2009,2016,
            Gaussian, Inc.  All Rights Reserved.
  
 This is part of the Gaussian(R) 16 program.  It is based on
 the Gaussian(R) 09 system (copyright 2009, Gaussian, Inc.),
 the Gaussian(R) 03 system (copyright 2003, Gaussian, Inc.),
 the Gaussian(R) 98 system (copyright 1998, Gaussian, Inc.),
 the Gaussian(R) 94 system (copyright 1995, Gaussian, Inc.),
 the Gaussian 92(TM) system (copyright 1992, Gaussian, Inc.),
 the Gaussian 90(TM) system (copyright 1990, Gaussian, Inc.),
 the Gaussian 88(TM) system (copyright 1988, Gaussian, Inc.),
 the Gaussian 86(TM) system (copyright 1986, Carnegie Mellon
 University), and the Gaussian 82(TM) system (copyright 1983,
 Carnegie Mellon University). Gaussian is a federally registered
 trademark of Gaussian, Inc.
  
 This software contains proprietary and confidential information,
 including trade secrets, belonging to Gaussian, Inc.
  
 This software is provided under written license and may be
 used, copied, transmitted, or stored only in accord with that
 written license.
  
 The following legend is applicable only to US Government
 contracts under FAR:
  
                    RESTRICTED RIGHTS LEGEND
  
 Use, reproduction and disclosure by the US Government is
 subject to restrictions as set forth in subparagraphs (a)
 and (c) of the Commercial Computer Software - Restricted
 Rights clause in FAR 52.227-19.
  
 Gaussian, Inc.
 340 Quinnipiac St., Bldg. 40, Wallingford CT 06492
  
  
 ---------------------------------------------------------------
 Warning -- This program may not be used in any manner that
 competes with the business of Gaussian, Inc. or will provide
 assistance to any competitor of Gaussian, Inc.  The licensee
 of this program is prohibited from giving any competitor of
 Gaussian, Inc. access to this program.  By using this program,
 the user acknowledges that Gaussian, Inc. is engaged in the
 business of creating and licensing software in the field of
 computational chemistry and represents and warrants to the
 licensee that it is not a competitor of Gaussian, Inc. and that
 it will not use this program in any manner prohibited above.
 ---------------------------------------------------------------
  

 Cite this work as:
 Gaussian 16, Revision A.03,
 M. J. Frisch, G. W. Trucks, H. B. Schlegel, G. E. Scuseria, 
 M. A. Robb, J. R. Cheeseman, G. Scalmani, V. Barone, 
 G. A. Petersson, H. Nakatsuji, X. Li, M. Caricato, A. V. Marenich, 
 J. Bloino, B. G. Janesko, R. Gomperts, B. Mennucci, H. P. Hratchian, 
 J. V. Ortiz, A. F. Izmaylov, J. L. Sonnenberg, D. Williams-Young, 
 F. Ding, F. Lipparini, F. Egidi, J. Goings, B. Peng, A. Petrone, 
 T. Henderson, D. Ranasinghe, V. G. Zakrzewski, J. Gao, N. Rega, 
 G. Zheng, W. Liang, M. Hada, M. Ehara, K. Toyota, R. Fukuda, 
 J. Hasegawa, M. Ishida, T. Nakajima, Y. Honda, O. Kitao, H. Nakai, 
 T. Vreven, K. Throssell, J. A. Montgomery, Jr., J. E. Peralta, 
 F. Ogliaro, M. J. Bearpark, J. J. Heyd, E. N. Brothers, K. N. Kudin, 
 V. N. Staroverov, T. A. Keith, R. Kobayashi, J. Normand, 
 K. Raghavachari, A. P. Rendell, J. C. Burant, S. S. Iyengar, 
 J. Tomasi, M. Cossi, J. M. Millam, M. Klene, C. Adamo, R. Cammi, 
 J. W. Ochterski, R. L. Martin, K. Morokuma, O. Farkas, 
 J. B. Foresman, and D. J. Fox, Gaussian, Inc., Wallingford CT, 2016.
 
 ******************************************
 Gaussian 16:  EM64M-G16RevA.03 25-Dec-2016
                23-Feb-2024 
 ******************************************
 %nprocshared=10
 Will use up to   10 processors via shared memory.
 %mem=12GB
 %chk= 0.chk
 ---------------------
 # freq b3lyp/6-31g(d)
 ---------------------
 1/10=4,30=1,38=1/1,3;
 2/12=2,17=6,18=5,40=1/2;
 3/5=1,6=6,7=1,11=2,25=1,30=1,71=2,74=-5,140=1/1,2,3;
 4//1;
 5/5=2,38=5,98=1/2;
 8/6=4,10=90,11=11/1;
 11/6=1,8=1,9=11,15=111,16=1/1,2,10;
 10/6=1/2;
 6/7=2,8=2,9=2,10=2,28=1/1;
 7/8=1,10=1,25=1/1,2,3,16;
 1/10=4,30=1/3;
 99//99;
 ---------
 good luck
 ---------
 Symbolic Z-matrix:
 Charge =  0 Multiplicity = 1
 O                     1.21608   0.        0. 
 C                     0.        0.        0. 
 C                    -0.84882  -1.26808   0.00296 
 C                    -1.73255  -1.26207   1.27466 
 C                    -1.7514   -1.25738  -1.25404 
 C                    -2.64094   0.       -1.23328 
 C                    -1.7514    1.25738  -1.25404 
 C                    -0.84882   1.26808   0.00296 
 C                    -1.73255   1.26207   1.27466 
 C                    -2.64344   0.        1.31802 
 C                    -3.47278  0.         2.60819 
 C                    -4.87573   0.00001   2.60862 
 C                    -5.6041    0.00001   3.7979 
 C                    -4.94328  -0.00001   5.03035 
 C                    -5.66239  -0.00001   6.33366 
 O                    -5.11894  -0.00012   7.42134 
 O                    -7.00853  -0.00011   6.18319 
 C                    -7.75953  -0.00024   7.40605 
 C                    -3.54211  -0.00003   5.04801 
 C                    -2.82544  -0.00002   3.85824 
 C                    -3.51548   0.        0.03699 
 H                    -0.17943  -2.1343    0.00366 
 H                    -2.35538  -2.16628   1.29236 
 H                    -1.09531  -1.30135   2.16573 
 H                    -2.36926  -2.16546  -1.26601 
 H                    -1.13605  -1.2757   -2.16289 
 H                    -3.29355   0.       -2.11575 
 H                    -1.13605   1.2757   -2.16289 
 H                    -2.36926   2.16546  -1.26601 
 H                    -0.17943   2.1343    0.00366 
 H                    -2.35538   2.16628   1.29236 
 H                    -1.09531   1.30135   2.16573 
 H                    -5.42241   0.00003   1.6726 
 H                    -6.68812   0.00002   3.76986 
 H                    -7.52941  -0.88953   7.99907 
 H                    -7.52955   0.88903   7.99916 
 H                    -8.80778  -0.00031   7.10542 
 H                    -3.03274  -0.00004   6.00617 
 H                    -1.74029  -0.00004   3.90664 
 H                    -4.16856   0.88278   0.02953 
 H                    -4.16856  -0.88278   0.02953 
 

 GradGradGradGradGradGradGradGradGradGradGradGradGradGradGradGradGradGrad
 Berny optimization.
 Initialization pass.
 Trust Radius=3.00D-01 FncErr=1.00D-07 GrdErr=1.00D-07 EigMax=2.50D+02 EigMin=1.00D-04
 Number of steps in this run=      2 maximum allowed number of steps=      2.
 GradGradGradGradGradGradGradGradGradGradGradGradGradGradGradGradGradGrad

                          Input orientation:                          
 ---------------------------------------------------------------------
 Center     Atomic      Atomic             Coordinates (Angstroms)
 Number     Number       Type             X           Y           Z
 ---------------------------------------------------------------------
      1          8           0        1.216077    0.000000    0.000000
      2          6           0        0.000000    0.000000    0.000000
      3          6           0       -0.848824   -1.268075    0.002956
      4          6           0       -1.732553   -1.262066    1.274657
      5          6           0       -1.751396   -1.257380   -1.254041
      6          6           0       -2.640936    0.000000   -1.233282
      7          6           0       -1.751397    1.257380   -1.254040
      8          6           0       -0.848824    1.268075    0.002956
      9          6           0       -1.732553    1.262066    1.274657
     10          6           0       -2.643444    0.000000    1.318023
     11          6           0       -3.472784   -0.000001    2.608188
     12          6           0       -4.875733    0.000012    2.608616
     13          6           0       -5.604102    0.000008    3.797902
     14          6           0       -4.943277   -0.000010    5.030347
     15          6           0       -5.662385   -0.000013    6.333661
     16          8           0       -5.118943   -0.000122    7.421344
     17          8           0       -7.008526   -0.000112    6.183194
     18          6           0       -7.759526   -0.000238    7.406048
     19          6           0       -3.542108   -0.000026    5.048010
     20          6           0       -2.825444   -0.000022    3.858238
     21          6           0       -3.515484    0.000000    0.036990
     22          1           0       -0.179432   -2.134301    0.003660
     23          1           0       -2.355383   -2.166283    1.292362
     24          1           0       -1.095310   -1.301351    2.165726
     25          1           0       -2.369256   -2.165459   -1.266007
     26          1           0       -1.136053   -1.275697   -2.162894
     27          1           0       -3.293551    0.000000   -2.115746
     28          1           0       -1.136054    1.275698   -2.162893
     29          1           0       -2.369258    2.165459   -1.266006
     30          1           0       -0.179432    2.134301    0.003660
     31          1           0       -2.355383    2.166283    1.292363
     32          1           0       -1.095309    1.301350    2.165726
     33          1           0       -5.422409    0.000027    1.672597
     34          1           0       -6.688119    0.000019    3.769864
     35          1           0       -7.529405   -0.889530    7.999067
     36          1           0       -7.529546    0.889028    7.999161
     37          1           0       -8.807778   -0.000306    7.105416
     38          1           0       -3.032740   -0.000042    6.006173
     39          1           0       -1.740286   -0.000035    3.906638
     40          1           0       -4.168561    0.882775    0.029525
     41          1           0       -4.168560   -0.882776    0.029525
 ---------------------------------------------------------------------
                    Distance matrix (angstroms):
                    1          2          3          4          5
     1  O    0.000000
     2  C    1.216077   0.000000
     3  C    2.423188   1.525951   0.000000
     4  C    3.451374   2.493853   1.548624   0.000000
     5  C    3.458254   2.494196   1.547512   2.528773   0.000000
     6  C    4.049387   2.914709   2.519517   2.950886   1.540363
     7  C    3.458254   2.494196   2.961858   3.569632   2.514760
     8  C    2.423188   1.525951   2.536150   2.966448   2.961858
     9  C    3.451374   2.493853   2.966448   2.524132   3.569633
    10  C    4.078368   2.953808   2.560874   1.557053   2.998711
    11  C    5.365451   4.343141   3.909017   2.529727   4.411461
    12  C    6.626841   5.529706   4.961200   3.640312   5.124708
    13  C    7.806337   6.769787   6.214686   4.790458   6.476611
    14  C    7.952486   7.052686   6.606602   5.099681   7.159792
    15  C    9.350321   8.495756   8.053333   6.529156   8.628443
    16  O    9.757501   9.015538   8.652982   7.130351   9.390600
    17  O   10.289606   9.346193   8.817313   7.315884   9.194053
    18  C   11.636623  10.726593  10.206419   8.689682  10.614856
    19  C    6.937055   6.166760   5.857841   4.370976   6.671090
    20  C    5.587476   4.782168   4.514220   3.076046   5.373074
    21  C    4.731706   3.515679   2.953007   2.510672   2.521859
    22  H    2.550039   2.141833   1.094730   2.188244   2.195876
    23  H    4.372449   3.451204   2.176939   1.098107   2.770392
    24  H    3.424382   2.753831   2.177025   1.096187   3.482411
    25  H    4.375683   3.450415   2.174231   2.770647   1.098409
    26  H    3.440644   2.756108   2.184826   3.488948   1.097723
    27  H    4.981278   3.914570   3.474709   3.940096   2.168359
    28  H    3.440644   2.756108   3.353235   4.314256   2.760642
    29  H    4.375684   3.450416   3.963728   4.313733   3.478178
    30  H    2.550039   2.141833   3.467600   3.944988   3.944158
    31  H    4.372449   3.451205   3.965741   3.484510   4.309344
    32  H    3.424381   2.753831   3.367532   2.787685   4.321152
    33  H    6.845953   5.674513   5.031249   3.919984   4.860311
    34  H    8.757179   7.677422   7.063641   5.690040   7.154852
    35  H   11.885276  11.021265  10.426469   8.885942  10.915160
    36  H   11.885406  11.021389  10.640697   9.135168  11.118266
    37  H   12.286765  11.316532  10.742305   9.254653  11.011507
    38  H    7.357076   6.728419   6.512758   5.066600   7.478867
    39  H    4.899174   4.276730   4.200162   2.918922   5.311652
    40  H    5.456601   4.261111   3.955694   3.476324   3.474261
    41  H    5.456600   4.261110   3.342126   2.761946   2.762345
                    6          7          8          9         10
     6  C    0.000000
     7  C    1.540362   0.000000
     8  C    2.519517   1.547511   0.000000
     9  C    2.950886   2.528772   1.548624   0.000000
    10  C    2.551306   2.998710   2.560874   1.557053   0.000000
    11  C    3.930504   4.411461   3.909017   2.529728   1.533731
    12  C    4.444603   5.124701   4.961194   3.640303   2.578516
    13  C    5.838935   6.476607   6.214682   4.790454   3.862033
    14  C    6.673367   7.159794   6.606606   5.099685   4.366988
    15  C    8.147870   8.628445   8.053337   6.529161   5.854112
    16  O    9.002392   9.390632   8.653018   7.130394   6.586245
    17  O    8.606972   9.194082   8.817345   7.315922   6.536347
    18  C   10.041812  10.614911  10.206478   8.689751   7.952254
    19  C    6.345608   6.671098   5.857852   4.370991   3.836717
    20  C    5.094862   5.373083   4.514233   3.076064   2.546727
    21  C    1.542214   2.521858   2.953007   2.510672   1.549677
    22  H    3.484863   3.944158   3.467600   3.944988   3.514847
    23  H    3.339641   4.309342   3.965741   3.484510   2.185502
    24  H    3.954204   4.321152   3.367533   2.787685   2.192905
    25  H    2.182680   3.478178   3.963728   4.313733   3.382544
    26  H    2.180884   2.760642   3.353235   4.314257   4.002051
    27  H    1.097565   2.168359   3.474709   3.940096   3.494769
    28  H    2.180883   1.097723   2.184825   3.488946   4.002050
    29  H    2.182680   1.098409   2.174231   2.770646   3.382543
    30  H    3.484863   2.195877   1.094730   2.188244   3.514847
    31  H    3.339641   2.770392   2.176940   1.098107   2.185502
    32  H    3.954204   3.482411   2.177025   1.096188   2.192905
    33  H    4.022527   4.860295   5.031235   3.919966   2.801494
    34  H    6.435150   7.154844   7.063634   5.690031   4.729791
    35  H   10.484496  11.118210  10.640640   9.135127   8.324676
    36  H   10.484602  10.915329  10.426649   8.886126   8.324780
    37  H   10.371298  11.011575  10.742378   9.254736   8.455349
    38  H    7.250050   7.478880   6.512774   5.066621   4.704285
    39  H    5.218232   5.311668   4.200183   2.918952   2.741646
    40  H    2.169703   2.762345   3.342127   2.761947   2.183003
    41  H    2.169703   3.474260   3.955694   3.476324   2.183002
                   11         12         13         14         15
    11  C    0.000000
    12  C    1.402949   0.000000
    13  C    2.440888   1.394605   0.000000
    14  C    2.833585   2.422673   1.398431   0.000000
    15  C    4.321285   3.807201   2.536429   1.488537   0.000000
    16  O    5.086876   4.818869   3.655778   2.397441   1.215888
    17  O    5.028135   4.162501   2.768036   2.365229   1.354524
    18  C    6.433943   5.597465   4.202924   3.684456   2.355422
    19  C    2.440807   2.780144   2.411346   1.401280   2.479611
    20  C    1.407719   2.401091   2.779313   2.420549   3.765097
    21  C    2.571553   2.909216   4.301951   5.193477   6.652612
    22  H    4.710092   5.778956   6.955472   7.246861   8.642157
    23  H    2.769975   3.574566   4.639474   5.036116   6.406534
    24  H    2.746210   4.022598   4.968575   4.970552   6.318492
    25  H    4.573442   5.097489   6.387226   7.138545   8.560888
    26  H    5.463601   6.195155   7.557908   8.238025   9.711153
    27  H    4.727333   4.982258   6.349006   7.334047   8.775184
    28  H    5.463600   6.195149   7.557904   8.238026   9.711155
    29  H    4.573441   5.097477   6.387218   7.138550   8.560893
    30  H    4.710093   5.778947   6.955467   7.246867   8.642163
    31  H    2.769976   3.574551   4.639466   5.036124   6.406542
    32  H    2.746211   4.022591   4.968572   4.970558   6.318498
    33  H    2.162491   1.083968   2.133057   3.391762   4.667238
    34  H    3.418753   2.152496   1.084380   2.152508   2.761374
    35  H    6.805073   6.073732   4.706151   4.036410   2.655293
    36  H    6.805166   6.073800   4.706195   4.036463   2.655292
    37  H    6.977623   5.973457   4.604692   4.386374   3.238688
    38  H    3.426360   3.865232   3.389449   2.145318   2.649959
    39  H    2.165069   3.393507   3.865346   3.394388   4.612299
    40  H    2.812988   2.816216   4.128041   5.136897   6.538574
    41  H    2.812988   2.816224   4.128045   5.136894   6.538571
                   16         17         18         19         20
    16  O    0.000000
    17  O    2.259101   0.000000
    18  C    2.640627   1.435052   0.000000
    19  C    2.849407   3.647560   4.831869   0.000000
    20  C    4.237436   4.785770   6.077180   1.388944   0.000000
    21  C    7.556439   7.069453   8.503817   5.011091   3.883052
    22  H    9.163816   9.453990  10.807747   6.427145   5.139484
    23  H    7.063564   7.089730   8.442373   4.495095   3.390776
    24  H    6.745690   7.266319   8.577042   3.998478   2.747984
    25  H    9.365871   9.038924  10.437803   6.777278   5.581676
    26  H   10.456965  10.284466  11.707341   7.708020   6.382431
    27  H    9.710208   9.092494  10.517105   7.168067   5.992296
    28  H   10.456994  10.284493  11.707392   7.708028   6.382438
    29  H    9.365925   9.038976  10.437900   6.777293   5.581692
    30  H    9.163873   9.454041  10.807841   6.427162   5.139502
    31  H    7.063638   7.089798   8.442495   4.495119   3.390804
    32  H    6.745738   7.266360   8.577115   3.998495   2.748005
    33  H    5.756751   4.781344   6.191492   3.863799   3.394297
    34  H    3.974370   2.434507   3.790745   3.395739   3.863686
    35  H    2.633465   2.088007   1.093374   5.039692   6.329687
    36  H    2.633527   2.088006   1.093375   5.039779   6.329789
    37  H    3.702339   2.021831   1.090510   5.653335   6.806797
    38  H    2.520903   3.979725   4.929722   1.085142   2.157915
    39  H    4.875293   5.739082   6.962551   2.132907   1.086237
    40  H    7.504780   6.834657   8.251535   5.133904   4.152389
    41  H    7.504751   6.834628   8.251485   5.133895   4.152380
                   21         22         23         24         25
    21  C    0.000000
    22  H    3.960504   0.000000
    23  H    2.759452   2.529138   0.000000
    24  H    3.475956   2.491419   1.760300   0.000000
    25  H    2.775041   2.531473   2.558407   3.761172   0.000000
    26  H    3.482612   2.519183   3.770770   4.328888   1.765467
    27  H    2.164146   4.329533   4.145858   4.985657   2.503116
    28  H    3.482611   4.151767   5.027204   5.037835   3.763875
    29  H    2.775040   4.989522   5.030848   5.041676   4.330918
    30  H    3.960504   4.268602   4.989042   4.161378   4.989521
    31  H    2.759452   4.989042   4.332566   3.791442   5.030849
    32  H    3.475957   4.161377   3.791442   2.602701   5.041676
    33  H    2.512284   5.901654   3.774139   4.545387   4.758830
    34  H    4.898976   7.816817   5.440908   5.962075   6.978672
    35  H    8.960887  10.931518   8.566242   8.694541  10.681607
    36  H    8.960984  11.273541   9.004890   8.956903  11.036386
    37  H    8.830120  11.377048   8.950780   9.250698  10.780685
    38  H    5.988672   6.980443   5.231771   4.494004   7.616682
    39  H    4.257406   4.714297   3.450422   2.267199   5.642776
    40  H    1.098115   5.001656   3.765518   4.333432   3.769301
    41  H    1.098115   4.180924   2.555339   3.766089   2.561479
                   26         27         28         29         30
    26  H    0.000000
    27  H    2.506875   0.000000
    28  H    2.551395   2.506875   0.000000
    29  H    3.763875   2.503116   1.765467   0.000000
    30  H    4.151767   4.329533   2.519182   2.531474   0.000000
    31  H    5.027205   4.145859   3.770769   2.558407   2.529138
    32  H    5.037835   4.985658   4.328887   3.761172   2.491419
    33  H    5.891631   4.345524   5.891618   4.758804   5.901634
    34  H    8.224993   6.794372   8.224986   6.978659   7.816806
    35  H   12.012058  11.001962  12.199532  11.036379  11.273517
    36  H   12.199596  11.002062  12.012227  10.681815  10.931739
    37  H   12.098907  10.744139  12.098970  10.780806  11.377163
    38  H    8.482828   8.126106   8.482840   7.616705   6.980469
    39  H    6.231503   6.219465   6.231516   5.642802   4.714328
    40  H    4.319931   2.479339   3.762603   2.561478   4.180925
    41  H    3.762604   2.479339   4.319930   3.769300   5.001656
                   31         32         33         34         35
    31  H    0.000000
    32  H    1.760301   0.000000
    33  H    3.774108   4.545373   0.000000
    34  H    5.440893   5.962067   2.449602   0.000000
    35  H    9.004908   8.956864   6.727181   4.402865   0.000000
    36  H    8.566474   8.694733   6.727240   4.402873   1.778558
    37  H    8.950927   9.250785   6.401269   3.952071   1.795430
    38  H    5.231805   4.494029   4.948778   4.285192   4.998281
    39  H    3.450465   2.267239   4.306851   4.949723   7.145143
    40  H    2.555341   3.766090   2.247457   4.595385   8.828926
    41  H    3.765519   4.333432   2.247479   4.595393   8.649215
                   36         37         38         39         40
    36  H    0.000000
    37  H    1.795431   0.000000
    38  H    4.998371   5.878724   0.000000
    39  H    7.145258   7.757682   2.465458   0.000000
    40  H    8.649356   8.507079   6.147339   4.659171   0.000000
    41  H    8.828965   8.507017   6.147327   4.659158   1.765551
                   41
    41  H    0.000000
 Stoichiometry    C18H20O3
 Framework group  C1[X(C18H20O3)]
 Deg. of freedom   117
 Full point group                 C1      NOp   1
 Largest Abelian subgroup         C1      NOp   1
 Largest concise Abelian subgroup C1      NOp   1
                         Standard orientation:                         
 ---------------------------------------------------------------------
 Center     Atomic      Atomic             Coordinates (Angstroms)
 Number     Number       Type             X           Y           Z
 ---------------------------------------------------------------------
      1          8           0        4.601431    2.097739    0.000029
      2          6           0        3.869256    1.126779    0.000021
      3          6           0        3.355819    0.450830    1.268091
      4          6           0        1.808372    0.510894    1.262060
      5          6           0        3.816032   -1.026628    1.257406
      6          6           0        3.263901   -1.724373    0.000020
      7          6           0        3.816065   -1.026634   -1.257354
      8          6           0        3.355854    0.450824   -1.268059
      9          6           0        1.808407    0.510888   -1.262072
     10          6           0        1.225336   -0.190288   -0.000012
     11          6           0       -0.304107   -0.075682   -0.000032
     12          6           0       -1.149135   -1.195590   -0.000054
     13          6           0       -2.537240   -1.061101   -0.000070
     14          6           0       -3.123400    0.208555   -0.000063
     15          6           0       -4.596973    0.419091   -0.000081
     16          8           0       -5.138224    1.507866    0.000018
     17          8           0       -5.287319   -0.746310    0.000012
     18          6           0       -6.715851   -0.609681    0.000118
     19          6           0       -2.293888    1.337934   -0.000038
     20          6           0       -0.912442    1.193807   -0.000023
     21          6           0        1.723122   -1.657840   -0.000002
     22          1           0        3.758272    0.985723    2.134321
     23          1           0        1.419230    0.024265    2.166273
     24          1           0        1.480581    1.556186    1.301338
     25          1           0        3.453573   -1.527152    2.165481
     26          1           0        4.912178   -1.082517    1.275738
     27          1           0        3.575566   -2.776758    0.000026
     28          1           0        4.912212   -1.082523   -1.275657
     29          1           0        3.453630   -1.527163   -2.165437
     30          1           0        3.758331    0.985713   -2.134281
     31          1           0        1.419289    0.024256   -2.166293
     32          1           0        1.480617    1.556180   -1.301363
     33          1           0       -0.730926   -2.195633   -0.000061
     34          1           0       -3.167518   -1.943501   -0.000087
     35          1           0       -7.050800   -0.068897    0.889404
     36          1           0       -7.050936   -0.068957   -0.889154
     37          1           0       -7.106946   -1.627647    0.000183
     38          1           0       -2.752240    2.321522   -0.000031
     39          1           0       -0.297736    2.089377   -0.000003
     40          1           0        1.335891   -2.183777   -0.882781
     41          1           0        1.335867   -2.183772    0.882770
 ---------------------------------------------------------------------
 Rotational constants (GHZ):           0.9761784           0.1331751           0.1261200
 Standard basis: 6-31G(d) (6D, 7F)
 There are   355 symmetry adapted cartesian basis functions of A   symmetry.
 There are   355 symmetry adapted basis functions of A   symmetry.
   355 basis functions,   668 primitive gaussians,   355 cartesian basis functions
    76 alpha electrons       76 beta electrons
       nuclear repulsion energy      1658.1016934032 Hartrees.
 NAtoms=   41 NActive=   41 NUniq=   41 SFac= 1.00D+00 NAtFMM=   60 NAOKFM=F Big=F
 Integral buffers will be    131072 words long.
 Raffenetti 2 integral format.
 Two-electron integral symmetry is turned on.
 One-electron integrals computed using PRISM.
 NBasis=   355 RedAO= T EigKep=  3.95D-04  NBF=   355
 NBsUse=   355 1.00D-06 EigRej= -1.00D+00 NBFU=   355
 ExpMin= 1.61D-01 ExpMax= 5.48D+03 ExpMxC= 8.25D+02 IAcc=3 IRadAn=         5 AccDes= 0.00D+00
 Harris functional with IExCor=  402 and IRadAn=       5 diagonalized for initial guess.
 HarFok:  IExCor=  402 AccDes= 0.00D+00 IRadAn=         5 IDoV= 1 UseB2=F ITyADJ=14
 ICtDFT=  3500011 ScaDFX=  1.000000  1.000000  1.000000  1.000000
 FoFCou: FMM=F IPFlag=           0 FMFlag=      100000 FMFlg1=           0
         NFxFlg=           0 DoJE=T BraDBF=F KetDBF=T FulRan=T
         wScrn=  0.000000 ICntrl=       500 IOpCl=  0 I1Cent=   200000004 NGrid=           0
         NMat0=    1 NMatS0=      1 NMatT0=    0 NMatD0=    1 NMtDS0=    0 NMtDT0=    0
 Petite list used in FoFCou.
 Requested convergence on RMS density matrix=1.00D-08 within 128 cycles.
 Requested convergence on MAX density matrix=1.00D-06.
 Requested convergence on             energy=1.00D-06.
 No special actions if energy rises.
 Integral accuracy reduced to 1.0D-05 until final iterations.
 Initial convergence to 1.0D-05 achieved.  Increase integral accuracy.
 SCF Done:  E(RB3LYP) =  -923.663496695     A.U. after   15 cycles
            NFock= 15  Conv=0.57D-08     -V/T= 2.0094
 DoSCS=F DFT=T ScalE2(SS,OS)=  1.000000  1.000000
 Range of M.O.s used for correlation:     1   355
 NBasis=   355 NAE=    76 NBE=    76 NFC=     0 NFV=     0
 NROrb=    355 NOA=    76 NOB=    76 NVA=   279 NVB=   279
 Symmetrizing basis deriv contribution to polar:
 IMax=3 JMax=2 DiffMx= 0.00D+00
 G2DrvN: will do    42 centers at a time, making    1 passes.
 Calling FoFCou, ICntrl=  3107 FMM=F I1Cent=   0 AccDes= 0.00D+00.
 End of G2Drv F.D. properties file   721 does not exist.
 End of G2Drv F.D. properties file   722 does not exist.
 End of G2Drv F.D. properties file   788 does not exist.
          IDoAtm=11111111111111111111111111111111111111111
          Differentiating once with respect to electric field.
                with respect to dipole field.
          Differentiating once with respect to nuclear coordinates.
 CalDSu exits because no D1Ps are significant.
          There are   126 degrees of freedom in the 1st order CPHF.  IDoFFX=6 NUNeed=     3.
    123 vectors produced by pass  0 Test12= 2.12D-14 1.00D-09 XBig12= 2.28D+02 9.32D+00.
 AX will form   123 AO Fock derivatives at one time.
    123 vectors produced by pass  1 Test12= 2.12D-14 1.00D-09 XBig12= 3.84D+01 1.30D+00.
    123 vectors produced by pass  2 Test12= 2.12D-14 1.00D-09 XBig12= 2.97D-01 7.57D-02.
    123 vectors produced by pass  3 Test12= 2.12D-14 1.00D-09 XBig12= 1.17D-03 4.43D-03.
    123 vectors produced by pass  4 Test12= 2.12D-14 1.00D-09 XBig12= 1.58D-06 1.14D-04.
     82 vectors produced by pass  5 Test12= 2.12D-14 1.00D-09 XBig12= 1.40D-09 3.98D-06.
     12 vectors produced by pass  6 Test12= 2.12D-14 1.00D-09 XBig12= 1.01D-12 1.30D-07.
      3 vectors produced by pass  7 Test12= 2.12D-14 1.00D-09 XBig12= 7.79D-16 3.38D-09.
 InvSVY:  IOpt=1 It=  1 EMax= 5.80D-15
 Solved reduced A of dimension   712 with   126 vectors.
 Isotropic polarizability for W=    0.000000      189.23 Bohr**3.
 End of Minotr F.D. properties file   721 does not exist.
 End of Minotr F.D. properties file   722 does not exist.
 End of Minotr F.D. properties file   788 does not exist.

 **********************************************************************

            Population analysis using the SCF density.

 **********************************************************************

 Orbital symmetries:
       Occupied  (A) (A) (A) (A) (A) (A) (A) (A) (A) (A) (A) (A)
                 (A) (A) (A) (A) (A) (A) (A) (A) (A) (A) (A) (A)
                 (A) (A) (A) (A) (A) (A) (A) (A) (A) (A) (A) (A)
                 (A) (A) (A) (A) (A) (A) (A) (A) (A) (A) (A) (A)
                 (A) (A) (A) (A) (A) (A) (A) (A) (A) (A) (A) (A)
                 (A) (A) (A) (A) (A) (A) (A) (A) (A) (A) (A) (A)
                 (A) (A) (A) (A)
       Virtual   (A) (A) (A) (A) (A) (A) (A) (A) (A) (A) (A) (A)
                 (A) (A) (A) (A) (A) (A) (A) (A) (A) (A) (A) (A)
                 (A) (A) (A) (A) (A) (A) (A) (A) (A) (A) (A) (A)
                 (A) (A) (A) (A) (A) (A) (A) (A) (A) (A) (A) (A)
                 (A) (A) (A) (A) (A) (A) (A) (A) (A) (A) (A) (A)
                 (A) (A) (A) (A) (A) (A) (A) (A) (A) (A) (A) (A)
                 (A) (A) (A) (A) (A) (A) (A) (A) (A) (A) (A) (A)
                 (A) (A) (A) (A) (A) (A) (A) (A) (A) (A) (A) (A)
                 (A) (A) (A) (A) (A) (A) (A) (A) (A) (A) (A) (A)
                 (A) (A) (A) (A) (A) (A) (A) (A) (A) (A) (A) (A)
                 (A) (A) (A) (A) (A) (A) (A) (A) (A) (A) (A) (A)
                 (A) (A) (A) (A) (A) (A) (A) (A) (A) (A) (A) (A)
                 (A) (A) (A) (A) (A) (A) (A) (A) (A) (A) (A) (A)
                 (A) (A) (A) (A) (A) (A) (A) (A) (A) (A) (A) (A)
                 (A) (A) (A) (A) (A) (A) (A) (A) (A) (A) (A) (A)
                 (A) (A) (A) (A) (A) (A) (A) (A) (A) (A) (A) (A)
                 (A) (A) (A) (A) (A) (A) (A) (A) (A) (A) (A) (A)
                 (A) (A) (A) (A) (A) (A) (A) (A) (A) (A) (A) (A)
                 (A) (A) (A) (A) (A) (A) (A) (A) (A) (A) (A) (A)
                 (A) (A) (A) (A) (A) (A) (A) (A) (A) (A) (A) (A)
                 (A) (A) (A) (A) (A) (A) (A) (A) (A) (A) (A) (A)
                 (A) (A) (A) (A) (A) (A) (A) (A) (A) (A) (A) (A)
                 (A) (A) (A) (A) (A) (A) (A) (A) (A) (A) (A) (A)
                 (A) (A) (A)
 The electronic state is 1-A.
 Alpha  occ. eigenvalues --  -19.19213 -19.13506 -19.13248 -10.31378 -10.26612
 Alpha  occ. eigenvalues --  -10.24067 -10.21516 -10.20969 -10.20441 -10.20082
 Alpha  occ. eigenvalues --  -10.20009 -10.19829 -10.19716 -10.19714 -10.19693
 Alpha  occ. eigenvalues --  -10.19692 -10.19687 -10.19656 -10.19479 -10.19477
 Alpha  occ. eigenvalues --  -10.19222  -1.09996  -1.03330  -1.01029  -0.88621
 Alpha  occ. eigenvalues --   -0.86229  -0.80263  -0.78458  -0.77180  -0.75717
 Alpha  occ. eigenvalues --   -0.75054  -0.71737  -0.68222  -0.65754  -0.63596
 Alpha  occ. eigenvalues --   -0.61061  -0.60748  -0.58581  -0.57633  -0.56292
 Alpha  occ. eigenvalues --   -0.53725  -0.51121  -0.48496  -0.48019  -0.47546
 Alpha  occ. eigenvalues --   -0.46592  -0.45924  -0.45312  -0.45072  -0.44500
 Alpha  occ. eigenvalues --   -0.44253  -0.44080  -0.42836  -0.42414  -0.41436
 Alpha  occ. eigenvalues --   -0.40714  -0.40567  -0.40340  -0.39839  -0.37398
 Alpha  occ. eigenvalues --   -0.36965  -0.36605  -0.36228  -0.35939  -0.34738
 Alpha  occ. eigenvalues --   -0.34457  -0.34026  -0.33726  -0.31177  -0.30441
 Alpha  occ. eigenvalues --   -0.30113  -0.29796  -0.27271  -0.25873  -0.25189
 Alpha  occ. eigenvalues --   -0.23248
 Alpha virt. eigenvalues --   -0.04527  -0.01241  -0.00872   0.05568   0.06420
 Alpha virt. eigenvalues --    0.09205   0.10925   0.11349   0.11671   0.11830
 Alpha virt. eigenvalues --    0.12676   0.12965   0.13400   0.13943   0.14941
 Alpha virt. eigenvalues --    0.15420   0.15485   0.16082   0.16349   0.16788
 Alpha virt. eigenvalues --    0.17757   0.18217   0.18434   0.18886   0.19074
 Alpha virt. eigenvalues --    0.19739   0.20086   0.21312   0.22271   0.22352
 Alpha virt. eigenvalues --    0.23240   0.24416   0.25107   0.25661   0.26835
 Alpha virt. eigenvalues --    0.27355   0.27393   0.28579   0.28821   0.29133
 Alpha virt. eigenvalues --    0.31703   0.33362   0.33716   0.34459   0.36659
 Alpha virt. eigenvalues --    0.39967   0.40465   0.49241   0.50303   0.50606
 Alpha virt. eigenvalues --    0.50669   0.51615   0.51721   0.52005   0.52743
 Alpha virt. eigenvalues --    0.54135   0.55056   0.55631   0.55818   0.56953
 Alpha virt. eigenvalues --    0.57536   0.58483   0.58619   0.58873   0.59711
 Alpha virt. eigenvalues --    0.60046   0.61443   0.62165   0.62799   0.63708
 Alpha virt. eigenvalues --    0.64154   0.64908   0.65645   0.66583   0.68128
 Alpha virt. eigenvalues --    0.68605   0.69683   0.70931   0.71271   0.71964
 Alpha virt. eigenvalues --    0.72012   0.74366   0.75891   0.77036   0.77036
 Alpha virt. eigenvalues --    0.77963   0.78381   0.78844   0.81097   0.81437
 Alpha virt. eigenvalues --    0.81840   0.82173   0.83706   0.84039   0.84075
 Alpha virt. eigenvalues --    0.85170   0.85478   0.85900   0.86082   0.87068
 Alpha virt. eigenvalues --    0.87781   0.87961   0.89809   0.90016   0.91047
 Alpha virt. eigenvalues --    0.91428   0.92860   0.93207   0.94398   0.95736
 Alpha virt. eigenvalues --    0.96032   0.96321   0.97363   0.98107   0.98731
 Alpha virt. eigenvalues --    0.98927   0.99373   0.99787   1.01813   1.03920
 Alpha virt. eigenvalues --    1.07220   1.09246   1.10323   1.10408   1.12060
 Alpha virt. eigenvalues --    1.13801   1.15582   1.15728   1.16502   1.17456
 Alpha virt. eigenvalues --    1.19665   1.21188   1.22038   1.25133   1.26526
 Alpha virt. eigenvalues --    1.28483   1.28603   1.29739   1.30849   1.31178
 Alpha virt. eigenvalues --    1.36761   1.38788   1.39877   1.42128   1.42176
 Alpha virt. eigenvalues --    1.43901   1.44764   1.45829   1.48484   1.49086
 Alpha virt. eigenvalues --    1.50655   1.51678   1.52467   1.55091   1.57956
 Alpha virt. eigenvalues --    1.60342   1.64011   1.64872   1.66635   1.67681
 Alpha virt. eigenvalues --    1.68895   1.69800   1.72392   1.72948   1.73031
 Alpha virt. eigenvalues --    1.74364   1.76471   1.76675   1.77256   1.78221
 Alpha virt. eigenvalues --    1.78884   1.79475   1.82263   1.83031   1.84648
 Alpha virt. eigenvalues --    1.85403   1.86673   1.87551   1.87744   1.89982
 Alpha virt. eigenvalues --    1.90200   1.92389   1.93573   1.93730   1.94422
 Alpha virt. eigenvalues --    1.99345   2.00870   2.01537   2.03315   2.03323
 Alpha virt. eigenvalues --    2.03715   2.04506   2.06880   2.07340   2.08324
 Alpha virt. eigenvalues --    2.09526   2.10920   2.11369   2.12458   2.13148
 Alpha virt. eigenvalues --    2.13602   2.15013   2.15228   2.17771   2.18167
 Alpha virt. eigenvalues --    2.20895   2.23362   2.25128   2.25339   2.27087
 Alpha virt. eigenvalues --    2.27606   2.28016   2.28821   2.31287   2.31753
 Alpha virt. eigenvalues --    2.32916   2.34749   2.34854   2.38692   2.39179
 Alpha virt. eigenvalues --    2.40786   2.42156   2.43936   2.46820   2.47469
 Alpha virt. eigenvalues --    2.48539   2.49791   2.50196   2.51778   2.52714
 Alpha virt. eigenvalues --    2.58370   2.60751   2.61730   2.62616   2.65160
 Alpha virt. eigenvalues --    2.66076   2.68398   2.70009   2.70236   2.71712
 Alpha virt. eigenvalues --    2.73600   2.74211   2.75053   2.75527   2.77001
 Alpha virt. eigenvalues --    2.80361   2.81549   2.82393   2.83448   2.88461
 Alpha virt. eigenvalues --    2.96435   3.00592   3.01343   3.03182   3.06485
 Alpha virt. eigenvalues --    3.13495   3.21007   3.43096   3.96970   4.08747
 Alpha virt. eigenvalues --    4.10151   4.11901   4.14031   4.17281   4.25203
 Alpha virt. eigenvalues --    4.26845   4.28265   4.29561   4.31864   4.33914
 Alpha virt. eigenvalues --    4.43780   4.48687   4.53452   4.57742   4.68927
 Alpha virt. eigenvalues --    4.74333   4.79964   4.82208   4.84717
          Condensed to atoms (all electrons):
               1          2          3          4          5          6
     1  O    8.011650   0.578890  -0.073845   0.000911   0.001010   0.000055
     2  C    0.578890   4.516642   0.331086  -0.028959  -0.029416  -0.020528
     3  C   -0.073845   0.331086   5.233858   0.316699   0.338659  -0.027612
     4  C    0.000911  -0.028959   0.316699   5.173280  -0.038836  -0.015018
     5  C    0.001010  -0.029416   0.338659  -0.038836   5.095199   0.374447
     6  C    0.000055  -0.020528  -0.027612  -0.015018   0.374447   4.937336
     7  C    0.001010  -0.029416  -0.008142  -0.002540  -0.049019   0.374447
     8  C   -0.073845   0.331086  -0.125314  -0.006839  -0.008142  -0.027612
     9  C    0.000911  -0.028959  -0.006839  -0.053943  -0.002540  -0.015018
    10  C    0.000053  -0.019533  -0.020728   0.365508  -0.016426  -0.018961
    11  C    0.000001   0.000059   0.004149  -0.044769  -0.000078   0.003454
    12  C    0.000000   0.000001  -0.000066   0.000916  -0.000010   0.000546
    13  C    0.000000   0.000000   0.000001  -0.000159   0.000000  -0.000007
    14  C   -0.000000  -0.000000  -0.000000   0.000002  -0.000000   0.000000
    15  C    0.000000  -0.000000  -0.000000  -0.000000   0.000000  -0.000000
    16  O   -0.000000  -0.000000   0.000000  -0.000000  -0.000000   0.000000
    17  O    0.000000  -0.000000   0.000000  -0.000000  -0.000000   0.000000
    18  C    0.000000   0.000000  -0.000000   0.000000   0.000000  -0.000000
    19  C   -0.000000  -0.000000  -0.000001   0.000289   0.000000   0.000001
    20  C   -0.000001  -0.000060   0.000304  -0.008221  -0.000002  -0.000097
    21  C   -0.000032  -0.003193  -0.012467  -0.057153  -0.045452   0.362522
    22  H    0.004263  -0.031342   0.345276  -0.030504  -0.031285   0.004200
    23  H   -0.000079   0.003492  -0.029701   0.357159  -0.006138  -0.000774
    24  H    0.000791  -0.000792  -0.037589   0.361738   0.005084   0.000023
    25  H   -0.000082   0.003534  -0.031213  -0.005873   0.361079  -0.033191
    26  H    0.000706  -0.000907  -0.039203   0.005141   0.368111  -0.035213
    27  H   -0.000000   0.000300   0.004664   0.000089  -0.038085   0.370079
    28  H    0.000706  -0.000907  -0.000042   0.000046  -0.004422  -0.035213
    29  H   -0.000082   0.003534  -0.000301   0.000104   0.005226  -0.033192
    30  H    0.004263  -0.031342   0.007038  -0.000077  -0.000062   0.004200
    31  H   -0.000079   0.003492  -0.000384   0.005775   0.000111  -0.000774
    32  H    0.000791  -0.000792   0.000474  -0.005720  -0.000011   0.000023
    33  H    0.000000  -0.000001  -0.000005   0.000247  -0.000004   0.000024
    34  H    0.000000  -0.000000  -0.000000   0.000001  -0.000000  -0.000000
    35  H    0.000000   0.000000  -0.000000   0.000000   0.000000   0.000000
    36  H    0.000000   0.000000   0.000000  -0.000000  -0.000000   0.000000
    37  H    0.000000  -0.000000  -0.000000  -0.000000   0.000000  -0.000000
    38  H    0.000000  -0.000000  -0.000000  -0.000000  -0.000000  -0.000000
    39  H   -0.000001  -0.000049  -0.000105   0.000157  -0.000003  -0.000002
    40  H    0.000000   0.000163  -0.000154   0.005926   0.005163  -0.035507
    41  H    0.000000   0.000163  -0.001162  -0.005709  -0.003682  -0.035507
               7          8          9         10         11         12
     1  O    0.001010  -0.073845   0.000911   0.000053   0.000001   0.000000
     2  C   -0.029416   0.331086  -0.028959  -0.019533   0.000059   0.000001
     3  C   -0.008142  -0.125314  -0.006839  -0.020728   0.004149  -0.000066
     4  C   -0.002540  -0.006839  -0.053943   0.365508  -0.044769   0.000916
     5  C   -0.049019  -0.008142  -0.002540  -0.016426  -0.000078  -0.000010
     6  C    0.374447  -0.027612  -0.015018  -0.018961   0.003454   0.000546
     7  C    5.095199   0.338659  -0.038836  -0.016426  -0.000078  -0.000010
     8  C    0.338659   5.233857   0.316699  -0.020728   0.004149  -0.000066
     9  C   -0.038836   0.316699   5.173279   0.365507  -0.044768   0.000916
    10  C   -0.016426  -0.020728   0.365507   4.957326   0.358095  -0.052334
    11  C   -0.000078   0.004149  -0.044768   0.358095   4.710471   0.546689
    12  C   -0.000010  -0.000066   0.000916  -0.052334   0.546689   5.036217
    13  C    0.000000   0.000001  -0.000159   0.006646  -0.023201   0.460536
    14  C   -0.000000  -0.000000   0.000002   0.000359  -0.024937  -0.020515
    15  C    0.000000  -0.000000  -0.000000   0.000004   0.000560   0.004641
    16  O   -0.000000   0.000000  -0.000000  -0.000000  -0.000005  -0.000064
    17  O   -0.000000   0.000000  -0.000000  -0.000000  -0.000000   0.000512
    18  C    0.000000  -0.000000   0.000000  -0.000000   0.000000   0.000000
    19  C    0.000000  -0.000001   0.000289   0.005030  -0.019453  -0.046577
    20  C   -0.000002   0.000304  -0.008220  -0.053335   0.510099  -0.046968
    21  C   -0.045452  -0.012467  -0.057153   0.369957  -0.041405  -0.010086
    22  H   -0.000062   0.007038  -0.000077   0.003559  -0.000100   0.000001
    23  H    0.000111  -0.000384   0.005775  -0.033204  -0.001971   0.001151
    24  H   -0.000011   0.000474  -0.005720  -0.031870  -0.009289  -0.000238
    25  H    0.005226  -0.000301   0.000104  -0.001159  -0.000091  -0.000003
    26  H   -0.004422  -0.000042   0.000046   0.000200   0.000012   0.000000
    27  H   -0.038085   0.004664   0.000089   0.004056  -0.000094   0.000001
    28  H    0.368111  -0.039203   0.005141   0.000201   0.000012   0.000000
    29  H    0.361079  -0.031213  -0.005873  -0.001159  -0.000091  -0.000003
    30  H   -0.031285   0.345276  -0.030504   0.003559  -0.000100   0.000001
    31  H   -0.006138  -0.029701   0.357159  -0.033204  -0.001971   0.001151
    32  H    0.005084  -0.037589   0.361738  -0.031870  -0.009289  -0.000238
    33  H   -0.000004  -0.000005   0.000247  -0.015902  -0.038883   0.353955
    34  H   -0.000000  -0.000000   0.000001  -0.000142   0.003363  -0.041394
    35  H   -0.000000   0.000000  -0.000000  -0.000000  -0.000000   0.000001
    36  H    0.000000  -0.000000   0.000000  -0.000000  -0.000000   0.000001
    37  H    0.000000  -0.000000  -0.000000   0.000000   0.000000  -0.000001
    38  H   -0.000000  -0.000000  -0.000000  -0.000138   0.003118   0.000445
    39  H   -0.000003  -0.000105   0.000157  -0.007407  -0.047324   0.005505
    40  H   -0.003682  -0.001162  -0.005709  -0.031060  -0.006166   0.001642
    41  H    0.005163  -0.000154   0.005926  -0.031061  -0.006166   0.001642
              13         14         15         16         17         18
     1  O    0.000000  -0.000000   0.000000  -0.000000   0.000000   0.000000
     2  C    0.000000  -0.000000  -0.000000  -0.000000  -0.000000   0.000000
     3  C    0.000001  -0.000000  -0.000000   0.000000   0.000000  -0.000000
     4  C   -0.000159   0.000002  -0.000000  -0.000000  -0.000000   0.000000
     5  C    0.000000  -0.000000   0.000000  -0.000000  -0.000000   0.000000
     6  C   -0.000007   0.000000  -0.000000   0.000000   0.000000  -0.000000
     7  C    0.000000  -0.000000   0.000000  -0.000000  -0.000000   0.000000
     8  C    0.000001  -0.000000  -0.000000   0.000000   0.000000  -0.000000
     9  C   -0.000159   0.000002  -0.000000  -0.000000  -0.000000   0.000000
    10  C    0.006646   0.000359   0.000004  -0.000000  -0.000000  -0.000000
    11  C   -0.023201  -0.024937   0.000560  -0.000005  -0.000000   0.000000
    12  C    0.460536  -0.020515   0.004641  -0.000064   0.000512   0.000000
    13  C    5.058674   0.500435  -0.040127   0.004239   0.002449  -0.000365
    14  C    0.500435   4.890408   0.342223  -0.081830  -0.090934   0.007891
    15  C   -0.040127   0.342223   4.388785   0.541729   0.255218  -0.021287
    16  O    0.004239  -0.081830   0.541729   8.084451  -0.090218   0.003774
    17  O    0.002449  -0.090934   0.255218  -0.090218   8.260562   0.210704
    18  C   -0.000365   0.007891  -0.021287   0.003774   0.210704   4.890405
    19  C   -0.068982   0.514282  -0.042365   0.001198   0.004632  -0.000203
    20  C   -0.047144  -0.027134   0.006416   0.000831  -0.000048   0.000001
    21  C    0.000203  -0.000015  -0.000000   0.000000   0.000000  -0.000000
    22  H   -0.000000   0.000000  -0.000000  -0.000000  -0.000000   0.000000
    23  H   -0.000017  -0.000010  -0.000000   0.000000   0.000000  -0.000000
    24  H    0.000008  -0.000008  -0.000000   0.000000   0.000000  -0.000000
    25  H   -0.000000  -0.000000  -0.000000  -0.000000  -0.000000   0.000000
    26  H   -0.000000   0.000000  -0.000000   0.000000   0.000000  -0.000000
    27  H    0.000000  -0.000000  -0.000000  -0.000000   0.000000   0.000000
    28  H   -0.000000   0.000000  -0.000000   0.000000   0.000000  -0.000000
    29  H   -0.000000  -0.000000  -0.000000  -0.000000  -0.000000   0.000000
    30  H   -0.000000   0.000000  -0.000000  -0.000000  -0.000000   0.000000
    31  H   -0.000017  -0.000010  -0.000000   0.000000   0.000000  -0.000000
    32  H    0.000008  -0.000008  -0.000000   0.000000   0.000000  -0.000000
    33  H   -0.044959   0.003431  -0.000148   0.000000  -0.000004  -0.000000
    34  H    0.353720  -0.035539  -0.010256   0.000108   0.011153  -0.000393
    35  H    0.000057  -0.000212  -0.004872   0.006275  -0.031655   0.373797
    36  H    0.000057  -0.000212  -0.004873   0.006272  -0.031652   0.373798
    37  H   -0.000071   0.000111   0.004370   0.000750  -0.032947   0.377796
    38  H    0.005934  -0.039464  -0.009518   0.014154   0.000314  -0.000024
    39  H    0.000702   0.003371  -0.000173  -0.000001   0.000000  -0.000000
    40  H    0.000052  -0.000006  -0.000000   0.000000   0.000000   0.000000
    41  H    0.000052  -0.000006  -0.000000   0.000000   0.000000   0.000000
              19         20         21         22         23         24
     1  O   -0.000000  -0.000001  -0.000032   0.004263  -0.000079   0.000791
     2  C   -0.000000  -0.000060  -0.003193  -0.031342   0.003492  -0.000792
     3  C   -0.000001   0.000304  -0.012467   0.345276  -0.029701  -0.037589
     4  C    0.000289  -0.008221  -0.057153  -0.030504   0.357159   0.361738
     5  C    0.000000  -0.000002  -0.045452  -0.031285  -0.006138   0.005084
     6  C    0.000001  -0.000097   0.362522   0.004200  -0.000774   0.000023
     7  C    0.000000  -0.000002  -0.045452  -0.000062   0.000111  -0.000011
     8  C   -0.000001   0.000304  -0.012467   0.007038  -0.000384   0.000474
     9  C    0.000289  -0.008220  -0.057153  -0.000077   0.005775  -0.005720
    10  C    0.005030  -0.053335   0.369957   0.003559  -0.033204  -0.031870
    11  C   -0.019453   0.510099  -0.041405  -0.000100  -0.001971  -0.009289
    12  C   -0.046577  -0.046968  -0.010086   0.000001   0.001151  -0.000238
    13  C   -0.068982  -0.047144   0.000203  -0.000000  -0.000017   0.000008
    14  C    0.514282  -0.027134  -0.000015   0.000000  -0.000010  -0.000008
    15  C   -0.042365   0.006416  -0.000000  -0.000000  -0.000000  -0.000000
    16  O    0.001198   0.000831   0.000000  -0.000000   0.000000   0.000000
    17  O    0.004632  -0.000048   0.000000  -0.000000   0.000000   0.000000
    18  C   -0.000203   0.000001  -0.000000   0.000000  -0.000000  -0.000000
    19  C    5.019857   0.472703  -0.000152  -0.000000  -0.000050   0.000020
    20  C    0.472703   5.058645   0.005511  -0.000007  -0.000205   0.005267
    21  C   -0.000152   0.005511   5.151376   0.000161  -0.005568   0.005642
    22  H   -0.000000  -0.000007   0.000161   0.596937  -0.003818  -0.002770
    23  H   -0.000050  -0.000205  -0.005568  -0.003818   0.592530  -0.034258
    24  H    0.000020   0.005267   0.005642  -0.002770  -0.034258   0.587778
    25  H   -0.000000   0.000000  -0.003805  -0.003972   0.005673  -0.000059
    26  H    0.000000  -0.000000   0.004973  -0.002457  -0.000045  -0.000158
    27  H   -0.000000   0.000002  -0.038668  -0.000145  -0.000097   0.000017
    28  H    0.000000  -0.000000   0.004973  -0.000083   0.000001  -0.000005
    29  H   -0.000000   0.000000  -0.003805   0.000023  -0.000005   0.000001
    30  H   -0.000000  -0.000007   0.000161  -0.000177   0.000023  -0.000072
    31  H   -0.000050  -0.000205  -0.005568   0.000023  -0.000196  -0.000006
    32  H    0.000020   0.005267   0.005642  -0.000072  -0.000006   0.003088
    33  H    0.000600   0.006081   0.008051   0.000000  -0.000024  -0.000007
    34  H    0.005706   0.000466   0.000004   0.000000   0.000001   0.000000
    35  H   -0.000004  -0.000000   0.000000   0.000000  -0.000000  -0.000000
    36  H   -0.000004  -0.000000   0.000000  -0.000000   0.000000   0.000000
    37  H    0.000001  -0.000000  -0.000000   0.000000   0.000000  -0.000000
    38  H    0.352485  -0.039297   0.000001   0.000000   0.000000   0.000006
    39  H   -0.038043   0.354332   0.000085   0.000005   0.000056   0.003556
    40  H   -0.000000  -0.000082   0.358701   0.000018  -0.000078  -0.000167
    41  H   -0.000000  -0.000082   0.358701  -0.000076   0.005308  -0.000042
              25         26         27         28         29         30
     1  O   -0.000082   0.000706  -0.000000   0.000706  -0.000082   0.004263
     2  C    0.003534  -0.000907   0.000300  -0.000907   0.003534  -0.031342
     3  C   -0.031213  -0.039203   0.004664  -0.000042  -0.000301   0.007038
     4  C   -0.005873   0.005141   0.000089   0.000046   0.000104  -0.000077
     5  C    0.361079   0.368111  -0.038085  -0.004422   0.005226  -0.000062
     6  C   -0.033191  -0.035213   0.370079  -0.035213  -0.033192   0.004200
     7  C    0.005226  -0.004422  -0.038085   0.368111   0.361079  -0.031285
     8  C   -0.000301  -0.000042   0.004664  -0.039203  -0.031213   0.345276
     9  C    0.000104   0.000046   0.000089   0.005141  -0.005873  -0.030504
    10  C   -0.001159   0.000200   0.004056   0.000201  -0.001159   0.003559
    11  C   -0.000091   0.000012  -0.000094   0.000012  -0.000091  -0.000100
    12  C   -0.000003   0.000000   0.000001   0.000000  -0.000003   0.000001
    13  C   -0.000000  -0.000000   0.000000  -0.000000  -0.000000  -0.000000
    14  C   -0.000000   0.000000  -0.000000   0.000000  -0.000000   0.000000
    15  C   -0.000000  -0.000000  -0.000000  -0.000000  -0.000000  -0.000000
    16  O   -0.000000   0.000000  -0.000000   0.000000  -0.000000  -0.000000
    17  O   -0.000000   0.000000   0.000000   0.000000  -0.000000  -0.000000
    18  C    0.000000  -0.000000   0.000000  -0.000000   0.000000   0.000000
    19  C   -0.000000   0.000000  -0.000000   0.000000  -0.000000  -0.000000
    20  C    0.000000  -0.000000   0.000002  -0.000000   0.000000  -0.000007
    21  C   -0.003805   0.004973  -0.038668   0.004973  -0.003805   0.000161
    22  H   -0.003972  -0.002457  -0.000145  -0.000083   0.000023  -0.000177
    23  H    0.005673  -0.000045  -0.000097   0.000001  -0.000005   0.000023
    24  H   -0.000059  -0.000158   0.000017  -0.000005   0.000001  -0.000072
    25  H    0.598963  -0.035019  -0.003334   0.000012  -0.000200   0.000023
    26  H   -0.035019   0.591578  -0.003313   0.004351   0.000012  -0.000083
    27  H   -0.003334  -0.003313   0.624093  -0.003313  -0.003334  -0.000145
    28  H    0.000012   0.004351  -0.003313   0.591578  -0.035019  -0.002457
    29  H   -0.000200   0.000012  -0.003334  -0.035019   0.598963  -0.003972
    30  H    0.000023  -0.000083  -0.000145  -0.002457  -0.003972   0.596937
    31  H   -0.000005   0.000001  -0.000097  -0.000045   0.005673  -0.003818
    32  H    0.000001  -0.000005   0.000017  -0.000158  -0.000059  -0.002770
    33  H   -0.000001  -0.000000   0.000006  -0.000000  -0.000001   0.000000
    34  H    0.000000  -0.000000   0.000000  -0.000000   0.000000   0.000000
    35  H    0.000000  -0.000000  -0.000000   0.000000  -0.000000  -0.000000
    36  H   -0.000000   0.000000  -0.000000  -0.000000   0.000000   0.000000
    37  H    0.000000   0.000000   0.000000   0.000000   0.000000   0.000000
    38  H    0.000000  -0.000000   0.000000  -0.000000   0.000000   0.000000
    39  H    0.000000  -0.000000   0.000000  -0.000000   0.000000   0.000005
    40  H   -0.000054  -0.000161  -0.003660  -0.000028   0.004651  -0.000076
    41  H    0.004651  -0.000028  -0.003660  -0.000161  -0.000054   0.000018
              31         32         33         34         35         36
     1  O   -0.000079   0.000791   0.000000   0.000000   0.000000   0.000000
     2  C    0.003492  -0.000792  -0.000001  -0.000000   0.000000   0.000000
     3  C   -0.000384   0.000474  -0.000005  -0.000000  -0.000000   0.000000
     4  C    0.005775  -0.005720   0.000247   0.000001   0.000000  -0.000000
     5  C    0.000111  -0.000011  -0.000004  -0.000000   0.000000  -0.000000
     6  C   -0.000774   0.000023   0.000024  -0.000000   0.000000   0.000000
     7  C   -0.006138   0.005084  -0.000004  -0.000000  -0.000000   0.000000
     8  C   -0.029701  -0.037589  -0.000005  -0.000000   0.000000  -0.000000
     9  C    0.357159   0.361738   0.000247   0.000001  -0.000000   0.000000
    10  C   -0.033204  -0.031870  -0.015902  -0.000142  -0.000000  -0.000000
    11  C   -0.001971  -0.009289  -0.038883   0.003363  -0.000000  -0.000000
    12  C    0.001151  -0.000238   0.353955  -0.041394   0.000001   0.000001
    13  C   -0.000017   0.000008  -0.044959   0.353720   0.000057   0.000057
    14  C   -0.000010  -0.000008   0.003431  -0.035539  -0.000212  -0.000212
    15  C   -0.000000  -0.000000  -0.000148  -0.010256  -0.004872  -0.004873
    16  O    0.000000   0.000000   0.000000   0.000108   0.006275   0.006272
    17  O    0.000000   0.000000  -0.000004   0.011153  -0.031655  -0.031652
    18  C   -0.000000  -0.000000  -0.000000  -0.000393   0.373797   0.373798
    19  C   -0.000050   0.000020   0.000600   0.005706  -0.000004  -0.000004
    20  C   -0.000205   0.005267   0.006081   0.000466  -0.000000  -0.000000
    21  C   -0.005568   0.005642   0.008051   0.000004   0.000000   0.000000
    22  H    0.000023  -0.000072   0.000000   0.000000   0.000000  -0.000000
    23  H   -0.000196  -0.000006  -0.000024   0.000001  -0.000000   0.000000
    24  H   -0.000006   0.003088  -0.000007   0.000000  -0.000000   0.000000
    25  H   -0.000005   0.000001  -0.000001   0.000000   0.000000  -0.000000
    26  H    0.000001  -0.000005  -0.000000  -0.000000  -0.000000   0.000000
    27  H   -0.000097   0.000017   0.000006   0.000000  -0.000000  -0.000000
    28  H   -0.000045  -0.000158  -0.000000  -0.000000   0.000000  -0.000000
    29  H    0.005673  -0.000059  -0.000001   0.000000  -0.000000   0.000000
    30  H   -0.003818  -0.002770   0.000000   0.000000  -0.000000   0.000000
    31  H    0.592530  -0.034257  -0.000024   0.000001   0.000000  -0.000000
    32  H   -0.034257   0.587779  -0.000007   0.000000   0.000000  -0.000000
    33  H   -0.000024  -0.000007   0.593954  -0.005017  -0.000000  -0.000000
    34  H    0.000001   0.000000  -0.005017   0.563517   0.000022   0.000022
    35  H    0.000000   0.000000  -0.000000   0.000022   0.554029  -0.037349
    36  H   -0.000000  -0.000000  -0.000000   0.000022  -0.037349   0.554032
    37  H    0.000000  -0.000000  -0.000000  -0.000008  -0.031500  -0.031500
    38  H    0.000000   0.000006   0.000019  -0.000171  -0.000002  -0.000002
    39  H    0.000056   0.003556  -0.000172   0.000018   0.000000   0.000000
    40  H    0.005308  -0.000042   0.002297   0.000003   0.000000  -0.000000
    41  H   -0.000078  -0.000167   0.002297   0.000003  -0.000000   0.000000
              37         38         39         40         41
     1  O    0.000000   0.000000  -0.000001   0.000000   0.000000
     2  C   -0.000000  -0.000000  -0.000049   0.000163   0.000163
     3  C   -0.000000  -0.000000  -0.000105  -0.000154  -0.001162
     4  C   -0.000000  -0.000000   0.000157   0.005926  -0.005709
     5  C    0.000000  -0.000000  -0.000003   0.005163  -0.003682
     6  C   -0.000000  -0.000000  -0.000002  -0.035507  -0.035507
     7  C    0.000000  -0.000000  -0.000003  -0.003682   0.005163
     8  C   -0.000000  -0.000000  -0.000105  -0.001162  -0.000154
     9  C   -0.000000  -0.000000   0.000157  -0.005709   0.005926
    10  C    0.000000  -0.000138  -0.007407  -0.031060  -0.031061
    11  C    0.000000   0.003118  -0.047324  -0.006166  -0.006166
    12  C   -0.000001   0.000445   0.005505   0.001642   0.001642
    13  C   -0.000071   0.005934   0.000702   0.000052   0.000052
    14  C    0.000111  -0.039464   0.003371  -0.000006  -0.000006
    15  C    0.004370  -0.009518  -0.000173  -0.000000  -0.000000
    16  O    0.000750   0.014154  -0.000001   0.000000   0.000000
    17  O   -0.032947   0.000314   0.000000   0.000000   0.000000
    18  C    0.377796  -0.000024  -0.000000   0.000000   0.000000
    19  C    0.000001   0.352485  -0.038043  -0.000000  -0.000000
    20  C   -0.000000  -0.039297   0.354332  -0.000082  -0.000082
    21  C   -0.000000   0.000001   0.000085   0.358701   0.358701
    22  H    0.000000   0.000000   0.000005   0.000018  -0.000076
    23  H    0.000000   0.000000   0.000056  -0.000078   0.005308
    24  H   -0.000000   0.000006   0.003556  -0.000167  -0.000042
    25  H    0.000000   0.000000   0.000000  -0.000054   0.004651
    26  H    0.000000  -0.000000  -0.000000  -0.000161  -0.000028
    27  H    0.000000   0.000000   0.000000  -0.003660  -0.003660
    28  H    0.000000  -0.000000  -0.000000  -0.000028  -0.000161
    29  H    0.000000   0.000000   0.000000   0.004651  -0.000054
    30  H    0.000000   0.000000   0.000005  -0.000076   0.000018
    31  H    0.000000   0.000000   0.000056   0.005308  -0.000078
    32  H   -0.000000   0.000006   0.003556  -0.000042  -0.000167
    33  H   -0.000000   0.000019  -0.000172   0.002297   0.002297
    34  H   -0.000008  -0.000171   0.000018   0.000003   0.000003
    35  H   -0.031500  -0.000002   0.000000   0.000000  -0.000000
    36  H   -0.031500  -0.000002   0.000000  -0.000000   0.000000
    37  H    0.550040  -0.000000   0.000000   0.000000   0.000000
    38  H   -0.000000   0.553615  -0.004633   0.000000   0.000000
    39  H    0.000000  -0.004633   0.589752   0.000002   0.000002
    40  H    0.000000   0.000000   0.000002   0.605154  -0.038915
    41  H    0.000000   0.000000   0.000002  -0.038915   0.605153
 Mulliken charges:
               1
     1  O   -0.457965
     2  C    0.453755
     3  C   -0.167335
     4  C   -0.289669
     5  C   -0.280476
     6  C   -0.097132
     7  C   -0.280476
     8  C   -0.167334
     9  C   -0.289669
    10  C   -0.003415
    11  C    0.175995
    12  C   -0.197895
    13  C   -0.168564
    14  C    0.058327
    15  C    0.589673
    16  O   -0.491663
    17  O   -0.468085
    18  C   -0.215895
    19  C   -0.161229
    20  C   -0.195110
    21  C   -0.294223
    22  H    0.145444
    23  H    0.145347
    24  H    0.149569
    25  H    0.139097
    26  H    0.145924
    27  H    0.127951
    28  H    0.145923
    29  H    0.139097
    30  H    0.145444
    31  H    0.145347
    32  H    0.149569
    33  H    0.133958
    34  H    0.154811
    35  H    0.171414
    36  H    0.171411
    37  H    0.162960
    38  H    0.163154
    39  H    0.136704
    40  H    0.137632
    41  H    0.137632
 Sum of Mulliken charges =  -0.00000
 Mulliken charges with hydrogens summed into heavy atoms:
               1
     1  O   -0.457965
     2  C    0.453755
     3  C   -0.021891
     4  C    0.005247
     5  C    0.004544
     6  C    0.030818
     7  C    0.004544
     8  C   -0.021890
     9  C    0.005247
    10  C   -0.003415
    11  C    0.175995
    12  C   -0.063937
    13  C   -0.013753
    14  C    0.058327
    15  C    0.589673
    16  O   -0.491663
    17  O   -0.468085
    18  C    0.289890
    19  C    0.001924
    20  C   -0.058407
    21  C   -0.018958
 APT charges:
               1
     1  O   -0.646549
     2  C    0.702067
     3  C   -0.046926
     4  C    0.072712
     5  C    0.111377
     6  C    0.120254
     7  C    0.111378
     8  C   -0.046927
     9  C    0.072713
    10  C    0.085902
    11  C    0.144401
    12  C   -0.143729
    13  C    0.053449
    14  C   -0.300166
    15  C    1.377855
    16  O   -0.779806
    17  O   -0.930542
    18  C    0.557168
    19  C    0.050981
    20  C   -0.138948
    21  C    0.050493
    22  H   -0.060563
    23  H   -0.035463
    24  H   -0.023092
    25  H   -0.042610
    26  H   -0.045669
    27  H   -0.076709
    28  H   -0.045670
    29  H   -0.042610
    30  H   -0.060563
    31  H   -0.035463
    32  H   -0.023093
    33  H    0.037054
    34  H    0.049064
    35  H   -0.034604
    36  H   -0.034607
    37  H   -0.016685
    38  H    0.062071
    39  H    0.027587
    40  H   -0.037766
    41  H   -0.037766
 Sum of APT charges =   0.00000
 APT charges with hydrogens summed into heavy atoms:
               1
     1  O   -0.646549
     2  C    0.702067
     3  C   -0.107489
     4  C    0.014157
     5  C    0.023098
     6  C    0.043545
     7  C    0.023098
     8  C   -0.107490
     9  C    0.014158
    10  C    0.085902
    11  C    0.144401
    12  C   -0.106675
    13  C    0.102512
    14  C   -0.300166
    15  C    1.377855
    16  O   -0.779806
    17  O   -0.930542
    18  C    0.471272
    19  C    0.113052
    20  C   -0.111361
    21  C   -0.025039
 Electronic spatial extent (au):  <R**2>=           8388.0801
 Charge=             -0.0000 electrons
 Dipole moment (field-independent basis, Debye):
    X=             -0.7273    Y=             -4.2554    Z=             -0.0000  Tot=              4.3171
 Quadrupole moment (field-independent basis, Debye-Ang):
   XX=           -129.1583   YY=           -127.0969   ZZ=           -120.8782
   XY=             -2.6176   XZ=             -0.0002   YZ=             -0.0002
 Traceless Quadrupole moment (field-independent basis, Debye-Ang):
   XX=             -3.4472   YY=             -1.3858   ZZ=              4.8329
   XY=             -2.6176   XZ=             -0.0002   YZ=             -0.0002
 Octapole moment (field-independent basis, Debye-Ang**2):
  XXX=           -186.9491  YYY=            -12.4490  ZZZ=              0.0010  XYY=            -23.1792
  XXY=           -130.8063  XXZ=              0.0016  XZZ=             -0.9560  YZZ=              3.4928
  YYZ=             -0.0001  XYZ=              0.0006
 Hexadecapole moment (field-independent basis, Debye-Ang**3):
 XXXX=          -8673.2178 YYYY=          -1090.9826 ZZZZ=           -568.7677 XXXY=            101.3773
 XXXZ=             -0.0257 YYYX=            -11.2333 YYYZ=             -0.0002 ZZZX=             -0.0022
 ZZZY=              0.0005 XXYY=          -1948.0173 XXZZ=          -1589.3827 YYZZ=           -278.2594
 XXYZ=             -0.0092 YYXZ=             -0.0022 ZZXY=              6.9186
 N-N= 1.658101693403D+03 E-N=-5.463140786979D+03  KE= 9.150379335884D+02
  Exact polarizability: 266.998   2.626 174.803  -0.000   0.000 125.897
 Approx polarizability: 333.644   6.054 309.120  -0.000   0.002 192.619
 Calling FoFJK, ICntrl=    100127 FMM=F ISym2X=0 I1Cent= 0 IOpClX= 0 NMat=1 NMatS=1 NMatT=0.
 Full mass-weighted force constant matrix:
 Low frequencies ---   -3.0244   -0.0006    0.0005    0.0008    4.4143    7.4104
 Low frequencies ---   30.8784   48.1170   67.3250
 Diagonal vibrational polarizability:
       31.7951672      13.5298135      25.8582884
 Harmonic frequencies (cm**-1), IR intensities (KM/Mole), Raman scattering
 activities (A**4/AMU), depolarization ratios for plane and unpolarized
 incident light, reduced masses (AMU), force constants (mDyne/A),
 and normal coordinates:
                      1                      2                      3
                      A                      A                      A
 Frequencies --     30.8274                48.1155                67.3240
 Red. masses --      4.8345                 5.0308                 8.3002
 Frc consts  --      0.0027                 0.0069                 0.0222
 IR Inten    --      0.1702                 0.3168                 1.4769
  Atom  AN      X      Y      Z        X      Y      Z        X      Y      Z
     1   8    -0.00   0.00   0.16     0.00  -0.00   0.00     0.44  -0.31  -0.00
     2   6    -0.00   0.00   0.09     0.00  -0.00   0.01     0.14  -0.08  -0.00
     3   6    -0.06  -0.04   0.05    -0.06   0.06   0.01     0.01   0.02  -0.00
     4   6    -0.06  -0.04  -0.02    -0.06   0.06  -0.07     0.01   0.11  -0.01
     5   6    -0.06  -0.04   0.02    -0.07   0.06   0.11    -0.07  -0.01   0.01
     6   6    -0.00   0.00  -0.03    -0.00  -0.00   0.11    -0.09   0.02   0.00
     7   6     0.06   0.04   0.02     0.07  -0.06   0.11    -0.07  -0.01  -0.01
     8   6     0.06   0.04   0.05     0.06  -0.06   0.01     0.01   0.02   0.00
     9   6     0.06   0.04  -0.02     0.06  -0.06  -0.07     0.01   0.11   0.01
    10   6    -0.00  -0.00  -0.07    -0.00   0.00  -0.07    -0.02   0.12   0.00
    11   6    -0.00  -0.00  -0.11    -0.00   0.00  -0.13    -0.03   0.13   0.00
    12   6    -0.00  -0.00  -0.03     0.00   0.00  -0.21     0.00   0.10  -0.00
    13   6    -0.00  -0.00  -0.01    -0.00   0.00  -0.18     0.00   0.06  -0.00
    14   6    -0.00  -0.00  -0.07    -0.00   0.00  -0.06    -0.04   0.04  -0.00
    15   6    -0.00  -0.00  -0.02    -0.00   0.00   0.08    -0.05  -0.05  -0.00
    16   8    -0.00   0.00  -0.15     0.00  -0.00   0.33    -0.13  -0.09  -0.00
    17   8     0.00   0.00   0.20    -0.00  -0.00  -0.08     0.03  -0.10   0.00
    18   6     0.00   0.00   0.29     0.00  -0.00   0.09     0.02  -0.22   0.00
    19   6     0.00  -0.00  -0.17    -0.00   0.00  -0.02    -0.07   0.07   0.00
    20   6     0.00  -0.00  -0.18    -0.00   0.00  -0.07    -0.06   0.11   0.00
    21   6     0.00  -0.00  -0.10    -0.00   0.00   0.02    -0.08   0.10   0.00
    22   1    -0.09  -0.08   0.08    -0.11   0.10   0.01     0.04  -0.00  -0.00
    23   1    -0.10  -0.07  -0.06    -0.11   0.10  -0.07    -0.02   0.15  -0.00
    24   1    -0.06  -0.04  -0.00    -0.06   0.06  -0.13     0.06   0.13  -0.03
    25   1    -0.10  -0.08  -0.02    -0.12   0.10   0.11    -0.11   0.01   0.00
    26   1    -0.06  -0.05   0.06    -0.07   0.05   0.17    -0.07  -0.06   0.03
    27   1     0.00   0.00  -0.06    -0.00  -0.00   0.17    -0.14   0.01   0.00
    28   1     0.06   0.05   0.06     0.07  -0.05   0.17    -0.07  -0.06  -0.03
    29   1     0.10   0.08  -0.02     0.12  -0.10   0.11    -0.11   0.01  -0.00
    30   1     0.09   0.08   0.08     0.11  -0.10   0.01     0.04  -0.00   0.00
    31   1     0.10   0.07  -0.06     0.11  -0.10  -0.07    -0.02   0.15   0.00
    32   1     0.06   0.04  -0.00     0.06  -0.06  -0.13     0.06   0.13   0.03
    33   1    -0.00  -0.00   0.02     0.00   0.00  -0.27     0.02   0.12  -0.00
    34   1    -0.00  -0.00   0.07     0.00   0.00  -0.22     0.03   0.04  -0.00
    35   1     0.07   0.15   0.23     0.09  -0.20   0.25    -0.03  -0.25   0.00
    36   1    -0.07  -0.15   0.23    -0.09   0.20   0.25    -0.03  -0.25  -0.00
    37   1     0.00   0.00   0.49     0.00  -0.00  -0.10     0.11  -0.25   0.00
    38   1     0.00  -0.00  -0.22    -0.00   0.00   0.06    -0.10   0.05   0.00
    39   1     0.00  -0.00  -0.24    -0.00   0.00  -0.04    -0.09   0.13   0.00
    40   1     0.03   0.03  -0.13     0.05  -0.04   0.02    -0.10   0.12   0.00
    41   1    -0.03  -0.03  -0.13    -0.05   0.04   0.02    -0.10   0.12  -0.00
                      4                      5                      6
                      A                      A                      A
 Frequencies --     70.2495               105.6882               115.1471
 Red. masses --      3.9847                 5.4975                 2.3035
 Frc consts  --      0.0116                 0.0362                 0.0180
 IR Inten    --      1.0521                 2.7218                 1.3275
  Atom  AN      X      Y      Z        X      Y      Z        X      Y      Z
     1   8     0.00  -0.00   0.06     0.25  -0.12   0.00    -0.00   0.00  -0.02
     2   6     0.00  -0.00   0.03     0.02   0.05   0.00    -0.00  -0.00  -0.00
     3   6    -0.02  -0.02   0.01    -0.05   0.10  -0.00     0.04  -0.01   0.01
     4   6    -0.02  -0.02  -0.02    -0.05   0.00  -0.01     0.04  -0.02   0.06
     5   6    -0.02  -0.02  -0.02     0.04   0.12   0.00     0.05  -0.01  -0.03
     6   6    -0.00   0.00  -0.04     0.09   0.09  -0.00    -0.00  -0.00  -0.01
     7   6     0.02   0.02  -0.02     0.04   0.12  -0.00    -0.05   0.01  -0.03
     8   6     0.02   0.02   0.01    -0.05   0.10   0.00    -0.04   0.01   0.01
     9   6     0.02   0.02  -0.02    -0.05   0.00   0.01    -0.04   0.02   0.06
    10   6    -0.00   0.00  -0.04    -0.01  -0.04   0.00    -0.00   0.00   0.07
    11   6    -0.00   0.00  -0.03    -0.02  -0.12   0.00    -0.00   0.00   0.06
    12   6    -0.00   0.00   0.21    -0.02  -0.12  -0.00     0.00   0.00   0.05
    13   6    -0.00   0.00   0.24    -0.03  -0.13  -0.00     0.00   0.00  -0.04
    14   6    -0.00   0.00   0.05    -0.03  -0.13  -0.00     0.00   0.00  -0.11
    15   6    -0.00  -0.00   0.06    -0.02  -0.03  -0.00     0.00  -0.00  -0.09
    16   8    -0.00  -0.00   0.18     0.09   0.02  -0.00    -0.00  -0.00  -0.00
    17   8    -0.00  -0.00  -0.09    -0.14   0.04  -0.00     0.00  -0.00  -0.13
    18   6    -0.00  -0.00  -0.13    -0.13   0.24   0.00     0.00  -0.00   0.17
    19   6    -0.00   0.00  -0.17    -0.03  -0.13  -0.00     0.00   0.00  -0.09
    20   6    -0.00   0.00  -0.21    -0.03  -0.12   0.00    -0.00   0.00  -0.00
    21   6    -0.00   0.00  -0.05     0.08  -0.01   0.00    -0.00   0.00   0.05
    22   1    -0.03  -0.04   0.02    -0.08   0.12   0.00     0.07  -0.02  -0.00
    23   1    -0.04  -0.03  -0.03    -0.01  -0.01  -0.00     0.07  -0.03   0.07
    24   1    -0.02  -0.02  -0.02    -0.11  -0.02  -0.02     0.03  -0.02   0.09
    25   1    -0.04  -0.04  -0.03     0.06   0.10   0.00     0.09  -0.02  -0.02
    26   1    -0.02  -0.02   0.00     0.04   0.19   0.01     0.05   0.00  -0.08
    27   1    -0.00   0.00  -0.05     0.15   0.11  -0.00    -0.00  -0.00  -0.03
    28   1     0.02   0.02   0.00     0.04   0.19  -0.01    -0.05  -0.00  -0.08
    29   1     0.04   0.04  -0.03     0.06   0.10  -0.00    -0.09   0.02  -0.02
    30   1     0.03   0.04   0.02    -0.08   0.12  -0.00    -0.07   0.02  -0.00
    31   1     0.04   0.03  -0.03    -0.01  -0.01   0.00    -0.07   0.03   0.07
    32   1     0.02   0.02  -0.02    -0.11  -0.02   0.02    -0.03   0.02   0.09
    33   1    -0.00   0.00   0.36    -0.01  -0.12  -0.00     0.00   0.00   0.10
    34   1    -0.00  -0.00   0.42    -0.02  -0.13  -0.00     0.00   0.00  -0.04
    35   1    -0.04  -0.16  -0.05    -0.05   0.29  -0.00     0.16  -0.37   0.45
    36   1     0.04   0.16  -0.05    -0.05   0.29   0.00    -0.16   0.37   0.45
    37   1    -0.00  -0.00  -0.33    -0.27   0.29  -0.00     0.00  -0.00  -0.17
    38   1    -0.00   0.00  -0.30    -0.03  -0.13   0.00    -0.00   0.00  -0.13
    39   1    -0.00   0.00  -0.38    -0.04  -0.12   0.00    -0.00   0.00   0.01
    40   1    -0.01   0.01  -0.06     0.11  -0.04   0.00    -0.03   0.00   0.06
    41   1     0.01  -0.01  -0.06     0.11  -0.04  -0.00     0.03  -0.00   0.06
                      7                      8                      9
                      A                      A                      A
 Frequencies --    137.4600               178.4601               188.4075
 Red. masses --      1.3631                 4.2460                 4.0612
 Frc consts  --      0.0152                 0.0797                 0.0849
 IR Inten    --      0.0341                 0.3248                 2.0190
  Atom  AN      X      Y      Z        X      Y      Z        X      Y      Z
     1   8     0.00  -0.00  -0.01    -0.06   0.08   0.00    -0.00   0.00  -0.02
     2   6    -0.00   0.00  -0.00     0.09  -0.03   0.00     0.00  -0.00   0.00
     3   6     0.02  -0.00   0.00     0.11  -0.05  -0.00     0.04  -0.01   0.02
     4   6     0.01  -0.01   0.03     0.10   0.09  -0.01     0.03  -0.03   0.10
     5   6     0.02  -0.00  -0.01    -0.01  -0.09  -0.00     0.09   0.01  -0.03
     6   6     0.00   0.00  -0.00    -0.06  -0.04  -0.00    -0.00  -0.00   0.01
     7   6    -0.02   0.00  -0.01    -0.01  -0.09   0.00    -0.09  -0.01  -0.03
     8   6    -0.02   0.00   0.00     0.11  -0.05   0.00    -0.04   0.01   0.02
     9   6    -0.01   0.01   0.03     0.10   0.09   0.01    -0.03   0.03   0.10
    10   6    -0.00  -0.00   0.03     0.04   0.12  -0.00     0.00   0.00   0.09
    11   6    -0.00  -0.00   0.02     0.02   0.09   0.00     0.00   0.00  -0.01
    12   6    -0.00  -0.00   0.01     0.08   0.04   0.00     0.00   0.00  -0.09
    13   6    -0.00  -0.00  -0.02     0.06  -0.07   0.00     0.00  -0.00  -0.15
    14   6    -0.00   0.00  -0.05    -0.03  -0.12   0.00    -0.00  -0.00  -0.11
    15   6     0.00   0.00  -0.02    -0.04  -0.11  -0.00    -0.00  -0.00   0.08
    16   8     0.00   0.00   0.08     0.02  -0.08   0.00     0.00  -0.00   0.08
    17   8    -0.00   0.00  -0.08    -0.14  -0.05  -0.00    -0.00  -0.00   0.25
    18   6     0.00  -0.00   0.03    -0.13   0.16   0.00    -0.00   0.00  -0.14
    19   6     0.00  -0.00  -0.05    -0.09  -0.07   0.00    -0.00  -0.00  -0.18
    20   6     0.00  -0.00  -0.02    -0.07   0.05   0.00    -0.00   0.00  -0.13
    21   6     0.00  -0.00   0.02    -0.04   0.09  -0.00    -0.00   0.00   0.10
    22   1     0.03  -0.01   0.00     0.14  -0.08  -0.00     0.07  -0.01   0.01
    23   1     0.03  -0.01   0.03     0.06   0.16   0.01     0.09  -0.08   0.10
    24   1     0.01  -0.01   0.04     0.20   0.13  -0.04     0.01  -0.04   0.16
    25   1     0.04  -0.01  -0.01    -0.06  -0.06  -0.00     0.20  -0.01  -0.00
    26   1     0.02   0.00  -0.03    -0.02  -0.18   0.01     0.10   0.05  -0.14
    27   1     0.00   0.00  -0.01    -0.15  -0.07  -0.00    -0.00  -0.00  -0.00
    28   1    -0.02  -0.00  -0.03    -0.02  -0.18  -0.01    -0.10  -0.05  -0.14
    29   1    -0.04   0.01  -0.01    -0.06  -0.06   0.00    -0.21   0.01  -0.00
    30   1    -0.03   0.01   0.00     0.14  -0.08   0.00    -0.07   0.01   0.01
    31   1    -0.03   0.01   0.03     0.06   0.16  -0.01    -0.09   0.08   0.10
    32   1    -0.01   0.01   0.04     0.20   0.13   0.04    -0.01   0.04   0.16
    33   1    -0.00  -0.00   0.04     0.13   0.07   0.00     0.00   0.00  -0.08
    34   1    -0.00  -0.00  -0.02     0.13  -0.13   0.00     0.00  -0.00  -0.16
    35   1     0.11   0.48  -0.22    -0.05   0.22  -0.00    -0.26  -0.09  -0.19
    36   1    -0.11  -0.48  -0.22    -0.05   0.22   0.00     0.26   0.09  -0.19
    37   1     0.00   0.00   0.61    -0.29   0.22   0.00    -0.00   0.00  -0.35
    38   1     0.00  -0.00  -0.07    -0.16  -0.10   0.00    -0.00  -0.00  -0.21
    39   1     0.00  -0.00  -0.02    -0.14   0.09   0.00    -0.00   0.00  -0.13
    40   1    -0.01  -0.00   0.03    -0.08   0.12   0.00    -0.04  -0.03   0.13
    41   1     0.01   0.00   0.03    -0.08   0.12  -0.00     0.04   0.03   0.13
                     10                     11                     12
                      A                      A                      A
 Frequencies --    207.3972               278.5047               279.7275
 Red. masses --      5.8732                 2.6591                 2.3228
 Frc consts  --      0.1488                 0.1215                 0.1071
 IR Inten    --      0.4546                 0.2356                 1.2291
  Atom  AN      X      Y      Z        X      Y      Z        X      Y      Z
     1   8    -0.03  -0.06   0.00     0.00   0.00  -0.10    -0.00   0.00   0.12
     2   6    -0.09  -0.01  -0.00     0.00   0.00  -0.04     0.00   0.00   0.04
     3   6    -0.11   0.02   0.01     0.05  -0.02  -0.01     0.03  -0.05  -0.00
     4   6    -0.10   0.08  -0.00     0.05   0.02   0.02     0.04   0.14  -0.09
     5   6    -0.18   0.00   0.02    -0.13  -0.07   0.07     0.01  -0.06  -0.04
     6   6    -0.15   0.01  -0.00     0.00  -0.00  -0.02     0.00  -0.00  -0.05
     7   6    -0.18   0.00  -0.02     0.13   0.07   0.07    -0.01   0.06  -0.04
     8   6    -0.11   0.02  -0.01    -0.05   0.02  -0.01    -0.03   0.05  -0.00
     9   6    -0.10   0.08   0.00    -0.05  -0.02   0.02    -0.04  -0.14  -0.09
    10   6    -0.05   0.06  -0.00    -0.00   0.00   0.05    -0.00   0.00   0.01
    11   6     0.01   0.01   0.00    -0.00  -0.00   0.11    -0.00  -0.00   0.04
    12   6     0.10  -0.04   0.00    -0.00  -0.00   0.07    -0.00  -0.00   0.03
    13   6     0.11  -0.09   0.00    -0.00  -0.00  -0.06    -0.00  -0.00  -0.03
    14   6     0.14  -0.09   0.00    -0.00  -0.00  -0.12    -0.00  -0.00  -0.05
    15   6     0.19  -0.06   0.00    -0.00   0.00  -0.02    -0.00   0.00  -0.01
    16   8     0.25  -0.03  -0.00     0.00   0.00   0.04     0.00   0.00   0.02
    17   8     0.15  -0.03   0.00     0.00   0.00   0.07     0.00   0.00   0.03
    18   6     0.16   0.09  -0.00    -0.00  -0.00  -0.02    -0.00  -0.00  -0.01
    19   6     0.06  -0.04   0.00    -0.00  -0.00  -0.07    -0.00  -0.00  -0.02
    20   6     0.04   0.01   0.00    -0.00  -0.00   0.06    -0.00  -0.00   0.03
    21   6    -0.12   0.05  -0.00     0.00   0.00  -0.12    -0.00   0.00   0.11
    22   1    -0.08   0.01   0.00     0.08  -0.02  -0.02     0.04  -0.09   0.02
    23   1    -0.14   0.11  -0.00     0.07   0.06   0.05    -0.10   0.38  -0.02
    24   1    -0.07   0.09  -0.05     0.06   0.03  -0.01     0.21   0.20  -0.31
    25   1    -0.25   0.01  -0.00    -0.38  -0.01   0.00     0.00  -0.09  -0.06
    26   1    -0.19  -0.05   0.08    -0.14  -0.24   0.28     0.01  -0.05  -0.03
    27   1    -0.16   0.01  -0.00     0.00  -0.00  -0.06     0.00  -0.00  -0.12
    28   1    -0.19  -0.05  -0.08     0.14   0.24   0.28    -0.01   0.05  -0.03
    29   1    -0.25   0.01   0.00     0.38   0.01   0.00    -0.00   0.09  -0.06
    30   1    -0.08   0.01  -0.00    -0.08   0.02  -0.02    -0.04   0.09   0.02
    31   1    -0.14   0.11   0.00    -0.07  -0.06   0.05     0.10  -0.38  -0.02
    32   1    -0.07   0.09   0.05    -0.06  -0.03  -0.01    -0.21  -0.20  -0.31
    33   1     0.15  -0.02   0.00    -0.00  -0.00   0.11    -0.00  -0.00   0.05
[...]
 1100,-0.00000001,-0.00000021,0.00017787,-0.00000007,0.00000040,0.00022
 779,0.00000088,0.00000010,0.00077812,-0.00000031,-0.00000433,0.0002938
 9,0.00000028,-0.00001467,-0.05580520,-0.00000530,0.,0.00002631,0.00000
 007,-0.00000002,-0.00003933,0.,0.,0.00000489,0.,0.00000052,-0.00000030
 ,0.00000005,-0.00000061,-0.00000157,-0.00000017,-0.00000008,-0.0000002
 1,-0.00000007,-0.00000055,-0.00000111,-0.00000011,0.00000009,-0.000000
 20,0.00000004,0.,0.00000031,0.,-0.00000009,-0.00000020,-0.00000004,0.0
 0000055,-0.00000111,0.00000011,-0.00000052,-0.00000030,-0.00000005,0.0
 0000061,-0.00000157,0.00000017,0.00000008,-0.00000021,0.00000007,0.,0.
 00000398,0.,0.,0.00005481,0.,0.02634918,0.00267603,0.00709887,-0.02634
 861,0.00267230,-0.00709869,0.00001816,0.04895127,0.00000775,0.,0.00000
 112,-0.00000919,0.,-0.00000163,0.00000087,-0.00000292,0.00000169,0.000
 00251,0.00000886,-0.00000861,0.00000230,0.00000200,0.00000024,-0.00000
 396,0.,0.00000092,0.00000230,-0.00000200,0.00000024,0.00000087,0.00000
 292,0.00000169,0.00000251,-0.00000886,-0.00000861,-0.00000467,0.,0.000
 01103,0.00000503,0.,0.00004493,-0.00004911,0.,-0.00002484,0.00008083,-
 0.00000001,0.00012667,0.00157378,0.00000011,0.00074186,-0.00068106,0.0
 0000038,-0.00830856,-0.00132350,-0.00000036,0.00335502,0.04340463,0.00
 000381,0.00058732,-0.09178438,-0.00000641,-0.07494937,-0.00001056,-0.0
 0000001,-0.00051913,0.00015400,-0.00000001,0.00001694,0.00001196,0.,-0
 .00000212,0.00000226,-0.00000032,-0.00000299,-0.00000148,-0.00000013,-
 0.00000032,-0.00000400,0.00000245,-0.00000039,-0.00000074,-0.00000050,
 0.00000038,0.00000021,-0.00000020,-0.00000166,0.00000051,0.,-0.0000036
 7,0.00000021,0.00000020,-0.00000166,-0.00000074,0.00000050,0.00000038,
 0.00000226,0.00000032,-0.00000299,-0.00000148,0.00000013,-0.00000032,-
 0.00000400,-0.00000245,-0.00000039,0.00000428,0.,-0.00001741,-0.000026
 91,0.00000002,-0.00007045,-0.01516577,-0.00250348,-0.00293230,-0.01516
 904,0.00250169,-0.00293285,0.07893209,0.00000428,0.08492736,-0.0000259
 3,0.,-0.00001440,0.00003822,0.,0.00000648,-0.00001932,0.00000047,-0.00
 000516,0.00007964,-0.00004419,-0.00001324,0.00001340,-0.00000927,-0.00
 000394,0.00008492,0.,0.00005368,0.00001340,0.00000927,-0.00000394,-0.0
 0001932,-0.00000047,-0.00000516,0.00007963,0.00004419,-0.00001323,0.00
 064279,-0.00000002,0.00058454,-0.00158351,0.00000009,0.00311244,-0.000
 62526,0.,0.00069032,-0.00596673,0.00000014,0.00173506,-0.01045839,0.00
 000038,-0.02915720,-0.00190229,0.00000014,-0.00479529,0.00226327,-0.00
 000019,0.00202510,0.00153113,0.00000009,0.00065663,-0.00016201,-0.0000
 0002,0.00022332,-0.12446028,0.00000227,-0.11853618,0.01215319,-0.00000
 023,0.01651027,-0.00022285,0.,0.00015793,-0.00000510,0.00000278,0.0000
 0480,-0.00001086,0.00000561,-0.00000613,-0.00003375,0.00002322,-0.0000
 1222,-0.00000136,0.00000090,-0.00000048,-0.00000384,0.00000292,-0.0000
 0306,-0.00002139,0.,0.00003163,-0.00000384,-0.00000292,-0.00000306,-0.
 00000136,-0.00000090,-0.00000048,-0.00000510,-0.00000278,0.00000480,-0
 .00001086,-0.00000561,-0.00000613,-0.00003374,-0.00002322,-0.00001222,
 0.00009392,-0.00000002,-0.00004871,-0.00059762,0.00000004,-0.00164503,
 -0.00004599,-0.00002909,-0.00001535,-0.00004599,0.00002909,-0.00001535
 ,0.00005513,0.,0.00001715,0.12817669,0.,-0.00001254,0.,0.,0.00001696,0
 .,-0.00002489,-0.00002262,0.00001088,0.00016369,-0.00006477,-0.0000831
 5,0.00001564,-0.00000126,-0.00001176,0.,-0.00003618,0.,-0.00001564,-0.
 00000126,0.00001176,0.00002489,-0.00002262,-0.00001088,-0.00016369,-0.
 00006477,0.00008315,-0.00000002,0.00008842,0.,0.,0.00787146,-0.0000000
 4,0.00000007,-0.00028186,-0.00000009,0.00000017,0.00543067,0.00000012,
 -0.00000036,0.00395889,0.00000046,0.00000015,-0.00376370,-0.00000028,-
 0.00000002,-0.00039357,0.00000010,-0.00000005,0.00012840,0.00000005,-0
 .00000003,0.00015124,0.,0.00000283,-0.03895255,0.00000382,-0.00000008,
 0.00347302,0.00000010,0.,-0.00012986,0.,0.00000548,-0.00000172,-0.0000
 0721,-0.00001003,-0.00001716,-0.00001660,-0.00000921,0.00000500,-0.000
 05785,-0.00000172,-0.00000184,-0.00000058,-0.00000009,-0.00000166,-0.0
 0000132,0.,-0.00000165,0.,0.00000009,-0.00000166,0.00000132,0.00000172
 ,-0.00000184,0.00000058,-0.00000548,-0.00000172,0.00000721,0.00001003,
 -0.00001716,0.00001660,0.00000921,0.00000500,0.00005785,0.,-0.00110056
 ,-0.00000002,0.00000002,0.00073940,0.00000001,0.00001018,0.00000008,-0
 .00001080,-0.00001018,0.00000008,0.00001080,0.,0.00000925,0.,-0.000002
 61,0.02731544,0.00006322,0.,0.00001822,-0.00008647,0.,-0.00000719,0.00
 003359,-0.00002471,0.00001757,-0.00007622,0.00009788,-0.00003829,-0.00
 001198,0.00002233,0.00000452,-0.00014941,0.,-0.00005532,-0.00001198,-0
 .00002233,0.00000452,0.00003359,0.00002471,0.00001757,-0.00007622,-0.0
 0009789,-0.00003830,-0.00105511,0.00000003,-0.00049513,0.00368671,0.00
 000006,-0.00215771,0.00085764,-0.00000002,0.00023788,0.00068831,0.0000
 0007,0.00110331,-0.00120791,0.00000009,0.00340883,0.00088443,0.0000001
 0,-0.00064371,0.00169841,-0.00000005,-0.00087282,-0.00095296,-0.000000
 07,0.00002963,0.00007657,0.,-0.00017076,-0.12050029,0.00000376,-0.2800
 9482,-0.01350532,0.00000033,-0.01751875,0.00038316,0.,-0.00019340,0.00
 001883,-0.00000498,-0.00001888,0.00000200,-0.00001265,-0.00000320,0.00
 003704,-0.00001566,0.00001662,-0.00000133,-0.00000131,0.00000229,0.000
 00987,-0.00000624,-0.00000163,0.00003581,0.,-0.00005149,0.00000987,0.0
 0000624,-0.00000163,-0.00000133,0.00000131,0.00000229,0.00001883,0.000
 00498,-0.00001888,0.00000200,0.00001264,-0.00000320,0.00003704,0.00001
 566,0.00001662,-0.00004938,-0.00000001,-0.00006621,0.00019524,-0.00000
 002,0.00023994,0.00000931,0.00000871,0.00003301,0.00000932,-0.00000871
 ,0.00003301,-0.00002599,0.,0.00001560,0.12886623,-0.00000421,0.2962108
 1,-0.00007933,0.,-0.00002309,0.00010439,0.00000002,0.00005610,0.000330
 71,-0.00016750,0.00013297,-0.00056922,0.00041573,0.00001925,-0.0001108
 3,-0.00000667,0.00006519,-0.00015009,0.,0.00000495,-0.00011082,0.00000
 667,0.00006518,0.00033068,0.00016748,0.00013295,-0.00056915,-0.0004156
 9,0.00001915,-0.00088886,-0.00000002,0.00115756,-0.01192902,0.00000018
 ,-0.00002142,0.00053955,0.00000009,-0.00304768,0.00069647,0.,-0.000004
 82,0.00071388,0.00000011,0.00342300,-0.00017263,0.00000006,-0.00124867
 ,0.00001008,-0.00000004,0.00045039,-0.00053742,-0.00000006,0.00050956,
 0.00007353,0.00000001,-0.00021231,-0.01371110,0.00000022,-0.00228801,-
 0.33624130,0.00000356,-0.01312303,0.00027840,0.,-0.00029601,0.00002941
 ,0.00000972,-0.00003856,0.00006781,0.00007090,0.00009433,0.00065546,0.
 00016590,0.00098830,-0.00000110,0.00000706,-0.00000830,0.00004251,-0.0
 0002823,0.00005216,0.00004724,0.,-0.00003871,0.00004250,0.00002823,0.0
 0005215,-0.00000110,-0.00000706,-0.00000830,0.00002941,-0.00000972,-0.
 00003856,0.00006781,-0.00007090,0.00009434,0.00065539,-0.00016586,0.00
 098818,-0.00068830,0.,0.00021507,-0.00008079,-0.00000001,0.00001350,-0
 .00001130,-0.00000436,0.00003527,-0.00001129,0.00000435,0.00003527,-0.
 00003978,0.,0.00003353,0.00103387,-0.00000007,0.00008190,0.36011380,0.
 ,-0.00013763,0.,0.,0.00034880,0.,0.00032579,-0.00014334,0.00025495,-0.
 00034279,0.00009712,-0.00067836,-0.00012339,0.00000569,0.00008746,0.,0
 .00006057,0.,0.00012339,0.00000569,-0.00008747,-0.00032581,-0.00014335
 ,-0.00025496,0.00034281,0.00009713,0.00067836,-0.00000002,-0.00314477,
 -0.00000004,0.00000052,0.00277300,-0.00000002,0.00000006,0.00606314,0.
 00000012,-0.00000002,-0.00032132,0.,0.00000011,0.00767719,0.00000016,-
 0.00000003,0.00055647,-0.00000006,0.,0.00002109,0.00000003,-0.00000001
 ,-0.00018643,0.,0.00000001,-0.00007465,-0.00000002,-0.00000013,0.00270
 118,0.,0.00000365,-0.03589031,0.00000056,0.,-0.00030422,0.,0.00002835,
 -0.00000849,-0.00005153,-0.00001238,0.00000910,-0.00006317,0.00073619,
 -0.00047276,-0.00088036,-0.00000610,-0.00001298,-0.00001203,0.00003332
 ,-0.00000482,0.00005164,0.,-0.00002236,0.,-0.00003332,-0.00000482,-0.0
 0005164,0.00000610,-0.00001298,0.00001203,-0.00002835,-0.00000849,0.00
 005154,0.00001237,0.00000911,0.00006315,-0.00073618,-0.00047277,0.0008
 8023,0.00000003,0.00048606,0.,0.,-0.00119817,-0.00000001,-0.00001144,0
 .00000084,0.00001241,0.00001144,0.00000084,-0.00001240,0.,0.00000036,0
 .,-0.00000006,-0.00429822,-0.00000007,-0.00000410,0.02596544,-0.000132
 88,0.,0.00001049,0.00017153,0.00000001,-0.00006635,0.00025457,-0.00005
 025,0.00008126,-0.00016055,-0.00018154,-0.00088967,-0.00010604,0.00000
 251,0.00002623,0.00002982,0.,0.00005308,-0.00010603,-0.00000251,0.0000
 2622,0.00025455,0.00005024,0.00008125,-0.00016054,0.00018152,-0.000889
 55,-0.00025482,-0.00000005,0.00107139,-0.02843962,0.00000031,0.0043420
 8,-0.00186563,0.00000016,-0.00519202,-0.00001466,0.00000001,-0.0012309
 3,0.00196627,-0.00000002,-0.00448150,0.00110649,-0.00000008,0.00101326
 ,-0.00016104,0.00000004,-0.00021191,0.00044373,0.00000006,-0.00056189,
 0.00007107,0.,0.00010634,0.02978715,-0.00000037,0.00461818,-0.01382606
 ,0.00000059,-0.06060190,-0.00000872,-0.00000001,0.00001759,-0.00001267
 ,0.00001328,0.00000577,0.00004626,0.00009380,0.00018668,0.00063061,-0.
 00100786,-0.00082703,0.00001125,0.00000900,-0.00000388,0.00002989,-0.0
 0001627,0.00005632,0.00000745,0.,0.00002971,0.00002989,0.00001627,0.00
 005632,0.00001125,-0.00000900,-0.00000388,-0.00001267,-0.00001328,0.00
 000577,0.00004626,-0.00009380,0.00018668,0.00063053,0.00100776,-0.0008
 2681,-0.00162664,0.00000002,0.00011716,0.00003345,-0.00000002,0.000120
 81,0.00000790,0.00000513,-0.00001679,0.00000790,-0.00000513,-0.0000167
 9,0.00003352,0.,-0.00004504,-0.00036007,-0.00000003,0.00103171,0.01153
 201,-0.00000048,0.06243351,-0.00002378,-0.00038553,-0.00000441,0.00023
 819,0.00098940,0.00000513,0.00043775,-0.00040292,-0.00007714,-0.001428
 00,-0.00160375,-0.00369914,-0.00102313,-0.00161627,0.00383633,-0.01219
 210,0.01547573,0.00045034,0.00027353,0.00141294,-0.00075917,-0.0001141
 1,-0.00050388,-0.00003079,0.00033277,0.00153032,0.00066723,-0.01225465
 ,0.01544509,-0.00088007,0.00004599,-0.00016571,0.00091199,-0.00014546,
 -0.00062115,0.00047001,0.00018140,-0.00001674,-0.00003916,0.00012050,0
 .00005403,0.00001747,-0.00001270,0.00001308,0.00002714,-0.00000012,-0.
 00001010,0.00000067,0.00002255,-0.00000501,-0.00000235,-0.00000236,0.0
 0000354,0.00000173,-0.00010909,0.00001041,0.00011636,-0.00003598,-0.00
 019328,-0.00029767,-0.13670091,0.11880114,-0.00199152,-0.00001247,-0.0
 0001985,0.00003344,0.00011889,0.00021818,0.00002619,-0.00060888,0.0011
 3336,0.00003894,0.00011916,0.00023003,-0.00002728,-0.00058416,0.001066
 33,-0.00003557,0.00088448,-0.00036290,-0.00006118,0.00041888,-0.000198
 93,0.00001104,-0.00007187,-0.00096313,0.00021229,-0.00005786,-0.000040
 86,0.00001293,-0.00005592,-0.00094373,-0.00023913,0.00038054,-0.000244
 56,-0.00002201,-0.00002350,-0.00044825,0.00103053,0.00001421,-0.000022
 48,-0.00001885,0.00000076,-0.00000123,-0.00000009,0.00000014,-0.000000
 23,-0.00000200,0.00000128,0.00000061,-0.00000062,0.00000375,0.00002410
 ,-0.00001351,0.00002026,0.00004352,0.00005264,0.14961539,0.00019814,0.
 00015760,-0.00000386,-0.00027907,-0.00039437,0.00000946,-0.00013355,0.
 00012840,0.00001841,-0.00013355,0.00096809,0.00078372,-0.00043061,0.00
 106162,-0.00065596,-0.00071483,-0.00052500,-0.00040583,-0.00065964,0.0
 0060418,0.00032785,0.00012331,0.00000987,-0.00001124,-0.00070550,0.000
 55488,-0.00023294,-0.00056580,-0.00081202,0.00042150,0.00048699,0.0001
 4272,-0.00042031,0.00104834,0.00058628,0.00051274,-0.00045533,0.000052
 52,-0.00029524,0.00002979,-0.00007747,-0.00007158,-0.00006433,-0.00002
 227,0.00006218,0.00000338,0.00001475,-0.00010273,0.00002348,0.00000891
 ,-0.00005086,-0.00002332,-0.00000485,0.00003533,0.00004255,-0.00000458
 ,-0.00009603,-0.00018157,0.00000035,0.00027371,0.11887363,-0.21705373,
 0.00186278,0.00003829,-0.00003980,-0.00000017,-0.00012921,0.00043576,-
 0.00014683,0.00039697,0.00011904,-0.00009324,-0.00012472,0.00043064,0.
 00012934,0.00036447,0.00010688,0.00009963,-0.00002023,0.00011370,-0.00
 052860,-0.00002872,0.00020795,-0.00010647,0.00018660,0.00052254,0.0000
 7633,0.00000253,0.00002183,0.00000999,0.00015078,0.00050642,-0.0001166
 8,0.00001109,0.00020795,0.00011012,-0.00077624,-0.00043996,-0.00009824
 ,-0.00001162,0.00003060,0.00004521,0.00000024,0.00000289,-0.00000796,0
 .00000152,-0.00000074,-0.00000464,0.00000205,-0.00000159,0.00000055,-0
 .00001742,-0.00000027,0.00001228,-0.00007751,-0.00000798,-0.00008062,-
 0.13206636,0.23351121,-0.00002171,0.00002267,-0.00002057,0.00002956,-0
 .00006104,-0.00005712,0.00006219,-0.00007305,-0.00043567,-0.00298331,-
 0.00101168,-0.00523993,0.00318723,0.00138331,-0.00506319,0.01743479,-0
 .02344422,-0.00032058,-0.00060072,-0.00102312,0.00101615,-0.00003026,0
 .00001243,-0.00024531,0.00070032,0.00112984,0.00093119,-0.01629572,0.0
 2292678,-0.00022857,-0.00029867,0.00035913,0.00147956,0.00029929,0.000
 14004,-0.00040794,0.00020326,-0.00007948,-0.00027992,0.00019449,-0.000
 02480,0.00020097,0.00011563,0.00001942,-0.00010120,-0.00001829,-0.0000
 0829,0.00008469,-0.00006529,-0.00000611,0.00003710,0.00002700,0.000002
 01,-0.00003054,-0.00015789,-0.00000750,0.00019999,-0.00012062,-0.00026
 781,-0.00023028,-0.00195065,0.00069574,-0.04742940,0.00002118,-0.00000
 012,0.00027449,0.00019847,-0.00023768,-0.00001022,-0.00142679,0.001470
 46,0.00016736,-0.00025439,0.00031431,-0.00000640,0.00140179,-0.0014215
 0,0.00007102,-0.00078142,-0.00023303,0.00097471,-0.00042239,-0.0000301
 1,-0.00006975,-0.00005627,0.00072498,0.00004345,-0.00000446,0.00000313
 ,0.00008514,0.00005389,-0.00068030,0.00008660,0.00034602,-0.00003659,-
 0.00006454,0.00086821,0.00091677,-0.00113417,0.00000357,0.00003939,-0.
 00001797,-0.00000138,-0.00000112,0.00000659,-0.00000149,0.00000024,0.0
 0000502,-0.00000488,0.00000037,0.00000097,-0.00000217,0.00003077,0.000
 00369,0.00007261,0.00006883,0.00009407,-0.00011705,-0.00143710,0.05609
 679,-0.00002378,0.00038553,-0.00000441,0.00023819,-0.00098940,0.000005
 13,-0.00011411,0.00050388,-0.00003079,0.00033277,-0.00153032,0.0006672
 5,0.00027352,-0.00141294,-0.00075917,-0.01219210,-0.01547574,0.0004503
 7,-0.00102313,0.00161626,0.00383634,0.00043775,0.00040292,-0.00007714,
 -0.00142800,0.00160374,-0.00369913,-0.01225465,-0.01544508,-0.00088007
 ,0.00004603,0.00016573,0.00091202,-0.00014541,0.00062112,0.00046996,0.
 00018138,0.00001674,-0.00003917,0.00012051,-0.00005403,0.00001746,-0.0
 0001270,-0.00001308,0.00002714,-0.00000012,0.00001011,0.00000067,0.000
 02255,0.00000502,-0.00000235,-0.00000236,-0.00000354,0.00000173,-0.000
 10910,-0.00001041,0.00011636,-0.00003598,0.00019330,-0.00029768,-0.136
 70050,-0.11880082,-0.00199149,-0.00005786,0.00004086,0.00001293,-0.000
 05591,0.00094371,-0.00023913,0.00038054,0.00024456,-0.00002201,-0.0000
 7189,0.00096314,0.00021230,0.00041888,0.00019893,0.00001104,0.00088448
 ,0.00036290,-0.00006118,-0.00058416,-0.00106633,-0.00003557,0.00011916
 ,-0.00023003,-0.00002728,-0.00001247,0.00001985,0.00003344,0.00011889,
 -0.00021818,0.00002619,-0.00060888,-0.00113336,0.00003893,-0.00002348,
 0.00044823,0.00103042,0.00001421,0.00002248,-0.00001885,0.00000014,0.0
 0000023,-0.00000200,0.00000076,0.00000123,-0.00000009,0.00000128,-0.00
 000061,-0.00000062,0.00000375,-0.00002410,-0.00001351,0.00002026,-0.00
 004352,0.00005263,0.01222664,0.01561500,0.00039631,0.14961491,-0.00019
 814,0.00015760,0.00000386,0.00027907,-0.00039437,-0.00000946,-0.000123
 31,0.00000987,0.00001124,0.00070550,0.00055488,0.00023294,0.00065964,0
 .00060418,-0.00032785,0.00071482,-0.00052501,0.00040583,0.00043061,0.0
 0106162,0.00065596,0.00013355,0.00012840,-0.00001841,0.00013355,0.0009
 6809,-0.00078372,0.00056579,-0.00081203,-0.00042149,-0.00048698,0.0001
 4272,0.00042031,-0.00104827,0.00058631,-0.00051273,0.00045532,0.000052
 51,0.00029521,-0.00002977,-0.00007746,0.00007158,0.00006433,-0.0000222
 6,-0.00006218,-0.00000338,0.00001473,0.00010273,-0.00002348,0.00000890
 ,0.00005086,0.00002332,-0.00000484,-0.00003533,-0.00004256,-0.00000458
 ,0.00009603,0.00018157,0.00000035,-0.00027372,-0.11887333,-0.21705382,
 -0.00186277,-0.00000253,0.00002183,-0.00000999,-0.00015077,0.00050642,
 0.00011668,-0.00001109,0.00020795,-0.00011012,-0.00018660,0.00052254,-
 0.00007633,0.00002872,0.00020795,0.00010647,0.00002023,0.00011370,0.00
 052860,-0.00036447,0.00010689,-0.00009963,0.00012472,0.00043065,-0.000
 12934,-0.00003829,-0.00003980,0.00000017,0.00012921,0.00043576,0.00014
 683,-0.00039697,0.00011904,0.00009324,0.00077618,-0.00044001,0.0000982
 5,0.00001162,0.00003059,-0.00004521,-0.00000152,-0.00000074,0.00000464
 ,-0.00000024,0.00000289,0.00000796,-0.00000205,-0.00000159,-0.00000055
 ,0.00001742,-0.00000027,-0.00001228,0.00007751,-0.00000798,0.00008061,
 -0.01561495,-0.02112297,-0.00017599,0.13206604,0.23351135,-0.00002171,
 -0.00002267,-0.00002057,0.00002956,0.00006104,-0.00005712,-0.00003026,
 -0.00001243,-0.00024531,0.00070031,-0.00112984,0.00093118,-0.00060072,
 0.00102312,0.00101615,0.01743478,0.02344423,-0.00032059,0.00318724,-0.
 00138330,-0.00506319,0.00006219,0.00007305,-0.00043567,-0.00298332,0.0
 0101168,-0.00523993,-0.01629568,-0.02292677,-0.00022863,-0.00029872,-0
 .00035917,0.00147956,0.00029927,-0.00014003,-0.00040787,0.00020326,0.0
 0007948,-0.00027993,0.00019449,0.00002480,0.00020097,0.00011563,-0.000
 01941,-0.00010119,-0.00001828,0.00000828,0.00008469,-0.00006529,0.0000
 0610,0.00003710,0.00002700,-0.00000201,-0.00003054,-0.00015790,0.00000
 750,0.00019999,-0.00012061,0.00026782,-0.00023029,-0.00195062,-0.00069
 576,-0.04742946,-0.00000446,-0.00000313,0.00008514,0.00005390,0.000680
 30,0.00008659,0.00034602,0.00003659,-0.00006454,-0.00005626,-0.0007249
 8,0.00004344,-0.00042239,0.00003011,-0.00006975,-0.00078142,0.00023303
 ,0.00097471,0.00140179,0.00142150,0.00007102,-0.00025439,-0.00031431,-
 0.00000640,0.00002118,0.00000012,0.00027449,0.00019847,0.00023768,-0.0
 0001022,-0.00142679,-0.00147046,0.00016736,0.00086811,-0.00091674,-0.0
 0113407,0.00000357,-0.00003939,-0.00001797,-0.00000149,-0.00000024,0.0
 0000502,-0.00000138,0.00000112,0.00000659,-0.00000488,-0.00000037,0.00
 000097,-0.00000217,-0.00003077,0.00000369,0.00007261,-0.00006883,0.000
 09406,0.00039632,0.00017599,-0.00046630,-0.00011696,0.00143709,0.05609
 680\\0.00006677,-0.00000002,0.00010114,-0.00020621,0.00000003,-0.00015
 653,0.00003022,-0.00005207,-0.00002246,0.00000313,-0.00000570,0.000066
 36,0.00002620,-0.00000706,0.00001237,-0.00001165,0.00000010,0.00003150
 ,0.00002607,0.00000660,0.00001277,0.00003043,0.00005199,-0.00002257,0.
 00000285,0.00000577,0.00006579,-0.00002255,-0.00000003,-0.00000867,0.0
 0007431,0.00000046,0.00002608,-0.00004304,0.00000016,0.00002230,-0.000
 01961,-0.00000071,-0.00007399,0.00004420,-0.00000675,0.00000010,0.0001
 1357,0.00002486,-0.00006976,-0.00006264,-0.00000972,0.00007069,-0.0000
 8408,-0.00000725,0.00009456,0.00001050,-0.00000034,-0.00007518,-0.0000
 2544,-0.00000063,-0.00001056,0.00000308,0.00000005,-0.00004271,-0.0000
 1232,0.00000027,-0.00001438,-0.00001022,0.00000396,-0.00000414,0.00000
 381,0.00002510,-0.00000453,-0.00000693,0.00002300,0.00000226,-0.000002
 20,0.00002105,-0.00000208,-0.00000146,0.00001755,0.00000274,0.00002105
 ,-0.00000001,-0.00001712,-0.00000142,-0.00001757,0.00000279,-0.0000024
 3,-0.00002079,-0.00000216,-0.00001020,-0.00000396,-0.00000411,0.000003
 75,-0.00002511,-0.00000450,-0.00000665,-0.00002298,0.00000226,-0.00000
 259,0.00000012,0.00002311,0.00002595,-0.00000014,-0.00000502,-0.000014
 59,-0.00001109,0.00002150,-0.00001391,0.00001128,0.00002109,0.00001580
 ,-0.00000023,0.00002973,0.00000599,-0.00000007,-0.00001465,0.00002789,
 0.,-0.00000794,0.00001226,-0.00000849,-0.00002299,0.00001232,0.0000083
 6,-0.00002312\\\@


 WHEN IT COMES TO CASH FLOW, IT SEEMS LIKE THE TIDE IS ALWAYS GOING OUT.
 Job cpu time:       0 days  0 hours  8 minutes 26.5 seconds.
 Elapsed time:       0 days  0 hours  9 minutes 27.6 seconds.
 File lengths (MBytes):  RWF=    597 Int=      0 D2E=      0 Chk=     16 Scr=      1
 Normal termination of Gaussian 16 at Fri Feb 23 20:15:15 2024.
