 Entering Gaussian System, Link 0=g16
 Input=/Volumes/SSD-PMU3/b3lyp_6-31gd_freq/FNBBKOKXZRHUDS-OOJXKGFFSA-N_calculating/gaussianinput0.gjf
 Output=/Volumes/SSD-PMU3/b3lyp_6-31gd_freq/FNBBKOKXZRHUDS-OOJXKGFFSA-N_calculating/gaussianinput0.log
 Initial command:
 /Applications/g16/l1.exe "/Users/macmini_m1_2022/PycharmProjects/sphere_model/sphere_model_lib/Gau-52608.inp" -scrdir="/Users/macmini_m1_2022/PycharmProjects/sphere_model/sphere_model_lib/"
 Entering Link 1 = /Applications/g16/l1.exe PID=     52609.
  
 Copyright (c) 1988,1990,1992,1993,1995,1998,2003,2009,2016,
            Gaussian, Inc.  All Rights Reserved.
  
 This is part of the Gaussian(R) 16 program.  It is based on
 the Gaussian(R) 09 system (copyright 2009, Gaussian, Inc.),
 the Gaussian(R) 03 system (copyright 2003, Gaussian, Inc.),
 the Gaussian(R) 98 system (copyright 1998, Gaussian, Inc.),
 the Gaussian(R) 94 system (copyright 1995, Gaussian, Inc.),
 the Gaussian 92(TM) system (copyright 1992, Gaussian, Inc.),
 the Gaussian 90(TM) system (copyright 1990, Gaussian, Inc.),
 the Gaussian 88(TM) system (copyright 1988, Gaussian, Inc.),
 the Gaussian 86(TM) system (copyright 1986, Carnegie Mellon
 University), and the Gaussian 82(TM) system (copyright 1983,
 Carnegie Mellon University). Gaussian is a federally registered
 trademark of Gaussian, Inc.
  
 This software contains proprietary and confidential information,
 including trade secrets, belonging to Gaussian, Inc.
  
 This software is provided under written license and may be
 used, copied, transmitted, or stored only in accord with that
 written license.
  
 The following legend is applicable only to US Government
 contracts under FAR:
  
                    RESTRICTED RIGHTS LEGEND
  
 Use, reproduction and disclosure by the US Government is
 subject to restrictions as set forth in subparagraphs (a)
 and (c) of the Commercial Computer Software - Restricted
 Rights clause in FAR 52.227-19.
  
 Gaussian, Inc.
 340 Quinnipiac St., Bldg. 40, Wallingford CT 06492
  
  
 ---------------------------------------------------------------
 Warning -- This program may not be used in any manner that
 competes with the business of Gaussian, Inc. or will provide
 assistance to any competitor of Gaussian, Inc.  The licensee
 of this program is prohibited from giving any competitor of
 Gaussian, Inc. access to this program.  By using this program,
 the user acknowledges that Gaussian, Inc. is engaged in the
 business of creating and licensing software in the field of
 computational chemistry and represents and warrants to the
 licensee that it is not a competitor of Gaussian, Inc. and that
 it will not use this program in any manner prohibited above.
 ---------------------------------------------------------------
  

 Cite this work as:
 Gaussian 16, Revision A.03,
 M. J. Frisch, G. W. Trucks, H. B. Schlegel, G. E. Scuseria, 
 M. A. Robb, J. R. Cheeseman, G. Scalmani, V. Barone, 
 G. A. Petersson, H. Nakatsuji, X. Li, M. Caricato, A. V. Marenich, 
 J. Bloino, B. G. Janesko, R. Gomperts, B. Mennucci, H. P. Hratchian, 
 J. V. Ortiz, A. F. Izmaylov, J. L. Sonnenberg, D. Williams-Young, 
 F. Ding, F. Lipparini, F. Egidi, J. Goings, B. Peng, A. Petrone, 
 T. Henderson, D. Ranasinghe, V. G. Zakrzewski, J. Gao, N. Rega, 
 G. Zheng, W. Liang, M. Hada, M. Ehara, K. Toyota, R. Fukuda, 
 J. Hasegawa, M. Ishida, T. Nakajima, Y. Honda, O. Kitao, H. Nakai, 
 T. Vreven, K. Throssell, J. A. Montgomery, Jr., J. E. Peralta, 
 F. Ogliaro, M. J. Bearpark, J. J. Heyd, E. N. Brothers, K. N. Kudin, 
 V. N. Staroverov, T. A. Keith, R. Kobayashi, J. Normand, 
 K. Raghavachari, A. P. Rendell, J. C. Burant, S. S. Iyengar, 
 J. Tomasi, M. Cossi, J. M. Millam, M. Klene, C. Adamo, R. Cammi, 
 J. W. Ochterski, R. L. Martin, K. Morokuma, O. Farkas, 
 J. B. Foresman, and D. J. Fox, Gaussian, Inc., Wallingford CT, 2016.
 
 ******************************************
 Gaussian 16:  EM64M-G16RevA.03 25-Dec-2016
                21-Feb-2024 
 ******************************************
 %nprocshared=8
 Will use up to    8 processors via shared memory.
 %mem=4GB
 %chk= 0.chk
 ---------------------
 # freq b3lyp/6-31g(d)
 ---------------------
 1/10=4,30=1,38=1/1,3;
 2/12=2,17=6,18=5,40=1/2;
 3/5=1,6=6,7=1,11=2,25=1,30=1,71=2,74=-5,140=1/1,2,3;
 4//1;
 5/5=2,38=5,98=1/2;
 8/6=4,10=90,11=11/1;
 11/6=1,8=1,9=11,15=111,16=1/1,2,10;
 10/6=1/2;
 6/7=2,8=2,9=2,10=2,28=1/1;
 7/8=1,10=1,25=1/1,2,3,16;
 1/10=4,30=1/3;
 99//99;
 ---------
 good luck
 ---------
 Symbolic Z-matrix:
 Charge =  0 Multiplicity = 1
 O                     1.2109    0.        0. 
 C                     0.        0.        0. 
 C                    -0.92225  -1.23516   0.00726 
 C                    -2.3187   -0.60861  -0.12181 
 C                    -2.08751   0.70798  -0.92164 
 C                    -0.94025   1.19867   0.00726 
 C                    -1.62593   1.12324   1.41844 
 C                    -2.80548   0.142     1.1515 
 C                    -3.9738    0.97716   0.59445 
 C                    -3.39288   1.51251  -0.7534 
 H                    -0.76793  -1.83483   0.91225 
 H                    -0.67468  -1.87582  -0.84821 
 H                    -3.07691  -1.27882  -0.53914 
 H                    -1.76854   0.57742  -1.96121 
 H                    -0.4541    2.14705  -0.22785 
 H                    -1.98122   2.10732   1.74239 
 H                    -0.9325    0.76515   2.18733 
 H                    -3.06704  -0.48832   2.00671 
 H                    -4.27613   1.77793   1.27831 
 H                    -4.85338   0.34636   0.41818 
 H                    -3.20627   2.59212  -0.73065 
 H                    -4.07632   1.3253   -1.58853 
 

 GradGradGradGradGradGradGradGradGradGradGradGradGradGradGradGradGradGrad
 Berny optimization.
 Initialization pass.
 Trust Radius=3.00D-01 FncErr=1.00D-07 GrdErr=1.00D-07 EigMax=2.50D+02 EigMin=1.00D-04
 Number of steps in this run=      2 maximum allowed number of steps=      2.
 GradGradGradGradGradGradGradGradGradGradGradGradGradGradGradGradGradGrad

                          Input orientation:                          
 ---------------------------------------------------------------------
 Center     Atomic      Atomic             Coordinates (Angstroms)
 Number     Number       Type             X           Y           Z
 ---------------------------------------------------------------------
      1          8           0        1.210896    0.000000    0.000000
      2          6           0        0.000000    0.000000    0.000000
      3          6           0       -0.922252   -1.235163    0.007261
      4          6           0       -2.318703   -0.608614   -0.121807
      5          6           0       -2.087507    0.707975   -0.921637
      6          6           0       -0.940253    1.198667    0.007261
      7          6           0       -1.625930    1.123236    1.418439
      8          6           0       -2.805483    0.141998    1.151500
      9          6           0       -3.973800    0.977160    0.594449
     10          6           0       -3.392880    1.512506   -0.753398
     11          1           0       -0.767932   -1.834827    0.912254
     12          1           0       -0.674677   -1.875821   -0.848207
     13          1           0       -3.076910   -1.278818   -0.539137
     14          1           0       -1.768543    0.577419   -1.961211
     15          1           0       -0.454099    2.147052   -0.227845
     16          1           0       -1.981219    2.107325    1.742392
     17          1           0       -0.932500    0.765151    2.187329
     18          1           0       -3.067035   -0.488319    2.006705
     19          1           0       -4.276127    1.777932    1.278307
     20          1           0       -4.853381    0.346356    0.418176
     21          1           0       -3.206271    2.592120   -0.730651
     22          1           0       -4.076315    1.325300   -1.588525
 ---------------------------------------------------------------------
                    Distance matrix (angstroms):
                    1          2          3          4          5
     1  O    0.000000
     2  C    1.210896   0.000000
     3  C    2.464955   1.541502   0.000000
     4  C    3.583757   2.400340   1.536001   0.000000
     5  C    3.497157   2.389211   2.448766   1.557750   0.000000
     6  C    2.462579   1.523460   2.433897   2.276631   1.555578
     7  C    3.364701   2.432545   2.837011   2.419007   2.421043
     8  C    4.180600   3.035927   2.598541   1.556176   2.265771
     9  C    5.309358   4.135130   3.814591   2.401468   2.434970
    10  C    4.904084   3.790372   3.772571   2.460064   1.542587
    11  H    2.848606   2.188268   1.096551   2.231092   3.401511
    12  H    2.791692   2.166414   1.097070   2.199157   2.945757
    13  H    4.506809   3.375414   2.223288   1.094630   2.252237
    14  H    3.613422   2.703240   2.806518   2.256714   1.095216
    15  H    2.726528   2.206343   3.422546   3.328917   2.284800
    16  H    4.203135   3.376681   3.912073   3.311413   3.011068
    17  H    3.156582   2.497883   2.958726   3.023392   3.317074
    18  H    4.750370   3.697570   3.025830   2.259432   3.311462
    19  H    5.907837   4.804204   4.684312   3.389311   3.282471
    20  H    6.088538   4.883661   4.257209   2.761909   3.094499
    21  H    5.173423   4.187256   4.517671   3.376857   2.199571
    22  H    5.677537   4.571234   4.364701   2.996746   2.186593
                    6          7          8          9         10
     6  C    0.000000
     7  C    1.570753   0.000000
     8  C    2.430003   1.557379   0.000000
     9  C    3.097783   2.492547   1.540379   0.000000
    10  C    2.586982   2.826751   2.419083   1.562292   0.000000
    11  H    3.170299   3.121301   2.848980   4.276197   4.568302
    12  H    3.202317   3.877745   3.551163   4.594015   4.344925
    13  H    3.316894   3.421595   2.225004   2.679341   2.817310
    14  H    2.224162   3.426410   3.309653   3.399169   2.229724
    15  H    1.091355   2.265312   3.384057   3.799093   3.052096
    16  H    2.218096   1.095266   2.211577   2.562309   2.928406
    17  H    2.222767   1.095565   2.229199   3.439727   3.906390
    18  H    3.371483   2.240524   1.094114   2.228075   3.424565
    19  H    3.616512   2.733461   2.203441   1.095582   2.231233
    20  H    4.025898   3.467061   2.184814   1.096653   2.205800
    21  H    2.760627   3.045273   3.115481   2.225553   1.095859
    22  H    3.521002   3.884205   3.243910   2.212936   1.095247
                   11         12         13         14         15
    11  H    0.000000
    12  H    1.763406   0.000000
    13  H    2.783354   2.494526   0.000000
    14  H    3.882905   2.907526   2.679503   0.000000
    15  H    4.153755   4.076397   4.325809   2.682549   0.000000
    16  H    4.207346   4.927850   4.227514   4.012794   2.493092
    17  H    2.900480   4.031834   4.026155   4.236106   2.823399
    18  H    2.880413   3.974803   2.665764   4.308856   4.331954
    19  H    5.049104   5.553595   3.752991   4.268921   4.124638
    20  H    4.657528   4.899323   2.591040   3.902704   4.797242
    21  H    5.314367   5.136661   3.877831   2.764120   2.832905
    22  H    5.213990   4.729312   2.980177   2.454390   3.955651
                   16         17         18         19         20
    16  H    0.000000
    17  H    1.760458   0.000000
    18  H    2.825991   2.481945   0.000000
    19  H    2.364419   3.609971   2.669899   0.000000
    20  H    3.619927   4.321875   2.532023   1.767048   0.000000
    21  H    2.802092   4.125828   4.123301   2.417314   3.012678
    22  H    4.011982   4.945140   4.151330   2.909214   2.364109
                   21         22
    21  H    0.000000
    22  H    1.760045   0.000000
 Stoichiometry    C9H12O
 Framework group  C1[X(C9H12O)]
 Deg. of freedom    60
 Full point group                 C1      NOp   1
 Largest Abelian subgroup         C1      NOp   1
 Largest concise Abelian subgroup C1      NOp   1
                         Standard orientation:                         
 ---------------------------------------------------------------------
 Center     Atomic      Atomic             Coordinates (Angstroms)
 Number     Number       Type             X           Y           Z
 ---------------------------------------------------------------------
      1          8           0       -2.926113   -0.499268   -0.003001
      2          6           0       -1.770648   -0.143744   -0.072085
      3          6           0       -1.256944    1.304796   -0.190697
      4          6           0        0.256771    1.108150   -0.361850
      5          6           0        0.397356   -0.273361   -1.067717
      6          6           0       -0.517402   -1.009594   -0.047423
      7          6           0        0.166668   -0.632650    1.315378
      8          6           0        0.991123    0.629263    0.923872
      9          6           0        2.333243    0.135347    0.351571
     10          6           0        1.887980   -0.644528   -0.926822
     11          1           0       -1.548725    1.897549    0.684478
     12          1           0       -1.714960    1.779832   -1.067124
     13          1           0        0.765924    1.938854   -0.860757
     14          1           0        0.015813   -0.318995   -2.093310
     15          1           0       -0.708510   -2.073516   -0.197767
     16          1           0        0.809748   -1.442455    1.676309
     17          1           0       -0.572875   -0.438435    2.099992
     18          1           0        1.085238    1.369674    1.723884
     19          1           0        2.884682   -0.488832    1.063340
     20          1           0        2.978819    0.981855    0.088314
     21          1           0        2.031185   -1.726621   -0.829496
     22          1           0        2.453693   -0.326832   -1.809208
 ---------------------------------------------------------------------
 Rotational constants (GHZ):           2.9462198           1.1585377           1.1326025
 Standard basis: 6-31G(d) (6D, 7F)
 There are   174 symmetry adapted cartesian basis functions of A   symmetry.
 There are   174 symmetry adapted basis functions of A   symmetry.
   174 basis functions,   328 primitive gaussians,   174 cartesian basis functions
    37 alpha electrons       37 beta electrons
       nuclear repulsion energy       556.0805725820 Hartrees.
 NAtoms=   22 NActive=   22 NUniq=   22 SFac= 1.00D+00 NAtFMM=   60 NAOKFM=F Big=F
 Integral buffers will be    131072 words long.
 Raffenetti 2 integral format.
 Two-electron integral symmetry is turned on.
 One-electron integrals computed using PRISM.
 NBasis=   174 RedAO= T EigKep=  1.40D-03  NBF=   174
 NBsUse=   174 1.00D-06 EigRej= -1.00D+00 NBFU=   174
 ExpMin= 1.61D-01 ExpMax= 5.48D+03 ExpMxC= 8.25D+02 IAcc=3 IRadAn=         5 AccDes= 0.00D+00
 Harris functional with IExCor=  402 and IRadAn=       5 diagonalized for initial guess.
 HarFok:  IExCor=  402 AccDes= 0.00D+00 IRadAn=         5 IDoV= 1 UseB2=F ITyADJ=14
 ICtDFT=  3500011 ScaDFX=  1.000000  1.000000  1.000000  1.000000
 FoFCou: FMM=F IPFlag=           0 FMFlag=      100000 FMFlg1=           0
         NFxFlg=           0 DoJE=T BraDBF=F KetDBF=T FulRan=T
         wScrn=  0.000000 ICntrl=       500 IOpCl=  0 I1Cent=   200000004 NGrid=           0
         NMat0=    1 NMatS0=      1 NMatT0=    0 NMatD0=    1 NMtDS0=    0 NMtDT0=    0
 Petite list used in FoFCou.
 Requested convergence on RMS density matrix=1.00D-08 within 128 cycles.
 Requested convergence on MAX density matrix=1.00D-06.
 Requested convergence on             energy=1.00D-06.
 No special actions if energy rises.
 Integral accuracy reduced to 1.0D-05 until final iterations.
 Initial convergence to 1.0D-05 achieved.  Increase integral accuracy.
 SCF Done:  E(RB3LYP) =  -425.394954481     A.U. after   14 cycles
            NFock= 14  Conv=0.29D-08     -V/T= 2.0095
 DoSCS=F DFT=T ScalE2(SS,OS)=  1.000000  1.000000
 Range of M.O.s used for correlation:     1   174
 NBasis=   174 NAE=    37 NBE=    37 NFC=     0 NFV=     0
 NROrb=    174 NOA=    37 NOB=    37 NVA=   137 NVB=   137
 Symmetrizing basis deriv contribution to polar:
 IMax=3 JMax=2 DiffMx= 0.00D+00
 G2DrvN: will do    23 centers at a time, making    1 passes.
 Calling FoFCou, ICntrl=  3107 FMM=F I1Cent=   0 AccDes= 0.00D+00.
 End of G2Drv F.D. properties file   721 does not exist.
 End of G2Drv F.D. properties file   722 does not exist.
 End of G2Drv F.D. properties file   788 does not exist.
          IDoAtm=1111111111111111111111
          Differentiating once with respect to electric field.
                with respect to dipole field.
          Differentiating once with respect to nuclear coordinates.
 Keep R1 ints in memory in canonical form, NReq=123908614.
          There are    69 degrees of freedom in the 1st order CPHF.  IDoFFX=6 NUNeed=     3.
     66 vectors produced by pass  0 Test12= 7.35D-15 1.45D-09 XBig12= 6.77D+01 2.71D+00.
 AX will form    66 AO Fock derivatives at one time.
     66 vectors produced by pass  1 Test12= 7.35D-15 1.45D-09 XBig12= 1.09D+01 7.49D-01.
     66 vectors produced by pass  2 Test12= 7.35D-15 1.45D-09 XBig12= 1.41D-01 5.19D-02.
     66 vectors produced by pass  3 Test12= 7.35D-15 1.45D-09 XBig12= 5.43D-04 3.42D-03.
     66 vectors produced by pass  4 Test12= 7.35D-15 1.45D-09 XBig12= 7.55D-07 1.00D-04.
     35 vectors produced by pass  5 Test12= 7.35D-15 1.45D-09 XBig12= 5.85D-10 2.17D-06.
      4 vectors produced by pass  6 Test12= 7.35D-15 1.45D-09 XBig12= 4.08D-13 6.03D-08.
      1 vectors produced by pass  7 Test12= 7.35D-15 1.45D-09 XBig12= 2.67D-16 1.72D-09.
 InvSVY:  IOpt=1 It=  1 EMax= 9.77D-15
 Solved reduced A of dimension   370 with    69 vectors.
 Isotropic polarizability for W=    0.000000       85.32 Bohr**3.
 End of Minotr F.D. properties file   721 does not exist.
 End of Minotr F.D. properties file   722 does not exist.
 End of Minotr F.D. properties file   788 does not exist.

 **********************************************************************

            Population analysis using the SCF density.

 **********************************************************************

 Orbital symmetries:
       Occupied  (A) (A) (A) (A) (A) (A) (A) (A) (A) (A) (A) (A)
                 (A) (A) (A) (A) (A) (A) (A) (A) (A) (A) (A) (A)
                 (A) (A) (A) (A) (A) (A) (A) (A) (A) (A) (A) (A)
                 (A)
       Virtual   (A) (A) (A) (A) (A) (A) (A) (A) (A) (A) (A) (A)
                 (A) (A) (A) (A) (A) (A) (A) (A) (A) (A) (A) (A)
                 (A) (A) (A) (A) (A) (A) (A) (A) (A) (A) (A) (A)
                 (A) (A) (A) (A) (A) (A) (A) (A) (A) (A) (A) (A)
                 (A) (A) (A) (A) (A) (A) (A) (A) (A) (A) (A) (A)
                 (A) (A) (A) (A) (A) (A) (A) (A) (A) (A) (A) (A)
                 (A) (A) (A) (A) (A) (A) (A) (A) (A) (A) (A) (A)
                 (A) (A) (A) (A) (A) (A) (A) (A) (A) (A) (A) (A)
                 (A) (A) (A) (A) (A) (A) (A) (A) (A) (A) (A) (A)
                 (A) (A) (A) (A) (A) (A) (A) (A) (A) (A) (A) (A)
                 (A) (A) (A) (A) (A) (A) (A) (A) (A) (A) (A) (A)
                 (A) (A) (A) (A) (A)
 The electronic state is 1-A.
 Alpha  occ. eigenvalues --  -19.13207 -10.26611 -10.19558 -10.19411 -10.19389
 Alpha  occ. eigenvalues --  -10.19298 -10.19272 -10.18894 -10.18709 -10.18574
 Alpha  occ. eigenvalues --   -1.03146  -0.89430  -0.78011  -0.73880  -0.72832
 Alpha  occ. eigenvalues --   -0.66761  -0.62347  -0.55194  -0.55068  -0.52443
 Alpha  occ. eigenvalues --   -0.51318  -0.47366  -0.46241  -0.43329  -0.41433
 Alpha  occ. eigenvalues --   -0.39956  -0.39570  -0.38211  -0.37009  -0.35971
 Alpha  occ. eigenvalues --   -0.34882  -0.33880  -0.33317  -0.32171  -0.30737
 Alpha  occ. eigenvalues --   -0.29942  -0.22986
 Alpha virt. eigenvalues --   -0.00723   0.07381   0.10016   0.11748   0.12670
 Alpha virt. eigenvalues --    0.14138   0.14521   0.15121   0.16166   0.16531
 Alpha virt. eigenvalues --    0.17527   0.18048   0.18683   0.18759   0.20402
 Alpha virt. eigenvalues --    0.21570   0.22487   0.23202   0.24322   0.27413
 Alpha virt. eigenvalues --    0.28606   0.28991   0.30774   0.33854   0.35275
 Alpha virt. eigenvalues --    0.51067   0.52460   0.54675   0.54954   0.56712
 Alpha virt. eigenvalues --    0.57710   0.59041   0.60965   0.62354   0.63497
 Alpha virt. eigenvalues --    0.64430   0.64874   0.66755   0.66993   0.68532
 Alpha virt. eigenvalues --    0.68646   0.71628   0.74313   0.75533   0.77551
 Alpha virt. eigenvalues --    0.79229   0.82830   0.83632   0.84428   0.85293
 Alpha virt. eigenvalues --    0.85984   0.86671   0.87471   0.88783   0.91381
 Alpha virt. eigenvalues --    0.91854   0.93537   0.94440   0.95043   0.95243
 Alpha virt. eigenvalues --    0.96796   0.99503   1.00884   1.04720   1.10525
 Alpha virt. eigenvalues --    1.11020   1.18718   1.21111   1.24896   1.32416
 Alpha virt. eigenvalues --    1.38024   1.42844   1.45276   1.49608   1.56195
 Alpha virt. eigenvalues --    1.58785   1.62041   1.64479   1.67030   1.70088
 Alpha virt. eigenvalues --    1.72841   1.73281   1.76317   1.77075   1.79175
 Alpha virt. eigenvalues --    1.81549   1.82094   1.84388   1.87047   1.90307
 Alpha virt. eigenvalues --    1.91454   1.94353   1.95565   1.95879   1.99110
 Alpha virt. eigenvalues --    2.02959   2.05682   2.07419   2.08396   2.14954
 Alpha virt. eigenvalues --    2.17325   2.18428   2.20005   2.21337   2.24619
 Alpha virt. eigenvalues --    2.29819   2.32476   2.34275   2.38583   2.41188
 Alpha virt. eigenvalues --    2.42061   2.44804   2.48927   2.51996   2.54056
 Alpha virt. eigenvalues --    2.62060   2.63158   2.64088   2.69751   2.70999
 Alpha virt. eigenvalues --    2.75089   2.77807   2.80028   2.81789   2.86171
 Alpha virt. eigenvalues --    3.02940   3.05888   4.09009   4.20904   4.28626
 Alpha virt. eigenvalues --    4.33583   4.36520   4.48762   4.62090   4.72132
 Alpha virt. eigenvalues --    4.78167   4.82402
          Condensed to atoms (all electrons):
               1          2          3          4          5          6
     1  O    8.005687   0.581500  -0.074700   0.003084   0.001938  -0.061011
     2  C    0.581500   4.506522   0.298964  -0.043136  -0.046361   0.360902
     3  C   -0.074700   0.298964   5.386096   0.313931  -0.055096  -0.184551
     4  C    0.003084  -0.043136   0.313931   5.110658   0.339893  -0.018661
     5  C    0.001938  -0.046361  -0.055096   0.339893   5.074213   0.343688
     6  C   -0.061011   0.360902  -0.184551  -0.018661   0.343688   5.238905
     7  C   -0.002162  -0.031683   0.000762  -0.081743  -0.076535   0.338037
     8  C    0.000172  -0.015057  -0.028234   0.377730  -0.049606  -0.060697
     9  C   -0.000002   0.001040   0.004315  -0.069680  -0.058502  -0.014691
    10  C   -0.000049   0.003283   0.004535  -0.066944   0.386895  -0.027789
    11  H    0.000365  -0.019802   0.352250  -0.027993   0.005113   0.003895
    12  H   -0.000319  -0.019393   0.352455  -0.028149  -0.000833   0.004265
    13  H   -0.000063   0.003263  -0.029695   0.364755  -0.033869   0.004959
    14  H    0.000173  -0.000692   0.002211  -0.036951   0.368533  -0.043873
    15  H    0.001550  -0.028207   0.009272   0.004767  -0.030881   0.350408
    16  H   -0.000037   0.002923  -0.000428   0.005555  -0.001874  -0.023632
    17  H    0.001362  -0.003968   0.003932  -0.001950   0.006152  -0.042602
    18  H    0.000005   0.000163  -0.001833  -0.034065   0.006180   0.004620
    19  H   -0.000000  -0.000030  -0.000158   0.005741   0.003133   0.000577
    20  H   -0.000000  -0.000005   0.000005  -0.000587  -0.000802   0.000151
    21  H   -0.000001   0.000092  -0.000159   0.005441  -0.035302  -0.007935
    22  H    0.000000  -0.000099  -0.000044  -0.000014  -0.028130   0.003900
               7          8          9         10         11         12
     1  O   -0.002162   0.000172  -0.000002  -0.000049   0.000365  -0.000319
     2  C   -0.031683  -0.015057   0.001040   0.003283  -0.019802  -0.019393
     3  C    0.000762  -0.028234   0.004315   0.004535   0.352250   0.352455
     4  C   -0.081743   0.377730  -0.069680  -0.066944  -0.027993  -0.028149
     5  C   -0.076535  -0.049606  -0.058502   0.386895   0.005113  -0.000833
     6  C    0.338037  -0.060697  -0.014691  -0.027789   0.003895   0.004265
     7  C    5.167387   0.362258  -0.036528  -0.013907  -0.000350   0.000268
     8  C    0.362258   4.971978   0.391121  -0.068456  -0.006532   0.003943
     9  C   -0.036528   0.391121   5.069258   0.353672   0.000088  -0.000169
    10  C   -0.013907  -0.068456   0.353672   5.053655  -0.000163   0.000009
    11  H   -0.000350  -0.006532   0.000088  -0.000163   0.548275  -0.025626
    12  H    0.000268   0.003943  -0.000169   0.000009  -0.025626   0.546649
    13  H    0.006992  -0.039685  -0.002296  -0.001099   0.000938  -0.003969
    14  H    0.007070   0.005531   0.005818  -0.036411  -0.000117   0.001466
    15  H   -0.030181   0.004684  -0.000428  -0.001413  -0.000112  -0.000185
    16  H    0.365965  -0.034419  -0.009374   0.001495   0.000024   0.000003
    17  H    0.366928  -0.026616   0.004046  -0.000154   0.000127  -0.000069
    18  H   -0.037588   0.367863  -0.036666   0.006385   0.002012  -0.000061
    19  H   -0.009026  -0.029543   0.365046  -0.030069  -0.000002   0.000003
    20  H    0.005328  -0.035424   0.366991  -0.029970  -0.000000   0.000001
    21  H    0.001049   0.000963  -0.030277   0.371582   0.000005   0.000000
    22  H    0.000156   0.002680  -0.029418   0.368247   0.000000  -0.000012
              13         14         15         16         17         18
     1  O   -0.000063   0.000173   0.001550  -0.000037   0.001362   0.000005
     2  C    0.003263  -0.000692  -0.028207   0.002923  -0.003968   0.000163
     3  C   -0.029695   0.002211   0.009272  -0.000428   0.003932  -0.001833
     4  C    0.364755  -0.036951   0.004767   0.005555  -0.001950  -0.034065
     5  C   -0.033869   0.368533  -0.030881  -0.001874   0.006152   0.006180
     6  C    0.004959  -0.043873   0.350408  -0.023632  -0.042602   0.004620
     7  C    0.006992   0.007070  -0.030181   0.365965   0.366928  -0.037588
     8  C   -0.039685   0.005531   0.004684  -0.034419  -0.026616   0.367863
     9  C   -0.002296   0.005818  -0.000428  -0.009374   0.004046  -0.036666
    10  C   -0.001099  -0.036411  -0.001413   0.001495  -0.000154   0.006385
    11  H    0.000938  -0.000117  -0.000112   0.000024   0.000127   0.002012
    12  H   -0.003969   0.001466  -0.000185   0.000003  -0.000069  -0.000061
    13  H    0.603578  -0.001582  -0.000145  -0.000174  -0.000078  -0.001350
    14  H   -0.001582   0.603461  -0.001221  -0.000112  -0.000141  -0.000195
    15  H   -0.000145  -0.001221   0.584374  -0.004091   0.001725  -0.000105
    16  H   -0.000174  -0.000112  -0.004091   0.574348  -0.034711   0.001709
    17  H   -0.000078  -0.000141   0.001725  -0.034711   0.574447  -0.003717
    18  H   -0.001350  -0.000195  -0.000105   0.001709  -0.003717   0.606658
    19  H   -0.000030  -0.000126   0.000015   0.005938   0.000121   0.000407
    20  H    0.002942  -0.000189   0.000013   0.000324  -0.000186  -0.002725
    21  H   -0.000088   0.001502   0.002453   0.000623  -0.000052  -0.000123
    22  H    0.001422  -0.003828  -0.000038  -0.000094   0.000008  -0.000148
              19         20         21         22
     1  O   -0.000000  -0.000000  -0.000001   0.000000
     2  C   -0.000030  -0.000005   0.000092  -0.000099
     3  C   -0.000158   0.000005  -0.000159  -0.000044
     4  C    0.005741  -0.000587   0.005441  -0.000014
     5  C    0.003133  -0.000802  -0.035302  -0.028130
     6  C    0.000577   0.000151  -0.007935   0.003900
     7  C   -0.009026   0.005328   0.001049   0.000156
     8  C   -0.029543  -0.035424   0.000963   0.002680
     9  C    0.365046   0.366991  -0.030277  -0.029418
    10  C   -0.030069  -0.029970   0.371582   0.368247
    11  H   -0.000002  -0.000000   0.000005   0.000000
    12  H    0.000003   0.000001   0.000000  -0.000012
    13  H   -0.000030   0.002942  -0.000088   0.001422
    14  H   -0.000126  -0.000189   0.001502  -0.003828
    15  H    0.000015   0.000013   0.002453  -0.000038
    16  H    0.005938   0.000324   0.000623  -0.000094
    17  H    0.000121  -0.000186  -0.000052   0.000008
    18  H    0.000407  -0.002725  -0.000123  -0.000148
    19  H    0.591042  -0.035709  -0.006996   0.003050
    20  H   -0.035709   0.598653   0.004056  -0.009574
    21  H   -0.006996   0.004056   0.589116  -0.037237
    22  H    0.003050  -0.009574  -0.037237   0.587919
 Mulliken charges:
               1
     1  O   -0.457494
     2  C    0.449781
     3  C   -0.353829
     4  C   -0.121681
     5  C   -0.117948
     6  C   -0.168865
     7  C   -0.302498
     8  C   -0.094655
     9  C   -0.273365
    10  C   -0.273335
    11  H    0.167604
    12  H    0.169723
    13  H    0.125272
    14  H    0.129671
    15  H    0.137747
    16  H    0.150037
    17  H    0.155396
    18  H    0.122574
    19  H    0.136616
    20  H    0.136708
    21  H    0.141288
    22  H    0.141252
 Sum of Mulliken charges =  -0.00000
 Mulliken charges with hydrogens summed into heavy atoms:
               1
     1  O   -0.457494
     2  C    0.449781
     3  C   -0.016502
     4  C    0.003591
     5  C    0.011724
     6  C   -0.031118
     7  C    0.002936
     8  C    0.027919
     9  C   -0.000042
    10  C    0.009206
 APT charges:
               1
     1  O   -0.681358
     2  C    0.784487
     3  C   -0.056562
     4  C    0.065449
     5  C    0.085170
     6  C   -0.097275
     7  C    0.067056
     8  C    0.085350
     9  C    0.097693
    10  C    0.091942
    11  H   -0.010135
    12  H   -0.010607
    13  H   -0.046429
    14  H   -0.047512
    15  H   -0.031824
    16  H   -0.031664
    17  H   -0.027924
    18  H   -0.054906
    19  H   -0.044978
    20  H   -0.047412
    21  H   -0.041506
    22  H   -0.047056
 Sum of APT charges =  -0.00000
 APT charges with hydrogens summed into heavy atoms:
               1
     1  O   -0.681358
     2  C    0.784487
     3  C   -0.077303
     4  C    0.019020
     5  C    0.037659
     6  C   -0.129099
     7  C    0.007469
     8  C    0.030443
     9  C    0.005302
    10  C    0.003380
 Electronic spatial extent (au):  <R**2>=           1225.1732
 Charge=             -0.0000 electrons
 Dipole moment (field-independent basis, Debye):
    X=              3.0791    Y=              0.9106    Z=             -0.0938  Tot=              3.2123
 Quadrupole moment (field-independent basis, Debye-Ang):
   XX=            -71.0053   YY=            -58.2271   ZZ=            -57.8165
   XY=             -3.1017   XZ=              0.1556   YZ=             -0.3254
 Traceless Quadrupole moment (field-independent basis, Debye-Ang):
   XX=             -8.6557   YY=              4.1225   ZZ=              4.5331
   XY=             -3.1017   XZ=              0.1556   YZ=             -0.3254
 Octapole moment (field-independent basis, Debye-Ang**2):
  XXX=             30.4529  YYY=             -2.0872  ZZZ=             -0.6634  XYY=             -2.5734
  XXY=              9.0439  XXZ=             -0.9166  XZZ=             -5.4340  YZZ=              0.6656
  YYZ=              0.1515  XYZ=             -0.9428
 Hexadecapole moment (field-independent basis, Debye-Ang**3):
 XXXX=          -1097.1238 YYYY=           -324.0526 ZZZZ=           -301.0408 XXXY=            -18.8749
 XXXZ=              0.2574 YYYX=              2.0969 YYYZ=             -0.4032 ZZZX=             -0.8497
 ZZZY=             -0.1645 XXYY=           -214.7645 XXZZ=           -204.3503 YYZZ=           -103.8642
 XXYZ=             -3.1398 YYXZ=              1.6058 ZZXY=              0.2177
 N-N= 5.560805725820D+02 E-N=-2.099502867550D+03  KE= 4.213944988991D+02
  Exact polarizability:  97.847  -0.194  80.957  -0.089  -0.868  77.170
 Approx polarizability: 137.278   3.391 121.351  -0.206  -1.813 115.442
 Calling FoFJK, ICntrl=    100127 FMM=F ISym2X=0 I1Cent= 0 IOpClX= 0 NMat=1 NMatS=1 NMatT=0.
 Full mass-weighted force constant matrix:
 Low frequencies ---   -0.0011   -0.0002    0.0001    3.2729    6.6574   15.7401
 Low frequencies ---  114.6844  214.8743  269.1713
 Diagonal vibrational polarizability:
        3.4338372       3.3647414       9.5192639
 Harmonic frequencies (cm**-1), IR intensities (KM/Mole), Raman scattering
 activities (A**4/AMU), depolarization ratios for plane and unpolarized
 incident light, reduced masses (AMU), force constants (mDyne/A),
 and normal coordinates:
                      1                      2                      3
                      A                      A                      A
 Frequencies --    114.6835               214.8740               269.1712
 Red. masses --      4.9556                 1.9258                 2.6715
 Frc consts  --      0.0384                 0.0524                 0.1140
 IR Inten    --      4.3333                 0.1989                 0.4734
  Atom  AN      X      Y      Z        X      Y      Z        X      Y      Z
     1   8     0.02   0.05   0.38    -0.03   0.06  -0.03    -0.05   0.13  -0.05
     2   6     0.01   0.02  -0.03    -0.01   0.02   0.01    -0.02   0.03   0.03
     3   6     0.01  -0.00  -0.20     0.00   0.01   0.04     0.02  -0.01  -0.11
     4   6     0.02   0.00  -0.04    -0.01  -0.01   0.00    -0.01  -0.08   0.01
     5   6     0.08   0.03  -0.07     0.00  -0.02   0.00    -0.03  -0.10   0.06
     6   6    -0.00  -0.01  -0.18    -0.03  -0.01  -0.03    -0.03  -0.07   0.12
     7   6    -0.08  -0.10  -0.11     0.08  -0.11  -0.06     0.07  -0.12   0.06
     8   6    -0.10  -0.04   0.02    -0.02  -0.01  -0.00    -0.02  -0.05   0.03
     9   6    -0.04   0.02   0.12     0.01   0.16  -0.05     0.01   0.08  -0.01
    10   6     0.08   0.05   0.05    -0.01  -0.09   0.12     0.04   0.15  -0.08
    11   1    -0.11   0.14  -0.34     0.04  -0.01   0.07    -0.06   0.13  -0.24
    12   1     0.10  -0.16  -0.34    -0.02   0.05   0.07     0.10  -0.16  -0.24
    13   1     0.07   0.01   0.04    -0.01  -0.01   0.02     0.06  -0.14  -0.02
    14   1     0.18   0.07  -0.11     0.07  -0.01  -0.02    -0.08  -0.13   0.08
    15   1    -0.02   0.00  -0.24    -0.07  -0.00  -0.07    -0.12  -0.05   0.13
    16   1    -0.07  -0.11  -0.15     0.17  -0.11  -0.23     0.16  -0.11  -0.08
    17   1    -0.12  -0.20  -0.13     0.15  -0.25   0.04     0.16  -0.21   0.16
    18   1    -0.20  -0.08   0.06    -0.09  -0.03   0.03    -0.06  -0.04   0.03
    19   1    -0.08   0.01   0.14     0.23   0.36  -0.03     0.05   0.04  -0.07
    20   1    -0.04   0.04   0.20    -0.19   0.25  -0.25    -0.04   0.14   0.07
    21   1     0.09   0.05   0.04    -0.12  -0.08   0.41     0.32   0.17  -0.27
    22   1     0.15   0.08   0.11     0.06  -0.38   0.06    -0.13   0.44  -0.09
                      4                      5                      6
                      A                      A                      A
 Frequencies --    306.3773               394.2270               430.8019
 Red. masses --      2.1931                 2.1498                 4.5233
 Frc consts  --      0.1213                 0.1969                 0.4946
 IR Inten    --      0.6442                 0.8520                 2.0700
  Atom  AN      X      Y      Z        X      Y      Z        X      Y      Z
     1   8    -0.03   0.08   0.02     0.06  -0.05  -0.03     0.26  -0.07  -0.01
     2   6    -0.01  -0.01   0.00     0.03   0.05   0.07     0.19   0.10   0.03
     3   6     0.04  -0.02   0.16    -0.03   0.07  -0.01     0.11   0.14   0.01
     4   6    -0.01  -0.07  -0.12    -0.03   0.03  -0.09     0.02  -0.03  -0.04
     5   6     0.03  -0.11  -0.04    -0.04   0.00  -0.01    -0.05  -0.06  -0.02
     6   6    -0.02  -0.06  -0.04     0.00   0.04   0.04     0.04  -0.01   0.04
     7   6    -0.05   0.03  -0.05     0.15  -0.06  -0.05    -0.14  -0.07   0.09
     8   6    -0.05   0.03  -0.08    -0.05   0.08  -0.05    -0.18  -0.07   0.04
     9   6    -0.00   0.04   0.07    -0.06  -0.08   0.11    -0.19   0.07  -0.06
    10   6     0.09   0.05   0.01    -0.05  -0.01   0.04    -0.09  -0.00  -0.07
    11   1     0.31  -0.24   0.40     0.05   0.11  -0.01     0.26   0.10   0.08
    12   1    -0.17   0.23   0.41    -0.11   0.03   0.01     0.02   0.18   0.08
    13   1    -0.04  -0.09  -0.18    -0.02   0.01  -0.13     0.19  -0.10   0.02
    14   1     0.09  -0.19  -0.06    -0.03  -0.07  -0.01    -0.16  -0.11   0.02
    15   1    -0.04  -0.06   0.02    -0.08   0.06   0.02    -0.17   0.04   0.01
    16   1    -0.04   0.06   0.01     0.37  -0.02  -0.34    -0.13  -0.01   0.21
    17   1    -0.07   0.06  -0.07     0.27  -0.35   0.14    -0.25  -0.06  -0.01
    18   1    -0.15   0.09  -0.12    -0.11   0.09  -0.06    -0.17  -0.03  -0.00
    19   1    -0.10   0.01   0.11    -0.32  -0.22   0.19     0.04   0.20  -0.13
    20   1     0.05   0.02   0.15     0.19  -0.24   0.21    -0.42   0.22  -0.14
    21   1     0.25   0.07  -0.07    -0.07  -0.02  -0.03    -0.03   0.01  -0.03
    22   1     0.05   0.20   0.04    -0.01   0.05   0.09    -0.08   0.01  -0.06
                      7                      8                      9
                      A                      A                      A
 Frequencies --    488.9829               590.7590               618.5332
 Red. masses --      4.2486                 2.3747                 4.4396
 Frc consts  --      0.5985                 0.4883                 1.0007
 IR Inten    --      6.0632                 1.1102                 1.4087
  Atom  AN      X      Y      Z        X      Y      Z        X      Y      Z
     1   8     0.03   0.27  -0.03    -0.01  -0.02  -0.08    -0.00   0.04  -0.02
     2   6     0.15  -0.14   0.04     0.01   0.01   0.29    -0.02   0.10   0.06
     3   6    -0.00  -0.19   0.02     0.03  -0.01   0.08    -0.25   0.08  -0.00
     4   6    -0.06   0.05   0.01     0.01  -0.01  -0.03    -0.16   0.05  -0.03
     5   6    -0.00   0.09  -0.05    -0.01   0.02  -0.06     0.18   0.00  -0.07
     6   6     0.18  -0.12  -0.01    -0.03  -0.01  -0.04     0.09   0.08   0.07
     7   6     0.05   0.01   0.04    -0.06   0.01  -0.07    -0.00  -0.06   0.13
     8   6    -0.09   0.06   0.00     0.01  -0.03  -0.05    -0.08  -0.10  -0.03
     9   6    -0.14  -0.03   0.00     0.03   0.02   0.02    -0.01  -0.08  -0.07
    10   6    -0.09  -0.03  -0.02     0.04   0.02   0.02     0.27  -0.10  -0.09
    11   1    -0.15  -0.19  -0.03     0.01   0.52  -0.29    -0.18   0.05   0.05
    12   1    -0.13  -0.39  -0.02     0.03  -0.57  -0.23    -0.39   0.06   0.06
    13   1    -0.12   0.12   0.07    -0.02   0.01  -0.02    -0.18   0.19   0.18
    14   1    -0.08   0.11  -0.02     0.05   0.03  -0.08     0.13  -0.19  -0.05
    15   1     0.41  -0.15  -0.08    -0.08   0.00  -0.08    -0.04   0.10   0.05
    16   1     0.15   0.15   0.16    -0.16   0.01   0.10     0.01  -0.04   0.18
    17   1    -0.06  -0.07  -0.05    -0.11   0.17  -0.15    -0.04  -0.04   0.10
    18   1    -0.06   0.08  -0.02    -0.05  -0.04  -0.03     0.09  -0.10  -0.04
    19   1    -0.20  -0.05   0.03     0.02   0.02   0.03     0.02   0.03   0.01
    20   1    -0.07  -0.09  -0.00     0.02   0.03   0.05    -0.12   0.01  -0.01
    21   1    -0.27  -0.04   0.05     0.02   0.02   0.06     0.15  -0.11  -0.01
    22   1     0.06  -0.15   0.03     0.07  -0.03   0.02     0.40  -0.19  -0.03
                     10                     11                     12
                      A                      A                      A
 Frequencies --    671.6134               723.8397               778.0405
 Red. masses --      3.8403                 2.8660                 3.1103
 Frc consts  --      1.0206                 0.8847                 1.1093
 IR Inten    --      1.4116                 0.6500                 5.6293
  Atom  AN      X      Y      Z        X      Y      Z        X      Y      Z
     1   8     0.19   0.08  -0.00     0.02  -0.00   0.00    -0.06  -0.02   0.01
     2   6     0.15   0.06  -0.07     0.01   0.02  -0.02    -0.07   0.02  -0.03
     3   6    -0.19   0.01   0.02     0.01  -0.03   0.08    -0.03   0.21   0.03
     4   6    -0.16   0.02   0.05     0.02   0.03   0.18    -0.06  -0.09   0.10
     5   6    -0.09  -0.11   0.10     0.07  -0.13   0.06    -0.04  -0.11  -0.06
     6   6    -0.04  -0.06  -0.04    -0.05   0.01  -0.05     0.17  -0.11  -0.11
     7   6    -0.04  -0.01  -0.11    -0.01   0.10  -0.11     0.17   0.03  -0.01
     8   6     0.10  -0.02  -0.04    -0.06   0.14   0.02     0.02  -0.01   0.02
     9   6     0.16   0.01  -0.00    -0.12  -0.02  -0.05    -0.06   0.02   0.03
    10   6    -0.04   0.03   0.09     0.08  -0.14  -0.07    -0.04  -0.00   0.02
    11   1    -0.45  -0.07  -0.01    -0.22   0.10  -0.09    -0.06   0.35  -0.07
    12   1    -0.19  -0.11  -0.05     0.21  -0.18  -0.11     0.22   0.21  -0.11
    13   1    -0.22  -0.04  -0.11    -0.06   0.05   0.14     0.05  -0.16   0.08
    14   1     0.01  -0.18   0.07     0.07   0.03   0.05    -0.01  -0.06  -0.08
    15   1    -0.25  -0.03  -0.01    -0.12  -0.00   0.11     0.24  -0.13  -0.10
    16   1    -0.21  -0.07   0.06     0.16   0.13  -0.37     0.05   0.15   0.47
    17   1    -0.08   0.22  -0.20     0.07  -0.18   0.03    -0.07   0.29  -0.30
    18   1     0.05  -0.14   0.07     0.06   0.08   0.06     0.01  -0.00   0.02
    19   1     0.03  -0.10   0.01    -0.10   0.14   0.08    -0.13  -0.02   0.04
    20   1     0.29  -0.08   0.04    -0.14  -0.05  -0.19    -0.00  -0.02   0.04
    21   1     0.05   0.05   0.08     0.36  -0.12  -0.31     0.03   0.01   0.05
    22   1    -0.22   0.05  -0.01    -0.05   0.22  -0.02     0.00   0.02   0.05
                     13                     14                     15
                      A                      A                      A
 Frequencies --    798.2187               809.9392               852.1230
 Red. masses --      2.9772                 1.7472                 2.8346
 Frc consts  --      1.1176                 0.6753                 1.2127
 IR Inten    --      4.5417                 0.8683                 1.1689
  Atom  AN      X      Y      Z        X      Y      Z        X      Y      Z
     1   8    -0.07  -0.00  -0.00     0.01   0.01  -0.01     0.01   0.00  -0.01
     2   6    -0.03  -0.08   0.05     0.01   0.02   0.02    -0.01   0.05   0.01
     3   6     0.00   0.13  -0.03    -0.05  -0.05  -0.01    -0.04  -0.02   0.03
     4   6     0.04   0.19  -0.09     0.00  -0.02  -0.07    -0.03  -0.13  -0.03
     5   6     0.04   0.00   0.21    -0.01  -0.01  -0.05     0.02  -0.03  -0.01
     6   6     0.10  -0.10   0.00     0.03   0.10  -0.04     0.03   0.05  -0.17
     7   6    -0.09  -0.10  -0.05     0.06   0.05  -0.02    -0.06  -0.05   0.17
     8   6    -0.01   0.05  -0.02     0.06  -0.07   0.07     0.01   0.18   0.14
     9   6     0.04  -0.04  -0.05    -0.04  -0.05   0.07     0.12   0.01  -0.00
    10   6    -0.02  -0.05   0.04    -0.07  -0.03   0.07    -0.04  -0.04  -0.05
    11   1     0.11   0.12   0.02     0.01  -0.07   0.02     0.07   0.13  -0.04
    12   1    -0.21   0.07   0.05    -0.17  -0.06   0.04    -0.06  -0.12  -0.02
    13   1     0.11   0.06  -0.24    -0.03   0.01  -0.04    -0.10  -0.18  -0.19
    14   1     0.06  -0.17   0.21     0.08  -0.08  -0.07     0.05   0.07  -0.03
    15   1     0.36  -0.11  -0.25     0.06   0.09  -0.01    -0.01   0.08  -0.34
    16   1    -0.02   0.00   0.05    -0.04  -0.03  -0.02     0.05  -0.04   0.00
    17   1    -0.18  -0.17  -0.11     0.05   0.10  -0.04    -0.20  -0.41   0.13
    18   1     0.04  -0.09   0.10     0.09  -0.06   0.06    -0.08   0.44  -0.08
    19   1     0.14   0.11  -0.00     0.36   0.26   0.04     0.15  -0.07  -0.09
    20   1    -0.03  -0.05  -0.24    -0.38   0.10  -0.29     0.22  -0.10  -0.12
    21   1     0.11  -0.06  -0.26     0.10  -0.04  -0.37    -0.05  -0.05  -0.12
    22   1    -0.25   0.23  -0.01    -0.11   0.43   0.21    -0.12  -0.01  -0.10
                     16                     17                     18
                      A                      A                      A
 Frequencies --    889.0404               900.1103               912.0772
 Red. masses --      2.3137                 2.9883                 2.9500
 Frc consts  --      1.0775                 1.4265                 1.4459
 IR Inten    --      0.6172                 0.7529                 3.1092
  Atom  AN      X      Y      Z        X      Y      Z        X      Y      Z
     1   8    -0.02   0.01  -0.01     0.01   0.01  -0.00    -0.01  -0.00  -0.00
     2   6    -0.01   0.00   0.06     0.02  -0.05   0.02     0.02  -0.04   0.02
     3   6    -0.03  -0.02  -0.04    -0.03   0.07  -0.04    -0.00   0.03  -0.01
     4   6     0.03  -0.01  -0.02     0.03   0.08   0.01     0.06   0.18  -0.05
     5   6     0.00  -0.10  -0.02    -0.11   0.03  -0.14     0.00  -0.10  -0.15
     6   6     0.12   0.10   0.05    -0.06  -0.14   0.06    -0.12  -0.12  -0.07
     7   6    -0.04   0.05  -0.16     0.00   0.01  -0.02     0.02  -0.01   0.10
     8   6     0.01  -0.00   0.19    -0.02   0.04   0.07     0.11   0.06   0.14
     9   6     0.01   0.04   0.01     0.15   0.04   0.18    -0.10  -0.01  -0.06
    10   6    -0.02   0.01  -0.08     0.03  -0.13  -0.15    -0.00   0.06   0.05
    11   1     0.09  -0.08   0.04    -0.07  -0.09   0.05    -0.05  -0.03   0.01
    12   1    -0.19   0.03   0.07    -0.11   0.14   0.04    -0.22  -0.07   0.04
    13   1     0.06  -0.06  -0.06     0.10   0.05   0.03     0.05   0.16  -0.10
    14   1    -0.14  -0.23   0.04    -0.27   0.25  -0.09     0.18  -0.16  -0.21
    15   1     0.25   0.05   0.28    -0.16  -0.14   0.21    -0.34  -0.11   0.06
    16   1    -0.11  -0.04  -0.26     0.05   0.10   0.09     0.05  -0.01   0.06
    17   1    -0.11  -0.14  -0.17    -0.03   0.02  -0.05     0.00  -0.08   0.11
    18   1    -0.04  -0.15   0.33    -0.29   0.03   0.12     0.45  -0.09   0.25
    19   1    -0.03  -0.23  -0.20     0.32   0.26   0.26    -0.08  -0.17  -0.22
    20   1     0.09   0.04   0.23    -0.01   0.10  -0.05    -0.02  -0.04   0.04
    21   1    -0.03   0.03   0.25    -0.05  -0.16  -0.32     0.14   0.10   0.24
    22   1    -0.02  -0.27  -0.18     0.13  -0.02  -0.04     0.12  -0.01   0.10
                     19                     20                     21
                      A                      A                      A
 Frequencies --    929.5591               948.5173               972.4193
 Red. masses --      1.8025                 2.0324                 1.8505
 Frc consts  --      0.9177                 1.0773                 1.0310
 IR Inten    --      2.6404                 1.1708                 0.4383
  Atom  AN      X      Y      Z        X      Y      Z        X      Y      Z
     1   8    -0.01   0.01   0.02    -0.02  -0.01   0.00    -0.01  -0.01  -0.01
     2   6     0.00  -0.05  -0.11    -0.02   0.03  -0.02    -0.01   0.02   0.05
     3   6     0.03   0.05   0.13     0.04  -0.08   0.02     0.03  -0.01  -0.06
     4   6    -0.01   0.05  -0.02     0.05   0.11   0.01    -0.05  -0.01   0.07
     5   6    -0.04  -0.04  -0.09    -0.02  -0.08  -0.05     0.08  -0.01  -0.10
     6   6     0.05   0.02   0.04     0.03   0.12   0.01     0.01  -0.03   0.06
     7   6    -0.08   0.03   0.04     0.03  -0.11   0.05    -0.02  -0.01  -0.05
     8   6    -0.01  -0.04  -0.04     0.01   0.01  -0.05    -0.07   0.05   0.01
     9   6     0.06  -0.04   0.03     0.01   0.11   0.03     0.08  -0.05  -0.07
    10   6    -0.01   0.05   0.02    -0.06  -0.08  -0.03    -0.07   0.05   0.09
    11   1    -0.27   0.26  -0.12    -0.12  -0.11  -0.01     0.18  -0.08   0.04
    12   1     0.29  -0.19  -0.15     0.09  -0.08  -0.01     0.10   0.21   0.03
    13   1    -0.06   0.11   0.03    -0.02   0.32   0.28    -0.10   0.23   0.41
    14   1    -0.08  -0.40  -0.06    -0.08  -0.38  -0.02     0.29  -0.14  -0.17
    15   1     0.27  -0.04   0.16    -0.02   0.16  -0.21    -0.12  -0.04   0.27
    16   1     0.06  -0.02  -0.32    -0.17  -0.17   0.27     0.02   0.07   0.07
    17   1     0.03  -0.27   0.21    -0.07   0.16  -0.11    -0.11  -0.06  -0.12
    18   1    -0.02   0.08  -0.14    -0.11   0.01  -0.03    -0.26   0.11  -0.02
    19   1     0.24   0.01  -0.06    -0.26   0.03   0.18     0.13  -0.09  -0.15
    20   1    -0.11   0.07  -0.03     0.23  -0.04   0.11     0.17  -0.19  -0.29
    21   1    -0.09   0.04   0.04     0.19  -0.05  -0.07    -0.07   0.03  -0.10
    22   1     0.07  -0.03   0.05    -0.23   0.08  -0.08    -0.08   0.15   0.12
                     22                     23                     24
                      A                      A                      A
 Frequencies --    991.6800              1025.2289              1031.3152
 Red. masses --      2.0451                 1.8306                 2.2059
 Frc consts  --      1.1850                 1.1337                 1.3823
 IR Inten    --      1.7799                 2.4576                 6.4350
  Atom  AN      X      Y      Z        X      Y      Z        X      Y      Z
     1   8     0.00   0.00  -0.00    -0.00   0.01  -0.00    -0.01  -0.02   0.02
     2   6     0.01  -0.03   0.01     0.01  -0.03   0.03    -0.03   0.08  -0.09
     3   6    -0.02   0.02   0.00    -0.13   0.05   0.01    -0.04  -0.02   0.11
     4   6     0.04   0.04  -0.02     0.18  -0.06   0.04     0.07  -0.00  -0.07
     5   6     0.05  -0.04   0.06     0.01  -0.00  -0.05     0.17   0.01   0.04
     6   6    -0.06  -0.01  -0.11     0.02   0.02   0.02    -0.01  -0.05   0.07
     7   6     0.06   0.14   0.06    -0.04  -0.03   0.00     0.04  -0.06  -0.05
     8   6    -0.13  -0.11   0.01     0.01   0.01  -0.06     0.01   0.04   0.02
     9   6     0.08   0.00   0.00    -0.02   0.02  -0.03    -0.04   0.00   0.06
    10   6    -0.05  -0.00  -0.03    -0.03   0.01   0.05    -0.09   0.04  -0.08
    11   1     0.01   0.02   0.01    -0.40  -0.15   0.06    -0.25   0.12  -0.07
    12   1    -0.23  -0.10   0.04    -0.26  -0.03   0.03     0.02  -0.24  -0.05
    13   1     0.24   0.08   0.26     0.57  -0.24   0.13     0.00  -0.06  -0.25
    14   1     0.21  -0.15   0.00     0.05   0.20  -0.07     0.34  -0.03  -0.01
    15   1     0.00  -0.01  -0.20     0.08  -0.01   0.14    -0.33  -0.01   0.19
    16   1     0.24   0.22  -0.06    -0.06  -0.07  -0.07    -0.00   0.03   0.25
    17   1     0.24   0.12   0.22    -0.05  -0.09   0.01    -0.04   0.14  -0.17
    18   1    -0.33  -0.12   0.03    -0.04   0.23  -0.27    -0.17  -0.00   0.07
    19   1     0.09  -0.15  -0.14    -0.09  -0.02  -0.01     0.09   0.02  -0.03
    20   1     0.03   0.09   0.18     0.07  -0.04  -0.03    -0.11   0.02  -0.05
    21   1    -0.02   0.01   0.04     0.12   0.03   0.03    -0.46  -0.01  -0.11
    22   1    -0.32  -0.09  -0.23    -0.05   0.09   0.07    -0.01  -0.13  -0.10
                     25                     26                     27
                      A                      A                      A
 Frequencies --   1049.6536              1072.0212              1115.5573
 Red. masses --      1.7383                 1.7916                 1.2981
 Frc consts  --      1.1284                 1.2131                 0.9518
 IR Inten    --      8.3043                 2.7223                 5.1957
  Atom  AN      X      Y      Z        X      Y      Z        X      Y      Z
     1   8     0.01   0.02  -0.00    -0.00  -0.01  -0.02    -0.01  -0.01   0.00
     2   6     0.03  -0.08  -0.00    -0.01   0.06   0.10    -0.02   0.05  -0.01
     3   6    -0.01   0.07  -0.01    -0.02  -0.03  -0.08     0.01  -0.03   0.01
     4   6    -0.08  -0.04   0.00     0.01   0.01   0.07     0.00   0.02  -0.00
     5   6     0.11   0.02  -0.02     0.04  -0.06   0.02     0.00  -0.01  -0.04
     6   6    -0.03  -0.02   0.00     0.03  -0.04  -0.04     0.06   0.01   0.01
     7   6    -0.04   0.01   0.03    -0.06   0.02  -0.00    -0.03   0.01   0.03
     8   6     0.08  -0.03  -0.00     0.07   0.00  -0.09    -0.03  -0.06  -0.04
     9   6    -0.02   0.10   0.03    -0.00  -0.02   0.09     0.04   0.04  -0.01
    10   6    -0.08  -0.05  -0.04    -0.05   0.06  -0.06    -0.04  -0.04   0.04
    11   1     0.27   0.21  -0.02    -0.02  -0.23   0.07    -0.04  -0.01  -0.01
    12   1    -0.08   0.03   0.00     0.07   0.24   0.03     0.09   0.01  -0.01
    13   1    -0.07   0.02   0.11    -0.06   0.09   0.14    -0.15  -0.05  -0.29
    14   1     0.29   0.03  -0.09     0.05  -0.22   0.03     0.17   0.44  -0.12
    15   1     0.18  -0.09   0.24    -0.09  -0.01  -0.14    -0.05  -0.01   0.27
    16   1    -0.24  -0.30  -0.31     0.15   0.15  -0.07     0.25   0.25   0.08
    17   1     0.16   0.08   0.20    -0.08  -0.23   0.03    -0.16  -0.27  -0.01
    18   1     0.19  -0.04  -0.01     0.41   0.13  -0.25     0.20  -0.27   0.13
    19   1    -0.27   0.10   0.22     0.11   0.17   0.17    -0.08  -0.01   0.04
    20   1     0.14  -0.01   0.08    -0.26   0.20   0.15     0.05   0.09   0.19
    21   1    -0.10  -0.07  -0.19    -0.29   0.04   0.05     0.20  -0.02  -0.01
    22   1    -0.19   0.05  -0.07    -0.03  -0.17  -0.14    -0.27   0.07  -0.07
                     28                     29                     30
                      A                      A                      A
 Frequencies --   1152.3318              1153.5736              1174.2933
 Red. masses --      1.2808                 1.2992                 1.5882
 Frc consts  --      1.0021                 1.0186                 1.2903
 IR Inten    --     11.8030                 3.8395                 5.6914
  Atom  AN      X      Y      Z        X      Y      Z        X      Y      Z
     1   8     0.01  -0.01   0.01    -0.00   0.01  -0.00    -0.03   0.01   0.00
     2   6    -0.03   0.07  -0.09     0.03  -0.08   0.01     0.01  -0.07  -0.03
     3   6    -0.02  -0.03   0.02     0.02   0.03  -0.00     0.05   0.00  -0.01
     4   6     0.02  -0.02  -0.02    -0.04   0.04  -0.01    -0.03   0.04   0.05
     5   6    -0.03   0.02   0.02    -0.00  -0.01   0.03    -0.03  -0.06   0.01
     6   6    -0.00  -0.06   0.03    -0.02   0.05  -0.02     0.03   0.09  -0.05
     7   6     0.01   0.00  -0.03     0.07  -0.03  -0.00     0.05  -0.01   0.03
     8   6     0.02  -0.00   0.01    -0.00   0.01  -0.00    -0.07   0.01  -0.03
     9   6     0.00  -0.00   0.01    -0.02  -0.05   0.04     0.05  -0.05  -0.01
    10   6    -0.00  -0.01   0.01     0.01  -0.02  -0.01     0.02   0.07  -0.00
    11   1     0.39   0.29  -0.06    -0.01   0.00   0.00     0.22   0.09  -0.01
    12   1    -0.38  -0.29   0.05     0.11   0.08  -0.02    -0.29  -0.22   0.05
    13   1     0.02   0.26   0.43    -0.09   0.06  -0.02     0.28  -0.20  -0.02
    14   1    -0.14   0.09   0.06     0.16   0.22  -0.04    -0.01   0.02   0.00
    15   1     0.06  -0.07   0.06    -0.07   0.02   0.25    -0.28   0.09   0.32
    16   1     0.07   0.09   0.05    -0.19  -0.21   0.05    -0.07  -0.09   0.05
    17   1    -0.13  -0.14  -0.12    -0.13  -0.01  -0.20    -0.15  -0.08  -0.14
    18   1     0.20   0.17  -0.17    -0.05   0.34  -0.30     0.20  -0.13   0.07
    19   1     0.01  -0.01  -0.01     0.22  -0.14  -0.23    -0.06   0.27   0.34
    20   1    -0.05   0.06   0.10    -0.24   0.18   0.21     0.02  -0.08  -0.17
    21   1     0.13   0.01   0.07     0.24   0.03   0.17    -0.28   0.03  -0.03
    22   1    -0.06   0.02  -0.01    -0.25  -0.07  -0.20     0.06  -0.10  -0.04
                     31                     32                     33
                      A                      A                      A
 Frequencies --   1197.9852              1216.1366              1233.5950
 Red. masses --      1.5467                 1.5586                 1.5138
 Frc consts  --      1.3079                 1.3582                 1.3573
 IR Inten    --     10.0362                 3.3128                 0.3495
  Atom  AN      X      Y      Z        X      Y      Z        X      Y      Z
     1   8     0.01  -0.02  -0.00     0.02  -0.02  -0.01     0.02   0.01   0.00
     2   6    -0.04   0.11   0.01    -0.03   0.11   0.03     0.01  -0.02  -0.02
     3   6     0.01  -0.03  -0.02     0.06  -0.01   0.00    -0.02   0.01   0.01
     4   6     0.02   0.07   0.04    -0.01   0.00  -0.05     0.02  -0.05   0.01
     5   6     0.01  -0.10   0.01    -0.06   0.04   0.03    -0.00  -0.03  -0.06
     6   6     0.03  -0.03  -0.05    -0.07  -0.04  -0.04    -0.07   0.03   0.09
     7   6    -0.01  -0.02   0.04     0.05   0.01   0.00    -0.00  -0.04  -0.02
     8   6    -0.00   0.01  -0.05    -0.04  -0.02   0.06    -0.04   0.09  -0.02
     9   6    -0.01  -0.03   0.04     0.01  -0.01  -0.05     0.01  -0.08   0.03
    10   6    -0.03   0.04  -0.02     0.06   0.00   0.01     0.00   0.05  -0.02
    11   1     0.07  -0.02  -0.01    -0.33  -0.26   0.04     0.05   0.06   0.00
    12   1    -0.17  -0.06   0.05     0.03  -0.05  -0.01    -0.00   0.00  -0.01
    13   1    -0.17   0.09  -0.12     0.08   0.00   0.04    -0.01  -0.02   0.03
    14   1    -0.11   0.43   0.03     0.27  -0.17  -0.09     0.23   0.10  -0.16
    15   1     0.33  -0.13   0.24     0.51  -0.19   0.30     0.41   0.02  -0.38
    16   1    -0.20  -0.25  -0.14    -0.12  -0.12   0.03     0.02   0.03   0.10
    17   1     0.23   0.23   0.21    -0.11  -0.09  -0.12     0.07   0.12   0.01
    18   1    -0.28  -0.02   0.01     0.12   0.12  -0.09     0.17  -0.22   0.25
    19   1     0.11  -0.01  -0.04    -0.15   0.14   0.21     0.09   0.17   0.18
    20   1    -0.02  -0.09  -0.20     0.04  -0.00   0.03    -0.12  -0.02  -0.10
    21   1     0.05   0.07   0.16    -0.17  -0.04  -0.14     0.18   0.09   0.23
    22   1     0.15  -0.04   0.06    -0.10  -0.05  -0.12    -0.29  -0.15  -0.28
                     34                     35                     36
                      A                      A                      A
 Frequencies --   1265.5357              1286.6901              1288.5504
 Red. masses --      1.4412                 1.5972                 1.4613
 Frc consts  --      1.3599                 1.5579                 1.4295
 IR Inten    --      0.6650                 0.9611                 1.4655
  Atom  AN      X      Y      Z        X      Y      Z        X      Y      Z
     1   8    -0.00   0.01  -0.00     0.03   0.01  -0.00    -0.02  -0.01   0.00
     2   6     0.01  -0.02   0.02     0.00   0.01  -0.01    -0.02   0.04  -0.02
     3   6    -0.09  -0.03   0.03    -0.13  -0.08  -0.00     0.06   0.01  -0.02
     4   6     0.06  -0.02  -0.11     0.08   0.03   0.08    -0.04   0.01   0.05
     5   6    -0.01   0.01   0.03    -0.04   0.07  -0.01    -0.02   0.09  -0.03
     6   6     0.04  -0.03  -0.04    -0.03   0.00  -0.06     0.09  -0.04   0.01
     7   6     0.01   0.04   0.02    -0.00  -0.05   0.01    -0.04   0.00  -0.02
     8   6     0.00  -0.01   0.03    -0.01   0.02  -0.01     0.06  -0.03   0.05
     9   6    -0.02  -0.03  -0.00    -0.00  -0.01  -0.02    -0.02  -0.04  -0.01
    10   6     0.02   0.04  -0.00     0.02  -0.01   0.01     0.01  -0.00  -0.01
    11   1    -0.02   0.11  -0.04     0.47   0.29  -0.06    -0.04  -0.08   0.01
    12   1     0.39   0.28  -0.06     0.19   0.22  -0.00    -0.24  -0.17   0.04
    13   1    -0.05   0.26   0.24     0.01  -0.15  -0.31    -0.00  -0.16  -0.19
    14   1    -0.17   0.11   0.09     0.06  -0.44  -0.03     0.13  -0.22  -0.08
    15   1    -0.25  -0.01   0.15     0.16  -0.09   0.34    -0.30   0.03  -0.02
    16   1    -0.10  -0.11  -0.10     0.06   0.05   0.11     0.04   0.05  -0.07
    17   1    -0.05  -0.08  -0.00     0.07   0.11   0.05     0.17   0.12   0.15
    18   1    -0.07  -0.09   0.11    -0.11   0.02   0.00    -0.28   0.20  -0.13
    19   1    -0.12   0.20   0.28    -0.00  -0.00  -0.01    -0.09   0.18   0.25
    20   1     0.07  -0.18  -0.29    -0.08   0.09   0.14    -0.03  -0.07  -0.12
    21   1     0.09   0.07   0.19     0.00  -0.02  -0.04     0.31   0.06   0.23
    22   1    -0.20  -0.08  -0.19    -0.03   0.00  -0.02    -0.29  -0.07  -0.23
                     37                     38                     39
                      A                      A                      A
 Frequencies --   1296.5591              1315.0192              1329.5811
 Red. masses --      1.4729                 1.3830                 1.6613
 Frc consts  --      1.4589                 1.4091                 1.7303
 IR Inten    --      3.7575                 1.6541                 0.1104
  Atom  AN      X      Y      Z        X      Y      Z        X      Y      Z
     1   8    -0.01  -0.01   0.00     0.00   0.00  -0.00     0.00  -0.01  -0.00
     2   6    -0.02   0.05  -0.00     0.01  -0.03   0.01    -0.01   0.03   0.01
     3   6     0.00  -0.03   0.01     0.03   0.04  -0.00    -0.00  -0.02   0.01
     4   6    -0.01  -0.01  -0.02    -0.02  -0.04  -0.02    -0.04   0.02  -0.00
     5   6     0.00   0.02  -0.04     0.06   0.03  -0.00     0.11   0.05  -0.01
     6   6     0.09  -0.06  -0.00    -0.04   0.05  -0.07    -0.04  -0.03   0.00
     7   6    -0.01  -0.02  -0.02    -0.04  -0.08  -0.03     0.05   0.03  -0.00
     8   6    -0.11   0.08   0.01    -0.01  -0.00   0.00    -0.08  -0.02   0.02
     9   6     0.04  -0.02  -0.02    -0.02   0.03   0.07     0.07  -0.02  -0.00
    10   6     0.02  -0.02   0.07     0.01   0.00   0.00    -0.14  -0.02  -0.06
    11   1    -0.05  -0.02  -0.00    -0.14  -0.10   0.03    -0.02  -0.02   0.00
    12   1     0.07   0.01  -0.00    -0.05  -0.06  -0.01     0.13   0.03  -0.02
    13   1     0.16  -0.06   0.06    -0.03   0.02   0.07     0.18  -0.20  -0.15
    14   1    -0.20   0.01   0.03    -0.35  -0.11   0.16    -0.22  -0.18   0.13
    15   1    -0.24   0.00  -0.03     0.12  -0.05   0.40     0.05  -0.05  -0.03
    16   1    -0.22  -0.25  -0.16     0.29   0.29   0.23    -0.14  -0.13  -0.03
    17   1     0.30   0.35   0.18     0.16   0.19   0.10    -0.10  -0.08  -0.11
    18   1     0.44  -0.01   0.03     0.27   0.00  -0.03     0.28   0.04  -0.08
    19   1     0.10  -0.08  -0.12     0.11  -0.09  -0.14    -0.00   0.10   0.16
    20   1    -0.09   0.17   0.25     0.12  -0.19  -0.28     0.04  -0.01  -0.03
    21   1    -0.10  -0.06  -0.17     0.07   0.02   0.07     0.51   0.11   0.34
    22   1    -0.23   0.01  -0.09    -0.17  -0.02  -0.12     0.28   0.09   0.24
                     40                     41                     42
                      A                      A                      A
 Frequencies --   1337.1969              1342.8419              1359.2120
 Red. masses --      1.5126                 1.5524                 1.5056
 Frc consts  --      1.5936                 1.6494                 1.6388
 IR Inten    --      2.0596                 2.1455                 1.0326
  Atom  AN      X      Y      Z        X      Y      Z        X      Y      Z
     1   8     0.00  -0.01  -0.00    -0.01  -0.01  -0.00    -0.00   0.00  -0.00
     2   6    -0.02   0.05  -0.00    -0.00   0.01   0.01     0.00  -0.02   0.01
     3   6    -0.00  -0.06   0.01     0.03   0.05  -0.01     0.00  -0.00   0.01
     4   6    -0.09   0.03  -0.02     0.01  -0.08   0.01    -0.03  -0.02  -0.07
     5   6    -0.06   0.03   0.02     0.02   0.08   0.00    -0.06  -0.02   0.06
     6   6     0.03  -0.02   0.00    -0.00  -0.02  -0.05     0.04   0.04  -0.04
     7   6    -0.01   0.01   0.02     0.02   0.02   0.06    -0.06  -0.07  -0.03
     8   6     0.04   0.02  -0.06     0.05   0.10  -0.10     0.03   0.05   0.03
     9   6    -0.05   0.04   0.10    -0.00  -0.04  -0.01     0.03  -0.04  -0.06
    10   6     0.02  -0.02  -0.04    -0.02  -0.02   0.00    -0.06  -0.01  -0.05
    11   1     0.10   0.01  -0.01    -0.14  -0.15   0.06    -0.06  -0.03   0.01
    12   1     0.17   0.03  -0.02    -0.18  -0.14  -0.01     0.11   0.02  -0.03
    13   1     0.57  -0.23   0.21    -0.09   0.06   0.15     0.16   0.08   0.29
    14   1     0.33  -0.05  -0.12    -0.15  -0.27   0.09     0.33   0.11  -0.08
    15   1    -0.03  -0.01   0.01    -0.05  -0.05   0.23    -0.03   0.02   0.20
    16   1    -0.03  -0.04  -0.06    -0.11  -0.14  -0.03     0.19   0.19   0.11
    17   1    -0.06  -0.09   0.00    -0.15  -0.18  -0.06     0.25   0.25   0.18
    18   1     0.04  -0.18   0.12    -0.27  -0.40   0.41    -0.04   0.02   0.08
    19   1     0.20  -0.19  -0.31     0.06  -0.03  -0.06    -0.03   0.15   0.17
    20   1     0.11  -0.18  -0.26    -0.20   0.19   0.22    -0.10   0.18   0.30
    21   1     0.11  -0.01   0.05     0.12   0.00   0.07     0.13   0.03   0.11
    22   1     0.02  -0.03  -0.05    -0.05   0.06   0.01     0.35   0.06   0.24
                     43                     44                     45
                      A                      A                      A
 Frequencies --   1389.2105              1483.3802              1520.1939
 Red. masses --      1.6139                 1.0909                 1.0808
 Frc consts  --      1.8351                 1.4143                 1.4716
 IR Inten    --      1.2368                 6.8564                 0.5611
  Atom  AN      X      Y      Z        X      Y      Z        X      Y      Z
     1   8     0.01  -0.00  -0.00     0.00   0.00  -0.00     0.00  -0.00  -0.00
     2   6    -0.01   0.02   0.01     0.00  -0.01   0.00    -0.00   0.00   0.00
     3   6     0.00  -0.04   0.01     0.06  -0.06  -0.00    -0.00   0.00  -0.00
     4   6    -0.11   0.06  -0.02    -0.01  -0.01   0.00     0.00   0.00   0.00
     5   6     0.10  -0.04  -0.05    -0.00   0.01   0.00     0.00  -0.00  -0.01
     6   6    -0.05   0.00   0.00    -0.00   0.00  -0.00    -0.00  -0.00   0.00
     7   6    -0.01  -0.01  -0.01    -0.00  -0.00   0.01     0.00   0.00   0.01
     8   6     0.10   0.01   0.01    -0.00   0.01  -0.01    -0.01  -0.01  -0.00
     9   6    -0.01  -0.04  -0.05    -0.00  -0.00   0.00    -0.05  -0.01  -0.02
    10   6     0.01   0.01   0.05    -0.00  -0.00  -0.00     0.03  -0.03  -0.03
    11   1     0.03   0.04  -0.03    -0.37   0.41  -0.44     0.01  -0.01   0.01
    12   1     0.15   0.07  -0.00    -0.29   0.46   0.44     0.00  -0.01  -0.01
    13   1     0.47  -0.22   0.08    -0.00  -0.01   0.02    -0.01  -0.00  -0.02
    14   1    -0.44   0.18   0.13     0.01  -0.03   0.00    -0.01   0.00  -0.00
    15   1     0.16  -0.03  -0.03     0.00  -0.00   0.01     0.01  -0.00  -0.01
    16   1     0.06   0.10   0.12     0.03   0.00  -0.04     0.03  -0.01  -0.07
    17   1    -0.01  -0.11   0.02    -0.03   0.03  -0.03    -0.04   0.04  -0.05
    18   1    -0.35   0.05   0.03     0.01  -0.02   0.01    -0.00  -0.00  -0.01
    19   1    -0.08   0.11   0.13     0.02   0.00  -0.01     0.39   0.34  -0.04
    20   1    -0.13   0.14   0.21     0.01  -0.00   0.01     0.36  -0.20   0.31
    21   1    -0.13  -0.02  -0.09     0.01   0.00   0.02    -0.28  -0.02   0.38
    22   1    -0.22  -0.00  -0.10     0.00   0.01   0.01    -0.13   0.44   0.06
                     46                     47                     48
                      A                      A                      A
 Frequencies --   1532.4146              1547.6272              1850.9776
 Red. masses --      1.0924                 1.0905                12.2611
 Frc consts  --      1.5114                 1.5389                24.7504
 IR Inten    --      3.0830                 3.2573               261.9295
  Atom  AN      X      Y      Z        X      Y      Z        X      Y      Z
     1   8     0.00   0.00   0.00     0.00   0.00   0.00    -0.50  -0.15   0.03
     2   6    -0.00  -0.01  -0.00     0.00  -0.01  -0.00     0.77   0.23  -0.05
     3   6     0.00  -0.00   0.00     0.00   0.00  -0.00    -0.05  -0.01   0.00
     4   6     0.00   0.00   0.00     0.01  -0.01   0.00    -0.02  -0.01   0.00
     5   6    -0.01  -0.00  -0.00    -0.00   0.00   0.01    -0.02  -0.01   0.01
     6   6     0.00   0.01  -0.00     0.00   0.01  -0.01    -0.05  -0.01   0.00
     7   6     0.00   0.03  -0.05     0.01   0.03  -0.05    -0.01  -0.01  -0.01
     8   6    -0.01   0.00  -0.00    -0.00  -0.00  -0.01     0.00   0.00   0.00
     9   6     0.04   0.01   0.01    -0.05  -0.00  -0.01     0.00  -0.00   0.00
    10   6     0.03  -0.03  -0.03    -0.03   0.02   0.02     0.00  -0.00  -0.00
    11   1    -0.01   0.03  -0.02    -0.02   0.02  -0.02     0.05   0.07  -0.02
    12   1    -0.02   0.02   0.02    -0.03   0.02   0.02     0.07   0.09   0.01
    13   1    -0.00  -0.00  -0.01    -0.04   0.01  -0.01    -0.03  -0.02   0.01
    14   1     0.03   0.00  -0.02     0.01  -0.01   0.01     0.03   0.01  -0.01
    15   1    -0.00   0.01  -0.00    -0.02   0.01   0.01     0.21  -0.02   0.00
    16   1    -0.27  -0.02   0.40    -0.29  -0.02   0.40     0.00   0.03   0.04
    17   1     0.24  -0.33   0.28     0.23  -0.36   0.28     0.04   0.02   0.02
    18   1     0.03   0.00  -0.01     0.00  -0.02  -0.01     0.01   0.01  -0.00
    19   1    -0.22  -0.20   0.01     0.28   0.24  -0.04     0.00  -0.00  -0.00
    20   1    -0.20   0.11  -0.19     0.26  -0.15   0.21     0.00  -0.00   0.00
    21   1    -0.24  -0.02   0.33     0.19   0.01  -0.27    -0.00  -0.00   0.00
    22   1    -0.10   0.39   0.05     0.09  -0.31  -0.04     0.01   0.01   0.01
                     49                     50                     51
                      A                      A                      A
 Frequencies --   3053.0007              3059.7182              3064.1013
 Red. masses --      1.0610                 1.0608                 1.0613
 Frc consts  --      5.8266                 5.8510                 5.8707
 IR Inten    --     27.5038                12.5397                50.5365
  Atom  AN      X      Y      Z        X      Y      Z        X      Y      Z
     1   8    -0.00   0.00   0.00    -0.00   0.00   0.00    -0.00   0.00   0.00
     2   6     0.00  -0.00   0.00    -0.00  -0.00  -0.00     0.00  -0.00   0.00
     3   6     0.00  -0.00   0.00    -0.04   0.05  -0.01     0.01  -0.01   0.00
     4   6     0.00   0.00  -0.00    -0.00  -0.01   0.00     0.00   0.00  -0.00
     5   6     0.00   0.00   0.00     0.00  -0.00   0.00     0.00   0.00   0.01
     6   6    -0.00  -0.00   0.00     0.00  -0.00   0.00    -0.00  -0.00   0.00
     7   6     0.00   0.00  -0.00     0.00   0.00  -0.01     0.00   0.02  -0.03
     8   6     0.00   0.01   0.01     0.00   0.00   0.00    -0.00   0.00   0.00
     9   6    -0.06  -0.02  -0.01     0.00   0.00  -0.00     0.02   0.01   0.00
    10   6     0.02  -0.01  -0.02     0.00  -0.00  -0.00     0.02  -0.04  -0.02
    11   1    -0.00   0.00   0.01     0.16  -0.33  -0.52    -0.03   0.06   0.09
    12   1    -0.00   0.00  -0.01     0.29  -0.31   0.59    -0.06   0.06  -0.11
    13   1    -0.02  -0.04   0.02     0.06   0.10  -0.06    -0.01  -0.01   0.01
    14   1    -0.01  -0.00  -0.04    -0.01  -0.00  -0.04    -0.04  -0.01  -0.12
    15   1     0.00   0.00  -0.00     0.00   0.00  -0.00     0.01   0.03   0.00
    16   1     0.01  -0.01   0.00     0.07  -0.08   0.03     0.24  -0.29   0.12
    17   1    -0.02   0.01   0.02    -0.10   0.03   0.10    -0.27   0.08   0.28
    18   1    -0.01  -0.07  -0.08    -0.00  -0.00  -0.01     0.00  -0.00  -0.01
    19   1     0.24  -0.30   0.33    -0.00   0.00  -0.00    -0.07   0.10  -0.11
    20   1     0.43   0.59  -0.19    -0.02  -0.02   0.01    -0.17  -0.23   0.08
    21   1    -0.03   0.24  -0.03    -0.01   0.07  -0.01    -0.07   0.57  -0.07
    22   1    -0.16  -0.10   0.25    -0.03  -0.02   0.04    -0.22  -0.14   0.35
                     52                     53                     54
                      A                      A                      A
 Frequencies --   3064.7784              3086.0329              3091.7481
 Red. masses --      1.0616                 1.0944                 1.0960
 Frc consts  --      5.8748                 6.1409                 6.1727
 IR Inten    --     23.1346                21.5075                10.7243
  Atom  AN      X      Y      Z        X      Y      Z        X      Y      Z
     1   8    -0.00   0.00   0.00     0.00  -0.00   0.00     0.00  -0.00   0.00
     2   6     0.00  -0.00  -0.00     0.00   0.00  -0.00     0.00   0.00  -0.00
     3   6     0.00  -0.00   0.00     0.00  -0.00   0.00     0.00  -0.00  -0.01
     4   6     0.00   0.00  -0.00    -0.01  -0.02   0.01    -0.02  -0.03   0.02
     5   6    -0.00  -0.00  -0.01    -0.02  -0.00  -0.05    -0.01  -0.00  -0.03
     6   6    -0.00  -0.00  -0.00     0.00   0.00   0.00     0.00   0.00   0.00
     7   6     0.01   0.02  -0.05     0.00  -0.00  -0.00    -0.00   0.00   0.00
     8   6     0.00   0.01   0.01     0.00   0.00   0.00     0.00   0.00   0.01
     9   6    -0.01  -0.01   0.00    -0.01   0.03  -0.03     0.01  -0.04   0.03
    10   6    -0.02   0.03   0.02    -0.01  -0.04   0.02     0.02   0.03  -0.03
    11   1    -0.01   0.02   0.03    -0.00   0.01   0.01    -0.03   0.07   0.10
    12   1    -0.03   0.03  -0.06    -0.01   0.01  -0.02     0.02  -0.02   0.04
    13   1    -0.02  -0.04   0.02     0.15   0.25  -0.15     0.23   0.38  -0.23
    14   1     0.04   0.01   0.12     0.23   0.03   0.63     0.15   0.02   0.40
    15   1     0.01   0.04   0.00    -0.01  -0.05  -0.01    -0.00  -0.03  -0.00
    16   1     0.32  -0.39   0.16    -0.02   0.02  -0.01     0.01  -0.00   0.00
    17   1    -0.41   0.12   0.41    -0.03   0.01   0.03     0.03  -0.01  -0.04
    18   1    -0.01  -0.09  -0.10    -0.00  -0.04  -0.04    -0.00  -0.06  -0.06
    19   1     0.01  -0.02   0.02     0.20  -0.23   0.26    -0.24   0.28  -0.31
    20   1     0.11   0.15  -0.05    -0.13  -0.16   0.05     0.15   0.19  -0.06
    21   1     0.05  -0.41   0.05    -0.05   0.35  -0.03     0.03  -0.20   0.02
    22   1     0.16   0.11  -0.26     0.15   0.08  -0.23    -0.23  -0.13   0.35
                     55                     56                     57
                      A                      A                      A
 Frequencies --   3093.8858              3098.6120              3102.7812
 Red. masses --      1.0904                 1.1034                 1.0999
 Frc consts  --      6.1496                 6.2420                 6.2390
 IR Inten    --     22.1849                15.9692                31.8523
  Atom  AN      X      Y      Z        X      Y      Z        X      Y      Z
     1   8     0.00   0.00  -0.00     0.00   0.00   0.00     0.00  -0.00   0.00
     2   6    -0.00  -0.00   0.00    -0.00   0.00  -0.00    -0.00  -0.00  -0.00
     3   6    -0.00   0.01   0.02    -0.01  -0.01  -0.08    -0.01  -0.00  -0.04
     4   6     0.02   0.04  -0.02     0.00   0.00  -0.00     0.02   0.03  -0.02
     5   6    -0.01  -0.00  -0.04     0.00   0.00   0.00    -0.01  -0.00  -0.02
     6   6     0.00   0.00   0.00    -0.00  -0.00  -0.00     0.00   0.01   0.00
     7   6    -0.02   0.01   0.00    -0.04   0.03   0.01     0.05  -0.04  -0.01
     8   6    -0.00  -0.03  -0.03    -0.00  -0.01  -0.01     0.00   0.01   0.01
     9   6     0.00  -0.02   0.01    -0.00  -0.00  -0.00     0.01  -0.00   0.00
    10   6     0.00  -0.01  -0.00    -0.01  -0.01   0.01     0.00   0.00  -0.01
    11   1     0.07  -0.14  -0.21    -0.16   0.34   0.49    -0.08   0.18   0.25
    12   1    -0.04   0.05  -0.08     0.23  -0.24   0.43     0.15  -0.16   0.28
    13   1    -0.26  -0.42   0.25    -0.01  -0.01   0.01    -0.21  -0.34   0.21
    14   1     0.16   0.02   0.45    -0.01  -0.00  -0.03     0.08   0.01   0.22
    15   1    -0.00  -0.02  -0.00     0.01   0.05   0.01    -0.02  -0.10  -0.01
    16   1     0.11  -0.14   0.06     0.23  -0.29   0.13    -0.30   0.38  -0.17
    17   1     0.10  -0.03  -0.11     0.20  -0.05  -0.21    -0.28   0.07   0.30
    18   1     0.04   0.33   0.36     0.02   0.15   0.17    -0.02  -0.14  -0.15
    19   1    -0.10   0.12  -0.14     0.02  -0.02   0.02    -0.05   0.05  -0.05
    20   1     0.09   0.12  -0.04     0.03   0.03  -0.01    -0.02  -0.03   0.01
    21   1    -0.01   0.08  -0.01    -0.01   0.08  -0.01    -0.00   0.00  -0.00
    22   1    -0.03  -0.02   0.04     0.07   0.04  -0.11    -0.05  -0.03   0.08
                     58                     59                     60
                      A                      A                      A
 Frequencies --   3105.9293              3110.3615              3140.0262
 Red. masses --      1.0952                 1.1027                 1.0894
 Frc consts  --      6.2248                 6.2854                 6.3287
 IR Inten    --     36.2516                65.9675                21.1436
  Atom  AN      X      Y      Z        X      Y      Z        X      Y      Z
     1   8    -0.00  -0.00   0.00    -0.00   0.00   0.00     0.00   0.00  -0.00
     2   6     0.00   0.00  -0.00     0.00  -0.00  -0.00    -0.00   0.00  -0.00
     3   6     0.00  -0.00  -0.01     0.00  -0.00   0.00    -0.00   0.00  -0.00
     4   6    -0.01  -0.01   0.01    -0.01  -0.02   0.01     0.00   0.00  -0.00
     5   6     0.00   0.00   0.00     0.01   0.00   0.01    -0.00  -0.00  -0.01
     6   6     0.00  -0.00  -0.00     0.00   0.00  -0.00    -0.01  -0.08  -0.01
     7   6     0.03  -0.01  -0.01     0.03  -0.02  -0.01     0.01  -0.01   0.00
     8   6    -0.01  -0.04  -0.05    -0.00  -0.02  -0.02     0.00   0.00   0.00
     9   6    -0.01   0.03  -0.02    -0.00  -0.04   0.03     0.00  -0.00   0.00
    10   6     0.01   0.03  -0.02    -0.02  -0.04   0.03     0.00  -0.00  -0.00
    11   1    -0.02   0.04   0.07    -0.01   0.01   0.02     0.00  -0.00  -0.00
    12   1     0.00  -0.00   0.00    -0.01   0.01  -0.02     0.00  -0.00   0.01
    13   1     0.10   0.16  -0.10     0.11   0.18  -0.11    -0.01  -0.02   0.01
    14   1    -0.02  -0.00  -0.05    -0.06  -0.01  -0.17     0.02   0.00   0.08
    15   1     0.00   0.02   0.00    -0.00  -0.01  -0.00     0.17   0.96   0.13
    16   1    -0.10   0.12  -0.06    -0.15   0.19  -0.09    -0.06   0.07  -0.04
    17   1    -0.22   0.05   0.23    -0.18   0.05   0.19    -0.01   0.00   0.01
    18   1     0.06   0.49   0.53     0.03   0.22   0.24    -0.00  -0.02  -0.02
    19   1     0.17  -0.19   0.22    -0.20   0.22  -0.25    -0.01   0.01  -0.01
    20   1    -0.08  -0.11   0.03     0.22   0.29  -0.09    -0.00   0.00   0.00
    21   1     0.04  -0.29   0.03    -0.05   0.38  -0.03    -0.00   0.02  -0.00
    22   1    -0.14  -0.08   0.21     0.24   0.14  -0.38    -0.01  -0.00   0.01

 -------------------
 - Thermochemistry -
 -------------------
 Temperature   298.150 Kelvin.  Pressure   1.00000 Atm.
 Atom     1 has atomic number  8 and mass  15.99491
 Atom     2 has atomic number  6 and mass  12.00000
 Atom     3 has atomic number  6 and mass  12.00000
 Atom     4 has atomic number  6 and mass  12.00000
 Atom     5 has atomic number  6 and mass  12.00000
 Atom     6 has atomic number  6 and mass  12.00000
 Atom     7 has atomic number  6 and mass  12.00000
 Atom     8 has atomic number  6 and mass  12.00000
 Atom     9 has atomic number  6 and mass  12.00000
 Atom    10 has atomic number  6 and mass  12.00000
 Atom    11 has atomic number  1 and mass   1.00783
 Atom    12 has atomic number  1 and mass   1.00783
 Atom    13 has atomic number  1 and mass   1.00783
 Atom    14 has atomic number  1 and mass   1.00783
 Atom    15 has atomic number  1 and mass   1.00783
 Atom    16 has atomic number  1 and mass   1.00783
 Atom    17 has atomic number  1 and mass   1.00783
 Atom    18 has atomic number  1 and mass   1.00783
 Atom    19 has atomic number  1 and mass   1.00783
 Atom    20 has atomic number  1 and mass   1.00783
 Atom    21 has atomic number  1 and mass   1.00783
 Atom    22 has atomic number  1 and mass   1.00783
 Molecular mass:   136.08882 amu.
 Principal axes and moments of inertia in atomic units:
                           1         2         3
     Eigenvalues --   612.561631557.775141593.44625
           X            0.99981  -0.01953  -0.00083
           Y            0.01945   0.99823  -0.05617
           Z            0.00192   0.05614   0.99842
 This molecule is an asymmetric top.
 Rotational symmetry number  1.
 Warning -- assumption of classical behavior for rotation
           may cause significant error
 Rotational temperatures (Kelvin)      0.14140     0.05560     0.05436
[...]
 26,-0.00045397,0.00014995,0.00010663,0.00014869,-0.00362442,0.01183106
 ,0.01457513,-0.03791586,0.14425015,-0.00066062,-0.00001896,0.00104067,
 0.00037514,0.00159654,0.00014383,0.04425283,-0.12001156,-0.20780779,-0
 .00038533,0.00316114,0.00340655,-0.00013922,-0.00018636,0.00030542,0.0
 0011435,0.00014109,-0.00090207,-0.00008317,0.00002714,-0.00009173,-0.0
 0008353,0.00043506,0.00066875,-0.00027781,0.00010709,-0.00005397,-0.00
 003644,-0.00015348,0.00014790,0.00522780,-0.01667451,-0.02192541,-0.04
 871553,0.13143485,0.22397981,-0.00188281,-0.00224672,0.00024805,-0.003
 49881,0.00498638,-0.00096757,-0.01600964,-0.01759926,-0.00846309,-0.17
 704014,-0.11131298,-0.07119750,-0.00292194,-0.00145483,-0.00099399,0.0
 0060653,-0.00076893,0.00077938,-0.00019187,0.00170973,0.00195999,0.006
 82201,0.00676405,0.00290108,0.00068945,0.00024336,0.00052603,0.0003596
 6,0.00000706,0.00009081,-0.00051274,0.00017351,-0.00036201,0.00120596,
 0.00001249,0.00048086,0.19064387,0.00104948,0.00186156,-0.00021437,0.0
 0269095,-0.00389056,0.00062720,0.01149280,0.01164771,0.00574544,-0.110
 25996,-0.14852459,-0.06213142,-0.01461171,-0.01117612,-0.01231058,-0.0
 0080936,-0.00452921,0.00169838,0.00014448,-0.00131714,-0.00072330,-0.0
 0720680,-0.00601270,-0.00150379,-0.00086190,0.00002963,-0.00034451,-0.
 00062356,0.00081152,-0.00015903,-0.00017484,-0.00006811,0.00029806,-0.
 00107161,0.00067279,-0.00004422,0.11987492,0.15977256,-0.00035268,-0.0
 0041277,0.00002488,0.00119667,0.00180114,0.00023823,-0.00140487,-0.002
 02966,-0.00107339,-0.07165290,-0.06327562,-0.08638611,0.01397193,0.010
 74125,0.00924849,0.00108600,0.00402333,-0.00228203,0.00288651,-0.00341
 572,-0.00376919,-0.01980159,-0.01687621,-0.00820821,-0.00142287,0.0007
 8027,0.00056027,0.00036550,-0.00089467,0.00026844,-0.00019219,0.000014
 22,-0.00018491,0.00021436,0.00044666,0.00064924,0.07533186,0.07005386,
 0.08924111,-0.00027037,0.00005261,0.00013871,0.00153362,-0.00086325,-0
 .00078500,0.00005448,0.00001226,-0.00037275,-0.00277683,0.00138652,0.0
 0461508,-0.07114974,0.01082990,0.07274689,0.00772266,-0.00060928,-0.02
 197830,-0.00378379,-0.00031634,-0.00351800,-0.00185712,-0.00076683,0.0
 0030896,-0.00295232,0.00261454,0.00147952,-0.00606613,0.00040947,0.023
 23728,0.00002080,-0.00009339,0.00004889,0.00022633,0.00003911,-0.00002
 749,0.00000417,0.00021092,-0.00007491,0.07766775,-0.00027635,0.0001466
 1,0.00011191,0.00054149,-0.00029044,0.00002715,-0.00080812,0.00119560,
 -0.00078295,-0.00619597,0.00732310,0.02508661,0.01205396,-0.05362806,-
 0.03076575,0.00400201,-0.00127244,-0.01216212,-0.00341393,-0.00017276,
 -0.00116401,-0.00050711,-0.00455014,0.00408385,0.00226034,-0.00196489,
 0.00065989,0.00402633,-0.00036285,-0.01626452,-0.00004652,-0.00004569,
 -0.00023924,0.00030138,-0.00030491,-0.00003395,-0.00007116,0.00094174,
 -0.00122738,-0.01205967,0.05082674,-0.00116662,0.00030122,0.00031922,0
 .00134505,-0.00134073,-0.00102550,0.00024719,-0.00023590,0.00015045,0.
 00217405,-0.00400741,-0.00898036,0.07239665,-0.02984641,-0.28660020,0.
 00464649,0.00039501,-0.01270425,-0.00192362,0.00044816,-0.00155875,-0.
 00001100,0.00158129,-0.00152294,-0.00067151,0.00028753,0.00041263,-0.0
 0131670,0.00070263,0.00073374,-0.00012664,0.00020292,0.00015492,-0.000
 33295,0.00053546,0.00010525,0.00017673,0.00035366,0.00044143,-0.076919
 08,0.03192639,0.31035073,0.00123941,-0.00343704,0.00061077,0.01301749,
 0.01932007,-0.00546740,-0.00234085,0.00387462,0.00106933,-0.00407430,-
 0.00142508,-0.00240569,-0.00612669,-0.01613357,0.00819768,-0.10400548,
 -0.10780034,0.02415093,-0.00512101,-0.00949932,0.00092662,-0.00058206,
 -0.00111299,0.00185431,0.00029158,-0.00010923,0.00009858,0.00127590,-0
 .00102850,0.00031073,0.00028877,0.00029645,0.00001430,0.00060907,0.000
 86532,-0.00001763,-0.00001524,-0.00119129,0.00087727,0.00074123,0.0004
 6941,-0.00026785,0.10524192,0.00122052,0.00418716,-0.00089914,-0.01628
 337,-0.01881848,0.00470222,0.00148831,-0.00338121,-0.00045645,0.000443
 28,-0.00110044,-0.00070690,0.00091718,-0.00309007,0.00154711,-0.105309
 18,-0.25798945,0.05287978,0.00266305,0.00368449,-0.00114606,0.00103223
 ,0.00060834,-0.00128588,-0.00003708,0.00015036,0.00005427,-0.00022726,
 0.00053472,-0.00025308,-0.00023583,-0.00054990,-0.00003575,-0.00048660
 ,-0.00089401,0.00008309,0.00000809,-0.00002709,0.00022114,-0.00013897,
 -0.00009002,-0.00034875,0.11574589,0.27554580,-0.00077736,-0.00005792,
 -0.00079570,0.00104909,-0.00171563,-0.00091792,-0.00107451,-0.00039048
 ,0.00157634,-0.00313083,-0.00254251,-0.00300612,-0.00533284,-0.0172691
 7,0.00698822,0.02368341,0.05385508,-0.06110022,0.01087551,0.02258156,-
 0.00287137,0.00110519,0.00041863,-0.00471810,0.00008541,0.00040048,-0.
 00002434,0.00111006,-0.00031676,-0.00000798,-0.00003351,-0.00032131,-0
 .00004336,0.00019916,0.00014365,-0.00002745,-0.00031203,-0.00100164,0.
 00116085,0.00097290,0.00039678,0.00034807,-0.02954455,-0.05512141,0.06
 196133,-0.00090775,0.00091767,-0.00056050,-0.00030392,-0.00312265,0.00
 296919,-0.00002179,0.00054276,-0.00070614,-0.00438694,-0.00329943,-0.0
 0067417,0.00024026,-0.00066540,-0.00006376,-0.00713802,0.01399111,0.00
 590388,-0.07559147,0.08275704,0.02346517,0.00754424,-0.02198644,-0.008
 74058,0.00131721,-0.00230932,-0.00105962,0.00011822,0.00043073,-0.0001
 2701,0.00017123,0.00005743,0.00014090,0.00005972,-0.00021802,0.0000514
 1,0.00075284,-0.00053491,-0.00146823,0.00001137,0.00007114,-0.00000627
 ,0.00061998,-0.00025299,-0.00041918,0.08465934,-0.00073093,0.00019203,
 -0.00050644,0.00086126,-0.00028289,0.00133495,-0.00038388,0.00067324,-
 0.00004235,-0.00331715,-0.00204800,0.00056955,0.00009665,-0.00026755,0
 .00021209,-0.00295056,0.00530834,0.00272669,0.08074435,-0.26165415,-0.
 06762131,0.00539708,-0.01576492,-0.00669886,0.00241472,0.00053710,0.00
 098760,0.00022180,-0.00004627,-0.00030600,0.00007493,0.00022374,0.0000
 4251,0.00003786,-0.00003095,-0.00003606,0.00037350,-0.00036178,-0.0011
 3890,-0.00006222,0.00003269,-0.00011247,0.00019878,0.00080491,-0.00059
 329,-0.08546091,0.28191314,0.00200962,-0.00124097,0.00126339,-0.001048
 83,0.00407608,-0.00559212,-0.00035162,0.00025438,0.00129621,-0.0011875
 4,-0.00111046,-0.00058782,0.00019022,-0.00005461,0.00073960,0.01227541
 ,-0.02676891,-0.00961797,0.02309157,-0.06714360,-0.06866667,-0.0005156
 8,-0.00313207,-0.00201521,-0.00036281,-0.00103885,0.00058172,0.0000778
 9,-0.00085744,-0.00011552,-0.00019473,-0.00038596,-0.00003392,0.000072
 25,0.00017585,0.00002329,0.00008647,-0.00027926,-0.00042114,-0.0001761
 0,0.00014754,-0.00012774,-0.00041856,0.00058488,0.00165025,-0.02513963
 ,0.07374334,0.07399933,0.00043231,-0.00063823,-0.00016829,0.00145230,0
 .00096894,0.00127505,-0.00012378,0.00008562,-0.00028159,-0.00055854,0.
 00000390,0.00035269,-0.00166185,-0.00033472,0.00327340,0.01198011,-0.0
 0513957,0.01155393,-0.15499105,0.05681005,-0.11787482,-0.01432884,0.01
 102750,-0.01493729,-0.00362085,-0.00471532,-0.00072404,0.00001281,-0.0
 0016452,0.00075561,0.00010117,-0.00024345,0.00012167,0.00010255,-0.000
 06857,0.00007317,0.00003120,-0.00005399,-0.00014725,0.00092079,0.00047
 915,0.00046549,-0.00025731,-0.00020726,0.00017580,-0.00663231,0.004061
 54,-0.00778233,0.16709437,-0.00098530,-0.00018834,-0.00018394,0.002189
 21,0.00071566,-0.00153132,-0.00017001,-0.00008949,-0.00008632,-0.00036
 070,0.00039881,0.00023317,-0.00011988,-0.00019042,-0.00065589,0.000443
 07,-0.00085018,-0.00056351,0.05713328,-0.08198904,0.06119393,-0.012824
 65,0.00908803,-0.01483946,-0.00166318,-0.00286011,-0.00082395,-0.00002
 920,-0.00031705,0.00007269,0.00003693,-0.00035919,-0.00017637,0.000137
 05,0.00013122,0.00013616,0.00004002,-0.00015724,-0.00009176,-0.0000959
 4,0.00010142,-0.00014371,-0.00010359,-0.00003668,0.00036641,0.01943642
 ,-0.01010683,0.02182203,-0.06261922,0.08413804,0.00151057,-0.00027705,
 0.00062847,-0.00289989,0.00205175,-0.00206363,-0.00026802,0.00004390,-
 0.00020029,-0.00016003,0.00056114,-0.00003242,0.00359135,0.00037213,-0
 .00493308,-0.01459665,0.00546519,-0.01857678,-0.11728795,0.06073007,-0
 .17313449,0.00021335,0.00083191,-0.00093812,0.00028455,-0.00035528,0.0
 0034613,0.00050527,-0.00018003,0.00038765,0.00007003,-0.00046214,0.000
 20147,0.00012760,-0.00009942,0.00014423,0.00005690,-0.00018688,-0.0000
 0860,-0.00150265,-0.00075636,-0.00081879,0.00027700,0.00011650,-0.0009
 9715,0.00584001,-0.00276583,0.00767282,0.12413796,-0.06507151,0.191304
 24,-0.00033891,0.00041530,-0.00015161,0.00044077,-0.00125408,0.0002632
 1,0.00078264,-0.00067297,0.00003922,-0.00295690,-0.00579771,0.00534316
 ,-0.00173309,0.00097780,0.00112680,-0.00275790,-0.00327537,0.00037953,
 -0.00508543,-0.01066704,0.01809248,-0.06374339,-0.03630364,0.04979863,
 0.00854730,0.01292475,-0.02040876,-0.00346975,0.00280318,-0.00210852,-
 0.00022057,0.00036495,-0.00026632,0.00004222,0.00013932,-0.00016102,0.
 00029628,0.00033375,-0.00017739,0.00017806,-0.00057578,0.00027777,-0.0
 0061312,0.00025860,0.00114255,-0.00054166,-0.00062854,0.00006935,0.000
 99385,0.00074416,-0.00000558,0.06804374,-0.00026073,0.00029666,-0.0001
 0439,0.00022719,-0.00085124,0.00009625,-0.00105237,0.00107742,0.000337
 24,0.00423116,0.01226265,-0.01312121,0.00131300,-0.00165321,-0.0038599
 8,-0.00176472,-0.00164384,-0.00076001,-0.00253807,-0.00817884,0.013860
 04,-0.03682250,-0.13917076,0.12050478,-0.00578478,-0.00837833,0.012490
 89,0.00334929,-0.00075116,0.00041324,-0.00005338,-0.00006078,0.0004549
 8,-0.00013376,-0.00004519,0.00007325,-0.00047566,0.00029656,0.00099264
 ,0.00025050,0.00122619,-0.00040550,-0.00030866,0.00021618,0.00081475,-
 0.00055677,-0.00083758,-0.00004295,0.00021348,0.00125885,-0.00039205,0
 .04063038,0.14460215,0.00015157,-0.00004709,-0.00003712,-0.00010422,0.
 00012617,0.00012234,-0.00096186,0.00028032,0.00048881,0.00370379,0.015
 27583,-0.01410283,0.00064862,-0.00166148,-0.00464700,-0.00163772,-0.00
 156329,-0.00023529,-0.00266172,-0.00547131,0.00766262,0.04995743,0.120
 03682,-0.21107327,0.00299708,0.00271892,-0.00535911,-0.00006925,0.0004
 2247,-0.00076791,0.00065921,-0.00039709,0.00032440,0.00001902,-0.00017
 297,0.00011731,-0.00051638,-0.00022955,0.00037237,0.00044981,0.0014084
 8,-0.00053425,-0.00014695,0.00005982,0.00053142,0.00005403,-0.00030579
 ,-0.00013695,0.00072401,0.00051222,0.00075055,-0.05273251,-0.13149866,
 0.22685360,-0.00011360,-0.00022348,0.00003398,0.00033470,0.00060700,-0
 .00007934,-0.00004813,0.00078615,0.00164846,-0.00425903,0.00173813,-0.
 00184908,-0.00100192,0.00042413,0.00148423,0.00027613,-0.00014609,0.00
 011802,0.00141170,0.00182255,0.00136980,-0.00706818,0.01566750,0.01538
 687,-0.06725106,0.04797040,0.04153644,-0.00338461,0.00700554,0.0051594
 4,0.00009977,-0.00002343,-0.00002636,-0.00064693,0.00014583,-0.0000480
 3,0.00019049,0.00022081,0.00018841,-0.00055234,0.00015607,0.00004560,-
 0.00009809,-0.00003814,-0.00004011,-0.00036678,-0.00111674,-0.00043429
 ,0.00031352,-0.00021199,-0.00004740,0.00043159,-0.00014067,-0.00032961
 ,0.07269585,0.00025536,0.00033105,0.00002217,-0.00009588,-0.00080320,0
 .00010307,-0.00004877,0.00022198,-0.00135465,0.00327662,-0.00189686,0.
 00271895,-0.00114159,-0.00042974,0.00228494,-0.00016780,0.00036889,0.0
 0011496,-0.00185836,0.00053617,0.00007625,0.00371861,-0.01278539,-0.01
 225211,0.05037907,-0.19102995,-0.12230564,-0.00434136,0.00985999,0.009
 16481,-0.00004685,0.00001588,0.00001592,0.00047202,-0.00010111,-0.0000
 2307,-0.00015419,0.00027631,0.00040416,-0.00047660,0.00040236,-0.00001
 920,0.00002614,0.00005675,0.00000181,0.00030515,0.00091698,0.00021838,
 -0.00018959,0.00020055,0.00008549,-0.00011993,-0.00016266,0.00029450,-
 0.05481810,0.20657229,0.00008465,-0.00017649,-0.00003124,0.00008224,0.
 00047328,0.00011241,-0.00033407,0.00017568,0.00090375,-0.00205559,0.00
 157907,-0.00137179,0.00020365,0.00073909,-0.00337806,-0.00002258,-0.00
 026250,0.00005135,0.00049114,0.00047626,0.00055236,-0.00400579,0.01041
 872,0.00964891,0.04317303,-0.12220627,-0.15053485,0.00561169,-0.018463
 18,-0.01422685,0.00016094,-0.00003373,0.00003991,-0.00032187,0.0000700
 9,0.00006212,-0.00004189,0.00015929,-0.00010097,0.00102710,-0.00062773
 ,0.00009700,0.00004523,0.00000186,0.00002926,0.00043613,0.00008082,0.0
 0020323,0.00007439,0.00031667,0.00011400,0.00072420,-0.00041400,0.0001
 6067,-0.04750988,0.13100950,0.16126998,-0.00002153,0.00021716,0.000009
 70,0.00048017,-0.00061007,-0.00005425,0.00026026,0.00063599,-0.0000172
 8,0.00041087,-0.00149597,-0.00072086,0.00016353,-0.00005981,0.00113702
 ,0.00051877,0.00025015,-0.00041434,-0.00288886,0.00394419,-0.00270961,
 -0.01935466,-0.01498813,-0.00396881,-0.21401420,-0.11856811,-0.0332158
 7,-0.00578652,-0.00485151,-0.00167339,-0.00000063,-0.00004554,-0.00001
 472,-0.00002973,0.00001846,0.00002266,0.00013066,0.00080060,0.00078329
 ,-0.00033536,0.00014286,0.00008454,0.00002826,-0.00001190,0.00016422,0
 .00030456,0.00019868,0.00001464,-0.00139465,-0.00094057,0.00016599,0.0
 0102206,0.00021570,-0.00020030,0.00843627,0.00486493,0.00105787,0.2309
 4579,-0.00015756,0.00006905,-0.00002241,0.00003024,-0.00014050,0.00009
 028,-0.00005915,0.00015786,0.00014896,-0.00014564,0.00067592,0.0004132
 7,0.00024494,-0.00081104,0.00051092,-0.00019395,0.00027040,0.00020450,
 0.00268924,-0.00216613,0.00058895,0.01593202,0.01179153,0.00262860,-0.
 11887296,-0.13897127,-0.02843944,-0.00804888,-0.00732260,-0.00160205,-
 0.00001717,0.00003664,-0.00000174,-0.00005929,-0.00001316,0.00000549,0
 .00013798,-0.00007216,0.00003897,-0.00022332,0.00014354,-0.00004313,0.
 00008200,0.00003115,-0.00011814,-0.00001297,0.00046016,0.00031630,0.00
 074335,0.00078293,0.00020975,-0.00100587,0.00087927,-0.00024527,-0.020
 10228,-0.01392916,-0.00417899,0.12973214,0.14657014,0.,0.00009817,0.00
 000490,-0.00002805,-0.00028562,-0.00001364,0.00003962,0.00016214,-0.00
 014255,0.00085506,-0.00030383,0.00040719,-0.00007946,0.00146752,-0.001
 88663,-0.00041510,-0.00013532,-0.00014673,-0.00277724,0.00194228,-0.00
 084136,-0.01088024,-0.00947392,-0.00278276,-0.03378183,-0.02809117,-0.
 05520416,0.02254770,0.01778972,0.00222858,0.00001564,-0.00003952,-0.00
 000356,-0.00003461,0.00001449,0.00001330,0.00017341,-0.00025101,0.0004
 3500,0.00052870,-0.00036079,-0.00000449,-0.00012882,0.00000507,0.00010
 824,0.00014275,0.00057720,0.00013588,-0.00097020,-0.00028281,0.0001051
 6,0.00048884,-0.00040024,0.00005322,-0.01681905,-0.01140070,-0.0031455
 1,0.03851118,0.02735770,0.06211418,0.00005876,-0.00036413,-0.00007181,
 0.00041732,0.00091189,0.00036366,0.00036505,0.00090612,-0.00148800,-0.
 00500229,0.00221346,0.00147616,0.00535565,0.02948010,-0.00074183,0.002
 45174,0.00014765,0.00045620,0.00009572,-0.00009134,-0.00029987,-0.0006
 4041,0.00000276,0.00067463,-0.00457083,-0.01186363,-0.00066391,-0.0562
 1000,-0.04742269,-0.00331058,-0.00061390,0.00033221,-0.00011297,-0.000
 00834,-0.00006979,0.00002906,0.00006087,0.00016913,0.00002498,-0.00029
 277,0.00003299,0.00034253,-0.00018469,-0.00046644,0.00007812,0.0000165
 4,0.00000533,-0.00022755,0.00005833,-0.00005834,0.00002189,0.00022540,
 -0.00018577,-0.00009004,0.00095743,0.00029458,-0.00032706,-0.00048711,
 -0.00114923,0.00269638,0.06111346,0.00002816,0.00024963,-0.00000588,-0
 .00004134,-0.00053287,-0.00022328,-0.00048693,-0.00042702,0.00092423,0
 .00306598,-0.00037089,-0.00109660,-0.00175574,-0.01429283,0.00051607,-
 0.00129688,0.00152392,-0.00079173,-0.00011171,-0.00048865,-0.00001968,
 -0.00025341,-0.00022315,-0.00007221,-0.00173644,-0.00601497,-0.0016786
 3,-0.04708793,-0.30199289,-0.00816274,0.00045539,-0.00008447,-0.000010
 78,0.00001654,0.00003779,-0.00003277,-0.00008905,0.00015448,-0.0000907
 5,0.00057579,-0.00057972,-0.00010786,0.00094246,0.00011386,0.00042018,
 -0.00005465,0.00025383,0.00044655,0.00001421,0.00019761,0.00006305,0.0
 0021403,-0.00005285,0.00017399,0.00015290,0.00146379,0.00022537,0.0002
 9653,0.00014750,0.00131466,0.04872178,0.32650784,0.00007281,-0.0000130
 9,-0.00001292,-0.00010356,0.00003330,-0.00006310,-0.00013170,0.0000073
 6,0.00043363,0.00084069,0.00033786,-0.00097506,-0.00196651,-0.00430243
 ,-0.00024761,-0.00050775,0.00071784,0.00031064,-0.00008384,0.00046819,
 0.00034369,0.00107867,0.00111965,-0.00137640,0.00583835,0.02661061,0.0
 0170298,-0.00311224,-0.00976549,-0.04981022,0.00010847,-0.00004839,0.0
 0006241,-0.00009146,0.00003642,-0.00001158,0.00004292,0.00016101,-0.00
 018537,0.00007648,-0.00003778,-0.00011487,0.00003257,-0.00000210,0.000
 15257,-0.00009906,-0.00015394,-0.00039305,-0.00006337,-0.00024827,0.00
 001407,-0.00065312,0.00030497,-0.00024660,-0.00014159,-0.00046568,0.00
 186812,0.00092363,0.00221075,-0.00338245,0.00191975,0.00911048,0.05244
 243,-0.00111000,0.00097221,0.00040573,-0.00025622,-0.00235289,-0.00141
 262,-0.00002043,0.00034709,0.00023361,0.00033715,-0.00049014,-0.000027
 65,-0.01806066,-0.00754194,-0.02123863,-0.00376915,0.00536593,0.000786
 78,0.00006688,-0.00011093,0.00105030,-0.00096973,-0.00005248,0.0019825
 7,0.00945792,0.00192805,0.01229040,-0.15010076,-0.02953440,-0.12639252
 ,-0.00002131,0.00005233,0.00004966,0.00006629,0.00008625,0.00000853,0.
 00027919,0.00041208,-0.00023188,0.00095551,-0.00058254,0.00054016,0.00
 006523,-0.00008215,0.00002352,0.00007513,-0.00003555,-0.00004777,0.000
 07588,0.00002241,-0.00003429,0.00045681,-0.00035287,0.00008598,-0.0003
 5677,-0.00013345,0.00144648,0.00161204,0.00045635,-0.00008467,-0.00316
 595,-0.00156970,-0.00398014,0.16438296,0.00011500,-0.00033879,-0.00017
 863,0.00078466,0.00076780,0.00050630,-0.00009621,-0.00016422,-0.000188
 88,-0.00004559,0.00099146,0.00010472,0.01094536,0.00398342,0.01379093,
 0.00156016,-0.00177812,-0.00044629,-0.00024396,-0.00023530,-0.00047293
 ,-0.00097273,-0.00088645,0.00190293,0.00616220,0.00030548,0.00936422,-
 0.03015484,-0.06002072,-0.03845496,-0.00003992,-0.00000201,-0.00004733
 ,0.00003731,-0.00001733,0.00001403,-0.00015831,-0.00032816,-0.00006419
 ,-0.00067582,0.00092192,-0.00012318,0.00032845,0.00004363,0.00004893,-
 0.00003502,0.00008477,0.00026975,-0.00003329,0.00013144,0.00001568,0.0
 0049472,-0.00032949,0.00028297,0.00012391,-0.00008492,0.00063719,0.000
 25421,0.00140993,0.00029598,-0.02154665,-0.00558993,-0.02608126,0.0331
 9634,0.06113558,0.00001719,-0.00012398,-0.00019023,0.00039967,0.000197
 45,0.00048094,0.00002739,0.00019064,0.00007261,-0.00018634,-0.00033218
 ,-0.00020899,0.00490593,0.00154771,0.00488660,0.00138374,-0.00091113,0
 .00082153,0.00051503,-0.00007532,0.00029128,0.00268175,0.00087515,-0.0
 0335114,-0.01539416,-0.00414722,-0.01902419,-0.12713672,-0.03791992,-0
 .19955662,0.00001971,-0.00002490,-0.00002948,-0.00010000,0.00000414,0.
 00001232,-0.00000002,0.00028268,-0.00002039,-0.00027605,0.00057399,0.0
 0087871,-0.00006787,-0.00000022,0.00000316,0.00006071,0.00000648,0.000
 14237,-0.00003399,0.00004553,0.00003456,-0.00108090,0.00065594,-0.0002
 9697,0.00035350,0.00130613,-0.00232381,0.00011472,-0.00007328,0.001948
 19,-0.00074974,-0.00090168,-0.00051130,0.13454646,0.03882401,0.2159408
 5\\0.00006830,-0.00001150,-0.00003356,-0.00007540,-0.00001484,0.000021
 88,0.00000538,-0.00000445,0.00001698,-0.00000751,-0.00009082,-0.000025
 23,0.00000154,0.00000338,-0.00001229,-0.00000614,0.00004471,0.00003073
 ,0.00000028,-0.00000321,-0.00002804,0.00000433,0.00006937,-0.00002519,
 -0.00000138,-0.00001098,0.00001314,-0.00001137,0.00003295,0.00000255,-
 0.00000070,-0.00000183,0.00000481,0.00000932,0.00000875,0.00000116,-0.
 00000917,-0.00001557,0.00000387,0.00000029,-0.00000487,0.00001896,0.00
 000371,0.00000568,0.00000556,0.00000702,-0.00000108,-0.00000196,0.0000
 0303,-0.00000066,-0.00000941,-0.00000306,-0.00000519,-0.00000787,-0.00
 000277,-0.00000403,-0.00000134,0.00000721,-0.00000439,0.00000470,-0.00
 000469,0.00000916,0.00000446,0.00001179,-0.00000059,0.00001610\\\@


 TIME GOES, YOU SAY?  AH NO!
 ALAS, TIME STAYS, WE GO.
    -- A. DOBSON (1840-1921)
 Job cpu time:       0 days  0 hours  1 minutes 48.7 seconds.
 Elapsed time:       0 days  0 hours  1 minutes 49.5 seconds.
 File lengths (MBytes):  RWF=     83 Int=      0 D2E=      0 Chk=      5 Scr=      1
 Normal termination of Gaussian 16 at Wed Feb 21 19:11:35 2024.
