 Entering Gaussian System, Link 0=g16
 Input=/Volumes/SSD-PMU3/b3lyp_6-31gd_freq/YJZOKOQSQKNYLW-QMMMGPOBSA-N_calculating/gaussianinput0.gjf
 Output=/Volumes/SSD-PMU3/b3lyp_6-31gd_freq/YJZOKOQSQKNYLW-QMMMGPOBSA-N_calculating/gaussianinput0.log
 Initial command:
 /Applications/g16/l1.exe "/Users/macmini_m1_2022/PycharmProjects/sphere_model/sphere_model_lib/Gau-61119.inp" -scrdir="/Users/macmini_m1_2022/PycharmProjects/sphere_model/sphere_model_lib/"
 Entering Link 1 = /Applications/g16/l1.exe PID=     61120.
  
 Copyright (c) 1988,1990,1992,1993,1995,1998,2003,2009,2016,
            Gaussian, Inc.  All Rights Reserved.
  
 This is part of the Gaussian(R) 16 program.  It is based on
 the Gaussian(R) 09 system (copyright 2009, Gaussian, Inc.),
 the Gaussian(R) 03 system (copyright 2003, Gaussian, Inc.),
 the Gaussian(R) 98 system (copyright 1998, Gaussian, Inc.),
 the Gaussian(R) 94 system (copyright 1995, Gaussian, Inc.),
 the Gaussian 92(TM) system (copyright 1992, Gaussian, Inc.),
 the Gaussian 90(TM) system (copyright 1990, Gaussian, Inc.),
 the Gaussian 88(TM) system (copyright 1988, Gaussian, Inc.),
 the Gaussian 86(TM) system (copyright 1986, Carnegie Mellon
 University), and the Gaussian 82(TM) system (copyright 1983,
 Carnegie Mellon University). Gaussian is a federally registered
 trademark of Gaussian, Inc.
  
 This software contains proprietary and confidential information,
 including trade secrets, belonging to Gaussian, Inc.
  
 This software is provided under written license and may be
 used, copied, transmitted, or stored only in accord with that
 written license.
  
 The following legend is applicable only to US Government
 contracts under FAR:
  
                    RESTRICTED RIGHTS LEGEND
  
 Use, reproduction and disclosure by the US Government is
 subject to restrictions as set forth in subparagraphs (a)
 and (c) of the Commercial Computer Software - Restricted
 Rights clause in FAR 52.227-19.
  
 Gaussian, Inc.
 340 Quinnipiac St., Bldg. 40, Wallingford CT 06492
  
  
 ---------------------------------------------------------------
 Warning -- This program may not be used in any manner that
 competes with the business of Gaussian, Inc. or will provide
 assistance to any competitor of Gaussian, Inc.  The licensee
 of this program is prohibited from giving any competitor of
 Gaussian, Inc. access to this program.  By using this program,
 the user acknowledges that Gaussian, Inc. is engaged in the
 business of creating and licensing software in the field of
 computational chemistry and represents and warrants to the
 licensee that it is not a competitor of Gaussian, Inc. and that
 it will not use this program in any manner prohibited above.
 ---------------------------------------------------------------
  

 Cite this work as:
 Gaussian 16, Revision A.03,
 M. J. Frisch, G. W. Trucks, H. B. Schlegel, G. E. Scuseria, 
 M. A. Robb, J. R. Cheeseman, G. Scalmani, V. Barone, 
 G. A. Petersson, H. Nakatsuji, X. Li, M. Caricato, A. V. Marenich, 
 J. Bloino, B. G. Janesko, R. Gomperts, B. Mennucci, H. P. Hratchian, 
 J. V. Ortiz, A. F. Izmaylov, J. L. Sonnenberg, D. Williams-Young, 
 F. Ding, F. Lipparini, F. Egidi, J. Goings, B. Peng, A. Petrone, 
 T. Henderson, D. Ranasinghe, V. G. Zakrzewski, J. Gao, N. Rega, 
 G. Zheng, W. Liang, M. Hada, M. Ehara, K. Toyota, R. Fukuda, 
 J. Hasegawa, M. Ishida, T. Nakajima, Y. Honda, O. Kitao, H. Nakai, 
 T. Vreven, K. Throssell, J. A. Montgomery, Jr., J. E. Peralta, 
 F. Ogliaro, M. J. Bearpark, J. J. Heyd, E. N. Brothers, K. N. Kudin, 
 V. N. Staroverov, T. A. Keith, R. Kobayashi, J. Normand, 
 K. Raghavachari, A. P. Rendell, J. C. Burant, S. S. Iyengar, 
 J. Tomasi, M. Cossi, J. M. Millam, M. Klene, C. Adamo, R. Cammi, 
 J. W. Ochterski, R. L. Martin, K. Morokuma, O. Farkas, 
 J. B. Foresman, and D. J. Fox, Gaussian, Inc., Wallingford CT, 2016.
 
 ******************************************
 Gaussian 16:  EM64M-G16RevA.03 25-Dec-2016
                22-Feb-2024 
 ******************************************
 %nprocshared=8
 Will use up to    8 processors via shared memory.
 %mem=8GB
 %chk= 0.chk
 ---------------------
 # freq b3lyp/6-31g(d)
 ---------------------
 1/10=4,30=1,38=1/1,3;
 2/12=2,17=6,18=5,40=1/2;
 3/5=1,6=6,7=1,11=2,25=1,30=1,71=2,74=-5,140=1/1,2,3;
 4//1;
 5/5=2,38=5,98=1/2;
 8/6=4,10=90,11=11/1;
 11/6=1,8=1,9=11,15=111,16=1/1,2,10;
 10/6=1/2;
 6/7=2,8=2,9=2,10=2,28=1/1;
 7/8=1,10=1,25=1/1,2,3,16;
 1/10=4,30=1/3;
 99//99;
 ---------
 good luck
 ---------
 Symbolic Z-matrix:
 Charge =  0 Multiplicity = 1
 O                     1.21692   0.        0. 
 C                     0.        0.        0. 
 C                    -0.80889  -1.29221  -0.0022 
 C                    -1.89211  -1.31409  -1.11378 
 C                    -2.70375  -2.65574  -1.1751 
 C                    -3.63835  -2.63701  -2.40488 
 C                    -1.73467  -3.84589  -1.34675 
 C                    -3.55409  -2.88571   0.09083 
 C                    -2.75759  -0.04075  -0.99729 
 C                    -1.91026   1.23755  -1.08835 
 C                    -0.8185    1.28189  -0.0022 
 H                    -1.29619  -1.37787   0.98104 
 H                    -0.09981  -2.11737  -0.09538 
 H                    -1.35794  -1.24922  -2.07576 
 H                    -3.07841  -2.43673  -3.32709 
 H                    -4.1316   -3.60925  -2.52156 
 H                    -4.4271   -1.88261  -2.31854 
 H                    -2.29707  -4.77032  -1.52341 
 H                    -1.11388  -4.00874  -0.4599 
 H                    -1.06571  -3.69517  -2.20339 
 H                    -4.30273  -2.09809   0.23145 
 H                    -2.93885  -2.93349   0.99667 
 H                    -4.09279  -3.83787   0.01488 
 H                    -3.2987   -0.04454  -0.04027 
 H                    -3.51697  -0.01903  -1.78574 
 H                    -2.55131   2.12332  -1.00388 
 H                    -1.43564   1.28914  -2.07805 
 H                    -1.29845   1.37575   0.98431 
 H                    -0.14183   2.13232  -0.12643 
 

 GradGradGradGradGradGradGradGradGradGradGradGradGradGradGradGradGradGrad
 Berny optimization.
 Initialization pass.
 Trust Radius=3.00D-01 FncErr=1.00D-07 GrdErr=1.00D-07 EigMax=2.50D+02 EigMin=1.00D-04
 Number of steps in this run=      2 maximum allowed number of steps=      2.
 GradGradGradGradGradGradGradGradGradGradGradGradGradGradGradGradGradGrad

                          Input orientation:                          
 ---------------------------------------------------------------------
 Center     Atomic      Atomic             Coordinates (Angstroms)
 Number     Number       Type             X           Y           Z
 ---------------------------------------------------------------------
      1          8           0        1.216917    0.000000    0.000000
      2          6           0        0.000000    0.000000    0.000000
      3          6           0       -0.808885   -1.292213   -0.002198
      4          6           0       -1.892108   -1.314094   -1.113776
      5          6           0       -2.703749   -2.655744   -1.175100
      6          6           0       -3.638349   -2.637014   -2.404882
      7          6           0       -1.734673   -3.845888   -1.346746
      8          6           0       -3.554092   -2.885709    0.090832
      9          6           0       -2.757590   -0.040751   -0.997294
     10          6           0       -1.910258    1.237553   -1.088348
     11          6           0       -0.818498    1.281891   -0.002198
     12          1           0       -1.296188   -1.377869    0.981036
     13          1           0       -0.099812   -2.117370   -0.095375
     14          1           0       -1.357940   -1.249217   -2.075757
     15          1           0       -3.078410   -2.436725   -3.327085
     16          1           0       -4.131602   -3.609245   -2.521560
     17          1           0       -4.427096   -1.882614   -2.318541
     18          1           0       -2.297074   -4.770319   -1.523410
     19          1           0       -1.113882   -4.008736   -0.459904
     20          1           0       -1.065712   -3.695173   -2.203392
     21          1           0       -4.302725   -2.098093    0.231454
     22          1           0       -2.938845   -2.933485    0.996672
     23          1           0       -4.092793   -3.837866    0.014882
     24          1           0       -3.298700   -0.044543   -0.040265
     25          1           0       -3.516965   -0.019028   -1.785742
     26          1           0       -2.551309    2.123321   -1.003881
     27          1           0       -1.435640    1.289136   -2.078049
     28          1           0       -1.298453    1.375751    0.984305
     29          1           0       -0.141828    2.132322   -0.126429
 ---------------------------------------------------------------------
                    Distance matrix (angstroms):
                    1          2          3          4          5
     1  O    0.000000
     2  C    1.216917   0.000000
     3  C    2.402851   1.524505   0.000000
     4  C    3.554346   2.558791   1.552242   0.000000
     5  C    4.879084   3.967883   2.612552   1.569250   0.000000
     6  C    6.025853   5.096556   3.948069   2.542918   1.544730
     7  C    5.031547   4.428732   3.030866   2.547360   1.544349
     8  C    5.576566   4.578989   3.175539   2.585197   1.542255
     9  C    4.097922   2.932671   2.520679   1.544030   2.621584
    10  C    3.534864   2.522920   2.965208   2.551838   3.974282
    11  C    2.405445   1.520917   2.574122   3.021156   4.520491
    12  H    3.029299   2.130976   1.100704   2.178859   2.874563
    13  H    2.495221   2.121866   1.091948   2.212401   2.869868
    14  H    3.535421   2.777285   2.145450   1.102249   2.144925
    15  H    5.954574   5.146235   4.185155   2.750700   2.195309
    16  H    6.927595   6.037802   4.770353   3.502129   2.181945
    17  H    6.385511   5.340323   4.336527   2.863711   2.207966
    18  H    6.117586   5.509380   4.077501   3.503896   2.181314
    19  H    4.659839   4.185954   2.771645   2.879979   2.206755
    20  H    4.870281   4.432266   3.268858   2.745857   2.195669
    21  H    5.909485   4.792599   3.593182   2.869734   2.201384
    22  H    5.183536   4.270304   2.868492   2.858684   2.202045
    23  H    6.551523   5.610739   4.155080   3.533597   2.177823
    24  H    4.516016   3.299246   2.785194   2.177771   2.908640
    25  H    5.059533   3.944398   3.483637   2.183780   2.826035
    26  H    4.440247   3.467773   3.962989   3.501777   4.784560
    27  H    3.607800   2.835705   3.371252   2.813360   4.240931
    28  H    3.031276   2.132493   2.886329   3.462605   4.784437
    29  H    2.531594   2.140770   3.491108   3.989501   5.530708
                    6          7          8          9         10
     6  C    0.000000
     7  C    2.490986   0.000000
     8  C    2.509489   2.509753   0.000000
     9  C    3.081821   3.955698   3.148368   0.000000
    10  C    4.442052   5.093032   4.592815   1.536334   0.000000
    11  C    5.392798   5.379712   4.986083   2.549446   1.540658
    12  H    4.305300   3.420812   2.857302   2.799530   3.391145
    13  H    4.257358   2.688210   3.543595   3.491359   3.939444
    14  H    2.689715   2.723249   3.492177   2.140676   2.732043
    15  H    1.097318   2.777249   3.479945   3.357312   4.458345
    16  H    1.096424   2.679824   2.771572   4.116485   5.520862
    17  H    1.094850   3.471019   2.751984   2.815209   4.193243
    18  H    2.669644   1.096393   2.781659   4.780971   6.036011
    19  H    3.469509   1.094710   2.742102   4.328449   5.343473
    20  H    2.789043   1.097300   3.480048   4.203799   5.127218
    21  H    2.771660   3.484307   1.095703   2.851301   4.311880
    22  H    3.485365   2.788210   1.096065   3.518048   4.775234
    23  H    2.739311   2.723018   1.096618   4.150343   5.633867
    24  H    3.525292   4.313154   2.855632   1.099418   2.161023
    25  H    2.692939   4.244307   3.426480   1.094885   2.155658
    26  H    5.079887   6.034559   5.224400   2.173891   1.096661
    27  H    4.513690   5.195450   5.159575   2.164297   1.098832
    28  H    5.750129   5.734946   4.903697   2.839418   2.165478
    29  H    6.337474   6.305975   6.072181   3.510394   2.203008
                   11         12         13         14         15
    11  C    0.000000
    12  H    2.875632   0.000000
    13  H    3.475653   1.771112   0.000000
    14  H    3.316195   3.060122   2.501697   0.000000
    15  H    5.476329   4.780941   4.406584   2.436394   0.000000
    16  H    6.422387   5.028597   4.936334   3.669015   1.769996
    17  H    5.329307   4.576523   4.870623   3.143224   1.772894
    18  H    6.413230   4.333906   3.728992   3.685813   3.051129
    19  H    5.318598   3.005163   2.176806   3.207100   3.814619
    20  H    5.447709   3.945073   2.804668   2.466655   2.626277
    21  H    4.859910   3.181173   4.215645   3.836088   3.778468
    22  H    4.823174   2.262412   3.149400   3.843935   4.354437
    23  H    6.077270   3.847862   4.349271   4.307122   3.763099
    24  H    2.812877   2.613593   3.812156   3.059578   4.071148
    25  H    3.486423   3.799126   4.351702   2.501772   2.900574
    26  H    2.171176   4.215869   4.981835   3.734576   5.144816
    27  H    2.165658   4.060833   4.161696   2.539543   4.259205
    28  H    1.101070   2.753623   3.847641   4.032118   6.024226
    29  H    1.093869   3.857521   4.250013   4.088229   6.304277
                   16         17         18         19         20
    16  H    0.000000
    17  H    1.763459   0.000000
    18  H    2.389537   3.675332   0.000000
    19  H    3.676500   4.353425   1.763802   0.000000
    20  H    3.083552   3.820672   1.770471   1.772115   0.000000
    21  H    3.145147   2.562103   3.773987   3.781171   4.354009
    22  H    3.775881   3.782837   3.183809   2.570655   3.785394
    23  H    2.547020   3.062618   2.541735   3.021346   3.755572
    24  H    4.422403   3.137248   5.053309   4.545806   4.795045
    25  H    3.716028   2.141300   4.912405   4.842564   4.438143
    26  H    6.137018   4.614588   6.917862   6.321727   6.123781
    27  H    5.608837   4.366537   6.145461   5.548817   4.999589
    28  H    6.720715   5.595904   6.712679   5.577859   5.994151
    29  H    7.390571   6.268061   7.364991   6.226451   6.255161
                   21         22         23         24         25
    21  H    0.000000
    22  H    1.773022   0.000000
    23  H    1.765725   1.764486   0.000000
    24  H    2.301948   3.090424   3.875942   0.000000
    25  H    3.001501   4.070640   4.261144   1.759256   0.000000
    26  H    4.734326   5.451943   6.240978   2.487325   2.476582
    27  H    5.002729   5.435445   6.142229   3.066310   2.475611
    28  H    4.654033   4.610917   5.994157   2.658565   3.813183
    29  H    5.944540   5.894664   7.160533   3.835623   4.332802
                   26         27         28         29
    26  H    0.000000
    27  H    1.759096   0.000000
    28  H    2.466048   3.066649   0.000000
    29  H    2.564294   2.488721   1.773108   0.000000
 Stoichiometry    C10H18O
 Framework group  C1[X(C10H18O)]
 Deg. of freedom    81
 Full point group                 C1      NOp   1
 Largest Abelian subgroup         C1      NOp   1
 Largest concise Abelian subgroup C1      NOp   1
                         Standard orientation:                         
 ---------------------------------------------------------------------
 Center     Atomic      Atomic             Coordinates (Angstroms)
 Number     Number       Type             X           Y           Z
 ---------------------------------------------------------------------
      1          8           0        2.803145   -1.673031   -0.376017
      2          6           0        2.103047   -0.775006    0.053287
      3          6           0        0.625405   -0.980770    0.366894
      4          6           0       -0.277909    0.097033   -0.290237
      5          6           0       -1.809834   -0.121893   -0.029806
      6          6           0       -2.623814    0.902532   -0.850890
      7          6           0       -2.224781   -1.531739   -0.504325
      8          6           0       -2.179577    0.030076    1.459740
      9          6           0        0.248727    1.496642    0.094184
     10          6           0        1.715534    1.689887   -0.319890
     11          6           0        2.635327    0.626425    0.309918
     12          1           0        0.510624   -0.932729    1.460543
     13          1           0        0.365217   -1.992480    0.048940
     14          1           0       -0.147407   -0.004092   -1.380051
     15          1           0       -2.363050    0.856113   -1.915763
     16          1           0       -3.696420    0.692830   -0.763222
     17          1           0       -2.466481    1.930851   -0.509564
     18          1           0       -3.313935   -1.644940   -0.449495
     19          1           0       -1.785316   -2.324076    0.110055
     20          1           0       -1.924601   -1.706650   -1.545173
     21          1           0       -1.960317    1.035179    1.836911
     22          1           0       -1.648709   -0.691630    2.091148
     23          1           0       -3.252976   -0.144309    1.601068
     24          1           0        0.160888    1.642162    1.180382
     25          1           0       -0.357682    2.277671   -0.375958
     26          1           0        2.060251    2.691366   -0.035501
     27          1           0        1.794810    1.631726   -1.414314
     28          1           0        2.666102    0.779774    1.399822
     29          1           0        3.661089    0.688354   -0.064949
 ---------------------------------------------------------------------
 Rotational constants (GHZ):           1.8020190           0.7187298           0.6017334
 Standard basis: 6-31G(d) (6D, 7F)
 There are   201 symmetry adapted cartesian basis functions of A   symmetry.
 There are   201 symmetry adapted basis functions of A   symmetry.
   201 basis functions,   380 primitive gaussians,   201 cartesian basis functions
    43 alpha electrons       43 beta electrons
       nuclear repulsion energy       662.7190194854 Hartrees.
 NAtoms=   29 NActive=   29 NUniq=   29 SFac= 1.00D+00 NAtFMM=   60 NAOKFM=F Big=F
 Integral buffers will be    131072 words long.
 Raffenetti 2 integral format.
 Two-electron integral symmetry is turned on.
 One-electron integrals computed using PRISM.
 NBasis=   201 RedAO= T EigKep=  2.78D-03  NBF=   201
 NBsUse=   201 1.00D-06 EigRej= -1.00D+00 NBFU=   201
 ExpMin= 1.61D-01 ExpMax= 5.48D+03 ExpMxC= 8.25D+02 IAcc=3 IRadAn=         5 AccDes= 0.00D+00
 Harris functional with IExCor=  402 and IRadAn=       5 diagonalized for initial guess.
 HarFok:  IExCor=  402 AccDes= 0.00D+00 IRadAn=         5 IDoV= 1 UseB2=F ITyADJ=14
 ICtDFT=  3500011 ScaDFX=  1.000000  1.000000  1.000000  1.000000
 FoFCou: FMM=F IPFlag=           0 FMFlag=      100000 FMFlg1=           0
         NFxFlg=           0 DoJE=T BraDBF=F KetDBF=T FulRan=T
         wScrn=  0.000000 ICntrl=       500 IOpCl=  0 I1Cent=   200000004 NGrid=           0
         NMat0=    1 NMatS0=      1 NMatT0=    0 NMatD0=    1 NMtDS0=    0 NMtDT0=    0
 Petite list used in FoFCou.
 Requested convergence on RMS density matrix=1.00D-08 within 128 cycles.
 Requested convergence on MAX density matrix=1.00D-06.
 Requested convergence on             energy=1.00D-06.
 No special actions if energy rises.
 Integral accuracy reduced to 1.0D-05 until final iterations.
 Initial convergence to 1.0D-05 achieved.  Increase integral accuracy.
 SCF Done:  E(RB3LYP) =  -467.140857634     A.U. after   14 cycles
            NFock= 14  Conv=0.34D-08     -V/T= 2.0098
 DoSCS=F DFT=T ScalE2(SS,OS)=  1.000000  1.000000
 Range of M.O.s used for correlation:     1   201
 NBasis=   201 NAE=    43 NBE=    43 NFC=     0 NFV=     0
 NROrb=    201 NOA=    43 NOB=    43 NVA=   158 NVB=   158
 Symmetrizing basis deriv contribution to polar:
 IMax=3 JMax=2 DiffMx= 0.00D+00
 G2DrvN: will do    30 centers at a time, making    1 passes.
 Calling FoFCou, ICntrl=  3107 FMM=F I1Cent=   0 AccDes= 0.00D+00.
 End of G2Drv F.D. properties file   721 does not exist.
 End of G2Drv F.D. properties file   722 does not exist.
 End of G2Drv F.D. properties file   788 does not exist.
          IDoAtm=11111111111111111111111111111
          Differentiating once with respect to electric field.
                with respect to dipole field.
          Differentiating once with respect to nuclear coordinates.
 Keep R1 ints in memory in canonical form, NReq=214321491.
          There are    90 degrees of freedom in the 1st order CPHF.  IDoFFX=6 NUNeed=     3.
     87 vectors produced by pass  0 Test12= 7.55D-15 1.11D-09 XBig12= 7.18D+01 2.08D+00.
 AX will form    87 AO Fock derivatives at one time.
     87 vectors produced by pass  1 Test12= 7.55D-15 1.11D-09 XBig12= 4.95D+00 5.58D-01.
     87 vectors produced by pass  2 Test12= 7.55D-15 1.11D-09 XBig12= 3.82D-02 2.28D-02.
     87 vectors produced by pass  3 Test12= 7.55D-15 1.11D-09 XBig12= 1.17D-04 1.19D-03.
     87 vectors produced by pass  4 Test12= 7.55D-15 1.11D-09 XBig12= 1.14D-07 2.71D-05.
     38 vectors produced by pass  5 Test12= 7.55D-15 1.11D-09 XBig12= 5.93D-11 6.18D-07.
      3 vectors produced by pass  6 Test12= 7.55D-15 1.11D-09 XBig12= 3.12D-14 1.43D-08.
 InvSVY:  IOpt=1 It=  1 EMax= 2.66D-15
 Solved reduced A of dimension   476 with    90 vectors.
 Isotropic polarizability for W=    0.000000      103.88 Bohr**3.
 End of Minotr F.D. properties file   721 does not exist.
 End of Minotr F.D. properties file   722 does not exist.
 End of Minotr F.D. properties file   788 does not exist.

 **********************************************************************

            Population analysis using the SCF density.

 **********************************************************************

 Orbital symmetries:
       Occupied  (A) (A) (A) (A) (A) (A) (A) (A) (A) (A) (A) (A)
                 (A) (A) (A) (A) (A) (A) (A) (A) (A) (A) (A) (A)
                 (A) (A) (A) (A) (A) (A) (A) (A) (A) (A) (A) (A)
                 (A) (A) (A) (A) (A) (A) (A)
       Virtual   (A) (A) (A) (A) (A) (A) (A) (A) (A) (A) (A) (A)
                 (A) (A) (A) (A) (A) (A) (A) (A) (A) (A) (A) (A)
                 (A) (A) (A) (A) (A) (A) (A) (A) (A) (A) (A) (A)
                 (A) (A) (A) (A) (A) (A) (A) (A) (A) (A) (A) (A)
                 (A) (A) (A) (A) (A) (A) (A) (A) (A) (A) (A) (A)
                 (A) (A) (A) (A) (A) (A) (A) (A) (A) (A) (A) (A)
                 (A) (A) (A) (A) (A) (A) (A) (A) (A) (A) (A) (A)
                 (A) (A) (A) (A) (A) (A) (A) (A) (A) (A) (A) (A)
                 (A) (A) (A) (A) (A) (A) (A) (A) (A) (A) (A) (A)
                 (A) (A) (A) (A) (A) (A) (A) (A) (A) (A) (A) (A)
                 (A) (A) (A) (A) (A) (A) (A) (A) (A) (A) (A) (A)
                 (A) (A) (A) (A) (A) (A) (A) (A) (A) (A) (A) (A)
                 (A) (A) (A) (A) (A) (A) (A) (A) (A) (A) (A) (A)
                 (A) (A)
 The electronic state is 1-A.
 Alpha  occ. eigenvalues --  -19.13032 -10.26654 -10.20263 -10.19761 -10.19332
 Alpha  occ. eigenvalues --  -10.18878 -10.18730 -10.18594 -10.17626 -10.17550
 Alpha  occ. eigenvalues --  -10.17409  -1.02913  -0.84410  -0.80325  -0.74326
 Alpha  occ. eigenvalues --   -0.72287  -0.68718  -0.68319  -0.62886  -0.59617
 Alpha  occ. eigenvalues --   -0.53444  -0.52565  -0.47817  -0.46395  -0.45248
 Alpha  occ. eigenvalues --   -0.44183  -0.43881  -0.42889  -0.42284  -0.41158
 Alpha  occ. eigenvalues --   -0.39517  -0.38466  -0.37677  -0.36987  -0.35903
 Alpha  occ. eigenvalues --   -0.35152  -0.34932  -0.34238  -0.33234  -0.31645
 Alpha  occ. eigenvalues --   -0.30971  -0.30571  -0.23274
 Alpha virt. eigenvalues --   -0.00977   0.07318   0.10074   0.10189   0.12222
 Alpha virt. eigenvalues --    0.12622   0.12794   0.13997   0.14642   0.15396
 Alpha virt. eigenvalues --    0.15773   0.16356   0.17072   0.17692   0.18610
 Alpha virt. eigenvalues --    0.19337   0.20339   0.21248   0.21960   0.22866
 Alpha virt. eigenvalues --    0.23362   0.23740   0.24077   0.25796   0.26340
 Alpha virt. eigenvalues --    0.27018   0.28549   0.29601   0.34296   0.36341
 Alpha virt. eigenvalues --    0.49256   0.50199   0.50934   0.51311   0.52316
 Alpha virt. eigenvalues --    0.54101   0.54811   0.58726   0.59149   0.59655
 Alpha virt. eigenvalues --    0.61444   0.62622   0.65084   0.67457   0.68020
 Alpha virt. eigenvalues --    0.69174   0.69579   0.71326   0.72195   0.74003
 Alpha virt. eigenvalues --    0.75232   0.76093   0.80571   0.83332   0.83741
 Alpha virt. eigenvalues --    0.85233   0.85808   0.86528   0.87549   0.87813
 Alpha virt. eigenvalues --    0.89196   0.89925   0.90759   0.91345   0.91925
 Alpha virt. eigenvalues --    0.92407   0.93310   0.93749   0.94772   0.95159
 Alpha virt. eigenvalues --    0.96157   0.97162   0.97781   0.98868   1.01260
 Alpha virt. eigenvalues --    1.02346   1.02796   1.07219   1.10722   1.11675
 Alpha virt. eigenvalues --    1.13014   1.18635   1.20281   1.25779   1.34829
 Alpha virt. eigenvalues --    1.38486   1.43453   1.45739   1.47562   1.49520
 Alpha virt. eigenvalues --    1.53812   1.57519   1.59517   1.62695   1.66726
 Alpha virt. eigenvalues --    1.69715   1.71950   1.73432   1.75467   1.77272
 Alpha virt. eigenvalues --    1.79722   1.82113   1.83154   1.86190   1.86522
 Alpha virt. eigenvalues --    1.87862   1.88538   1.91091   1.94586   1.95892
 Alpha virt. eigenvalues --    1.97808   1.99886   2.02308   2.04031   2.04771
 Alpha virt. eigenvalues --    2.05952   2.08408   2.09910   2.10273   2.15837
 Alpha virt. eigenvalues --    2.16350   2.17621   2.24838   2.25950   2.26646
 Alpha virt. eigenvalues --    2.27155   2.28225   2.32086   2.36691   2.36753
 Alpha virt. eigenvalues --    2.39722   2.41635   2.45217   2.50976   2.52594
 Alpha virt. eigenvalues --    2.54393   2.59477   2.62089   2.62574   2.68596
 Alpha virt. eigenvalues --    2.71751   2.76953   2.78694   2.80461   2.84192
 Alpha virt. eigenvalues --    2.98464   3.02429   4.00098   4.11307   4.20629
 Alpha virt. eigenvalues --    4.26189   4.30999   4.31188   4.33187   4.54171
 Alpha virt. eigenvalues --    4.58029   4.58684   4.71487
          Condensed to atoms (all electrons):
               1          2          3          4          5          6
     1  O    7.997951   0.593425  -0.080756   0.000667  -0.000038   0.000000
     2  C    0.593425   4.473161   0.315463  -0.016082   0.002218  -0.000061
     3  C   -0.080756   0.315463   5.384109   0.334043  -0.031614   0.004272
     4  C    0.000667  -0.016082   0.334043   4.987153   0.380966  -0.050359
     5  C   -0.000038   0.002218  -0.031614   0.380966   4.750466   0.382255
     6  C    0.000000  -0.000061   0.004272  -0.050359   0.382255   5.166584
     7  C   -0.000010   0.000147  -0.006222  -0.050659   0.381227  -0.063309
     8  C   -0.000001   0.000102  -0.007369  -0.052004   0.382094  -0.063126
     9  C    0.000083  -0.013814  -0.046675   0.375270  -0.032796  -0.007318
    10  C    0.001410  -0.026027  -0.002757  -0.034311   0.003793   0.000167
    11  C   -0.080055   0.328805  -0.138200  -0.005313  -0.000114   0.000000
    12  H    0.001392  -0.027106   0.340942  -0.035429  -0.007270   0.000078
    13  H    0.006533  -0.023516   0.338445  -0.025440  -0.006114   0.000082
    14  H    0.000530  -0.001658  -0.053108   0.366644  -0.040958  -0.006957
    15  H    0.000000  -0.000001   0.000033  -0.005584  -0.029696   0.365945
    16  H   -0.000000   0.000001  -0.000119   0.004946  -0.028198   0.365443
    17  H    0.000000   0.000001  -0.000046  -0.005551  -0.027302   0.365564
    18  H   -0.000000  -0.000002   0.000234   0.004922  -0.027982  -0.006934
    19  H   -0.000005   0.000021   0.001349  -0.006118  -0.027280   0.005621
    20  H    0.000002  -0.000040  -0.000791  -0.005163  -0.030043  -0.003882
    21  H    0.000000  -0.000006   0.000056  -0.005662  -0.028494  -0.004857
    22  H    0.000002   0.000005   0.001517  -0.005590  -0.028911   0.005670
    23  H    0.000000  -0.000001   0.000059   0.005321  -0.029295  -0.004906
    24  H   -0.000009  -0.001395  -0.005409  -0.040876  -0.005436  -0.000293
    25  H    0.000002   0.000325   0.004981  -0.032517  -0.005655   0.003009
    26  H   -0.000069   0.003168  -0.000282   0.004301  -0.000123   0.000002
    27  H    0.000424  -0.002714   0.000258  -0.006367   0.000010  -0.000018
    28  H    0.001324  -0.028151   0.003456  -0.001597  -0.000010  -0.000000
    29  H    0.004889  -0.023720   0.006632  -0.000027   0.000010  -0.000000
               7          8          9         10         11         12
     1  O   -0.000010  -0.000001   0.000083   0.001410  -0.080055   0.001392
     2  C    0.000147   0.000102  -0.013814  -0.026027   0.328805  -0.027106
     3  C   -0.006222  -0.007369  -0.046675  -0.002757  -0.138200   0.340942
     4  C   -0.050659  -0.052004   0.375270  -0.034311  -0.005313  -0.035429
     5  C    0.381227   0.382094  -0.032796   0.003793  -0.000114  -0.007270
     6  C   -0.063309  -0.063126  -0.007318   0.000167   0.000000   0.000078
     7  C    5.166861  -0.063735   0.004533  -0.000118  -0.000016  -0.000645
     8  C   -0.063735   5.163633  -0.007833   0.000175  -0.000018   0.002863
     9  C    0.004533  -0.007833   5.067684   0.365577  -0.043775  -0.005360
    10  C   -0.000118   0.000175   0.365577   5.031000   0.335262  -0.001205
    11  C   -0.000016  -0.000018  -0.043775   0.335262   5.312594   0.002963
    12  H   -0.000645   0.002863  -0.005360  -0.001205   0.002963   0.588418
    13  H    0.002726  -0.000187   0.004539  -0.000194   0.006944  -0.027352
    14  H   -0.006712   0.006233  -0.050337  -0.005126   0.000110   0.006441
    15  H   -0.004097   0.005839  -0.000464  -0.000051   0.000001   0.000004
    16  H   -0.006758  -0.004253   0.000234  -0.000001   0.000000   0.000000
    17  H    0.005723  -0.005044   0.000653  -0.000077  -0.000001  -0.000001
    18  H    0.364780  -0.004261  -0.000116   0.000002   0.000000  -0.000039
    19  H    0.367513  -0.004969  -0.000033  -0.000001  -0.000003   0.000300
    20  H    0.366403   0.005795   0.000028  -0.000004   0.000002   0.000102
    21  H    0.005618   0.366811   0.002017  -0.000053   0.000003   0.000046
    22  H   -0.004601   0.366295  -0.000113  -0.000015   0.000017   0.004091
    23  H   -0.005253   0.367746   0.000091  -0.000001   0.000000  -0.000132
    24  H    0.000022   0.002656   0.369273  -0.042165  -0.003614   0.005025
    25  H    0.000070  -0.000386   0.365910  -0.030902   0.004426  -0.000018
    26  H    0.000002   0.000002  -0.030335   0.367778  -0.029049  -0.000011
    27  H   -0.000004   0.000001  -0.038613   0.375451  -0.042808   0.000103
    28  H    0.000000  -0.000003  -0.002832  -0.036208   0.347221   0.001284
    29  H   -0.000000   0.000000   0.004052  -0.025686   0.344296  -0.000130
              13         14         15         16         17         18
     1  O    0.006533   0.000530   0.000000  -0.000000   0.000000  -0.000000
     2  C   -0.023516  -0.001658  -0.000001   0.000001   0.000001  -0.000002
     3  C    0.338445  -0.053108   0.000033  -0.000119  -0.000046   0.000234
     4  C   -0.025440   0.366644  -0.005584   0.004946  -0.005551   0.004922
     5  C   -0.006114  -0.040958  -0.029696  -0.028198  -0.027302  -0.027982
     6  C    0.000082  -0.006957   0.365945   0.365443   0.365564  -0.006934
     7  C    0.002726  -0.006712  -0.004097  -0.006758   0.005723   0.364780
     8  C   -0.000187   0.006233   0.005839  -0.004253  -0.005044  -0.004261
     9  C    0.004539  -0.050337  -0.000464   0.000234   0.000653  -0.000116
    10  C   -0.000194  -0.005126  -0.000051  -0.000001  -0.000077   0.000002
    11  C    0.006944   0.000110   0.000001   0.000000  -0.000001   0.000000
    12  H   -0.027352   0.006441   0.000004   0.000000  -0.000001  -0.000039
    13  H    0.557929  -0.003287  -0.000007  -0.000004  -0.000001  -0.000100
    14  H   -0.003287   0.645758   0.006140  -0.000065  -0.000080  -0.000084
    15  H   -0.000007   0.006140   0.580240  -0.030012  -0.031399  -0.000115
    16  H   -0.000004  -0.000065  -0.030012   0.579278  -0.030112   0.005359
    17  H   -0.000001  -0.000080  -0.031399  -0.030112   0.576545   0.000024
    18  H   -0.000100  -0.000084  -0.000115   0.005359   0.000024   0.581100
    19  H    0.002635  -0.000099  -0.000068   0.000020  -0.000194  -0.030227
    20  H    0.000754   0.005743   0.003366  -0.000121  -0.000071  -0.030018
    21  H    0.000018  -0.000029  -0.000032  -0.000158   0.003911  -0.000082
    22  H    0.000203  -0.000034  -0.000191  -0.000081  -0.000022  -0.000175
    23  H   -0.000021  -0.000151  -0.000043   0.003868  -0.000131   0.003985
    24  H   -0.000021   0.006401   0.000061  -0.000028   0.000295   0.000002
    25  H   -0.000145  -0.003853   0.000461  -0.000124   0.003854  -0.000003
    26  H    0.000018   0.000028   0.000001  -0.000000   0.000006  -0.000000
    27  H   -0.000046   0.005720   0.000009  -0.000000   0.000008   0.000000
    28  H   -0.000156   0.000118  -0.000000  -0.000000   0.000000  -0.000000
    29  H   -0.000186  -0.000053  -0.000000   0.000000  -0.000000  -0.000000
              19         20         21         22         23         24
     1  O   -0.000005   0.000002   0.000000   0.000002   0.000000  -0.000009
     2  C    0.000021  -0.000040  -0.000006   0.000005  -0.000001  -0.001395
     3  C    0.001349  -0.000791   0.000056   0.001517   0.000059  -0.005409
     4  C   -0.006118  -0.005163  -0.005662  -0.005590   0.005321  -0.040876
     5  C   -0.027280  -0.030043  -0.028494  -0.028911  -0.029295  -0.005436
     6  C    0.005621  -0.003882  -0.004857   0.005670  -0.004906  -0.000293
     7  C    0.367513   0.366403   0.005618  -0.004601  -0.005253   0.000022
     8  C   -0.004969   0.005795   0.366811   0.366295   0.367746   0.002656
     9  C   -0.000033   0.000028   0.002017  -0.000113   0.000091   0.369273
    10  C   -0.000001  -0.000004  -0.000053  -0.000015  -0.000001  -0.042165
    11  C   -0.000003   0.000002   0.000003   0.000017   0.000000  -0.003614
    12  H    0.000300   0.000102   0.000046   0.004091  -0.000132   0.005025
    13  H    0.002635   0.000754   0.000018   0.000203  -0.000021  -0.000021
    14  H   -0.000099   0.005743  -0.000029  -0.000034  -0.000151   0.006401
    15  H   -0.000068   0.003366  -0.000032  -0.000191  -0.000043   0.000061
    16  H    0.000020  -0.000121  -0.000158  -0.000081   0.003868  -0.000028
    17  H   -0.000194  -0.000071   0.003911  -0.000022  -0.000131   0.000295
    18  H   -0.030227  -0.030018  -0.000082  -0.000175   0.003985   0.000002
    19  H    0.571678  -0.030991  -0.000011   0.003781  -0.000117  -0.000002
    20  H   -0.030991   0.577355  -0.000190  -0.000041  -0.000033   0.000003
    21  H   -0.000011  -0.000190   0.576381  -0.031225  -0.030429   0.003040
    22  H    0.003781  -0.000041  -0.031225   0.577169  -0.030311   0.000063
    23  H   -0.000117  -0.000033  -0.030429  -0.030311   0.577391  -0.000073
    24  H   -0.000002   0.000003   0.003040   0.000063  -0.000073   0.609072
    25  H   -0.000001  -0.000007   0.000262   0.000041  -0.000033  -0.036538
    26  H    0.000000   0.000000   0.000006   0.000000  -0.000000  -0.003739
    27  H    0.000000  -0.000000  -0.000000  -0.000000   0.000000   0.005783
    28  H    0.000000  -0.000000  -0.000003  -0.000006   0.000000   0.004769
    29  H   -0.000000  -0.000000  -0.000000  -0.000000   0.000000  -0.000017
              25         26         27         28         29
     1  O    0.000002  -0.000069   0.000424   0.001324   0.004889
     2  C    0.000325   0.003168  -0.002714  -0.028151  -0.023720
     3  C    0.004981  -0.000282   0.000258   0.003456   0.006632
     4  C   -0.032517   0.004301  -0.006367  -0.001597  -0.000027
     5  C   -0.005655  -0.000123   0.000010  -0.000010   0.000010
     6  C    0.003009   0.000002  -0.000018  -0.000000  -0.000000
     7  C    0.000070   0.000002  -0.000004   0.000000  -0.000000
     8  C   -0.000386   0.000002   0.000001  -0.000003   0.000000
     9  C    0.365910  -0.030335  -0.038613  -0.002832   0.004052
    10  C   -0.030902   0.367778   0.375451  -0.036208  -0.025686
    11  C    0.004426  -0.029049  -0.042808   0.347221   0.344296
    12  H   -0.000018  -0.000011   0.000103   0.001284  -0.000130
    13  H   -0.000145   0.000018  -0.000046  -0.000156  -0.000186
    14  H   -0.003853   0.000028   0.005720   0.000118  -0.000053
    15  H    0.000461   0.000001   0.000009  -0.000000  -0.000000
    16  H   -0.000124  -0.000000  -0.000000  -0.000000   0.000000
    17  H    0.003854   0.000006   0.000008   0.000000  -0.000000
    18  H   -0.000003  -0.000000   0.000000  -0.000000  -0.000000
    19  H   -0.000001   0.000000   0.000000   0.000000  -0.000000
    20  H   -0.000007   0.000000  -0.000000  -0.000000  -0.000000
    21  H    0.000262   0.000006  -0.000000  -0.000003  -0.000000
    22  H    0.000041   0.000000  -0.000000  -0.000006  -0.000000
    23  H   -0.000033  -0.000000   0.000000   0.000000   0.000000
    24  H   -0.036538  -0.003739   0.005783   0.004769  -0.000017
    25  H    0.590941  -0.002467  -0.003878  -0.000032  -0.000144
    26  H   -0.002467   0.594553  -0.036909  -0.006610  -0.002237
    27  H   -0.003878  -0.036909   0.596746   0.005779  -0.003359
    28  H   -0.000032  -0.006610   0.005779   0.586297  -0.026695
    29  H   -0.000144  -0.002237  -0.003359  -0.026695   0.560301
 Mulliken charges:
               1
     1  O   -0.447692
     2  C    0.447451
     3  C   -0.362500
     4  C   -0.079584
     5  C    0.104290
     6  C   -0.452671
     7  C   -0.453487
     8  C   -0.457057
     9  C   -0.279532
    10  C   -0.275716
    11  C   -0.339680
    12  H    0.150646
    13  H    0.165952
    14  H    0.122724
    15  H    0.139661
    16  H    0.140886
    17  H    0.143449
    18  H    0.139734
    19  H    0.147202
    20  H    0.141844
    21  H    0.143063
    22  H    0.142462
    23  H    0.142468
    24  H    0.133150
    25  H    0.142421
    26  H    0.141966
    27  H    0.144424
    28  H    0.152054
    29  H    0.162076
 Sum of Mulliken charges =  -0.00000
 Mulliken charges with hydrogens summed into heavy atoms:
               1
     1  O   -0.447692
     2  C    0.447451
     3  C   -0.045903
     4  C    0.043140
     5  C    0.104290
     6  C   -0.028676
     7  C   -0.024708
     8  C   -0.029064
     9  C   -0.003960
    10  C    0.010675
    11  C   -0.025551
 APT charges:
               1
     1  O   -0.661141
     2  C    0.765784
     3  C   -0.113534
     4  C    0.118751
     5  C    0.133821
     6  C    0.035830
     7  C    0.036854
     8  C    0.026868
     9  C    0.057978
    10  C    0.157325
    11  C   -0.058897
    12  H    0.000020
    13  H   -0.012434
    14  H   -0.065293
    15  H   -0.023323
    16  H   -0.032093
    17  H   -0.019206
    18  H   -0.031530
    19  H   -0.016904
    20  H   -0.022092
    21  H   -0.019899
    22  H   -0.020486
    23  H   -0.025050
    24  H   -0.037964
    25  H   -0.033496
    26  H   -0.059679
    27  H   -0.042784
    28  H   -0.011581
    29  H   -0.025844
 Sum of APT charges =   0.00000
 APT charges with hydrogens summed into heavy atoms:
               1
     1  O   -0.661141
     2  C    0.765784
     3  C   -0.125948
     4  C    0.053457
     5  C    0.133821
     6  C   -0.038792
     7  C   -0.033672
     8  C   -0.038567
     9  C   -0.013482
    10  C    0.054862
    11  C   -0.096322
 Electronic spatial extent (au):  <R**2>=           2070.4482
 Charge=             -0.0000 electrons
 Dipole moment (field-independent basis, Debye):
    X=             -2.0054    Y=              2.2666    Z=              0.8795  Tot=              3.1516
 Quadrupole moment (field-independent basis, Debye-Ang):
   XX=            -76.2274   YY=            -73.2714   ZZ=            -68.7407
   XY=              7.7450   XZ=              2.5577   YZ=             -1.4707
 Traceless Quadrupole moment (field-independent basis, Debye-Ang):
   XX=             -3.4809   YY=             -0.5249   ZZ=              4.0058
   XY=              7.7450   XZ=              2.5577   YZ=             -1.4707
 Octapole moment (field-independent basis, Debye-Ang**2):
  XXX=            -14.6983  YYY=              4.0633  ZZZ=             -2.1036  XYY=             -8.0846
  XXY=             20.5631  XXZ=              6.9927  XZZ=              6.4347  YZZ=             -2.0896
  YYZ=              3.0895  XYZ=             -3.9555
 Hexadecapole moment (field-independent basis, Debye-Ang**3):
 XXXX=          -1837.6448 YYYY=           -671.9844 ZZZZ=           -304.8229 XXXY=             58.5984
 XXXZ=             10.8434 YYYX=              7.3637 YYYZ=             -2.0636 ZZZX=              0.8418
 ZZZY=              2.3193 XXYY=           -451.6757 XXZZ=           -353.1733 YYZZ=           -162.3951
 XXYZ=            -10.1076 YYXZ=              4.6397 ZZXY=             -3.8712
 N-N= 6.627190194854D+02 E-N=-2.408145083891D+03  KE= 4.625959582179D+02
  Exact polarizability: 119.254  -0.220 102.880  -1.163   1.654  89.509
 Approx polarizability: 150.648  -7.477 149.277  -4.952   6.113 138.891
 Calling FoFJK, ICntrl=    100127 FMM=F ISym2X=0 I1Cent= 0 IOpClX= 0 NMat=1 NMatS=1 NMatT=0.
 Full mass-weighted force constant matrix:
 Low frequencies ---   -6.2844   -4.4968   -0.0006    0.0003    0.0004    6.3488
 Low frequencies ---   38.2810   85.1508   98.8747
 Diagonal vibrational polarizability:
        8.1789296       5.7908950      20.0622033
 Harmonic frequencies (cm**-1), IR intensities (KM/Mole), Raman scattering
 activities (A**4/AMU), depolarization ratios for plane and unpolarized
 incident light, reduced masses (AMU), force constants (mDyne/A),
 and normal coordinates:
                      1                      2                      3
                      A                      A                      A
 Frequencies --     38.2763                85.1506                98.8740
 Red. masses --      2.7865                 3.6656                 2.7713
 Frc consts  --      0.0024                 0.0157                 0.0160
 IR Inten    --      0.7107                 2.1640                 1.1082
  Atom  AN      X      Y      Z        X      Y      Z        X      Y      Z
     1   8    -0.01   0.03  -0.15    -0.16   0.03  -0.22     0.01   0.10  -0.12
     2   6    -0.00  -0.01  -0.06    -0.03   0.01   0.03    -0.00   0.01   0.04
     3   6     0.00  -0.04  -0.06     0.02   0.07   0.29    -0.01  -0.03  -0.03
     4   6     0.00   0.01   0.01     0.03  -0.03   0.10    -0.00  -0.04  -0.07
     5   6     0.00   0.01  -0.00     0.02  -0.02   0.00     0.00  -0.00   0.00
     6   6     0.01  -0.10  -0.15     0.08  -0.02  -0.05    -0.02   0.01   0.04
     7   6     0.03  -0.05   0.15     0.06  -0.02  -0.05    -0.05  -0.00   0.04
     8   6    -0.04   0.18  -0.03    -0.08  -0.04  -0.02     0.08   0.02   0.02
     9   6     0.00  -0.02   0.11     0.01   0.02  -0.02    -0.00  -0.01  -0.19
    10   6     0.00   0.02   0.12     0.02  -0.01  -0.01     0.06  -0.06   0.00
    11   6     0.00  -0.03   0.05     0.03  -0.01  -0.00    -0.05  -0.01   0.25
    12   1    -0.00  -0.12  -0.06     0.11   0.34   0.29    -0.06  -0.03  -0.03
    13   1     0.00  -0.01  -0.14    -0.04   0.01   0.53     0.02  -0.02  -0.05
    14   1     0.01   0.08   0.01     0.12  -0.15   0.13    -0.03  -0.12  -0.07
    15   1    -0.03  -0.29  -0.15     0.21   0.04  -0.02    -0.05   0.02   0.03
    16   1     0.00  -0.04  -0.07     0.08  -0.06  -0.18    -0.02   0.01   0.07
    17   1     0.06  -0.05  -0.33     0.01  -0.03   0.01    -0.01   0.00   0.05
    18   1     0.02  -0.03   0.07     0.06  -0.04  -0.10    -0.05   0.01   0.14
    19   1    -0.03   0.03   0.30     0.04  -0.03  -0.05    -0.01  -0.00   0.01
    20   1     0.12  -0.20   0.20     0.11   0.01  -0.04    -0.14  -0.01   0.02
    21   1    -0.17   0.25  -0.17    -0.03  -0.07   0.02     0.14   0.00   0.01
    22   1     0.04   0.33   0.08    -0.18  -0.10  -0.01     0.07  -0.01   0.00
    23   1    -0.02   0.06  -0.02    -0.10   0.03  -0.11     0.08   0.07   0.07
    24   1     0.01  -0.10   0.13    -0.01   0.12  -0.03    -0.14   0.14  -0.22
    25   1    -0.00   0.02   0.18     0.03  -0.03  -0.11     0.07  -0.06  -0.37
    26   1     0.00  -0.00   0.20     0.03  -0.01  -0.04     0.02  -0.03  -0.04
    27   1     0.00   0.10   0.12     0.02  -0.04  -0.01     0.23  -0.17   0.02
    28   1    -0.00  -0.11   0.06     0.08   0.03  -0.01    -0.33  -0.01   0.25
    29   1     0.00  -0.00   0.05     0.01  -0.03  -0.06     0.03   0.02   0.48
                      4                      5                      6
                      A                      A                      A
 Frequencies --    179.9063               225.7109               243.5964
 Red. masses --      2.4063                 1.5671                 1.3714
 Frc consts  --      0.0459                 0.0470                 0.0479
 IR Inten    --      0.5956                 0.4783                 0.0300
  Atom  AN      X      Y      Z        X      Y      Z        X      Y      Z
     1   8    -0.11  -0.08   0.03    -0.04  -0.04   0.02    -0.02  -0.02   0.00
     2   6    -0.05  -0.01   0.00    -0.01  -0.00  -0.02    -0.02  -0.01  -0.01
     3   6    -0.05   0.09  -0.02    -0.00   0.04   0.02    -0.02   0.00  -0.07
     4   6    -0.00   0.10  -0.04     0.01  -0.01  -0.06    -0.01   0.05   0.01
     5   6     0.02   0.01  -0.01     0.01  -0.02  -0.03     0.00   0.01   0.02
     6   6    -0.12  -0.07   0.04    -0.02  -0.04  -0.03    -0.01  -0.01   0.00
     7   6     0.15  -0.03  -0.03    -0.04  -0.02   0.03     0.11  -0.03   0.05
     8   6     0.06  -0.05   0.00     0.10   0.01  -0.02    -0.05   0.00   0.01
     9   6     0.03   0.10  -0.05    -0.03   0.01  -0.03     0.01   0.05   0.00
    10   6     0.07   0.02   0.04     0.01   0.07   0.12     0.02  -0.01  -0.03
    11   6     0.02  -0.05   0.02     0.02  -0.01  -0.03    -0.02  -0.02   0.02
    12   1    -0.05   0.13  -0.02     0.01   0.14   0.01    -0.05  -0.10  -0.07
    13   1    -0.10   0.09   0.01    -0.01   0.01   0.11    -0.03   0.04  -0.17
    14   1    -0.01   0.10  -0.04     0.04  -0.03  -0.05    -0.05   0.08   0.00
    15   1    -0.36  -0.21  -0.01     0.05   0.03  -0.02     0.30   0.28   0.07
    16   1    -0.11  -0.02   0.31    -0.01  -0.13  -0.10     0.01  -0.27  -0.34
    17   1    -0.01  -0.03  -0.12    -0.12  -0.04   0.03    -0.33  -0.05   0.27
    18   1     0.14  -0.06  -0.23    -0.02  -0.09   0.39     0.12  -0.11   0.02
    19   1     0.05   0.01   0.09     0.21  -0.03  -0.17     0.15   0.03   0.08
    20   1     0.36  -0.07   0.04    -0.38   0.06  -0.09     0.15  -0.04   0.06
    21   1    -0.15   0.01  -0.03     0.34  -0.05   0.02     0.18  -0.08   0.10
    22   1     0.26   0.09  -0.01    -0.04  -0.13  -0.07    -0.28  -0.18  -0.01
    23   1     0.11  -0.29   0.07     0.06   0.25   0.02    -0.11   0.27  -0.08
    24   1    -0.04   0.13  -0.06    -0.13  -0.00  -0.04     0.04   0.07  -0.00
    25   1     0.09   0.11  -0.11    -0.00  -0.00  -0.07     0.01   0.05  -0.00
    26   1     0.11  -0.01   0.09    -0.04   0.03   0.32     0.06  -0.01  -0.08
    27   1     0.12   0.06   0.04     0.08   0.28   0.11     0.01  -0.07  -0.03
    28   1     0.02  -0.08   0.03     0.13  -0.08  -0.02    -0.08  -0.02   0.02
    29   1     0.02  -0.08   0.03    -0.01  -0.01  -0.12     0.00  -0.02   0.07
                      7                      8                      9
                      A                      A                      A
 Frequencies --    260.8189               270.1676               280.7457
 Red. masses --      1.2096                 1.1849                 2.7290
 Frc consts  --      0.0485                 0.0510                 0.1267
 IR Inten    --      0.1238                 0.1325                 0.0995
  Atom  AN      X      Y      Z        X      Y      Z        X      Y      Z
     1   8     0.00   0.02  -0.01     0.00  -0.00  -0.01    -0.10   0.03   0.00
     2   6     0.01   0.01   0.02     0.02   0.00   0.01    -0.09   0.00   0.05
     3   6    -0.00   0.01  -0.01     0.01   0.01   0.00    -0.06  -0.04   0.02
     4   6    -0.00   0.03   0.02    -0.00   0.02   0.02     0.01   0.00   0.00
     5   6    -0.01   0.00  -0.00    -0.01   0.01   0.00     0.06   0.00  -0.03
     6   6    -0.05  -0.04  -0.02    -0.06  -0.03  -0.00     0.06  -0.01  -0.04
     7   6    -0.00   0.01  -0.01     0.02   0.01  -0.03     0.07   0.01  -0.05
     8   6    -0.03  -0.01  -0.00    -0.05   0.02  -0.01     0.24   0.04  -0.00
     9   6     0.04   0.01   0.05     0.03   0.01   0.03    -0.02  -0.03   0.12
    10   6     0.03  -0.03  -0.04     0.03  -0.04  -0.03    -0.10  -0.03  -0.08
    11   6     0.03   0.01   0.02     0.03  -0.01   0.02    -0.11   0.02   0.03
    12   1    -0.02  -0.02  -0.01     0.01  -0.01   0.00    -0.12  -0.08   0.01
    13   1     0.01   0.02  -0.04     0.03   0.01  -0.02    -0.04  -0.02  -0.05
    14   1    -0.00   0.06   0.01    -0.00   0.03   0.02     0.08   0.06   0.01
    15   1    -0.30  -0.31  -0.07    -0.00   0.04   0.01     0.11   0.00  -0.03
    16   1    -0.06   0.11   0.27    -0.04  -0.13  -0.06     0.07  -0.04  -0.09
    17   1     0.16   0.01  -0.28    -0.16  -0.03   0.05     0.02  -0.01  -0.03
    18   1     0.01  -0.04   0.10     0.05  -0.15   0.38     0.07  -0.02  -0.00
    19   1     0.09  -0.01  -0.10     0.36  -0.02  -0.32     0.12  -0.01  -0.11
    20   1    -0.11   0.07  -0.06    -0.36   0.21  -0.17     0.02   0.07  -0.08
    21   1     0.31  -0.13   0.12    -0.32   0.12  -0.10     0.31   0.05  -0.07
    22   1    -0.32  -0.27  -0.06     0.15   0.23   0.06     0.34   0.06  -0.06
    23   1    -0.10   0.36  -0.07     0.00  -0.26   0.01     0.27   0.05   0.18
    24   1     0.13  -0.04   0.06     0.08  -0.01   0.04     0.16  -0.17   0.15
    25   1     0.04   0.05   0.13     0.03   0.03   0.06    -0.11   0.01   0.31
    26   1     0.05  -0.01  -0.14     0.05  -0.02  -0.12    -0.05   0.00  -0.26
    27   1    -0.02  -0.13  -0.04    -0.01  -0.13  -0.03    -0.21  -0.20  -0.08
    28   1    -0.00   0.05   0.02     0.00   0.02   0.02    -0.20   0.11   0.02
    29   1     0.03  -0.01   0.04     0.04  -0.01   0.04    -0.09   0.00   0.09
                     10                     11                     12
                      A                      A                      A
 Frequencies --    326.6629               339.5398               377.1445
 Red. masses --      2.1824                 2.1086                 2.3703
 Frc consts  --      0.1372                 0.1432                 0.1986
 IR Inten    --      0.0763                 0.4079                 0.4028
  Atom  AN      X      Y      Z        X      Y      Z        X      Y      Z
     1   8    -0.06  -0.02   0.02     0.03  -0.03  -0.00    -0.09   0.05   0.01
     2   6    -0.04   0.01  -0.02    -0.02  -0.05  -0.04    -0.04   0.06   0.06
     3   6    -0.03   0.02  -0.07     0.01  -0.07   0.01    -0.04  -0.01  -0.02
     4   6    -0.00   0.05   0.02     0.01  -0.04   0.04     0.01  -0.05  -0.10
     5   6     0.02  -0.00   0.04     0.04   0.01   0.05     0.02  -0.03  -0.08
     6   6     0.18   0.01  -0.08     0.07   0.02   0.05     0.04   0.12   0.11
     7   6    -0.03  -0.01   0.10     0.16   0.03  -0.05     0.07  -0.10   0.08
     8   6    -0.03  -0.16   0.05    -0.05   0.09   0.03    -0.05   0.00  -0.11
     9   6     0.00   0.08  -0.02    -0.08   0.01  -0.07     0.04  -0.10   0.00
    10   6     0.01   0.03  -0.02    -0.08   0.03   0.02     0.02   0.01  -0.01
    11   6    -0.04   0.01   0.00    -0.10  -0.02  -0.03     0.04   0.04  -0.01
    12   1    -0.04  -0.09  -0.06     0.04  -0.13   0.01    -0.17  -0.01  -0.04
    13   1    -0.04   0.06  -0.17    -0.01  -0.06  -0.03     0.08  -0.03  -0.06
    14   1    -0.04   0.08   0.01    -0.01  -0.07   0.04     0.03  -0.05  -0.10
    15   1     0.23  -0.21  -0.06    -0.11  -0.15   0.02    -0.14   0.25   0.06
    16   1     0.14   0.22  -0.10     0.05   0.19   0.26     0.02   0.27   0.27
    17   1     0.36   0.03  -0.24     0.26   0.04  -0.10     0.24   0.04   0.24
    18   1    -0.02   0.00   0.33     0.19  -0.17   0.06     0.09  -0.21   0.25
    19   1     0.09  -0.00   0.02     0.37   0.00  -0.24     0.23   0.04   0.15
    20   1    -0.25  -0.02   0.03     0.06   0.25  -0.12    -0.04  -0.22   0.07
    21   1    -0.19  -0.17   0.18    -0.01   0.10  -0.02    -0.11   0.02  -0.12
    22   1     0.06  -0.15  -0.03    -0.16   0.09   0.13    -0.12   0.03  -0.02
    23   1    -0.01  -0.35  -0.01    -0.08   0.19  -0.06    -0.07  -0.00  -0.21
    24   1    -0.01   0.13  -0.03    -0.18   0.14  -0.09     0.08  -0.25   0.03
    25   1     0.03   0.07  -0.07    -0.07  -0.09  -0.22     0.01  -0.03   0.15
    26   1     0.05   0.03  -0.03    -0.08   0.00   0.13    -0.05   0.03   0.02
    27   1     0.01   0.02  -0.02    -0.02   0.14   0.02     0.03   0.04  -0.01
    28   1    -0.09  -0.01   0.01    -0.15  -0.08  -0.02     0.14   0.11  -0.02
    29   1    -0.01  -0.00   0.06    -0.09   0.03   0.02     0.01  -0.04  -0.10
                     13                     14                     15
                      A                      A                      A
 Frequencies --    407.6433               437.7622               449.0049
 Red. masses --      2.4201                 2.7208                 2.6436
 Frc consts  --      0.2369                 0.3072                 0.3140
 IR Inten    --      0.7824                 1.3788                 0.8916
  Atom  AN      X      Y      Z        X      Y      Z        X      Y      Z
     1   8     0.10  -0.08  -0.02     0.05   0.07  -0.01     0.03  -0.01   0.01
     2   6     0.07  -0.06  -0.08    -0.03  -0.03   0.05    -0.06  -0.05  -0.04
     3   6     0.06   0.10   0.04    -0.04  -0.13   0.07    -0.01  -0.09   0.07
     4   6    -0.00   0.05  -0.03     0.02  -0.05   0.02     0.11   0.01   0.06
     5   6    -0.00   0.03  -0.08    -0.02   0.16  -0.03     0.08  -0.03  -0.05
     6   6    -0.03   0.10  -0.01    -0.13   0.07  -0.11    -0.03  -0.05   0.07
     7   6     0.03  -0.02   0.09     0.09   0.13   0.09    -0.08  -0.02   0.01
     8   6     0.02  -0.04  -0.08     0.02  -0.10   0.00    -0.02  -0.01  -0.10
     9   6    -0.08   0.04   0.06     0.03  -0.07  -0.03     0.11   0.09   0.02
    10   6    -0.10  -0.07   0.00     0.01   0.02   0.00     0.07   0.15  -0.07
    11   6    -0.07  -0.04   0.04    -0.02  -0.02  -0.05    -0.15  -0.01  -0.04
    12   1     0.23   0.39   0.05    -0.07  -0.19   0.07     0.03  -0.13   0.07
    13   1    -0.08   0.04   0.34     0.01  -0.12  -0.01    -0.11  -0.06   0.02
    14   1     0.05   0.09  -0.02     0.06  -0.12   0.03     0.19   0.01   0.06
    15   1    -0.12   0.15  -0.03    -0.13  -0.01  -0.11    -0.15   0.07   0.03
    16   1    -0.03   0.14   0.08    -0.10  -0.07  -0.09    -0.00  -0.16   0.17
    17   1     0.04   0.07   0.04    -0.26   0.13  -0.22    -0.11  -0.06   0.15
    18   1     0.04  -0.07   0.21     0.11  -0.00   0.16    -0.09   0.17   0.10
    19   1     0.12   0.11   0.18     0.21   0.26   0.18    -0.18  -0.06   0.04
    20   1    -0.05  -0.18   0.09     0.08   0.03   0.11    -0.18  -0.13   0.00
    21   1     0.01  -0.07   0.00    -0.04  -0.19   0.26    -0.08   0.02  -0.12
    22   1     0.03  -0.09  -0.15     0.11  -0.23  -0.22    -0.08   0.03  -0.01
    23   1     0.02  -0.07  -0.09     0.05  -0.25   0.01    -0.03  -0.02  -0.21
    24   1    -0.07  -0.01   0.06    -0.00  -0.05  -0.04     0.23   0.07   0.04
    25   1    -0.06   0.07   0.08    -0.03  -0.12  -0.05    -0.02   0.04   0.11
    26   1    -0.01  -0.07  -0.12    -0.02  -0.00   0.11     0.14   0.08   0.09
    27   1    -0.17  -0.19   0.00     0.04   0.12  -0.00     0.09   0.28  -0.08
    28   1    -0.26  -0.13   0.06     0.09   0.03  -0.06    -0.42  -0.04  -0.02
    29   1    -0.02   0.13   0.20    -0.05  -0.11  -0.14    -0.04  -0.05   0.25
                     16                     17                     18
                      A                      A                      A
 Frequencies --    476.8671               511.1804               539.5379
 Red. masses --      1.7945                 3.0479                 2.5802
 Frc consts  --      0.2404                 0.4692                 0.4425
 IR Inten    --      0.3667                 6.8452                 6.3050
  Atom  AN      X      Y      Z        X      Y      Z        X      Y      Z
     1   8     0.02   0.03  -0.03     0.15   0.14   0.02     0.08   0.11  -0.00
     2   6     0.02  -0.03   0.09    -0.10  -0.02  -0.05    -0.08  -0.04   0.05
     3   6    -0.01  -0.06   0.02    -0.12   0.00   0.04    -0.08   0.05  -0.02
     4   6     0.02   0.05   0.09    -0.10   0.03   0.03     0.04   0.05  -0.13
     5   6     0.01  -0.02  -0.06    -0.14  -0.05  -0.00     0.14   0.01   0.03
     6   6    -0.01   0.02   0.02     0.01   0.06  -0.03     0.07  -0.11   0.07
     7   6    -0.03  -0.05   0.01     0.01  -0.14  -0.04     0.01   0.10   0.02
     8   6     0.04   0.00  -0.08     0.03   0.02   0.04    -0.03  -0.00  -0.01
     9   6    -0.07   0.13   0.02     0.07   0.04   0.00    -0.02  -0.00  -0.00
    10   6    -0.04  -0.05   0.03     0.10  -0.02   0.00    -0.04  -0.09   0.04
    11   6     0.04  -0.03  -0.02    -0.05  -0.11  -0.06    -0.05  -0.10  -0.03
    12   1    -0.10  -0.35   0.02     0.01   0.17   0.05    -0.16   0.31  -0.04
    13   1     0.00   0.03  -0.28    -0.22  -0.02   0.22    -0.21   0.02   0.18
    14   1     0.11   0.09   0.10    -0.11   0.02   0.03     0.01   0.07  -0.14
    15   1    -0.09   0.09  -0.01     0.12   0.07  -0.01     0.04  -0.11   0.06
    16   1    -0.01   0.04   0.08    -0.04   0.29  -0.14     0.10  -0.24   0.10
    17   1     0.04  -0.01   0.08     0.21   0.01   0.03    -0.06  -0.08   0.03
    18   1    -0.03  -0.00   0.07     0.03  -0.33  -0.03    -0.01   0.28   0.05
    19   1    -0.03  -0.02   0.04     0.15  -0.08  -0.06    -0.12  -0.01  -0.03
    20   1    -0.09  -0.13   0.00     0.04  -0.07  -0.04    -0.06   0.10   0.00
    21   1     0.07   0.01  -0.12     0.15   0.04  -0.08    -0.17   0.00   0.06
    22   1     0.05   0.02  -0.07     0.14   0.06  -0.00    -0.17  -0.00   0.11
    23   1     0.04   0.03  -0.03     0.05   0.07   0.28    -0.06  -0.04  -0.28
    24   1    -0.22   0.40  -0.04     0.14   0.03   0.01    -0.08  -0.14   0.01
    25   1     0.03   0.02  -0.29     0.13   0.11   0.05     0.01   0.06   0.05
    26   1     0.07  -0.04  -0.13     0.15  -0.06   0.12     0.04  -0.10  -0.02
    27   1    -0.12  -0.18   0.03     0.14   0.09  -0.00    -0.07  -0.13   0.03
    28   1     0.34   0.05  -0.04     0.01  -0.14  -0.05     0.24  -0.04  -0.05
    29   1    -0.06  -0.07  -0.30    -0.05  -0.28  -0.08    -0.13  -0.22  -0.28
                     19                     20                     21
                      A                      A                      A
 Frequencies --    642.2862               755.2194               772.9177
 Red. masses --      3.6952                 2.2986                 2.8090
 Frc consts  --      0.8981                 0.7724                 0.9887
 IR Inten    --      2.2151                 1.8320                 2.2804
  Atom  AN      X      Y      Z        X      Y      Z        X      Y      Z
     1   8     0.07  -0.09  -0.12    -0.03   0.00   0.02    -0.06   0.07   0.02
     2   6     0.13  -0.19   0.27    -0.07  -0.00  -0.05     0.02   0.08   0.08
     3   6    -0.02  -0.02   0.03     0.05  -0.09  -0.03     0.15   0.11   0.01
     4   6     0.01   0.07  -0.15     0.14  -0.04  -0.09     0.11   0.04  -0.01
     5   6    -0.05  -0.01   0.02     0.04   0.00  -0.01     0.04   0.00  -0.01
     6   6    -0.01   0.03  -0.02    -0.06   0.08  -0.06    -0.05   0.07  -0.06
     7   6    -0.01  -0.06  -0.02    -0.02  -0.09  -0.03    -0.03  -0.08  -0.03
     8   6    -0.03   0.01   0.10    -0.03   0.02   0.15    -0.02   0.01   0.10
     9   6    -0.02   0.08  -0.03     0.04   0.05   0.04    -0.00  -0.02  -0.02
    10   6    -0.04   0.12  -0.07     0.01   0.06   0.05    -0.04  -0.13  -0.01
    11   6    -0.02   0.03   0.02    -0.04   0.04   0.04    -0.10  -0.14  -0.10
    12   1    -0.38   0.04  -0.02     0.11   0.21  -0.04    -0.02  -0.20   0.00
    13   1    -0.10   0.02  -0.02     0.00  -0.16   0.22     0.29   0.18  -0.31
    14   1    -0.03   0.06  -0.15     0.17   0.04  -0.10     0.17   0.01   0.00
    15   1     0.08  -0.01   0.00    -0.09   0.09  -0.07    -0.10   0.08  -0.07
    16   1    -0.03   0.13  -0.11    -0.05   0.05  -0.04    -0.03   0.02  -0.01
    17   1     0.06   0.02  -0.03    -0.09   0.09  -0.08    -0.09   0.08  -0.07
    18   1    -0.01  -0.13  -0.06    -0.02  -0.09  -0.03    -0.03  -0.02  -0.02
    19   1     0.02  -0.06  -0.04    -0.03  -0.11  -0.04    -0.06  -0.10  -0.02
    20   1     0.03  -0.00  -0.02    -0.03  -0.11  -0.04    -0.05  -0.12  -0.03
    21   1    -0.03   0.01   0.09    -0.09   0.01   0.20    -0.06   0.01   0.13
    22   1    -0.02   0.02   0.12    -0.09   0.01   0.20    -0.06   0.01   0.14
    23   1    -0.03   0.00   0.12    -0.04   0.01   0.06    -0.03   0.00   0.03
    24   1     0.16  -0.24   0.03    -0.17   0.08   0.02     0.04  -0.07  -0.01
    25   1    -0.13   0.21   0.31     0.00  -0.07  -0.11     0.02   0.02   0.02
    26   1     0.00   0.05   0.13     0.13   0.15  -0.41     0.05  -0.28   0.39
    27   1     0.02   0.29  -0.07    -0.16  -0.38   0.06     0.02   0.26  -0.02
    28   1     0.06   0.34  -0.03     0.22  -0.05   0.04    -0.31  -0.10  -0.10
    29   1    -0.05   0.06  -0.06    -0.11  -0.04  -0.17    -0.04  -0.09   0.07
                     22                     23                     24
                      A                      A                      A
 Frequencies --    837.8369               874.5742               882.0171
 Red. masses --      2.4437                 1.7135                 1.6959
 Frc consts  --      1.0107                 0.7722                 0.7773
 IR Inten    --      1.1065                 0.9050                 2.1639
  Atom  AN      X      Y      Z        X      Y      Z        X      Y      Z
     1   8    -0.06   0.02   0.01     0.01  -0.02  -0.00    -0.01  -0.00  -0.02
     2   6    -0.02   0.02   0.06    -0.03  -0.03  -0.02     0.00  -0.04   0.08
     3   6     0.21  -0.06  -0.05     0.03   0.05  -0.05     0.01   0.01  -0.11
     4   6    -0.01  -0.04  -0.05    -0.01   0.04   0.12     0.03   0.02   0.05
     5   6    -0.11  -0.03   0.02     0.05   0.01   0.02    -0.03  -0.00   0.01
     6   6     0.01  -0.06   0.04    -0.01   0.04  -0.03    -0.01  -0.01   0.01
     7   6    -0.01   0.10   0.03     0.01  -0.05  -0.01    -0.00   0.01   0.01
     8   6    -0.02  -0.01  -0.08     0.01  -0.00  -0.01    -0.01  -0.01  -0.03
     9   6    -0.01   0.11  -0.01     0.02  -0.04  -0.10     0.11  -0.09   0.06
    10   6     0.02   0.03  -0.00    -0.04  -0.00  -0.02    -0.02  -0.04  -0.00
    11   6    -0.11  -0.07   0.03    -0.06   0.02   0.11    -0.07   0.06  -0.02
    12   1     0.30   0.11  -0.04     0.29   0.01  -0.02     0.04   0.37  -0.12
    13   1     0.35  -0.16   0.14    -0.16   0.09  -0.02    -0.07  -0.08   0.23
    14   1    -0.11  -0.04  -0.06    -0.07  -0.05   0.12    -0.05   0.30   0.01
    15   1     0.12  -0.08   0.07    -0.09   0.04  -0.05     0.03  -0.02   0.01
    16   1    -0.02   0.07  -0.06     0.02  -0.06   0.05    -0.02   0.02  -0.03
    17   1     0.12  -0.08   0.06    -0.10   0.07  -0.06     0.02  -0.01   0.01
    18   1     0.00  -0.11  -0.07    -0.00   0.09   0.04    -0.00  -0.02  -0.00
    19   1     0.11   0.18   0.05    -0.08  -0.12  -0.03     0.01   0.01   0.00
    20   1     0.13   0.18   0.06    -0.08  -0.08  -0.03     0.01   0.02   0.01
    21   1     0.10  -0.01  -0.16     0.00  -0.00  -0.01     0.05  -0.00  -0.07
    22   1     0.10  -0.00  -0.17     0.00   0.00  -0.01     0.05   0.00  -0.07
    23   1     0.00   0.02   0.11     0.00  -0.01  -0.04     0.00   0.01   0.07
    24   1     0.11  -0.07   0.02     0.35  -0.14  -0.05    -0.07   0.37  -0.01
    25   1    -0.07   0.18   0.18    -0.13   0.01   0.19     0.21  -0.28  -0.38
    26   1     0.22  -0.03  -0.04    -0.21   0.02   0.11    -0.10  -0.07   0.18
    27   1     0.07  -0.06   0.01     0.29   0.01   0.00    -0.10   0.17  -0.02
    28   1     0.19  -0.02   0.01     0.43   0.09   0.08    -0.07   0.32  -0.06
    29   1    -0.19  -0.21  -0.22    -0.22  -0.04  -0.34    -0.07   0.04  -0.04
                     25                     26                     27
                      A                      A                      A
 Frequencies --    905.4047               937.3868               942.0655
 Red. masses --      2.3365                 1.9650                 1.7528
 Frc consts  --      1.1285                 1.0173                 0.9165
 IR Inten    --      3.9902                 0.9436                 0.4864
  Atom  AN      X      Y      Z        X      Y      Z        X      Y      Z
     1   8     0.01  -0.04  -0.00     0.02   0.00  -0.00    -0.00   0.00   0.00
     2   6     0.03   0.01  -0.06    -0.03  -0.03   0.00     0.00   0.00   0.01
     3   6    -0.03   0.02   0.10    -0.01   0.10  -0.02     0.01  -0.01  -0.01
     4   6     0.07   0.06  -0.06     0.11   0.00   0.03    -0.01   0.00   0.00
     5   6    -0.07   0.01  -0.02    -0.06  -0.02  -0.10    -0.02   0.15  -0.01
     6   6     0.00  -0.07   0.04     0.05  -0.08  -0.00     0.10  -0.03   0.08
     7   6    -0.02   0.02   0.00     0.00   0.08  -0.03    -0.09  -0.09  -0.06
     8   6    -0.03   0.00  -0.00    -0.09   0.00   0.07    -0.01   0.09  -0.02
     9   6     0.15  -0.01  -0.07    -0.03  -0.07   0.00    -0.00   0.00   0.00
    10   6    -0.04  -0.09   0.12    -0.00   0.08  -0.04    -0.00   0.00  -0.01
    11   6    -0.12   0.11  -0.03     0.02  -0.05   0.04     0.01  -0.01   0.00
    12   1    -0.14  -0.27   0.09     0.01  -0.03  -0.01     0.03   0.02  -0.00
    13   1    -0.04   0.12  -0.21    -0.14   0.17  -0.15     0.03  -0.02   0.03
    14   1     0.15  -0.13  -0.03     0.22  -0.00   0.04    -0.02   0.02  -0.00
    15   1     0.11  -0.04   0.06    -0.12   0.15  -0.05    -0.00  -0.19   0.06
    16   1    -0.03   0.08  -0.07     0.05  -0.03   0.15     0.17  -0.35   0.18
    17   1     0.14  -0.10   0.09     0.12  -0.16   0.22    -0.20   0.08  -0.11
    18   1    -0.01  -0.09  -0.02     0.02  -0.01   0.10    -0.05  -0.43  -0.09
    19   1     0.06   0.09   0.03     0.09   0.28   0.17     0.15   0.11   0.04
    20   1     0.04   0.02   0.02    -0.03  -0.17   0.00     0.07  -0.15  -0.01
    21   1     0.04  -0.01  -0.00     0.15  -0.01  -0.02    -0.08  -0.06   0.42
    22   1     0.06  -0.01  -0.10     0.15   0.03  -0.10     0.09  -0.15  -0.37
    23   1    -0.01  -0.00   0.15    -0.04   0.05   0.49     0.03  -0.16  -0.03
    24   1     0.12  -0.14  -0.05    -0.06  -0.04  -0.01    -0.02   0.00   0.00
    25   1     0.30   0.15   0.01    -0.18  -0.21  -0.04    -0.02  -0.02  -0.00
    26   1    -0.06  -0.04  -0.04    -0.06   0.12  -0.12     0.01  -0.00   0.01
    27   1     0.01  -0.25   0.13    -0.03  -0.02  -0.03    -0.01   0.02  -0.01
    28   1     0.05  -0.09  -0.01     0.08  -0.07   0.04    -0.01   0.01  -0.00
    29   1    -0.21   0.46  -0.22     0.02  -0.23   0.01     0.01  -0.02   0.01
                     28                     29                     30
                      A                      A                      A
 Frequencies --    946.1208               970.4652              1005.1054
 Red. masses --      1.9292                 1.2003                 2.0595
 Frc consts  --      1.0175                 0.6660                 1.2259
 IR Inten    --      2.3800                 0.0171                 0.9158
  Atom  AN      X      Y      Z        X      Y      Z        X      Y      Z
     1   8     0.02  -0.00  -0.01    -0.00   0.00   0.00    -0.01   0.02   0.03
     2   6    -0.01  -0.03   0.01    -0.00  -0.00   0.00    -0.05   0.01  -0.07
     3   6    -0.01   0.12  -0.00     0.00  -0.00  -0.00    -0.00  -0.11   0.02
     4   6     0.11  -0.01   0.01    -0.00   0.00  -0.00     0.12   0.10  -0.03
     5   6    -0.04   0.00   0.11     0.00  -0.00   0.00    -0.04   0.01  -0.02
     6   6    -0.06   0.04   0.04    -0.00  -0.04  -0.06    -0.05  -0.04   0.04
     7   6    -0.04  -0.03   0.06     0.01  -0.03   0.07    -0.03   0.01   0.01
     8   6     0.04  -0.01  -0.11    -0.01   0.07  -0.01     0.02   0.01   0.01
     9   6     0.00  -0.07   0.00    -0.00   0.00   0.00    -0.04   0.02  -0.02
    10   6     0.00   0.09   0.00     0.00  -0.00  -0.00    -0.09  -0.07  -0.07
    11   6    -0.02  -0.05   0.00     0.00   0.00  -0.00     0.12  -0.01   0.06
    12   1    -0.10  -0.08  -0.00     0.03  -0.00  -0.00     0.16   0.00   0.04
    13   1    -0.11   0.21  -0.21    -0.01  -0.00   0.00    -0.12  -0.10   0.10
    14   1     0.10  -0.08   0.02    -0.00  -0.01   0.00     0.34   0.22  -0.02
    15   1     0.21  -0.21   0.11    -0.17   0.33  -0.12     0.24  -0.11   0.12
    16   1    -0.10   0.14  -0.21    -0.02   0.12   0.12    -0.13   0.26  -0.23
    17   1    -0.01   0.10  -0.17     0.18  -0.19   0.30     0.19  -0.07   0.01
    18   1    -0.03  -0.22  -0.18    -0.01   0.10  -0.14    -0.02  -0.15  -0.06
    19   1     0.03  -0.15  -0.15    -0.10  -0.32  -0.23     0.06   0.05  -0.00
    20   1     0.15   0.33   0.05     0.05   0.38   0.01     0.06   0.07   0.02
    21   1    -0.03  -0.00  -0.08    -0.04  -0.06   0.36    -0.07   0.01   0.07
    22   1    -0.03  -0.03  -0.07     0.08  -0.14  -0.33    -0.06  -0.02   0.04
    23   1     0.03  -0.03  -0.22     0.03  -0.15   0.02     0.00  -0.02  -0.12
    24   1    -0.14  -0.08  -0.01    -0.02  -0.01   0.00     0.15   0.06  -0.01
    25   1    -0.11  -0.21  -0.07     0.01   0.02   0.00    -0.06   0.04   0.04
    26   1     0.02   0.15  -0.23    -0.00  -0.00   0.01    -0.36  -0.07   0.26
    27   1    -0.11  -0.13   0.00    -0.01   0.01  -0.00     0.08   0.26  -0.07
    28   1     0.02  -0.14   0.02    -0.01   0.02  -0.00     0.06   0.08   0.05
    29   1    -0.01  -0.17   0.01     0.01  -0.01   0.01     0.13  -0.07   0.08
                     31                     32                     33
                      A                      A                      A
 Frequencies --   1033.2736              1050.0762              1065.0243
 Red. masses --      1.6358                 1.5913                 1.6086
 Frc consts  --      1.0290                 1.0338                 1.0750
 IR Inten    --      3.5007                 1.5323                 1.7313
  Atom  AN      X      Y      Z        X      Y      Z        X      Y      Z
     1   8    -0.01   0.01   0.00    -0.01   0.02   0.01    -0.00  -0.01  -0.00
     2   6    -0.01  -0.01   0.03    -0.00   0.01  -0.01    -0.01  -0.01  -0.01
     3   6     0.07  -0.04   0.03    -0.03  -0.05  -0.01    -0.02   0.00  -0.02
     4   6    -0.05   0.10  -0.02     0.09  -0.00  -0.02     0.05  -0.01   0.01
     5   6     0.00   0.06   0.02     0.00  -0.01   0.06    -0.01   0.02   0.00
     6   6    -0.03  -0.02   0.05     0.04   0.07   0.00    -0.03  -0.01   0.05
     7   6     0.08  -0.05  -0.04     0.02  -0.03   0.05     0.05  -0.02  -0.02
     8   6    -0.03   0.03  -0.02    -0.10  -0.04  -0.06    -0.03   0.03  -0.01
     9   6     0.04  -0.06  -0.03    -0.00   0.05  -0.03    -0.12  -0.01   0.03
    10   6    -0.03   0.06   0.02    -0.05  -0.04   0.02     0.13  -0.06  -0.00
    11   6     0.02  -0.04  -0.02     0.06  -0.00  -0.02    -0.03   0.07  -0.02
    12   1     0.08  -0.06   0.03    -0.11   0.10  -0.03     0.16  -0.02   0.01
    13   1     0.12  -0.05   0.02    -0.11  -0.05   0.07    -0.19   0.05  -0.02
    14   1    -0.17   0.07  -0.03    -0.04  -0.02  -0.03     0.11  -0.11   0.02
    15   1     0.19  -0.13   0.10    -0.11  -0.06  -0.03     0.18  -0.14   0.10
    16   1    -0.07   0.13  -0.15     0.10  -0.23   0.12    -0.08   0.14  -0.15
    17   1     0.10  -0.01  -0.04    -0.26   0.17  -0.16     0.07   0.01  -0.07
    18   1     0.04   0.42   0.17     0.00   0.07  -0.04     0.03   0.20   0.09
    19   1    -0.22  -0.18   0.01    -0.08  -0.21  -0.12    -0.11  -0.08   0.01
    20   1    -0.25  -0.26  -0.10    -0.00   0.17   0.01    -0.12  -0.12  -0.05
    21   1     0.06  -0.02   0.05     0.26  -0.03  -0.29     0.03  -0.02   0.09
    22   1     0.10  -0.03  -0.20     0.23   0.07  -0.21     0.07  -0.03  -0.17
    23   1    -0.00  -0.01   0.15    -0.04   0.08   0.50    -0.00  -0.02   0.11
    24   1    -0.11  -0.10  -0.04     0.08  -0.06  -0.01    -0.24  -0.18   0.04
    25   1     0.12  -0.01  -0.06    -0.06   0.08   0.09    -0.19  -0.05   0.06
    26   1    -0.19   0.17  -0.16    -0.04  -0.05   0.05     0.44  -0.20   0.10
    27   1    -0.19  -0.08   0.01    -0.04   0.02   0.01     0.15   0.02  -0.01
    28   1    -0.06  -0.15   0.01    -0.07  -0.07  -0.00    -0.03   0.39  -0.06
    29   1     0.06  -0.18   0.09     0.09   0.12   0.09    -0.05   0.13  -0.05
                     34                     35                     36
                      A                      A                      A
 Frequencies --   1081.7893              1101.3998              1133.4994
 Red. masses --      1.1822                 2.4325                 2.0987
 Frc consts  --      0.8151                 1.7386                 1.5887
 IR Inten    --     10.1253                 3.1519                 1.3246
  Atom  AN      X      Y      Z        X      Y      Z        X      Y      Z
     1   8     0.01   0.00   0.00     0.00  -0.01   0.00    -0.03   0.04   0.00
     2   6    -0.07  -0.05  -0.00    -0.03  -0.02  -0.02    -0.00  -0.03   0.11
     3   6     0.04   0.01   0.00     0.08  -0.07   0.08     0.01  -0.06  -0.10
     4   6    -0.02   0.03  -0.02    -0.03   0.21  -0.04     0.06   0.05   0.12
     5   6     0.00  -0.01   0.00    -0.00  -0.01   0.00     0.00   0.01   0.03
     6   6     0.02   0.01  -0.02     0.06   0.01  -0.03    -0.02  -0.03  -0.03
     7   6    -0.02   0.01   0.01    -0.04  -0.00   0.04    -0.04   0.02  -0.03
     8   6     0.00  -0.02   0.00    -0.00  -0.05   0.00     0.04  -0.00  -0.00
     9   6     0.02   0.00  -0.01    -0.10  -0.13   0.01    -0.03  -0.00  -0.12
    10   6    -0.00  -0.01   0.02     0.13  -0.01  -0.01     0.01  -0.00   0.10
    11   6     0.03   0.03   0.00    -0.05   0.07  -0.03     0.05   0.01  -0.12
    12   1     0.40  -0.17   0.05    -0.02  -0.11   0.07     0.14   0.21  -0.09
    13   1    -0.16   0.09  -0.08     0.10  -0.04  -0.01    -0.28  -0.06   0.17
    14   1     0.01  -0.27   0.01    -0.02   0.54  -0.07    -0.12  -0.03   0.11
    15   1    -0.08   0.04  -0.04    -0.16   0.08  -0.08    -0.03   0.14  -0.04
    16   1     0.05  -0.10   0.07     0.10  -0.16   0.16    -0.05   0.13   0.01
    17   1    -0.06   0.02   0.01    -0.11   0.02   0.02     0.11  -0.11   0.13
    18   1    -0.01  -0.10  -0.04    -0.04  -0.16  -0.12    -0.01  -0.18   0.03
    19   1     0.04   0.03  -0.01     0.06  -0.03  -0.07     0.08   0.16   0.08
    20   1     0.05   0.06   0.02     0.11   0.21   0.05     0.03  -0.11   0.01
    21   1     0.01   0.01  -0.09     0.04   0.02  -0.20    -0.05   0.01   0.01
    22   1    -0.01   0.03   0.08    -0.01   0.07   0.14    -0.06  -0.00   0.07
    23   1    -0.01   0.05  -0.01    -0.02   0.08   0.04     0.02  -0.00  -0.15
    24   1    -0.24  -0.20  -0.00    -0.18  -0.10  -0.01     0.07  -0.31  -0.06
    25   1     0.29   0.21  -0.01    -0.11  -0.17  -0.06    -0.15   0.07   0.18
    26   1    -0.07   0.02  -0.01    -0.05   0.07  -0.06     0.03   0.06  -0.16
    27   1    -0.34   0.10  -0.01     0.34  -0.14   0.01     0.00  -0.25   0.11
    28   1    -0.09   0.42  -0.05     0.00  -0.06  -0.01    -0.25  -0.21  -0.07
    29   1     0.08  -0.22   0.09    -0.04  -0.01  -0.04     0.14   0.24   0.19
                     37                     38                     39
                      A                      A                      A
 Frequencies --   1201.1863              1221.0156              1253.2632
 Red. masses --      1.7006                 1.8729                 1.7401
 Frc consts  --      1.4457                 1.6451                 1.6103
 IR Inten    --     16.8776                 4.2748                32.4768
  Atom  AN      X      Y      Z        X      Y      Z        X      Y      Z
     1   8    -0.01  -0.01   0.01     0.02  -0.01   0.00     0.01   0.03   0.01
     2   6     0.06   0.08  -0.06    -0.06  -0.02  -0.06    -0.13  -0.09  -0.00
     3   6    -0.04  -0.04   0.03     0.05   0.01   0.04     0.02   0.04   0.03
     4   6     0.02   0.07   0.01     0.06  -0.02  -0.01    -0.02   0.03  -0.04
     5   6     0.01   0.09   0.07     0.07  -0.07   0.16    -0.05  -0.12   0.03
     6   6     0.01  -0.05  -0.04    -0.04  -0.00  -0.05     0.02   0.03  -0.00
     7   6    -0.03  -0.02  -0.02    -0.03   0.04  -0.08     0.02   0.03  -0.02
     8   6     0.01  -0.05  -0.02    -0.01   0.04  -0.05     0.01   0.05  -0.00
     9   6     0.05  -0.02  -0.03    -0.03   0.02   0.02     0.05   0.00  -0.02
    10   6    -0.05   0.03  -0.03     0.03  -0.04  -0.01    -0.04   0.02   0.02
    11   6     0.00  -0.07   0.07    -0.00   0.05   0.01     0.07  -0.04   0.01
    12   1    -0.09   0.02   0.02    -0.47   0.07  -0.02     0.19  -0.14   0.05
    13   1     0.05  -0.07   0.05     0.05   0.05  -0.09     0.23   0.01  -0.06
    14   1    -0.28  -0.01  -0.01    -0.41   0.04  -0.06    -0.07   0.16  -0.06
    15   1    -0.07   0.18  -0.07    -0.06   0.16  -0.06    -0.08  -0.03  -0.03
    16   1    -0.01   0.10   0.09    -0.07   0.14  -0.02     0.03  -0.05   0.01
    17   1     0.09  -0.12   0.16     0.04  -0.04   0.06    -0.12   0.07  -0.05
    18   1    -0.02  -0.10  -0.00     0.00  -0.14   0.13     0.02   0.09   0.07
    19   1     0.02   0.03   0.01     0.08   0.26   0.15    -0.00   0.08   0.07
    20   1     0.00  -0.08  -0.00     0.03  -0.28  -0.00    -0.02  -0.04  -0.01
    21   1     0.02   0.02  -0.18     0.06  -0.04   0.10    -0.04  -0.00   0.14
    22   1    -0.00   0.06   0.11     0.06  -0.06  -0.22    -0.03  -0.08  -0.11
    23   1    -0.01   0.09  -0.03     0.03  -0.11   0.06     0.03  -0.11  -0.09
    24   1    -0.20  -0.21  -0.03    -0.05   0.01   0.02     0.13   0.07  -0.02
    25   1    -0.17  -0.20  -0.03     0.09   0.11   0.01    -0.31  -0.30  -0.03
    26   1     0.49  -0.19   0.07    -0.23   0.04   0.03     0.25  -0.07  -0.00
    27   1    -0.35   0.16  -0.06     0.06   0.03  -0.01    -0.11   0.02   0.01
    28   1     0.10   0.19   0.03    -0.00   0.11  -0.00    -0.03   0.12  -0.01
    29   1    -0.07   0.08  -0.10     0.02  -0.22   0.01     0.03   0.60   0.00
                     40                     41                     42
                      A                      A                      A
 Frequencies --   1261.2817              1268.6631              1272.7053
 Red. masses --      1.9981                 1.7248                 2.2177
 Frc consts  --      1.8728                 1.6356                 2.1164
 IR Inten    --      1.5751                19.5425                 8.2261
  Atom  AN      X      Y      Z        X      Y      Z        X      Y      Z
     1   8     0.00   0.03  -0.00     0.03  -0.02  -0.01     0.02  -0.01  -0.01
     2   6    -0.07  -0.08   0.05    -0.09  -0.05  -0.04    -0.03  -0.02  -0.00
     3   6     0.01   0.04  -0.00     0.03   0.04   0.00    -0.04   0.03  -0.00
     4   6    -0.01  -0.05  -0.09     0.03  -0.05   0.04    -0.08   0.00   0.03
     5   6     0.04   0.18   0.08    -0.09   0.13  -0.03     0.25   0.01  -0.09
     6   6    -0.01  -0.06  -0.03     0.02  -0.03  -0.00    -0.08  -0.01   0.04
     7   6    -0.02  -0.03  -0.02     0.03  -0.04   0.01    -0.09  -0.00   0.03
     8   6    -0.02  -0.07  -0.01     0.03  -0.04   0.01    -0.09  -0.01   0.01
[...]
 0.00019166,-0.00008758,0.00028036,-0.00006774,0.00059588,0.00022213,0.
 00029053,0.00003239,0.00013477,0.00007098,-0.00005923,0.00075344,0.000
 58280,-0.00020931,-0.00003703,-0.00002127,0.00033721,0.00030016,-0.000
 14809,0.01258996,0.02033811,0.00197734,-0.00958066,-0.01695451,-0.0013
 2233,0.11753914,-0.00017624,-0.00004597,0.00002560,0.00017397,0.000102
 91,-0.00009509,0.00018685,0.00004086,0.00004154,0.00032446,0.00109955,
 0.00102679,-0.00233332,-0.00530528,-0.00034301,0.00006115,-0.00008789,
 -0.00073276,0.00087635,0.00051735,-0.00063173,-0.11053425,-0.24697836,
 -0.01853583,-0.00011843,0.00011235,-0.00046557,-0.00000656,0.00009605,
 0.00022094,0.00000416,-0.00000407,0.00004068,0.00006615,-0.00004228,0.
 00001567,-0.00007931,0.00000738,-0.00000266,-0.00033640,-0.00021762,0.
 00012616,0.00024290,0.00031083,0.00007838,0.00024789,0.00047615,0.0005
 9284,-0.00007771,-0.00014443,0.00004930,-0.00014104,0.00064720,0.00001
 901,-0.00002584,-0.00000736,0.00007459,0.00011101,0.00022466,0.0001681
 1,-0.01198615,-0.02037680,-0.00232585,0.00160315,0.00234137,-0.0003018
 8,0.12211303,0.26715573,-0.00006952,-0.00006187,-0.00008136,0.00006119
 ,0.00015565,0.00028849,-0.00029170,-0.00035836,-0.00041996,0.00237284,
 -0.00046269,-0.00513948,0.01381175,0.02485726,0.00127749,0.00057314,0.
 00104979,0.00123650,-0.00044280,0.00084012,0.00094538,-0.01127666,-0.0
 1916754,-0.04934517,0.00037477,-0.00050270,-0.00021222,-0.00013547,0.0
 0009610,0.00002829,-0.00000178,-0.00006733,-0.00010856,0.00001799,0.00
 010510,0.00050189,0.00002450,0.00000346,0.00008286,0.00107536,0.001556
 43,0.00001099,-0.00008270,-0.00028965,0.00036030,-0.00022678,-0.000427
 22,-0.00048462,-0.00008672,0.00000522,-0.00010022,0.00008067,-0.000560
 95,-0.00002252,-0.00003815,-0.00020746,-0.00003971,-0.00040395,0.00008
 485,0.00002986,-0.00201678,-0.00254082,-0.00115333,-0.01238016,-0.0247
 9678,-0.00184337,0.00930629,0.02056647,0.05386934,0.00021069,-0.000019
 77,0.00005745,-0.00046073,0.00007728,-0.00000338,0.00071843,-0.0006995
 2,0.00129762,-0.01025864,0.00070593,0.01716990,-0.00010824,-0.00064397
 ,-0.00008454,-0.00009279,-0.00002962,-0.00005736,0.00001639,0.00003889
 ,0.00009552,-0.00008126,-0.00048456,0.00009777,-0.10914679,0.00037924,
 0.10349899,-0.01002363,-0.00104662,0.01703946,0.00060731,0.00078540,0.
 00111662,-0.00014957,0.00025508,-0.00076117,0.00031899,0.00002319,-0.0
 0028399,-0.00187172,0.00328523,0.00025924,-0.00008795,0.00004486,-0.00
 002779,0.00005243,-0.00003538,0.00002884,0.00009652,0.00006866,-0.0000
 3294,0.00002079,0.00009222,-0.00005679,-0.00001410,0.00002406,-0.00003
 442,0.00009224,-0.00004427,-0.00009863,0.00030962,-0.00091356,0.000062
 32,-0.00005851,0.00018707,-0.00009559,0.00013560,-0.00013331,-0.000185
 87,0.11774979,0.00002556,0.00017197,0.00000433,-0.00004630,-0.00044795
 ,-0.00002200,-0.00110601,0.00109055,-0.00065531,0.01436127,-0.00013076
 ,-0.02572099,0.00021640,0.00132802,-0.00053023,-0.00006277,-0.00014981
 ,0.00000046,-0.00000542,-0.00006741,0.00018402,0.00007086,-0.00099039,
 0.00008585,0.00054970,-0.04750046,0.00064598,-0.01516645,-0.00187722,0
 .02654241,0.00101784,0.00115457,0.00053058,0.00005791,0.00010789,0.000
 69234,-0.00035400,-0.00004397,0.00010217,0.00359163,-0.00456965,-0.000
 27567,0.00004601,0.00008473,0.00020998,-0.00007070,-0.00004305,-0.0000
 2466,-0.00003424,0.00003076,-0.00007943,-0.00009262,-0.00009206,0.0000
 7826,0.00001360,-0.00002007,0.00002515,-0.00018502,0.00016180,0.000149
 40,-0.00095869,-0.00129227,0.00037215,-0.00004218,-0.00003926,0.000114
 11,-0.00014922,0.00022768,0.00007063,0.00120560,0.05680513,0.00010809,
 -0.00004380,-0.00012090,-0.00013445,0.00007408,0.00017002,-0.00060053,
 0.00020506,0.00077385,0.00125451,-0.00110426,-0.00342892,0.00084048,0.
 00050222,-0.00033839,-0.00017271,-0.00030159,0.00003091,-0.00019723,-0
 .00022019,0.00008435,0.00119738,0.00008242,-0.00008298,0.10355067,0.00
 050239,-0.24197143,0.00073628,0.00060053,-0.00250449,-0.00039359,-0.00
 032784,0.00083802,0.00035894,-0.00001708,0.00059656,0.00001772,-0.0000
 7486,0.00025195,0.00015177,-0.00064736,0.00136086,-0.00007925,0.000158
 62,0.00021463,-0.00000694,-0.00016783,-0.00000455,0.00015332,0.0000266
 4,-0.00015573,0.00003470,-0.00011612,-0.00001082,0.00003223,-0.0000078
 1,0.00000923,-0.00010596,0.00005275,0.00008521,-0.00076809,0.00081584,
 0.00026182,-0.00003240,0.00002075,-0.00001083,-0.00040679,0.00035789,0
 .00018722,-0.11765527,-0.00197828,0.26236159,-0.00046522,-0.00009194,0
 .00003322,0.00108952,0.00019649,0.00032171,-0.00150430,0.00331051,0.00
 158782,-0.01293105,0.00070520,-0.01393847,-0.00029091,-0.00064126,-0.0
 0030615,-0.00055939,-0.00116269,-0.00040777,0.00004910,-0.00003806,0.0
 0000861,0.00011015,0.00011732,0.00004265,-0.17206419,0.00474283,-0.129
 28259,-0.01338300,-0.00040125,-0.01385251,-0.00108194,-0.00346180,0.00
 156679,0.00017364,0.00001698,-0.00015457,-0.00069900,-0.00012693,-0.00
 101191,0.00030398,-0.00055716,0.00027755,-0.00014477,0.00023406,0.0001
 8320,0.00028999,-0.00038132,0.00016786,0.00059687,-0.00161980,-0.00049
 660,0.00006298,0.00008765,0.00005528,0.00004092,-0.00010377,0.00006894
 ,-0.00002831,-0.00001545,-0.00002238,0.00003320,0.00007457,-0.00001739
 ,-0.00003641,-0.00002018,0.00009091,0.00003250,0.00003854,-0.00004474,
 0.01248809,-0.00019090,0.01191513,0.18730728,0.00002259,0.00090766,0.0
 0000769,-0.00008080,-0.00217245,-0.00002871,0.00334872,-0.00479333,-0.
 00157768,0.01813521,0.00020930,0.02145387,0.00022038,0.00098629,0.0008
 8633,0.00014119,-0.00165306,-0.00048239,0.00001948,0.00016309,-0.00022
 902,-0.00013911,-0.00020335,-0.00001665,0.00410144,-0.04665313,0.00331
 645,-0.02016859,-0.00054683,-0.02197578,-0.00318745,-0.00462859,0.0017
 1462,-0.00036530,0.00001347,-0.00020742,0.00146921,0.00020763,0.001299
 82,-0.00064363,0.00098242,-0.00043447,-0.00004905,0.00002208,-0.000098
 21,-0.00019716,0.00029913,-0.00001914,-0.00143780,-0.00205572,-0.00085
 251,-0.00008272,-0.00001876,-0.00003866,-0.00011765,0.00018928,-0.0000
 7676,0.00001792,0.00001355,0.00004294,-0.00003853,0.00000739,0.0001710
 0,-0.00000061,0.00014066,-0.00018848,-0.00008428,-0.00001900,0.0000268
 7,0.00021797,-0.00042755,0.00039693,-0.00145332,0.05686728,-0.00004867
 ,-0.00005172,-0.00005897,0.00025932,0.00009627,-0.00001778,0.00025925,
 -0.00005414,0.00096443,0.00306889,0.00064100,0.00219876,-0.00099832,-0
 .00008617,-0.00022372,-0.00133013,-0.00085924,0.00001544,0.00020867,0.
 00018547,0.00004481,-0.00004434,0.00026465,0.00009170,-0.12972133,0.00
 400763,-0.19004286,0.00305337,0.00016727,0.00202897,0.00049146,-0.0000
 7755,0.00100862,0.00018027,-0.00014189,0.00042386,-0.00010091,-0.00015
 832,0.00024089,-0.00017217,0.00053195,0.00066950,0.00008443,-0.0000029
 6,-0.00015546,0.00041444,-0.00034350,-0.00000067,0.00046540,-0.0013956
 5,0.00003493,-0.00000775,0.00011934,0.00000404,0.00003763,-0.00004558,
 0.00002697,0.00002351,-0.00003024,-0.00002506,-0.00002358,-0.00006264,
 -0.00020281,0.00010039,-0.00018174,0.00011294,0.00005357,0.00006783,0.
 00001847,-0.01997739,0.00017362,-0.02105203,0.14382367,-0.00212721,0.2
 0252257,-0.00182418,0.00183585,0.00079476,-0.00088134,-0.00493616,-0.0
 0398756,0.00005259,0.00002465,0.00060301,-0.00262278,-0.00240356,0.000
 39680,0.00102472,-0.00088533,-0.00003404,0.00011291,0.00008924,0.00006
 965,-0.00031543,-0.00027356,-0.00004241,0.00008088,0.00008347,-0.00008
 379,0.01251506,-0.01743921,-0.00197034,-0.13848836,0.12400761,0.015578
 61,-0.01481151,0.02000128,-0.00059295,-0.00002778,-0.00004317,0.000015
 52,0.00007733,0.00005954,0.00012755,-0.00000833,0.00000454,-0.00021880
 ,-0.00000713,0.00000022,-0.00000979,-0.00000360,-0.00000168,0.00000422
 ,-0.00002354,0.00001511,-0.00000798,0.00009719,-0.00013735,-0.00000198
 ,0.00001718,-0.00002288,0.00003829,-0.00000589,0.00001092,-0.00001941,
 -0.00002118,0.00001496,0.00001320,-0.00000317,-0.00001690,0.00003658,-
 0.00000915,-0.00000131,0.00001418,0.00078433,0.00078936,-0.00010760,0.
 00088440,0.00076249,-0.00005361,0.15046884,-0.00016297,0.00014604,0.00
 018003,-0.00033681,0.00044294,-0.00041176,-0.00040744,0.00061495,-0.00
 015940,-0.00576904,-0.00343173,0.00055627,0.00185715,-0.00060678,0.000
 02099,0.00013756,-0.00006038,0.00015811,-0.00059581,-0.00042839,-0.000
 03815,0.00008118,-0.00009246,-0.00018824,0.01650797,-0.02248663,-0.002
 88482,0.12291700,-0.21621746,-0.01801117,-0.00137713,0.00270116,-0.000
 01799,0.00001802,-0.00002691,0.00005212,0.00010224,0.00003138,0.000045
 32,-0.00015081,0.00035321,-0.00008149,0.00001135,0.00001548,-0.0000161
 0,-0.00006513,-0.00004378,-0.00005097,-0.00003414,0.00005629,0.0000025
 9,0.00013694,-0.00025135,-0.00002432,0.00003163,0.00000469,0.00003258,
 0.00001268,0.00003725,-0.00001625,-0.00002931,0.00006272,0.00001494,0.
 00001175,0.00000731,0.00002962,-0.00007738,-0.00004441,0.00006307,0.00
 018327,0.00107729,0.00055072,-0.00000209,0.00089405,-0.00050991,-0.132
 30608,0.23507036,-0.00231762,0.00190618,0.00099847,-0.00195503,-0.0038
 7610,-0.00400257,0.00034736,-0.00010045,0.00037281,0.00034207,0.000152
 13,0.00014499,-0.00004717,0.00007246,0.00056131,0.00004111,0.00005432,
 -0.00003315,0.00001079,0.00003771,-0.00003310,-0.00008758,-0.00009060,
 -0.00003216,-0.00114967,0.00287527,-0.00070464,0.01576954,-0.01896316,
 -0.05189215,-0.01639077,0.02218906,-0.00074228,-0.00003279,-0.00002255
 ,0.00002608,0.00003293,0.00007345,0.00006623,-0.00036031,0.00030391,0.
 00039902,0.00000337,0.00001003,0.00001453,0.00000883,-0.00000493,0.000
 02510,0.00000306,-0.00000510,0.00001002,0.00000107,0.00000446,0.000004
 38,0.00000204,-0.00001491,0.00001854,0.00000217,0.00000339,-0.00000085
 ,0.00003369,-0.00000498,-0.00000212,0.00000121,-0.00000288,0.00001674,
 -0.00000872,-0.00002284,0.00002923,-0.00052313,0.00007654,0.00022929,0
 .00018114,-0.00038077,-0.00000818,-0.01309517,0.02049796,0.05473482,-0
 .00016860,-0.00022293,0.00034791,0.00172925,-0.00085100,-0.00056337,0.
 00003529,0.00007717,-0.00020312,0.00008784,0.00140362,-0.00021766,0.00
 002815,0.00003033,-0.00014788,-0.00006926,0.00002413,0.00005684,-0.000
 02713,-0.00001928,-0.00003942,-0.00020851,0.00010981,0.00000547,-0.009
 97138,-0.00178742,0.01792916,-0.09806133,-0.00206109,0.09994352,0.0097
 5445,0.00107118,-0.02372170,-0.00011282,0.00000240,-0.00001729,0.00006
 358,0.00003832,0.00004481,0.00071074,-0.00033721,-0.00036278,0.0000412
 7,-0.00003732,-0.00005953,0.00001530,-0.00000926,-0.00003002,0.0000216
 0,-0.00000837,0.00004989,0.00000383,-0.00002385,0.00000465,-0.00000056
 ,0.00000044,0.00000395,0.00001818,-0.00000681,-0.00000961,0.00018661,-
 0.00004272,-0.00003191,0.00001216,0.00000302,-0.00000744,0.00006887,-0
 .00007992,-0.00003735,-0.00139884,-0.00390093,-0.00019449,0.00022637,0
 .00060574,-0.00011613,-0.00879044,-0.00102175,0.01771591,0.10780893,-0
 .00012406,0.00015791,-0.00015260,-0.00031631,-0.00030740,0.00073646,0.
 00026014,-0.00007788,-0.00014165,-0.00100678,0.00185550,0.00152867,-0.
 00016658,0.00008124,-0.00020155,-0.00007445,0.00005504,0.00002078,0.00
 005394,0.00002016,-0.00001609,-0.00022651,0.00002252,0.00004630,-0.013
 34577,-0.00269045,0.02611272,-0.00152486,-0.05214771,0.00882524,0.0002
 2207,-0.00009802,-0.00096502,-0.00006463,0.00007919,-0.00017917,0.0000
 5088,-0.00000897,0.00003367,0.00047244,-0.00044045,-0.00073359,0.00000
 783,-0.00003155,-0.00006124,0.00003330,0.00000098,-0.00001090,0.000040
 29,-0.00001297,0.00003518,0.00000193,0.00003094,-0.00000170,-0.0000025
 2,-0.00000477,-0.00000177,0.00002734,-0.00003405,-0.00002609,0.0002390
 2,-0.00005533,-0.00007710,0.00001314,0.00000807,-0.00000401,0.00011084
 ,-0.00009723,-0.00003630,-0.00327900,-0.00457235,0.00052951,0.00068101
 ,0.00114036,-0.00042818,0.01153878,0.00167831,-0.02474492,0.00666946,0
 .05426161,-0.00129590,0.00042158,0.00040141,0.00215474,-0.00173532,-0.
 00058679,-0.00008200,0.00038815,-0.00024565,-0.00018436,-0.00058267,-0
 .00011348,-0.00016496,0.00012870,0.00033413,0.00008468,0.00002602,-0.0
 0004328,0.00003664,0.00005018,-0.00003319,-0.00002724,-0.00018980,-0.0
 0004690,0.00125512,0.00036353,-0.00135098,0.09956975,0.00886651,-0.253
 13506,0.00782287,0.00135118,-0.02164166,0.00001078,-0.00006819,0.00013
 777,0.00001013,0.00011557,-0.00002168,-0.00040831,0.00061392,0.0004161
 7,-0.00001469,0.00001418,0.00003782,-0.00001690,0.00001051,0.00002044,
 -0.00003878,0.00000547,-0.00001579,-0.00000792,0.00001269,0.00001277,0
 .00000644,-0.00001529,0.00001454,-0.00001335,0.00001163,0.00001692,-0.
 00003392,0.00001478,-0.00000111,0.00000319,-0.00000262,0.00002318,-0.0
 0002770,-0.00000967,0.00005272,0.00017178,0.00002566,0.00146148,0.0002
 7250,0.00037862,0.00075795,0.00158038,-0.00064664,-0.00226994,-0.10670
 790,-0.00947588,0.27735846,-0.00121525,0.00390804,-0.00328994,-0.01163
 353,-0.00039915,0.01789595,0.00029449,-0.00019228,-0.00108999,-0.00009
 352,-0.00032818,-0.00006922,-0.00002892,-0.00000883,-0.00003709,0.0000
 3188,-0.00001037,-0.00001359,0.00000645,0.00001091,0.00000486,0.000036
 41,-0.00000328,0.00001044,0.00153963,0.00053021,-0.00012162,0.00970842
 ,-0.00288027,-0.02482602,-0.09407684,0.00769988,0.10615462,0.00059328,
 0.00037547,-0.00028573,-0.00007733,-0.00009391,-0.00034847,-0.00012349
 ,0.00006921,0.00001359,-0.00000609,0.00000195,0.00000314,-0.00000758,0
 .00001266,0.00000189,-0.00002163,0.00000439,-0.00000331,0.00000193,0.0
 0000997,0.00000227,-0.00000393,-0.00000388,0.00000054,-0.00000120,-0.0
 0000073,-0.00000268,-0.00001692,0.00000063,0.00000450,-0.00000595,0.00
 000392,0.00000473,-0.00000041,0.00001104,0.00000107,-0.00018805,-0.000
 01338,0.00048996,0.00016000,0.00040437,0.00018146,0.00161593,-0.000005
 22,0.00090206,-0.00321278,-0.00054686,-0.00398748,0.10506142,0.0025869
 5,-0.00274326,0.00356543,0.01250275,0.00162539,-0.02865369,-0.00140456
 ,-0.00041852,0.00326214,0.00041404,0.00020089,0.00023087,0.00003568,-0
 .00000385,0.00000816,0.00000539,0.00000651,-0.00000128,0.00002915,0.00
 000315,0.00000805,0.00001446,-0.00001324,0.00001329,0.00053940,0.00012
 905,-0.00104047,-0.00076918,0.00032585,0.00107012,0.00903177,-0.053879
 22,-0.02447211,-0.00033498,-0.00161750,-0.00000111,0.00005549,0.000401
 14,0.00042049,0.00000589,0.00010391,0.00006700,-0.00000093,-0.00000438
 ,0.00000239,0.00000196,0.00000969,0.00000135,-0.00001688,-0.00000369,-
 0.00000593,-0.00000058,0.00000704,-0.00000154,-0.00000362,0.00000326,-
 0.00000409,-0.00000521,-0.00000096,0.00000252,-0.00004782,-0.00000142,
 -0.00000630,0.00000535,-0.00001920,-0.00001564,-0.00000810,0.00002421,
 0.00000442,-0.00022524,0.00007578,0.00007368,-0.00002676,-0.00000066,0
 .00014063,-0.00052599,0.00018102,0.00039826,0.00043624,0.00103006,0.00
 031637,-0.01159998,0.05089436,-0.00068039,-0.00060616,-0.00082561,0.00
 068272,0.00011373,0.00092490,0.00061316,0.00014823,-0.00061663,-0.0004
 1829,-0.00003758,-0.00012604,0.00002719,-0.00001518,0.00002422,0.00001
 681,-0.00001137,-0.00000969,-0.00001812,-0.00002046,-0.00000555,-0.000
 00044,-0.00001861,-0.00003401,0.00140529,0.00049813,0.00077207,0.00938
 284,-0.00195291,-0.02518556,0.10176170,-0.01901944,-0.24203083,-0.0002
 7097,0.00001982,0.00050663,-0.00002420,-0.00015958,0.00022566,-0.00002
 849,0.00016795,0.00014818,-0.00000683,0.00000798,0.00001818,-0.0000046
 1,-0.00000605,-0.00000033,0.00000344,0.00000860,-0.00000216,0.00000347
 ,-0.00000696,-0.00000171,0.00000539,-0.00000591,0.00000140,-0.00000572
 ,0.00000490,0.00000723,-0.00002267,0.00000207,-0.00001103,0.00001141,-
 0.00002717,0.00002597,-0.00000195,0.00000576,0.00002028,-0.00075368,-0
 .00072674,0.00052402,-0.00014820,0.00023197,0.00042451,0.00040653,0.00
 044631,0.00141239,-0.00453203,-0.00027554,-0.00242191,-0.10879531,0.02
 111403,0.26915852,0.00185311,-0.00134893,0.00012043,0.01167329,0.01592
 726,-0.00285503,-0.00211082,0.00275295,0.00043673,-0.00041847,0.000278
 56,-0.00013294,0.00012444,-0.00000897,0.00001447,-0.00008794,0.0000117
 5,0.00001640,-0.00006002,0.00001095,-0.00002767,-0.00004772,0.00001406
 ,-0.00003033,-0.00229647,0.00168594,-0.00425431,-0.01247147,-0.0171589
 5,0.00444505,-0.15247108,-0.13142599,0.02114320,-0.00008643,-0.0001060
 1,-0.00003152,0.00056384,0.00089819,0.00007764,0.00007150,-0.00006756,
 0.00001228,0.00000435,0.00001267,0.00000367,0.00002858,-0.00005777,0.0
 0000619,0.00011337,-0.00001976,0.00000979,0.00003610,-0.00003420,0.000
 01836,0.00002922,-0.00004304,0.00005312,0.00000084,0.00000075,-0.00001
 417,0.00005968,0.00000155,-0.00002268,0.00000352,-0.00000520,0.0000297
 5,0.00000416,-0.00003087,0.00000738,0.00033959,0.00043307,0.00001411,-
 0.00066047,-0.00142070,-0.00011140,0.00011243,0.00033238,0.00056963,0.
 00120922,0.00025587,0.00003240,-0.00833642,-0.01069472,0.00139195,0.16
 282005,0.00002269,0.00596788,-0.00079447,-0.02211976,-0.02635913,0.004
 43741,0.00487102,-0.00312843,-0.00070564,0.00050646,0.00021298,0.00050
 850,-0.00002408,0.00007345,-0.00011286,-0.00001737,-0.00005576,0.00003
 899,-0.00001835,-0.00006724,0.00008003,0.00002766,-0.00003563,0.000004
 61,0.00049938,0.00088696,0.00017358,0.00150195,0.00203100,-0.00105944,
 -0.12691831,-0.21005317,0.02656743,0.00009306,0.00045327,0.00016672,-0
 .00084684,-0.00147025,-0.00008284,-0.00003926,-0.00001657,-0.00013112,
 0.00001061,0.00000228,-0.00000616,-0.00003046,-0.00000128,-0.00002164,
 -0.00002495,0.00001568,-0.00001073,-0.00005343,-0.00001349,-0.00004188
 ,-0.00003041,0.00007335,-0.00007893,0.00000850,0.00001483,0.00000860,-
 0.00002218,0.00001643,0.00000185,0.00001649,0.00002579,-0.00004203,-0.
 00002636,-0.00001359,-0.00000577,-0.00001913,-0.00005191,0.00005699,0.
 00008952,0.00012876,0.00016097,-0.00024485,0.00031584,-0.00042093,-0.0
 0006202,0.00015724,-0.00038918,0.00304368,0.00368459,0.00012018,0.1398
 0672,0.22720613,-0.00069767,0.00018258,-0.00115701,0.00087108,-0.00226
 905,-0.00073248,-0.00004158,0.00031699,0.00123529,-0.00025407,0.000662
 01,-0.00006520,0.00010618,-0.00005165,0.00004352,-0.00007815,0.0000117
 3,0.00000906,-0.00003873,-0.00002661,0.00000070,-0.00003343,0.00002106
 ,-0.00002652,-0.00296163,0.00119985,-0.00370894,-0.01429543,-0.0204195
 2,0.00362156,0.02087441,0.02697676,-0.05484548,-0.00034333,-0.00042898
 ,0.00023472,0.00007505,0.00009425,0.00038400,0.00005125,-0.00003319,-0
 .00002699,0.00000524,0.00000604,0.00000187,0.00003333,-0.00004577,0.00
 000539,0.00009494,-0.00001440,0.00001098,0.00002062,-0.00001806,0.0000
 0456,0.00001630,-0.00002094,0.00001975,-0.00000073,0.00000078,-0.00001
 080,0.00002559,0.00000370,-0.00003001,0.00001676,-0.00002539,0.0000308
 5,0.00001080,-0.00001067,0.00001121,-0.00026357,-0.00007033,0.00024007
 ,-0.00091368,-0.00119324,0.00019819,0.00054611,0.00040657,0.00065717,0
 .00089752,-0.00033524,0.00088166,0.01719936,0.02350296,-0.00292310,-0.
 02092251,-0.02842224,0.05593598\\0.00006075,0.00001982,0.00002670,0.00
 001478,0.00004719,0.00004570,-0.00002802,-0.00000187,-0.00004690,0.000
 02647,0.00002017,0.00004699,0.00005013,-0.00000414,-0.00003258,-0.0000
 0384,0.00000171,-0.00002361,0.00000452,0.00000718,-0.00001787,-0.00001
 663,-0.00002159,0.00001425,-0.00005346,-0.00001809,-0.00003541,0.00001
 732,0.00000369,-0.00000148,-0.00002687,-0.00001710,-0.00004518,0.00000
 913,-0.00000746,0.00002035,0.00001267,-0.00000273,0.00000950,-0.000006
 64,-0.00000673,0.00001951,-0.00000078,-0.00000913,0.00000526,-0.000010
 25,0.00000324,0.00001056,-0.00000553,0.00001715,-0.00000934,-0.0000046
 2,0.00000904,0.00000148,-0.00002172,0.00001052,-0.00000081,0.00000080,
 0.00000296,-0.00000642,-0.00000034,-0.00001496,0.00000327,-0.00000837,
 -0.00000181,0.00000419,0.00001064,0.00000184,-0.00000277,-0.00000128,-
 0.00000065,-0.00000401,-0.00003078,-0.00001555,0.00000951,-0.00000791,
 -0.00000868,0.00000365,-0.00000884,-0.00001175,0.00000765,0.00002287,-
 0.00000518,-0.00000387,0.00000581,0.00000290,0.00000169\\\@


 YOU ARE IN A MAZE OF TWISTY LITTLE PASSAGES.
 Job cpu time:       0 days  0 hours  2 minutes 50.4 seconds.
 Elapsed time:       0 days  0 hours  2 minutes 52.2 seconds.
 File lengths (MBytes):  RWF=    140 Int=      0 D2E=      0 Chk=      5 Scr=      1
 Normal termination of Gaussian 16 at Thu Feb 22 10:49:18 2024.
