 Entering Gaussian System, Link 0=g16
 Input=/Volumes/SSD-PMU3/b3lyp_6-31gd_freq/XHTNAEVSSJZLEX-BVVZNTARSA-N_calculating/gaussianinput0.gjf
 Output=/Volumes/SSD-PMU3/b3lyp_6-31gd_freq/XHTNAEVSSJZLEX-BVVZNTARSA-N_calculating/gaussianinput0.log
 Initial command:
 /Applications/g16/l1.exe "/Users/macmini_m1_2022/PycharmProjects/sphere_model/sphere_model_lib/Gau-81046.inp" -scrdir="/Users/macmini_m1_2022/PycharmProjects/sphere_model/sphere_model_lib/"
 Entering Link 1 = /Applications/g16/l1.exe PID=     81047.
  
 Copyright (c) 1988,1990,1992,1993,1995,1998,2003,2009,2016,
            Gaussian, Inc.  All Rights Reserved.
  
 This is part of the Gaussian(R) 16 program.  It is based on
 the Gaussian(R) 09 system (copyright 2009, Gaussian, Inc.),
 the Gaussian(R) 03 system (copyright 2003, Gaussian, Inc.),
 the Gaussian(R) 98 system (copyright 1998, Gaussian, Inc.),
 the Gaussian(R) 94 system (copyright 1995, Gaussian, Inc.),
 the Gaussian 92(TM) system (copyright 1992, Gaussian, Inc.),
 the Gaussian 90(TM) system (copyright 1990, Gaussian, Inc.),
 the Gaussian 88(TM) system (copyright 1988, Gaussian, Inc.),
 the Gaussian 86(TM) system (copyright 1986, Carnegie Mellon
 University), and the Gaussian 82(TM) system (copyright 1983,
 Carnegie Mellon University). Gaussian is a federally registered
 trademark of Gaussian, Inc.
  
 This software contains proprietary and confidential information,
 including trade secrets, belonging to Gaussian, Inc.
  
 This software is provided under written license and may be
 used, copied, transmitted, or stored only in accord with that
 written license.
  
 The following legend is applicable only to US Government
 contracts under FAR:
  
                    RESTRICTED RIGHTS LEGEND
  
 Use, reproduction and disclosure by the US Government is
 subject to restrictions as set forth in subparagraphs (a)
 and (c) of the Commercial Computer Software - Restricted
 Rights clause in FAR 52.227-19.
  
 Gaussian, Inc.
 340 Quinnipiac St., Bldg. 40, Wallingford CT 06492
  
  
 ---------------------------------------------------------------
 Warning -- This program may not be used in any manner that
 competes with the business of Gaussian, Inc. or will provide
 assistance to any competitor of Gaussian, Inc.  The licensee
 of this program is prohibited from giving any competitor of
 Gaussian, Inc. access to this program.  By using this program,
 the user acknowledges that Gaussian, Inc. is engaged in the
 business of creating and licensing software in the field of
 computational chemistry and represents and warrants to the
 licensee that it is not a competitor of Gaussian, Inc. and that
 it will not use this program in any manner prohibited above.
 ---------------------------------------------------------------
  

 Cite this work as:
 Gaussian 16, Revision A.03,
 M. J. Frisch, G. W. Trucks, H. B. Schlegel, G. E. Scuseria, 
 M. A. Robb, J. R. Cheeseman, G. Scalmani, V. Barone, 
 G. A. Petersson, H. Nakatsuji, X. Li, M. Caricato, A. V. Marenich, 
 J. Bloino, B. G. Janesko, R. Gomperts, B. Mennucci, H. P. Hratchian, 
 J. V. Ortiz, A. F. Izmaylov, J. L. Sonnenberg, D. Williams-Young, 
 F. Ding, F. Lipparini, F. Egidi, J. Goings, B. Peng, A. Petrone, 
 T. Henderson, D. Ranasinghe, V. G. Zakrzewski, J. Gao, N. Rega, 
 G. Zheng, W. Liang, M. Hada, M. Ehara, K. Toyota, R. Fukuda, 
 J. Hasegawa, M. Ishida, T. Nakajima, Y. Honda, O. Kitao, H. Nakai, 
 T. Vreven, K. Throssell, J. A. Montgomery, Jr., J. E. Peralta, 
 F. Ogliaro, M. J. Bearpark, J. J. Heyd, E. N. Brothers, K. N. Kudin, 
 V. N. Staroverov, T. A. Keith, R. Kobayashi, J. Normand, 
 K. Raghavachari, A. P. Rendell, J. C. Burant, S. S. Iyengar, 
 J. Tomasi, M. Cossi, J. M. Millam, M. Klene, C. Adamo, R. Cammi, 
 J. W. Ochterski, R. L. Martin, K. Morokuma, O. Farkas, 
 J. B. Foresman, and D. J. Fox, Gaussian, Inc., Wallingford CT, 2016.
 
 ******************************************
 Gaussian 16:  EM64M-G16RevA.03 25-Dec-2016
                24-Feb-2024 
 ******************************************
 %nprocshared=10
 Will use up to   10 processors via shared memory.
 %mem=12GB
 %chk= 0.chk
 ---------------------
 # freq b3lyp/6-31g(d)
 ---------------------
 1/10=4,30=1,38=1/1,3;
 2/12=2,17=6,18=5,40=1/2;
 3/5=1,6=6,7=1,11=2,25=1,30=1,71=2,74=-5,140=1/1,2,3;
 4//1;
 5/5=2,38=5,98=1/2;
 8/6=4,10=90,11=11/1;
 11/6=1,8=1,9=11,15=111,16=1/1,2,10;
 10/6=1/2;
 6/7=2,8=2,9=2,10=2,28=1/1;
 7/8=1,10=1,25=1/1,2,3,16;
 1/10=4,30=1/3;
 99//99;
 ---------
 good luck
 ---------
 Symbolic Z-matrix:
 Charge =  0 Multiplicity = 1
 O                     1.21298   0.        0. 
 C                     0.        0.        0. 
 C                    -0.82591  -1.27147   0.00206 
 S                    -1.69939  -1.50615   1.61274 
 C                    -2.41603   0.19649   1.91612 
 C                    -3.76113   0.09406   2.59917 
 C                    -3.95795   0.73038   3.83091 
 C                    -5.19707   0.67283   4.4699 
 C                    -6.25511  -0.01945   3.8803 
 C                    -6.067    -0.65681   2.65143 
 C                    -4.82774  -0.60489   2.01612 
 S                    -2.55637   1.205     0.38029 
 C                    -0.76639   1.32812   0.00206 
 H                    -1.56096  -1.25953  -0.80793 
 H                    -0.16244  -2.13194  -0.10569 
 H                    -1.72034   0.72235   2.57464 
 H                    -3.13658   1.27397   4.29169 
 H                    -5.33337   1.1679    5.42744 
 H                    -7.22067  -0.06589   4.37652 
 H                    -6.88617  -1.20036   2.18869 
 H                    -4.6785   -1.11453   1.06887 
 H                    -0.26027   2.01914   0.68462 
 H                    -0.69592   1.75982  -1.00392 
 

 GradGradGradGradGradGradGradGradGradGradGradGradGradGradGradGradGradGrad
 Berny optimization.
 Initialization pass.
 Trust Radius=3.00D-01 FncErr=1.00D-07 GrdErr=1.00D-07 EigMax=2.50D+02 EigMin=1.00D-04
 Number of steps in this run=      2 maximum allowed number of steps=      2.
 GradGradGradGradGradGradGradGradGradGradGradGradGradGradGradGradGradGrad

                          Input orientation:                          
 ---------------------------------------------------------------------
 Center     Atomic      Atomic             Coordinates (Angstroms)
 Number     Number       Type             X           Y           Z
 ---------------------------------------------------------------------
      1          8           0        1.212977    0.000000    0.000000
      2          6           0        0.000000    0.000000    0.000000
      3          6           0       -0.825911   -1.271473    0.002057
      4         16           0       -1.699393   -1.506154    1.612735
      5          6           0       -2.416027    0.196489    1.916115
      6          6           0       -3.761132    0.094061    2.599166
      7          6           0       -3.957949    0.730375    3.830913
      8          6           0       -5.197075    0.672832    4.469895
      9          6           0       -6.255111   -0.019445    3.880304
     10          6           0       -6.067001   -0.656812    2.651434
     11          6           0       -4.827744   -0.604894    2.016122
     12         16           0       -2.556372    1.205002    0.380290
     13          6           0       -0.766385    1.328116    0.002057
     14          1           0       -1.560958   -1.259527   -0.807932
     15          1           0       -0.162437   -2.131942   -0.105690
     16          1           0       -1.720338    0.722345    2.574642
     17          1           0       -3.136583    1.273972    4.291691
     18          1           0       -5.333367    1.167900    5.427437
     19          1           0       -7.220666   -0.065889    4.376521
     20          1           0       -6.886167   -1.200360    2.188694
     21          1           0       -4.678498   -1.114531    1.068873
     22          1           0       -0.260268    2.019141    0.684622
     23          1           0       -0.695920    1.759819   -1.003923
 ---------------------------------------------------------------------
                    Distance matrix (angstroms):
                    1          2          3          4          5
     1  O    0.000000
     2  C    1.212977   0.000000
     3  C    2.402855   1.516172   0.000000
     4  S    3.653945   2.785202   1.847249   0.000000
     5  C    4.108500   3.089869   2.889117   1.872057   0.000000
     6  C    5.613045   4.572814   4.150323   2.790072   1.512071
     7  C    6.476713   5.556501   5.336403   3.876010   2.515752
     8  C    7.843560   6.887834   6.545913   5.014491   3.805644
     9  C    8.416025   7.360948   6.788563   5.301579   4.317781
    10  C    7.775576   6.653571   5.904746   4.569056   3.820789
    11  C    6.396949   5.266665   4.529399   3.280483   2.543343
    12  S    3.975505   2.851611   3.044747   3.098984   1.842703
    13  C    2.383646   1.533376   2.600270   3.390852   2.768667
    14  H    3.151805   2.162349   1.093855   2.437133   3.204927
    15  H    2.539313   2.140732   1.091886   2.388897   3.819418
    16  H    3.969244   3.179643   3.375426   2.427326   1.092779
    17  H    6.241818   5.466239   5.497222   4.119638   2.706202
    18  H    8.583454   7.698433   7.463407   5.908323   4.667322
    19  H    9.501821   8.443713   7.841062   6.340137   5.404350
    20  H    8.475103   7.324653   6.443069   5.227606   4.691230
    21  H    6.090496   4.926765   4.000644   3.053559   2.748703
    22  H    2.591542   2.147877   3.407930   3.919206   3.079924
    23  H    2.783651   2.142225   3.196502   4.303538   3.732210
                    6          7          8          9         10
     6  C    0.000000
     7  C    1.400298   0.000000
     8  C    2.428278   1.395365   0.000000
     9  C    2.806088   2.416945   1.395100   0.000000
    10  C    2.425608   2.786316   2.414855   1.397048   0.000000
    11  C    1.402191   2.415151   2.791056   2.419773   1.393583
    12  S    2.758450   3.754529   4.897079   5.237369   4.577004
    13  C    4.151672   5.020310   6.326293   6.854402   6.249453
    14  H    4.275662   5.587858   6.694088   6.749254   5.712697
    15  H    5.022145   6.172164   7.358690   7.580994   6.681438
    16  H    2.135458   2.566161   3.960068   4.776942   4.560861
    17  H    2.155665   1.087408   2.153777   3.401086   3.873722
    18  H    3.409424   2.152229   1.086533   2.157086   3.402056
    19  H    3.892679   3.402506   2.156235   1.086593   2.157790
    20  H    3.407324   3.872865   3.400847   2.157391   1.086557
    21  H    2.155006   3.398784   3.876924   3.404272   2.154518
    22  H    4.430289   5.023237   6.364975   7.092698   6.689336
    23  H    5.015229   5.922519   7.169702   7.610917   6.931829
                   11         12         13         14         15
    11  C    0.000000
    12  S    3.333287   0.000000
    13  C    4.928247   1.833650   0.000000
    14  H    4.367576   2.911464   2.825478   0.000000
    15  H    5.347808   4.135492   3.514024   1.791679   0.000000
    16  H    3.424833   2.397309   2.809836   3.923650   4.214047
    17  H    3.401232   3.954802   4.901197   5.908246   6.307357
    18  H    3.877567   5.760796   7.093500   7.681360   8.260930
    19  H    3.404128   6.272214   7.920665   7.767601   8.612630
    20  H    2.149760   5.272876   6.973256   6.110738   7.165235
    21  H    1.085949   3.218353   4.733841   3.641768   4.775932
    22  H    5.433258   2.455104   1.095247   3.830036   4.226778
    23  H    5.637775   2.384355   1.096963   3.146928   4.029545
                   16         17         18         19         20
    16  H    0.000000
    17  H    2.293098   0.000000
    18  H    4.625034   2.475284   0.000000
    19  H    5.841377   4.299088   2.487681   0.000000
    20  H    5.525535   4.960272   4.302244   2.487067   0.000000
    21  H    3.793701   4.297558   4.963409   4.301489   2.476927
    22  H    2.717657   4.673266   6.996802   8.150129   7.518641
    23  H    3.864183   5.851189   7.951017   8.651861   7.568000
                   21         22         23
    21  H    0.000000
    22  H    5.430314   0.000000
    23  H    5.330975   1.763016   0.000000
 Stoichiometry    C10H10OS2
 Framework group  C1[X(C10H10OS2)]
 Deg. of freedom    63
 Full point group                 C1      NOp   1
 Largest Abelian subgroup         C1      NOp   1
 Largest concise Abelian subgroup C1      NOp   1
                         Standard orientation:                         
 ---------------------------------------------------------------------
 Center     Atomic      Atomic             Coordinates (Angstroms)
 Number     Number       Type             X           Y           Z
 ---------------------------------------------------------------------
      1          8           0       -4.144132    0.018941    0.775263
      2          6           0       -3.129753   -0.034946    0.112357
      3          6           0       -2.453540    1.193596   -0.464009
      4         16           0       -0.843014    1.533317    0.374517
      5          6           0       -0.056516   -0.165241    0.404804
      6          6           0        1.441535   -0.061583    0.227439
      7          6           0        2.289150   -0.592515    1.207487
      8          6           0        3.674966   -0.532775    1.055871
      9          6           0        4.228078    0.055911   -0.081592
     10          6           0        3.389309    0.587763   -1.064110
     11          6           0        2.005326    0.533956   -0.909931
     12         16           0       -0.768678   -1.313183   -0.848435
     13          6           0       -2.471423   -1.390212   -0.172419
     14          1           0       -2.282711    1.076122   -1.538037
     15          1           0       -3.078007    2.069490   -0.276754
     16          1           0       -0.270860   -0.598237    1.384976
     17          1           0        1.861522   -1.055385    2.093682
     18          1           0        4.319920   -0.945176    1.826918
     19          1           0        5.306990    0.103907   -0.201302
     20          1           0        3.814022    1.050506   -1.950729
     21          1           0        1.355002    0.962354   -1.666793
     22          1           0       -2.512029   -1.993800    0.740597
     23          1           0       -3.076509   -1.907184   -0.927362
 ---------------------------------------------------------------------
 Rotational constants (GHZ):           1.5729010           0.3499588           0.3297126
 Standard basis: 6-31G(d) (6D, 7F)
 There are   223 symmetry adapted cartesian basis functions of A   symmetry.
 There are   223 symmetry adapted basis functions of A   symmetry.
   223 basis functions,   452 primitive gaussians,   223 cartesian basis functions
    55 alpha electrons       55 beta electrons
       nuclear repulsion energy       957.5278934059 Hartrees.
 NAtoms=   23 NActive=   23 NUniq=   23 SFac= 1.00D+00 NAtFMM=   60 NAOKFM=F Big=F
 Integral buffers will be    131072 words long.
 Raffenetti 2 integral format.
 Two-electron integral symmetry is turned on.
 One-electron integrals computed using PRISM.
 NBasis=   223 RedAO= T EigKep=  4.70D-04  NBF=   223
 NBsUse=   223 1.00D-06 EigRej= -1.00D+00 NBFU=   223
 ExpMin= 1.17D-01 ExpMax= 2.19D+04 ExpMxC= 3.30D+03 IAcc=3 IRadAn=         5 AccDes= 0.00D+00
 Harris functional with IExCor=  402 and IRadAn=       5 diagonalized for initial guess.
 HarFok:  IExCor=  402 AccDes= 0.00D+00 IRadAn=         5 IDoV= 1 UseB2=F ITyADJ=14
 ICtDFT=  3500011 ScaDFX=  1.000000  1.000000  1.000000  1.000000
 FoFCou: FMM=F IPFlag=           0 FMFlag=      100000 FMFlg1=           0
         NFxFlg=           0 DoJE=T BraDBF=F KetDBF=T FulRan=T
         wScrn=  0.000000 ICntrl=       500 IOpCl=  0 I1Cent=   200000004 NGrid=           0
         NMat0=    1 NMatS0=      1 NMatT0=    0 NMatD0=    1 NMtDS0=    0 NMtDT0=    0
 Petite list used in FoFCou.
 Requested convergence on RMS density matrix=1.00D-08 within 128 cycles.
 Requested convergence on MAX density matrix=1.00D-06.
 Requested convergence on             energy=1.00D-06.
 No special actions if energy rises.
 Integral accuracy reduced to 1.0D-05 until final iterations.
 Initial convergence to 1.0D-05 achieved.  Increase integral accuracy.
 SCF Done:  E(RB3LYP) =  -1258.67397343     A.U. after   15 cycles
            NFock= 15  Conv=0.49D-08     -V/T= 2.0056
 DoSCS=F DFT=T ScalE2(SS,OS)=  1.000000  1.000000
 Range of M.O.s used for correlation:     1   223
 NBasis=   223 NAE=    55 NBE=    55 NFC=     0 NFV=     0
 NROrb=    223 NOA=    55 NOB=    55 NVA=   168 NVB=   168
 Symmetrizing basis deriv contribution to polar:
 IMax=3 JMax=2 DiffMx= 0.00D+00
 G2DrvN: will do    24 centers at a time, making    1 passes.
 Calling FoFCou, ICntrl=  3107 FMM=F I1Cent=   0 AccDes= 0.00D+00.
 End of G2Drv F.D. properties file   721 does not exist.
 End of G2Drv F.D. properties file   722 does not exist.
 End of G2Drv F.D. properties file   788 does not exist.
          IDoAtm=11111111111111111111111
          Differentiating once with respect to electric field.
                with respect to dipole field.
          Differentiating once with respect to nuclear coordinates.
 Keep R1 ints in memory in canonical form, NReq=322406392.
          There are    72 degrees of freedom in the 1st order CPHF.  IDoFFX=6 NUNeed=     3.
     69 vectors produced by pass  0 Test12= 1.28D-14 1.39D-09 XBig12= 2.01D+02 6.78D+00.
 AX will form    69 AO Fock derivatives at one time.
     69 vectors produced by pass  1 Test12= 1.28D-14 1.39D-09 XBig12= 2.53D+01 8.63D-01.
     69 vectors produced by pass  2 Test12= 1.28D-14 1.39D-09 XBig12= 3.41D-01 7.25D-02.
     69 vectors produced by pass  3 Test12= 1.28D-14 1.39D-09 XBig12= 1.45D-03 6.82D-03.
     69 vectors produced by pass  4 Test12= 1.28D-14 1.39D-09 XBig12= 3.10D-06 2.75D-04.
     58 vectors produced by pass  5 Test12= 1.28D-14 1.39D-09 XBig12= 3.38D-09 5.51D-06.
      7 vectors produced by pass  6 Test12= 1.28D-14 1.39D-09 XBig12= 2.45D-12 1.76D-07.
      3 vectors produced by pass  7 Test12= 1.28D-14 1.39D-09 XBig12= 2.01D-15 5.01D-09.
 InvSVY:  IOpt=1 It=  1 EMax= 7.11D-15
 Solved reduced A of dimension   413 with    72 vectors.
 Isotropic polarizability for W=    0.000000      135.64 Bohr**3.
 End of Minotr F.D. properties file   721 does not exist.
 End of Minotr F.D. properties file   722 does not exist.
 End of Minotr F.D. properties file   788 does not exist.

 **********************************************************************

            Population analysis using the SCF density.

 **********************************************************************

 Orbital symmetries:
       Occupied  (A) (A) (A) (A) (A) (A) (A) (A) (A) (A) (A) (A)
                 (A) (A) (A) (A) (A) (A) (A) (A) (A) (A) (A) (A)
                 (A) (A) (A) (A) (A) (A) (A) (A) (A) (A) (A) (A)
                 (A) (A) (A) (A) (A) (A) (A) (A) (A) (A) (A) (A)
                 (A) (A) (A) (A) (A) (A) (A)
       Virtual   (A) (A) (A) (A) (A) (A) (A) (A) (A) (A) (A) (A)
                 (A) (A) (A) (A) (A) (A) (A) (A) (A) (A) (A) (A)
                 (A) (A) (A) (A) (A) (A) (A) (A) (A) (A) (A) (A)
                 (A) (A) (A) (A) (A) (A) (A) (A) (A) (A) (A) (A)
                 (A) (A) (A) (A) (A) (A) (A) (A) (A) (A) (A) (A)
                 (A) (A) (A) (A) (A) (A) (A) (A) (A) (A) (A) (A)
                 (A) (A) (A) (A) (A) (A) (A) (A) (A) (A) (A) (A)
                 (A) (A) (A) (A) (A) (A) (A) (A) (A) (A) (A) (A)
                 (A) (A) (A) (A) (A) (A) (A) (A) (A) (A) (A) (A)
                 (A) (A) (A) (A) (A) (A) (A) (A) (A) (A) (A) (A)
                 (A) (A) (A) (A) (A) (A) (A) (A) (A) (A) (A) (A)
                 (A) (A) (A) (A) (A) (A) (A) (A) (A) (A) (A) (A)
                 (A) (A) (A) (A) (A) (A) (A) (A) (A) (A) (A) (A)
                 (A) (A) (A) (A) (A) (A) (A) (A) (A) (A) (A) (A)
 The electronic state is 1-A.
 Alpha  occ. eigenvalues --  -88.89263 -88.88812 -19.15514 -10.29665 -10.26309
 Alpha  occ. eigenvalues --  -10.23532 -10.23000 -10.21332 -10.20117 -10.19888
 Alpha  occ. eigenvalues --  -10.19836 -10.19815 -10.19759  -7.95364  -7.94875
 Alpha  occ. eigenvalues --   -5.91886  -5.91528  -5.91416  -5.91048  -5.90791
 Alpha  occ. eigenvalues --   -5.90276  -1.05635  -0.87370  -0.84291  -0.78405
 Alpha  occ. eigenvalues --   -0.77815  -0.75293  -0.72470  -0.65831  -0.63383
 Alpha  occ. eigenvalues --   -0.61383  -0.58312  -0.54213  -0.51726  -0.48929
 Alpha  occ. eigenvalues --   -0.47934  -0.47504  -0.45793  -0.45591  -0.42938
 Alpha  occ. eigenvalues --   -0.42780  -0.42165  -0.40609  -0.39418  -0.38073
 Alpha  occ. eigenvalues --   -0.36415  -0.36080  -0.34938  -0.34746  -0.32719
 Alpha  occ. eigenvalues --   -0.27147  -0.25988  -0.25621  -0.23954  -0.22912
 Alpha virt. eigenvalues --   -0.04118  -0.02346  -0.01017   0.00021   0.04423
 Alpha virt. eigenvalues --    0.06011   0.08210   0.08647   0.09755   0.11846
 Alpha virt. eigenvalues --    0.12332   0.13227   0.14955   0.15188   0.16130
 Alpha virt. eigenvalues --    0.16583   0.18323   0.18764   0.19004   0.22129
 Alpha virt. eigenvalues --    0.26597   0.28906   0.29412   0.30084   0.31436
 Alpha virt. eigenvalues --    0.32690   0.34293   0.37112   0.37568   0.39859
 Alpha virt. eigenvalues --    0.40130   0.40634   0.42258   0.43668   0.47537
 Alpha virt. eigenvalues --    0.48349   0.51211   0.52488   0.52893   0.54332
 Alpha virt. eigenvalues --    0.54944   0.56792   0.57799   0.58764   0.58893
 Alpha virt. eigenvalues --    0.59373   0.59760   0.60872   0.61080   0.63005
 Alpha virt. eigenvalues --    0.63590   0.64596   0.65666   0.67004   0.67425
 Alpha virt. eigenvalues --    0.70789   0.71001   0.74875   0.77178   0.80374
 Alpha virt. eigenvalues --    0.80961   0.81808   0.82766   0.83371   0.83702
 Alpha virt. eigenvalues --    0.84772   0.85388   0.85871   0.87111   0.88109
 Alpha virt. eigenvalues --    0.89887   0.90203   0.91577   0.92080   0.93383
 Alpha virt. eigenvalues --    0.93823   0.94856   0.96057   0.96512   0.98177
 Alpha virt. eigenvalues --    1.00689   1.02129   1.03715   1.05867   1.08194
 Alpha virt. eigenvalues --    1.09966   1.10280   1.12186   1.14738   1.16619
 Alpha virt. eigenvalues --    1.22108   1.23949   1.25486   1.27487   1.34787
 Alpha virt. eigenvalues --    1.40492   1.41773   1.43168   1.43931   1.44764
 Alpha virt. eigenvalues --    1.46536   1.47597   1.48733   1.49591   1.50411
 Alpha virt. eigenvalues --    1.52357   1.63626   1.73815   1.77442   1.78125
 Alpha virt. eigenvalues --    1.78955   1.79769   1.81121   1.83268   1.88234
 Alpha virt. eigenvalues --    1.88933   1.90012   1.91316   1.91772   1.92450
 Alpha virt. eigenvalues --    1.96828   1.97751   2.04006   2.04432   2.07061
 Alpha virt. eigenvalues --    2.08391   2.11441   2.12629   2.14517   2.18243
 Alpha virt. eigenvalues --    2.19769   2.21327   2.22802   2.27039   2.29834
 Alpha virt. eigenvalues --    2.30416   2.32855   2.37397   2.38848   2.41359
 Alpha virt. eigenvalues --    2.47447   2.56640   2.57796   2.59990   2.64500
 Alpha virt. eigenvalues --    2.66615   2.71176   2.73565   2.74010   2.75867
 Alpha virt. eigenvalues --    2.88613   2.95166   2.95920   3.04365   3.39937
 Alpha virt. eigenvalues --    3.86982   3.93712   4.00092   4.08274   4.10714
 Alpha virt. eigenvalues --    4.12822   4.14632   4.25183   4.28442   4.32378
 Alpha virt. eigenvalues --    4.39871   4.49787   4.68654
          Condensed to atoms (all electrons):
               1          2          3          4          5          6
     1  O    7.985315   0.572984  -0.075349   0.002367  -0.000154  -0.000002
     2  C    0.572984   4.543210   0.304928  -0.018356  -0.008999   0.000129
     3  C   -0.075349   0.304928   5.502631   0.220828  -0.010582   0.001199
     4  S    0.002367  -0.018356   0.220828  15.673907   0.221283  -0.042765
     5  C   -0.000154  -0.008999  -0.010582   0.221283   5.559770   0.301420
     6  C   -0.000002   0.000129   0.001199  -0.042765   0.301420   4.727403
     7  C    0.000000  -0.000001  -0.000019   0.002762  -0.050286   0.560161
     8  C    0.000000  -0.000000   0.000000  -0.000252   0.007038  -0.024093
     9  C   -0.000000   0.000000  -0.000000  -0.000036   0.000430  -0.033971
    10  C    0.000000  -0.000000   0.000002   0.000132   0.006933  -0.019665
    11  C    0.000000  -0.000015   0.000140  -0.002628  -0.072917   0.530840
    12  S    0.003597  -0.043876   0.011646  -0.067160   0.233732  -0.034839
    13  C   -0.076066   0.283152  -0.136652  -0.004131  -0.017130   0.002507
    14  H    0.002161  -0.029853   0.343060  -0.044189  -0.003593   0.000220
    15  H    0.004353  -0.020123   0.342366  -0.028412   0.002234  -0.000032
    16  H   -0.000010  -0.000996   0.000506  -0.062734   0.350343  -0.043117
    17  H   -0.000000   0.000000  -0.000001   0.000084  -0.011742  -0.042116
    18  H    0.000000  -0.000000  -0.000000   0.000004  -0.000209   0.004031
    19  H   -0.000000   0.000000   0.000000  -0.000000   0.000009   0.000714
    20  H   -0.000000  -0.000000  -0.000000   0.000015  -0.000197   0.003445
    21  H   -0.000000  -0.000005  -0.000144   0.005562  -0.009409  -0.042652
    22  H    0.002111  -0.033266   0.005144  -0.001630  -0.003955  -0.000023
    23  H   -0.001770  -0.015437   0.002737   0.000158   0.002440  -0.000042
               7          8          9         10         11         12
     1  O    0.000000   0.000000  -0.000000   0.000000   0.000000   0.003597
     2  C   -0.000001  -0.000000   0.000000  -0.000000  -0.000015  -0.043876
     3  C   -0.000019   0.000000  -0.000000   0.000002   0.000140   0.011646
     4  S    0.002762  -0.000252  -0.000036   0.000132  -0.002628  -0.067160
     5  C   -0.050286   0.007038   0.000430   0.006933  -0.072917   0.233732
     6  C    0.560161  -0.024093  -0.033971  -0.019665   0.530840  -0.034839
     7  C    4.925446   0.531411  -0.036783  -0.045469  -0.039762   0.001648
     8  C    0.531411   4.855604   0.552310  -0.026222  -0.045365  -0.000446
     9  C   -0.036783   0.552310   4.848262   0.544649  -0.035132   0.000014
    10  C   -0.045469  -0.026222   0.544649   4.867872   0.526060  -0.000016
    11  C   -0.039762  -0.045365  -0.035132   0.526060   4.945904   0.000874
    12  S    0.001648  -0.000446   0.000014  -0.000016   0.000874  15.651667
    13  C    0.000001   0.000000  -0.000000   0.000000   0.000039   0.213111
    14  H   -0.000002  -0.000000   0.000000  -0.000001  -0.000004   0.002785
    15  H    0.000000  -0.000000   0.000000   0.000000  -0.000001   0.000287
    16  H   -0.004261   0.000253  -0.000002  -0.000120   0.005997  -0.051480
    17  H    0.352170  -0.043072   0.004685   0.000328   0.006233   0.000326
    18  H   -0.039721   0.357621  -0.042383   0.004462   0.000865   0.000004
    19  H    0.004719  -0.042633   0.359650  -0.042378   0.004591  -0.000001
    20  H    0.000921   0.004461  -0.042252   0.358440  -0.039241   0.000001
    21  H    0.005332   0.000433   0.004477  -0.042059   0.360239   0.003170
    22  H   -0.000005   0.000000  -0.000000   0.000000   0.000009  -0.039565
    23  H   -0.000000  -0.000000   0.000000  -0.000000  -0.000000  -0.031708
              13         14         15         16         17         18
     1  O   -0.076066   0.002161   0.004353  -0.000010  -0.000000   0.000000
     2  C    0.283152  -0.029853  -0.020123  -0.000996   0.000000  -0.000000
     3  C   -0.136652   0.343060   0.342366   0.000506  -0.000001  -0.000000
     4  S   -0.004131  -0.044189  -0.028412  -0.062734   0.000084   0.000004
     5  C   -0.017130  -0.003593   0.002234   0.350343  -0.011742  -0.000209
     6  C    0.002507   0.000220  -0.000032  -0.043117  -0.042116   0.004031
     7  C    0.000001  -0.000002   0.000000  -0.004261   0.352170  -0.039721
     8  C    0.000000  -0.000000  -0.000000   0.000253  -0.043072   0.357621
     9  C   -0.000000   0.000000   0.000000  -0.000002   0.004685  -0.042383
    10  C    0.000000  -0.000001   0.000000  -0.000120   0.000328   0.004462
    11  C    0.000039  -0.000004  -0.000001   0.005997   0.006233   0.000865
    12  S    0.213111   0.002785   0.000287  -0.051480   0.000326   0.000004
    13  C    5.545332   0.002903   0.006582  -0.003515  -0.000011  -0.000000
    14  H    0.002903   0.544187  -0.026128  -0.000268  -0.000000  -0.000000
    15  H    0.006582  -0.026128   0.511948  -0.000001   0.000000   0.000000
    16  H   -0.003515  -0.000268  -0.000001   0.591162   0.008166  -0.000011
    17  H   -0.000011  -0.000000   0.000000   0.008166   0.596836  -0.005469
    18  H   -0.000000  -0.000000   0.000000  -0.000011  -0.005469   0.590424
    19  H   -0.000000  -0.000000  -0.000000  -0.000000  -0.000175  -0.005484
    20  H   -0.000000  -0.000000   0.000000   0.000003   0.000017  -0.000183
    21  H   -0.000025  -0.000038   0.000007   0.000157  -0.000166   0.000016
    22  H    0.347749   0.000042  -0.000104   0.006253  -0.000000  -0.000000
    23  H    0.351135   0.000184  -0.000150  -0.000038   0.000000   0.000000
              19         20         21         22         23
     1  O   -0.000000  -0.000000  -0.000000   0.002111  -0.001770
     2  C    0.000000  -0.000000  -0.000005  -0.033266  -0.015437
     3  C    0.000000  -0.000000  -0.000144   0.005144   0.002737
     4  S   -0.000000   0.000015   0.005562  -0.001630   0.000158
     5  C    0.000009  -0.000197  -0.009409  -0.003955   0.002440
     6  C    0.000714   0.003445  -0.042652  -0.000023  -0.000042
     7  C    0.004719   0.000921   0.005332  -0.000005  -0.000000
     8  C   -0.042633   0.004461   0.000433   0.000000  -0.000000
     9  C    0.359650  -0.042252   0.004477  -0.000000   0.000000
    10  C   -0.042378   0.358440  -0.042059   0.000000  -0.000000
    11  C    0.004591  -0.039241   0.360239   0.000009  -0.000000
    12  S   -0.000001   0.000001   0.003170  -0.039565  -0.031708
    13  C   -0.000000  -0.000000  -0.000025   0.347749   0.351135
    14  H   -0.000000  -0.000000  -0.000038   0.000042   0.000184
    15  H   -0.000000   0.000000   0.000007  -0.000104  -0.000150
    16  H   -0.000000   0.000003   0.000157   0.006253  -0.000038
    17  H   -0.000175   0.000017  -0.000166  -0.000000   0.000000
    18  H   -0.005484  -0.000183   0.000016  -0.000000   0.000000
    19  H    0.590957  -0.005386  -0.000166   0.000000  -0.000000
    20  H   -0.005386   0.588027  -0.005133   0.000000   0.000000
    21  H   -0.000166  -0.005133   0.566372   0.000001   0.000001
    22  H    0.000000   0.000000   0.000001   0.531389  -0.021102
    23  H   -0.000000   0.000000   0.000001  -0.021102   0.503449
 Mulliken charges:
               1
     1  O   -0.419536
     2  C    0.466524
     3  C   -0.512440
     4  S    0.145191
     5  C   -0.496460
     6  C    0.151247
     7  C   -0.168263
     8  C   -0.127049
     9  C   -0.123917
    10  C   -0.132950
    11  C   -0.146726
    12  S    0.146226
    13  C   -0.514982
    14  H    0.208535
    15  H    0.207175
    16  H    0.203711
    17  H    0.133908
    18  H    0.136033
    19  H    0.135582
    20  H    0.137060
    21  H    0.154031
    22  H    0.206954
    23  H    0.210146
 Sum of Mulliken charges =  -0.00000
 Mulliken charges with hydrogens summed into heavy atoms:
               1
     1  O   -0.419536
     2  C    0.466524
     3  C   -0.096730
     4  S    0.145191
     5  C   -0.292749
     6  C    0.151247
     7  C   -0.034355
     8  C    0.008983
     9  C    0.011665
    10  C    0.004110
    11  C    0.007305
    12  S    0.146226
    13  C   -0.097882
 APT charges:
               1
     1  O   -0.663496
     2  C    0.730223
     3  C   -0.065867
     4  S   -0.162129
     5  C    0.373019
     6  C   -0.002559
     7  C   -0.032377
     8  C   -0.018096
     9  C   -0.013924
    10  C    0.000879
    11  C   -0.052818
    12  S   -0.169916
    13  C    0.016622
    14  H    0.015899
    15  H    0.015054
    16  H   -0.082508
    17  H    0.023866
    18  H    0.012101
    19  H    0.015004
    20  H    0.013429
    21  H    0.047642
    22  H   -0.016334
    23  H    0.016285
 Sum of APT charges =   0.00000
 APT charges with hydrogens summed into heavy atoms:
               1
     1  O   -0.663496
     2  C    0.730223
     3  C   -0.034914
     4  S   -0.162129
     5  C    0.290511
     6  C   -0.002559
     7  C   -0.008511
     8  C   -0.005995
     9  C    0.001080
    10  C    0.014308
    11  C   -0.005175
    12  S   -0.169916
    13  C    0.016573
 Electronic spatial extent (au):  <R**2>=           3383.8659
 Charge=             -0.0000 electrons
 Dipole moment (field-independent basis, Debye):
    X=              1.7379    Y=             -0.8297    Z=             -0.9535  Tot=              2.1490
 Quadrupole moment (field-independent basis, Debye-Ang):
   XX=            -89.9323   YY=            -91.2326   ZZ=            -87.6319
   XY=              1.7468   XZ=              7.3858   YZ=             -5.2722
 Traceless Quadrupole moment (field-independent basis, Debye-Ang):
   XX=             -0.3334   YY=             -1.6336   ZZ=              1.9670
   XY=              1.7468   XZ=              7.3858   YZ=             -5.2722
 Octapole moment (field-independent basis, Debye-Ang**2):
  XXX=             79.5353  YYY=             -0.1901  ZZZ=              2.2706  XYY=            -24.5250
  XXY=             -3.8810  XXZ=            -30.3142  XZZ=              2.7489  YZZ=             -3.3125
  YYZ=             -0.6535  XYZ=             -7.3296
 Hexadecapole moment (field-independent basis, Debye-Ang**3):
 XXXX=          -3549.8882 YYYY=           -636.7825 ZZZZ=           -412.4616 XXXY=              7.9498
 XXXZ=            113.8855 YYYX=              1.4671 YYYZ=             -2.9536 ZZZX=             -2.9705
 ZZZY=            -19.1305 XXYY=           -658.6056 XXZZ=           -632.1438 YYZZ=           -170.2576
 XXYZ=            -29.4680 YYXZ=              3.8853 ZZXY=              5.6827
 N-N= 9.575278934059D+02 E-N=-4.880435118331D+03  KE= 1.251616768306D+03
  Exact polarizability: 194.096   0.040 103.636  -0.808 -11.230 109.175
 Approx polarizability: 277.390   0.206 166.344  -4.974 -23.777 195.188
 Calling FoFJK, ICntrl=    100127 FMM=F ISym2X=0 I1Cent= 0 IOpClX= 0 NMat=1 NMatS=1 NMatT=0.
 Full mass-weighted force constant matrix:
 Low frequencies ---   -1.5019   -0.0010    0.0009    0.0026    1.4505    7.9554
 Low frequencies ---   18.7513   38.3938   78.5955
 Diagonal vibrational polarizability:
       80.1588146      12.2735325      46.9088907
 Harmonic frequencies (cm**-1), IR intensities (KM/Mole), Raman scattering
 activities (A**4/AMU), depolarization ratios for plane and unpolarized
 incident light, reduced masses (AMU), force constants (mDyne/A),
 and normal coordinates:
                      1                      2                      3
                      A                      A                      A
 Frequencies --     18.7137                38.3913                78.5947
 Red. masses --      8.5243                 4.3889                 6.4378
 Frc consts  --      0.0018                 0.0038                 0.0234
 IR Inten    --      1.3508                 0.0608                 0.1097
  Atom  AN      X      Y      Z        X      Y      Z        X      Y      Z
     1   8     0.23  -0.11   0.42    -0.02  -0.01  -0.03     0.05   0.21   0.08
     2   6     0.06  -0.05   0.15    -0.01   0.02  -0.01     0.01   0.09   0.02
     3   6    -0.10  -0.01   0.06     0.03   0.05   0.08     0.09   0.01  -0.05
     4  16     0.02   0.06  -0.19     0.03  -0.05   0.12     0.10  -0.12  -0.03
     5   6    -0.05   0.04  -0.12     0.01  -0.07  -0.01     0.00  -0.16  -0.06
     6   6    -0.04   0.01  -0.02     0.00  -0.05  -0.01     0.00  -0.14  -0.07
     7   6    -0.11   0.03   0.05     0.02   0.17   0.09     0.02  -0.11  -0.06
     8   6    -0.10   0.01   0.14     0.02   0.23   0.10     0.02   0.10   0.03
     9   6    -0.01  -0.04   0.16    -0.00   0.05   0.00     0.00   0.28   0.11
    10   6     0.06  -0.07   0.08    -0.02  -0.17  -0.10    -0.01   0.21   0.09
    11   6     0.05  -0.04  -0.01    -0.02  -0.22  -0.11    -0.01  -0.00  -0.00
    12  16    -0.02   0.05  -0.15    -0.02   0.03  -0.08    -0.12  -0.13  -0.03
    13   6    -0.01  -0.02  -0.13    -0.02   0.03  -0.09    -0.11   0.03   0.03
    14   1    -0.26   0.01   0.03     0.04   0.12   0.08     0.09  -0.04  -0.05
    15   1    -0.12  -0.04   0.16     0.05   0.05   0.14     0.16   0.07  -0.09
    16   1    -0.12   0.05  -0.13     0.01  -0.13  -0.03     0.01  -0.15  -0.06
    17   1    -0.17   0.07   0.04     0.03   0.30   0.17     0.03  -0.22  -0.11
    18   1    -0.15   0.03   0.20     0.03   0.40   0.18     0.03   0.15   0.04
    19   1    -0.01  -0.06   0.23    -0.00   0.09   0.01     0.01   0.47   0.20
    20   1     0.12  -0.10   0.09    -0.03  -0.30  -0.18    -0.02   0.34   0.15
    21   1     0.10  -0.06  -0.07    -0.03  -0.38  -0.19    -0.02  -0.03  -0.01
    22   1    -0.02  -0.20  -0.24    -0.04  -0.02  -0.12    -0.13   0.06   0.05
    23   1    -0.04   0.15  -0.22    -0.03   0.08  -0.12    -0.18   0.06   0.07
                      4                      5                      6
                      A                      A                      A
 Frequencies --     95.5326               154.7347               197.2627
 Red. masses --      3.9936                 4.3002                 4.4547
 Frc consts  --      0.0215                 0.0607                 0.1021
 IR Inten    --      5.2767                 3.1383                 1.0961
  Atom  AN      X      Y      Z        X      Y      Z        X      Y      Z
     1   8    -0.18  -0.08  -0.10    -0.11  -0.11  -0.08    -0.07   0.00   0.05
     2   6    -0.06  -0.02   0.09    -0.04  -0.01   0.03    -0.11   0.01  -0.00
     3   6    -0.06   0.01   0.15    -0.04   0.09   0.21    -0.09   0.00   0.02
     4  16     0.05   0.01  -0.05     0.15   0.05  -0.12    -0.10  -0.00   0.05
     5   6     0.03   0.01  -0.10    -0.01   0.00   0.07     0.06   0.05  -0.04
     6   6     0.04  -0.01  -0.08    -0.01  -0.04   0.06     0.08   0.05  -0.13
     7   6    -0.01  -0.01  -0.03     0.04  -0.04   0.02     0.04   0.04  -0.09
     8   6    -0.00  -0.00   0.05     0.03   0.01  -0.03     0.05  -0.00   0.01
     9   6     0.06   0.01   0.08    -0.02   0.06  -0.03     0.15  -0.02   0.05
    10   6     0.11   0.00   0.04    -0.07   0.03  -0.00     0.21  -0.01   0.00
    11   6     0.10  -0.01  -0.04    -0.06  -0.02   0.04     0.19   0.03  -0.10
    12  16    -0.07   0.04  -0.08     0.02  -0.04   0.09    -0.04  -0.07   0.10
    13   6     0.06  -0.00   0.23    -0.08   0.02  -0.15    -0.15   0.02  -0.13
    14   1    -0.18   0.07   0.12    -0.25   0.24   0.15    -0.08   0.02   0.02
    15   1    -0.05  -0.00   0.25    -0.02   0.05   0.43    -0.07   0.02   0.03
    16   1     0.04  -0.01  -0.11    -0.05   0.08   0.10     0.18   0.09   0.00
    17   1    -0.06  -0.01  -0.06     0.08  -0.06   0.03    -0.02   0.06  -0.11
    18   1    -0.04  -0.00   0.08     0.07   0.02  -0.05    -0.02  -0.03   0.06
    19   1     0.07   0.02   0.14    -0.03   0.10  -0.06     0.16  -0.04   0.12
    20   1     0.16   0.01   0.06    -0.11   0.06  -0.01     0.28  -0.02   0.03
    21   1     0.14  -0.00  -0.08    -0.10  -0.04   0.07     0.27   0.05  -0.15
    22   1     0.32   0.18   0.37    -0.29  -0.18  -0.29    -0.39  -0.17  -0.27
    23   1    -0.04  -0.24   0.48    -0.01   0.24  -0.36    -0.05   0.23  -0.37
                      7                      8                      9
                      A                      A                      A
 Frequencies --    246.1701               257.1622               309.7409
 Red. masses --      6.6088                 5.4639                 4.2781
 Frc consts  --      0.2360                 0.2129                 0.2418
 IR Inten    --      0.7519                 0.1957                 2.3930
  Atom  AN      X      Y      Z        X      Y      Z        X      Y      Z
     1   8    -0.09   0.06   0.07    -0.02  -0.04   0.03     0.03  -0.00   0.03
     2   6    -0.13   0.02   0.01    -0.04  -0.04  -0.01    -0.01   0.14  -0.05
     3   6    -0.09  -0.06  -0.07    -0.05  -0.06  -0.10    -0.20   0.23   0.01
     4  16    -0.04  -0.13  -0.11    -0.09   0.08  -0.03    -0.11  -0.07  -0.03
     5   6     0.04  -0.08   0.07     0.01   0.05   0.09     0.00  -0.06  -0.02
     6   6     0.09   0.01   0.21     0.04  -0.18   0.02     0.01  -0.03   0.02
     7   6     0.22   0.09   0.17     0.10  -0.24  -0.06     0.02  -0.05   0.00
     8   6     0.22   0.03  -0.02     0.10  -0.03  -0.02     0.02  -0.02  -0.01
     9   6     0.12  -0.09  -0.13     0.06   0.20   0.07     0.00   0.03   0.01
    10   6     0.02   0.01   0.02    -0.01  -0.04  -0.01    -0.01  -0.01  -0.00
    11   6     0.03   0.07   0.21    -0.00  -0.26  -0.04    -0.01  -0.06   0.00
    12  16    -0.08   0.09  -0.09     0.01   0.18   0.04     0.13  -0.09  -0.01
    13   6    -0.09   0.04  -0.01     0.01   0.00  -0.00     0.12   0.17   0.03
    14   1    -0.14  -0.11  -0.07     0.01  -0.16  -0.07    -0.37   0.49  -0.04
    15   1     0.01   0.02  -0.08    -0.07  -0.05  -0.21    -0.14   0.20   0.34
    16   1    -0.05  -0.13   0.03    -0.03   0.10   0.10    -0.02  -0.05  -0.02
    17   1     0.34   0.12   0.24     0.16  -0.34  -0.08     0.04  -0.07  -0.00
    18   1     0.29   0.03  -0.08     0.14   0.02  -0.03     0.03  -0.02  -0.02
    19   1     0.11  -0.21  -0.30     0.05   0.48   0.16     0.00   0.08   0.02
    20   1    -0.09  -0.00  -0.04    -0.06   0.01  -0.01    -0.03  -0.01  -0.01
    21   1    -0.03   0.11   0.28    -0.04  -0.36  -0.07    -0.03  -0.09  -0.00
    22   1    -0.04   0.01  -0.03     0.03  -0.03  -0.02     0.18   0.33   0.14
    23   1    -0.07   0.03  -0.02     0.08  -0.02  -0.04     0.07   0.01   0.18
                     10                     11                     12
                      A                      A                      A
 Frequencies --    361.0972               416.4076               421.5727
 Red. masses --     10.2815                 2.9655                 5.1097
 Frc consts  --      0.7899                 0.3030                 0.5350
 IR Inten    --      0.8116                 0.0718                 1.9316
  Atom  AN      X      Y      Z        X      Y      Z        X      Y      Z
     1   8     0.11  -0.07  -0.05     0.00  -0.01   0.00    -0.22   0.17   0.03
     2   6     0.09  -0.03  -0.07     0.00   0.00  -0.00    -0.07   0.04   0.25
     3   6    -0.00   0.10   0.02     0.00  -0.00  -0.00     0.03  -0.14   0.08
     4  16    -0.08   0.33   0.09     0.00   0.00   0.00    -0.04   0.06   0.01
     5   6    -0.07   0.04  -0.11     0.00  -0.01   0.00     0.02   0.02  -0.07
     6   6     0.02  -0.08   0.13    -0.00  -0.01  -0.01     0.01   0.02   0.04
     7   6     0.15  -0.03   0.09     0.00   0.19   0.10     0.00  -0.03   0.03
     8   6     0.17   0.02  -0.03    -0.00  -0.18  -0.09    -0.00  -0.02  -0.00
     9   6     0.12   0.01  -0.07    -0.00  -0.01  -0.01    -0.03   0.03   0.01
    10   6     0.01  -0.00   0.03     0.00   0.19   0.10    -0.03  -0.01  -0.01
    11   6     0.03  -0.06   0.15    -0.00  -0.18  -0.10    -0.02  -0.03   0.01
    12  16    -0.15  -0.25  -0.13    -0.00   0.00   0.00     0.18  -0.09  -0.11
    13   6    -0.05  -0.10   0.01     0.00   0.00   0.00     0.01   0.04  -0.01
    14   1     0.08   0.19   0.02     0.01  -0.01  -0.00     0.14  -0.58   0.14
    15   1    -0.21  -0.04   0.02     0.00   0.00  -0.02     0.05  -0.03  -0.36
    16   1    -0.27   0.07  -0.14     0.01  -0.00   0.00    -0.06  -0.01  -0.11
    17   1     0.28  -0.05   0.15     0.01   0.42   0.22     0.00  -0.06   0.01
    18   1     0.22   0.04  -0.06    -0.00  -0.38  -0.20     0.02  -0.04  -0.04
    19   1     0.11   0.02  -0.15    -0.00  -0.03  -0.01    -0.03   0.06   0.01
    20   1    -0.11   0.02  -0.02     0.01   0.40   0.21    -0.04  -0.03  -0.03
    21   1    -0.02  -0.06   0.18    -0.01  -0.40  -0.21    -0.05  -0.08   0.01
    22   1     0.02   0.07   0.13     0.00   0.00   0.00     0.02  -0.24  -0.20
    23   1    -0.20  -0.19   0.19     0.00   0.00   0.00    -0.04   0.30  -0.15
                     13                     14                     15
                      A                      A                      A
 Frequencies --    463.4988               508.1108               536.4591
 Red. masses --      3.3856                 3.7857                 4.2073
 Frc consts  --      0.4285                 0.5759                 0.7134
 IR Inten    --     12.7824                 0.6830                 0.1121
  Atom  AN      X      Y      Z        X      Y      Z        X      Y      Z
     1   8     0.06   0.27  -0.05     0.00  -0.05   0.02     0.06  -0.03  -0.16
     2   6     0.04  -0.13  -0.04    -0.02   0.02  -0.03     0.30   0.05   0.22
     3   6    -0.04  -0.04   0.14     0.03   0.01  -0.02     0.08   0.00   0.06
     4  16    -0.05  -0.02  -0.02     0.04  -0.05   0.00    -0.12  -0.05  -0.05
     5   6    -0.02   0.04   0.03    -0.01   0.09   0.04    -0.04  -0.03  -0.00
     6   6    -0.01   0.05   0.02    -0.00   0.30   0.16    -0.02   0.02   0.01
     7   6     0.01   0.00  -0.01    -0.00   0.01  -0.00     0.01   0.01  -0.01
     8   6     0.01  -0.02  -0.02     0.00  -0.14  -0.08     0.01  -0.00  -0.02
     9   6     0.02   0.03   0.02     0.02   0.19   0.10     0.03   0.02   0.00
    10   6     0.01  -0.02  -0.00     0.01  -0.13  -0.07     0.01  -0.02   0.01
    11   6     0.01  -0.02  -0.00     0.01  -0.01  -0.00     0.01  -0.01   0.02
    12  16     0.02   0.02  -0.01    -0.04  -0.04  -0.04    -0.08   0.01   0.02
    13   6    -0.02  -0.22  -0.01    -0.03   0.03  -0.00     0.09   0.09   0.06
    14   1    -0.28   0.40   0.05     0.08  -0.03  -0.00    -0.09  -0.09   0.03
    15   1    -0.16  -0.23   0.61     0.08   0.05  -0.07     0.01  -0.05   0.06
    16   1    -0.01   0.02   0.02    -0.03   0.01   0.01    -0.02  -0.02   0.00
    17   1     0.01  -0.02  -0.02     0.00  -0.22  -0.12     0.03  -0.02  -0.01
    18   1     0.00  -0.07  -0.03    -0.01  -0.43  -0.22    -0.00  -0.03  -0.02
    19   1     0.02   0.06   0.03     0.02   0.30   0.16     0.03   0.02   0.00
    20   1     0.00  -0.05  -0.02    -0.00  -0.41  -0.22    -0.01  -0.04  -0.01
    21   1     0.01  -0.06  -0.03     0.01  -0.27  -0.16     0.02  -0.02  -0.01
    22   1     0.03  -0.22  -0.00    -0.00   0.10   0.05    -0.20  -0.34  -0.24
    23   1     0.04  -0.26  -0.03    -0.05  -0.03   0.06    -0.05   0.68  -0.24
                     16                     17                     18
                      A                      A                      A
 Frequencies --    600.9549               629.1688               684.8066
 Red. masses --      5.9201                 6.3566                 4.2711
 Frc consts  --      1.2597                 1.4825                 1.1801
 IR Inten    --      6.4003                 0.2107                10.8966
  Atom  AN      X      Y      Z        X      Y      Z        X      Y      Z
     1   8     0.02  -0.00  -0.02    -0.00   0.00  -0.00     0.03  -0.03   0.02
     2   6     0.02  -0.02  -0.02     0.01   0.00   0.01    -0.04   0.03  -0.07
     3   6    -0.03  -0.01  -0.02    -0.02   0.00  -0.01     0.25  -0.06   0.19
     4  16    -0.03   0.01   0.01    -0.00   0.04  -0.01    -0.08  -0.08  -0.04
     5   6     0.33   0.06  -0.15     0.03  -0.08   0.10    -0.04   0.28  -0.12
     6   6     0.28   0.01   0.00    -0.01   0.07  -0.13    -0.00   0.02   0.01
     7   6     0.05  -0.09   0.20     0.20   0.12  -0.22     0.04  -0.06  -0.03
     8   6     0.01  -0.10   0.15     0.26  -0.10   0.18     0.06   0.04   0.05
     9   6    -0.30   0.01   0.03     0.01  -0.06   0.13     0.00  -0.07  -0.03
    10   6    -0.09   0.05  -0.13    -0.21  -0.12   0.22    -0.05   0.04   0.07
    11   6    -0.03   0.07  -0.10    -0.25   0.10  -0.18    -0.04  -0.07  -0.01
    12  16    -0.06  -0.00   0.01    -0.00  -0.01  -0.03     0.00  -0.01   0.02
    13   6    -0.01   0.00   0.03     0.00  -0.00  -0.00    -0.06   0.09  -0.07
    14   1    -0.12   0.13  -0.05    -0.02  -0.02  -0.01     0.20  -0.08   0.18
    15   1    -0.03  -0.05   0.15    -0.04  -0.01  -0.03     0.37   0.05   0.12
    16   1     0.34   0.09  -0.14     0.10  -0.08   0.12    -0.08   0.27  -0.13
    17   1    -0.14  -0.07   0.11     0.04   0.14  -0.28     0.04  -0.02  -0.00
    18   1     0.24  -0.05  -0.01     0.12  -0.16   0.26     0.07   0.16   0.11
    19   1    -0.30   0.03   0.00    -0.04   0.11  -0.22    -0.01  -0.02  -0.11
    20   1     0.10  -0.02  -0.08    -0.03  -0.17   0.28    -0.06   0.14   0.12
    21   1    -0.26  -0.03   0.05    -0.11   0.13  -0.27    -0.04  -0.06  -0.00
    22   1    -0.17  -0.10  -0.05     0.03  -0.01  -0.00     0.11   0.40   0.14
    23   1     0.06   0.13  -0.12    -0.03  -0.00   0.02    -0.07  -0.26   0.19
                     19                     20                     21
                      A                      A                      A
 Frequencies --    707.3955               709.6369               730.5609
 Red. masses --      4.1014                 2.3979                 2.2495
 Frc consts  --      1.2092                 0.7115                 0.7074
 IR Inten    --      6.4694                13.7430                53.4325
  Atom  AN      X      Y      Z        X      Y      Z        X      Y      Z
     1   8     0.02  -0.01  -0.00    -0.01   0.01  -0.01    -0.01   0.00  -0.01
     2   6     0.01   0.02  -0.01     0.01  -0.01   0.02     0.02   0.00   0.04
     3   6     0.07  -0.03   0.09    -0.09   0.02  -0.09    -0.08   0.01  -0.07
     4  16    -0.06   0.05  -0.05     0.05  -0.02   0.03     0.04  -0.03   0.02
     5   6     0.08  -0.15   0.34    -0.02   0.08  -0.07     0.01   0.18   0.16
     6   6     0.05   0.08   0.04    -0.01   0.11   0.06     0.01   0.04   0.02
     7   6    -0.03  -0.07  -0.02     0.00  -0.08  -0.05    -0.00  -0.06  -0.03
     8   6    -0.06   0.09   0.05     0.02   0.13   0.06    -0.01  -0.02  -0.00
     9   6    -0.06  -0.06  -0.02     0.01  -0.08  -0.04    -0.01  -0.07  -0.03
    10   6     0.07   0.13  -0.04    -0.02   0.12   0.09     0.01  -0.00  -0.02
    11   6     0.05  -0.02  -0.10    -0.01  -0.09  -0.02     0.00  -0.05  -0.04
    12  16    -0.02  -0.03  -0.06    -0.00  -0.00   0.00    -0.02  -0.04  -0.06
    13   6    -0.03   0.04  -0.06     0.02  -0.03   0.05     0.01  -0.01   0.02
    14   1     0.05  -0.11   0.09    -0.07   0.07  -0.09    -0.08   0.03  -0.07
    15   1     0.07  -0.01   0.01    -0.10  -0.00  -0.02    -0.07   0.00   0.00
    16   1     0.14  -0.14   0.36    -0.04   0.05  -0.09     0.02   0.11   0.13
    17   1    -0.07  -0.28  -0.15     0.01  -0.42  -0.22    -0.01   0.28   0.14
    18   1    -0.03  -0.03  -0.03     0.00  -0.11  -0.05     0.01   0.44   0.23
    19   1    -0.05  -0.35  -0.04     0.01  -0.44  -0.27    -0.00   0.37   0.21
    20   1     0.16  -0.01  -0.08    -0.04  -0.11  -0.04     0.03   0.42   0.22
    21   1     0.02  -0.24  -0.20    -0.01  -0.43  -0.21     0.01   0.25   0.12
    22   1     0.16   0.24   0.08    -0.10  -0.19  -0.06    -0.02  -0.09  -0.04
    23   1    -0.14  -0.17   0.18     0.05   0.15  -0.10    -0.07   0.13  -0.00
                     22                     23                     24
                      A                      A                      A
 Frequencies --    757.5678               806.2587               814.1106
 Red. masses --      4.9480                 2.6851                 3.3921
 Frc consts  --      1.6731                 1.0284                 1.3246
 IR Inten    --      8.8921                 0.8840                 1.3968
  Atom  AN      X      Y      Z        X      Y      Z        X      Y      Z
     1   8     0.03   0.10  -0.01     0.03  -0.01  -0.03    -0.09   0.02   0.06
     2   6    -0.03  -0.07  -0.08     0.06   0.00   0.02    -0.08   0.02   0.05
     3   6    -0.18  -0.23   0.10    -0.08  -0.06  -0.03     0.11   0.18  -0.04
     4  16     0.05   0.01   0.02     0.02  -0.03   0.02    -0.03  -0.02  -0.02
     5   6     0.01   0.03  -0.01    -0.02   0.19   0.11    -0.04   0.10   0.09
     6   6    -0.01  -0.01  -0.00     0.00  -0.18  -0.10     0.00  -0.09  -0.05
     7   6    -0.01   0.01  -0.01     0.00   0.05   0.03     0.01   0.01   0.02
     8   6    -0.01   0.01  -0.01     0.00   0.01   0.01     0.02  -0.01   0.02
     9   6     0.01   0.01   0.00    -0.01   0.09   0.05    -0.02   0.05   0.03
    10   6    -0.01  -0.01   0.02     0.00   0.01  -0.00     0.02   0.02  -0.03
    11   6    -0.00   0.00   0.02     0.00   0.06   0.02     0.01   0.03  -0.01
    12  16    -0.11  -0.04   0.04     0.03  -0.02  -0.04    -0.06  -0.03  -0.00
    13   6     0.32   0.23  -0.17    -0.10   0.06   0.01     0.25  -0.16  -0.06
    14   1    -0.04  -0.31   0.13    -0.12  -0.04  -0.03     0.13   0.14  -0.03
    15   1    -0.27  -0.28  -0.01    -0.09  -0.10   0.07     0.29   0.32  -0.11
    16   1     0.00   0.02  -0.01     0.01   0.17   0.11    -0.03   0.10   0.09
    17   1     0.01   0.00  -0.00    -0.00   0.02   0.02    -0.00   0.02   0.02
    18   1    -0.02  -0.02  -0.01     0.01  -0.39  -0.20     0.04  -0.20  -0.10
    19   1     0.01  -0.02  -0.02    -0.01  -0.44  -0.23    -0.02  -0.24  -0.11
    20   1    -0.03  -0.04  -0.01     0.01  -0.39  -0.21     0.05  -0.19  -0.12
    21   1     0.00  -0.02   0.00    -0.00   0.02   0.01    -0.00   0.03  -0.01
    22   1     0.38   0.30  -0.12    -0.02   0.14   0.07     0.25  -0.33  -0.17
    23   1     0.39  -0.02  -0.06    -0.29   0.07   0.15     0.35  -0.12  -0.18
                     25                     26                     27
                      A                      A                      A
 Frequencies --    833.3520               856.8932               887.1733
 Red. masses --      3.6435                 1.2498                 2.4883
 Frc consts  --      1.4908                 0.5407                 1.1539
 IR Inten    --      0.8539                 0.0072                 2.5231
  Atom  AN      X      Y      Z        X      Y      Z        X      Y      Z
     1   8    -0.02  -0.01   0.04     0.00  -0.00  -0.00     0.02   0.01  -0.04
     2   6    -0.07  -0.03  -0.05     0.00   0.00   0.00     0.09   0.07   0.09
     3   6     0.10  -0.04  -0.04    -0.00   0.00  -0.00    -0.12   0.11   0.05
     4  16    -0.03   0.02  -0.01    -0.00   0.00  -0.00    -0.00  -0.02  -0.01
     5   6     0.29   0.03   0.04     0.00  -0.00  -0.00     0.15   0.02  -0.03
     6   6     0.00  -0.02  -0.01     0.00  -0.00  -0.00     0.04   0.01  -0.01
     7   6    -0.07   0.05  -0.08    -0.00  -0.07  -0.04    -0.02   0.01  -0.02
     8   6    -0.12   0.07  -0.12    -0.00  -0.06  -0.03    -0.05   0.03  -0.05
     9   6     0.10   0.02  -0.01     0.00   0.00   0.00     0.03   0.00  -0.01
    10   6    -0.08  -0.07   0.14     0.00   0.06   0.03    -0.04  -0.04   0.07
    11   6    -0.03  -0.06   0.12     0.00   0.07   0.04    -0.01  -0.03   0.06
    12  16    -0.01  -0.02  -0.04     0.00   0.00   0.00    -0.02   0.01   0.02
    13   6     0.02   0.05   0.08    -0.00  -0.00   0.00    -0.04  -0.12  -0.13
    14   1    -0.13   0.32  -0.12     0.00  -0.00   0.00     0.12  -0.41   0.14
    15   1     0.20  -0.05   0.34    -0.00   0.00  -0.00    -0.13   0.20  -0.44
    16   1     0.36   0.03   0.05     0.01  -0.02  -0.01     0.25   0.07   0.02
    17   1    -0.02   0.05  -0.07     0.01   0.46   0.24    -0.01  -0.01  -0.03
    18   1    -0.28  -0.03  -0.05     0.00   0.42   0.22    -0.11   0.01  -0.02
    19   1     0.09  -0.06  -0.03     0.00  -0.01  -0.01     0.03   0.03  -0.01
    20   1    -0.27  -0.07   0.05    -0.01  -0.43  -0.23    -0.14  -0.00   0.04
    21   1    -0.00  -0.03   0.12    -0.01  -0.44  -0.24    -0.02  -0.04   0.06
    22   1    -0.20  -0.12  -0.05     0.00  -0.00  -0.00     0.27   0.14   0.06
    23   1     0.15   0.21  -0.14    -0.00  -0.00  -0.00    -0.16  -0.40   0.16
                     28                     29                     30
                      A                      A                      A
 Frequencies --    929.3343               940.2875               969.7270
 Red. masses --      1.5464                 1.7719                 1.3552
 Frc consts  --      0.7869                 0.9230                 0.7508
 IR Inten    --      0.8418                 2.3629                 0.0057
  Atom  AN      X      Y      Z        X      Y      Z        X      Y      Z
     1   8     0.04   0.00  -0.01    -0.05  -0.00   0.01    -0.00  -0.00   0.00
     2   6    -0.03   0.01  -0.08     0.04  -0.01   0.10     0.00  -0.00   0.00
     3   6    -0.04   0.03   0.09     0.05  -0.03  -0.11     0.00  -0.00  -0.00
     4  16    -0.00  -0.01  -0.01     0.00   0.01   0.02     0.00   0.00   0.00
     5   6     0.01  -0.02   0.00    -0.00  -0.04  -0.04    -0.00  -0.00  -0.00
     6   6     0.00   0.04   0.02    -0.00   0.06   0.03     0.00   0.01   0.00
     7   6    -0.00  -0.08  -0.04    -0.00  -0.07  -0.04    -0.00   0.07   0.04
     8   6    -0.00   0.02   0.01     0.00   0.01   0.01    -0.00  -0.08  -0.04
     9   6     0.00   0.07   0.04     0.00   0.06   0.03     0.00   0.02   0.01
    10   6     0.00  -0.00  -0.00    -0.00  -0.01  -0.00     0.00   0.08   0.04
    11   6    -0.00  -0.06  -0.04    -0.00  -0.06  -0.03    -0.00  -0.08  -0.05
    12  16     0.00   0.00  -0.01    -0.01   0.00   0.03    -0.00  -0.00   0.00
    13   6     0.01  -0.01   0.08    -0.02   0.02  -0.11    -0.00   0.00  -0.00
    14   1     0.26  -0.15   0.16    -0.33   0.18  -0.20    -0.01   0.00  -0.00
    15   1    -0.09   0.05  -0.23     0.10  -0.08   0.28     0.00  -0.00   0.01
    16   1    -0.01  -0.05  -0.02     0.00  -0.02  -0.03    -0.00   0.01   0.00
    17   1     0.01   0.43   0.23     0.01   0.38   0.20    -0.01  -0.37  -0.19
    18   1    -0.01  -0.09  -0.04     0.00  -0.06  -0.03     0.01   0.48   0.25
    19   1    -0.00  -0.42  -0.22    -0.00  -0.34  -0.18     0.00  -0.11  -0.05
    20   1     0.00   0.01   0.01    -0.00   0.06   0.03    -0.01  -0.42  -0.22
    21   1     0.01   0.36   0.20     0.00   0.29   0.16    -0.00   0.45   0.25
    22   1    -0.26  -0.09   0.02     0.33   0.13  -0.02     0.01   0.01   0.00
    23   1     0.15   0.11  -0.12    -0.17  -0.17   0.15    -0.00  -0.01   0.00
                     31                     32                     33
                      A                      A                      A
 Frequencies --    999.0068              1017.7171              1058.8206
 Red. masses --      1.2623                 6.1982                 2.2318
 Frc consts  --      0.7422                 3.7824                 1.4742
 IR Inten    --      0.0145                 1.5257                 2.6688
  Atom  AN      X      Y      Z        X      Y      Z        X      Y      Z
     1   8    -0.00  -0.00   0.00    -0.00  -0.00   0.00    -0.00   0.00   0.00
     2   6     0.00  -0.00   0.00     0.00  -0.00   0.00    -0.00  -0.00  -0.00
     3   6     0.00  -0.00  -0.00     0.00   0.00  -0.00     0.00   0.00  -0.00
     4  16     0.00   0.00   0.00    -0.00  -0.00   0.00     0.00  -0.00   0.00
     5   6     0.00  -0.01  -0.00     0.01   0.00   0.00    -0.03  -0.00   0.00
     6   6     0.00   0.00   0.00     0.04  -0.00  -0.00     0.03   0.00  -0.00
     7   6    -0.00  -0.03  -0.01    -0.14  -0.17   0.33     0.06  -0.02   0.04
     8   6     0.00   0.06   0.03    -0.04   0.03  -0.07    -0.05   0.08  -0.16
     9   6     0.00  -0.08  -0.04     0.37   0.02  -0.04    -0.16  -0.01   0.01
    10   6     0.00   0.07   0.04    -0.02  -0.04   0.06    -0.00  -0.09   0.17
    11   6    -0.00  -0.04  -0.02    -0.22   0.17  -0.29     0.05   0.03  -0.06
    12  16    -0.00   0.00   0.00    -0.00  -0.00   0.00     0.00  -0.00   0.00
    13   6    -0.00   0.00  -0.00     0.00  -0.00  -0.00     0.00   0.00   0.00
    14   1    -0.01   0.00  -0.00    -0.01   0.00  -0.00     0.01   0.02  -0.00
    15   1    -0.00  -0.00   0.00     0.00  -0.00   0.00    -0.01  -0.01   0.00
    16   1    -0.00  -0.01  -0.01    -0.08   0.01  -0.02    -0.06  -0.01  -0.00
    17   1     0.00   0.21   0.12    -0.08  -0.20   0.36     0.36  -0.09   0.15
    18   1    -0.01  -0.41  -0.21     0.01   0.05  -0.07     0.27   0.19  -0.38
    19   1     0.01   0.50   0.26     0.38  -0.01  -0.04    -0.17   0.00   0.01
    20   1    -0.01  -0.47  -0.25     0.04  -0.00   0.09     0.35  -0.18   0.31
    21   1    -0.00   0.27   0.15    -0.18   0.15  -0.36     0.34   0.13  -0.24
    22   1     0.00   0.01   0.00    -0.00  -0.00  -0.00     0.01  -0.00  -0.00
    23   1    -0.00  -0.01   0.00    -0.00   0.00   0.00    -0.01   0.01   0.00
                     34                     35                     36
                      A                      A                      A
 Frequencies --   1110.5189              1114.3301              1186.7945
 Red. masses --      1.4079                 1.5478                 1.2497
 Frc consts  --      1.0230                 1.1324                 1.0371
 IR Inten    --     16.5365                10.4451                 4.6413
  Atom  AN      X      Y      Z        X      Y      Z        X      Y      Z
     1   8    -0.02   0.01   0.01    -0.01   0.01   0.01    -0.03   0.00   0.00
     2   6    -0.01  -0.13   0.01    -0.00  -0.07   0.01     0.05  -0.05   0.08
     3   6     0.02   0.06  -0.01     0.01   0.03  -0.00     0.03   0.04  -0.03
     4  16    -0.00  -0.01  -0.01    -0.00  -0.01  -0.01    -0.00  -0.01  -0.01
     5   6     0.00  -0.01   0.00     0.00   0.01  -0.02     0.01   0.02   0.02
     6   6     0.00   0.02  -0.03     0.03  -0.02   0.04    -0.01  -0.01  -0.00
     7   6    -0.04  -0.01   0.03     0.09   0.03  -0.05    -0.00   0.00   0.00
     8   6     0.03  -0.01   0.02    -0.06   0.02  -0.05     0.00   0.00   0.00
     9   6     0.00   0.02  -0.04     0.01  -0.04   0.07    -0.00  -0.00   0.00
    10   6    -0.02  -0.01   0.02     0.04   0.02  -0.04    -0.00   0.00  -0.00
    11   6     0.04  -0.01   0.02    -0.09   0.01  -0.02     0.00   0.00  -0.00
    12  16     0.00  -0.00   0.01     0.00   0.00   0.01     0.00  -0.00  -0.01
    13   6    -0.01   0.06  -0.01    -0.01   0.03  -0.01    -0.04   0.04  -0.02
    14   1     0.55   0.33   0.06     0.30   0.17   0.03     0.13   0.10  -0.02
    15   1    -0.32  -0.15  -0.11    -0.17  -0.08  -0.06    -0.33  -0.21  -0.03
    16   1     0.12   0.02   0.04    -0.09   0.03  -0.03    -0.02  -0.18  -0.08
    17   1    -0.20   0.02  -0.03     0.38  -0.03   0.05     0.00  -0.01  -0.00
    18   1     0.11   0.01  -0.03    -0.26  -0.03   0.07     0.02   0.01  -0.01
    19   1    -0.02   0.11  -0.22     0.06  -0.23   0.44     0.00  -0.02   0.03
    20   1    -0.14   0.01  -0.02     0.23  -0.01   0.02    -0.02   0.01  -0.01
    21   1     0.17   0.03  -0.06    -0.40  -0.10   0.17     0.03   0.00  -0.03
    22   1     0.28  -0.09  -0.10     0.15  -0.04  -0.05    -0.37   0.30   0.15
    23   1    -0.30   0.18   0.14    -0.16   0.09   0.07     0.56  -0.39  -0.19
                     37                     38                     39
                      A                      A                      A
 Frequencies --   1194.4707              1214.1731              1218.7554
 Red. masses --      1.1036                 1.3015                 1.8331
 Frc consts  --      0.9277                 1.1305                 1.6042
 IR Inten    --      0.0150                 1.8604                 0.2205
  Atom  AN      X      Y      Z        X      Y      Z        X      Y      Z
     1   8     0.00   0.00  -0.00     0.00   0.00  -0.00    -0.00  -0.00   0.00
     2   6    -0.00   0.00  -0.00     0.00  -0.01   0.00    -0.00   0.01  -0.00
     3   6    -0.00  -0.00   0.00    -0.01   0.00   0.00     0.01  -0.00  -0.00
     4  16    -0.00   0.00   0.00     0.00   0.00  -0.00    -0.00  -0.00   0.00
     5   6     0.01   0.00  -0.00     0.04   0.01  -0.01    -0.07  -0.01   0.02
     6   6    -0.01   0.00  -0.00    -0.13   0.00   0.00     0.21  -0.01   0.01
     7   6    -0.01   0.00  -0.01     0.04  -0.02   0.03     0.05   0.01  -0.01
     8   6     0.04   0.01  -0.02    -0.01  -0.02   0.04    -0.07   0.01  -0.02
     9   6     0.01  -0.03   0.06    -0.01   0.00  -0.00     0.01  -0.00   0.00
    10   6    -0.04   0.01  -0.02    -0.01   0.02  -0.04    -0.09  -0.01   0.03
    11   6     0.00   0.00  -0.01     0.01   0.01  -0.02     0.07   0.02  -0.03
    12  16    -0.00   0.00   0.00     0.00   0.00   0.00    -0.00   0.00   0.00
    13   6     0.00  -0.00   0.00     0.00   0.00  -0.00     0.01  -0.01  -0.00
    14   1    -0.00  -0.00   0.00     0.02   0.00   0.00    -0.02  -0.01  -0.01
    15   1     0.02   0.01  -0.00     0.04   0.04  -0.00    -0.04  -0.04   0.01
    16   1     0.01   0.01   0.00     0.26  -0.04   0.01    -0.49  -0.02  -0.07
    17   1    -0.13   0.03  -0.05     0.60  -0.14   0.24    -0.01   0.02  -0.04
    18   1     0.40   0.13  -0.26    -0.26  -0.10   0.21    -0.46  -0.12   0.24
    19   1     0.08  -0.31   0.59    -0.01  -0.01   0.01    -0.00   0.01  -0.02
    20   1    -0.44   0.09  -0.17    -0.26   0.07  -0.13    -0.54   0.08  -0.13
    21   1     0.15   0.06  -0.10     0.40   0.15  -0.27     0.23   0.07  -0.13
    22   1     0.02  -0.01  -0.01     0.01   0.00  -0.00    -0.02  -0.00   0.00
    23   1    -0.03   0.02   0.01    -0.03   0.01   0.01    -0.01   0.01   0.01
                     40                     41                     42
                      A                      A                      A
 Frequencies --   1224.4090              1245.9817              1266.5176
 Red. masses --      1.2345                 1.5108                 1.5544
 Frc consts  --      1.0904                 1.3819                 1.4691
 IR Inten    --      1.5448                56.6941                22.4769
  Atom  AN      X      Y      Z        X      Y      Z        X      Y      Z
     1   8    -0.01  -0.02   0.01     0.01   0.03  -0.02    -0.02  -0.01   0.00
     2   6    -0.01   0.11  -0.02     0.02  -0.17   0.03     0.03   0.11   0.03
     3   6     0.04  -0.01   0.00    -0.04   0.04  -0.00    -0.08  -0.10  -0.02
     4  16     0.00  -0.01   0.01    -0.00  -0.00   0.01    -0.00   0.00  -0.01
     5   6     0.00  -0.05  -0.02     0.02  -0.05  -0.02     0.07  -0.01  -0.00
     6   6    -0.01   0.01   0.00    -0.01  -0.00   0.03    -0.04  -0.03   0.05
     7   6     0.00  -0.00   0.00    -0.01   0.00  -0.01    -0.02   0.01  -0.02
     8   6     0.00  -0.00   0.00     0.01   0.00  -0.00     0.02   0.00  -0.01
     9   6    -0.00   0.00  -0.00    -0.00  -0.00   0.00    -0.00  -0.00   0.01
    10   6     0.00   0.00  -0.00    -0.00   0.00  -0.01    -0.00   0.01  -0.02
    11   6    -0.00   0.00   0.00     0.01   0.01  -0.01    -0.00   0.01  -0.01
    12  16    -0.00  -0.00  -0.01     0.00  -0.00  -0.01    -0.00   0.01   0.00
    13   6    -0.02  -0.02   0.02    -0.03   0.07   0.01     0.04  -0.06  -0.04
    14   1    -0.02   0.02  -0.01    -0.05  -0.05   0.00     0.62   0.39   0.06
    15   1    -0.41  -0.34   0.02     0.43   0.39  -0.08     0.21   0.05   0.22
    16   1    -0.01   0.71   0.31    -0.21   0.66   0.24    -0.37   0.12  -0.05
    17   1     0.05   0.00   0.03    -0.03   0.03  -0.01    -0.07   0.03  -0.04
    18   1    -0.01  -0.01   0.01    -0.02  -0.01   0.02    -0.01  -0.01   0.02
    19   1    -0.00  -0.00   0.01    -0.01   0.01  -0.02    -0.01   0.01  -0.03
    20   1    -0.01   0.00  -0.01     0.02  -0.00   0.00     0.11  -0.02   0.02
    21   1     0.02   0.01  -0.02     0.06   0.02  -0.05     0.12   0.05  -0.09
    22   1     0.17  -0.14  -0.06    -0.09   0.10   0.03    -0.24   0.16   0.11
    23   1     0.16  -0.07  -0.08     0.16  -0.08  -0.04    -0.11  -0.00   0.04
                     43                     44                     45
                      A                      A                      A
 Frequencies --   1272.1441              1280.1726              1365.4475
 Red. masses --      1.4456                 1.4515                 3.6423
 Frc consts  --      1.3783                 1.4016                 4.0011
 IR Inten    --      4.6124                20.5181                 1.9413
  Atom  AN      X      Y      Z        X      Y      Z        X      Y      Z
     1   8     0.02  -0.01  -0.01     0.02  -0.01  -0.02     0.00   0.00  -0.00
     2   6    -0.00   0.01  -0.01     0.02   0.05   0.02     0.00  -0.00   0.00
     3   6    -0.00   0.02   0.01    -0.07  -0.07  -0.01     0.00   0.00  -0.00
     4  16    -0.00  -0.00  -0.00     0.00   0.01  -0.01     0.00  -0.00   0.00
     5   6     0.10   0.03   0.01    -0.09  -0.00   0.00     0.04  -0.00   0.01
     6   6    -0.06  -0.05   0.07     0.05   0.03  -0.06    -0.03   0.06  -0.12
     7   6    -0.03   0.02  -0.03     0.02  -0.01   0.02     0.22  -0.04   0.07
     8   6     0.03   0.00  -0.01    -0.03  -0.00   0.01    -0.14  -0.04   0.09
     9   6    -0.00  -0.01   0.01     0.00   0.01  -0.01    -0.03   0.11  -0.20
    10   6    -0.01   0.01  -0.02     0.00  -0.01   0.02     0.16  -0.03   0.05
    11   6     0.00   0.01  -0.02     0.00  -0.01   0.01    -0.20  -0.06   0.11
    12  16    -0.00  -0.01   0.01     0.00  -0.01  -0.00    -0.00   0.00   0.00
    13   6    -0.09   0.05   0.04    -0.08   0.03   0.04    -0.00   0.00  -0.00
    14   1    -0.06  -0.07   0.01     0.36   0.21   0.05    -0.01  -0.01  -0.00
    15   1    -0.02   0.01  -0.02     0.33   0.18   0.15    -0.00   0.00  -0.00
    16   1    -0.49  -0.22  -0.23     0.37  -0.08   0.08    -0.35   0.00  -0.07
    17   1    -0.09   0.02  -0.06     0.06  -0.02   0.04    -0.44   0.10  -0.18
    18   1    -0.02  -0.01   0.03     0.01   0.01  -0.02    -0.02  -0.01   0.01
    19   1    -0.01   0.02  -0.04     0.01  -0.01   0.02     0.05  -0.18   0.34
    20   1     0.15  -0.02   0.03    -0.13   0.02  -0.02     0.05  -0.00   0.01
    21   1     0.17   0.07  -0.13    -0.13  -0.05   0.11     0.38   0.14  -0.27
    22   1     0.54  -0.33  -0.20     0.37  -0.20  -0.12     0.01  -0.02  -0.01
    23   1     0.24  -0.12  -0.11     0.40  -0.20  -0.18    -0.01  -0.02   0.01
                     46                     47                     48
                      A                      A                      A
 Frequencies --   1375.5495              1456.3033              1479.0909
 Red. masses --      1.3410                 1.0768                 1.1083
 Frc consts  --      1.4950                 1.3456                 1.4286
 IR Inten    --      3.1178                10.8874                12.9727
  Atom  AN      X      Y      Z        X      Y      Z        X      Y      Z
     1   8    -0.00  -0.00   0.00    -0.01   0.00   0.00    -0.01   0.00   0.00
     2   6    -0.00   0.00  -0.00     0.00  -0.01   0.00    -0.00  -0.02  -0.01
     3   6     0.00  -0.00   0.00     0.00  -0.00   0.00    -0.01   0.07  -0.06
     4  16     0.00   0.00  -0.00     0.00  -0.00   0.00    -0.00   0.00  -0.00
     5   6    -0.05   0.01  -0.03     0.00   0.00   0.00    -0.00  -0.00  -0.00
     6   6     0.03  -0.05   0.11    -0.00  -0.00   0.00     0.00   0.00  -0.00
     7   6     0.02  -0.00   0.00     0.00   0.00  -0.00    -0.00  -0.00   0.00
     8   6     0.05   0.02  -0.05    -0.00  -0.00   0.00     0.00  -0.00   0.00
     9   6     0.00   0.01  -0.02     0.00  -0.00   0.00     0.00   0.00  -0.00
    10   6    -0.06   0.02  -0.03     0.01  -0.00   0.00    -0.00   0.00  -0.00
    11   6    -0.02  -0.00   0.00    -0.00   0.00  -0.00     0.00  -0.00   0.00
    12  16     0.00  -0.00  -0.00    -0.00  -0.00   0.00     0.00   0.00   0.00
    13   6     0.00  -0.00   0.00    -0.03  -0.07   0.00     0.00  -0.00   0.00
    14   1    -0.00   0.00  -0.00    -0.03   0.03  -0.01     0.31  -0.64   0.08
    15   1     0.00   0.00  -0.00    -0.01   0.00  -0.05    -0.00  -0.10   0.69
    16   1     0.50  -0.01   0.10    -0.02  -0.01  -0.00     0.00   0.02   0.01
    17   1    -0.41   0.09  -0.16     0.00   0.00  -0.00     0.00  -0.00   0.00
    18   1    -0.31  -0.09   0.19     0.01   0.00  -0.01    -0.00  -0.00   0.00
    19   1     0.03  -0.12   0.22    -0.00   0.01  -0.01     0.00  -0.00   0.00
    20   1     0.35  -0.07   0.12    -0.01   0.00  -0.01     0.00  -0.00   0.00
    21   1     0.33   0.12  -0.22     0.00   0.00  -0.00    -0.00  -0.00   0.00
    22   1     0.00   0.02   0.01     0.38   0.49   0.36     0.02   0.03   0.02
    23   1     0.02   0.01  -0.02     0.11   0.49  -0.47    -0.01   0.05  -0.02
                     49                     50                     51
                      A                      A                      A
 Frequencies --   1501.7188              1543.6811              1644.1007
 Red. masses --      2.1861                 2.1824                 5.4477
 Frc consts  --      2.9046                 3.0641                 8.6759
 IR Inten    --      9.5040                 8.6556                 0.9094
  Atom  AN      X      Y      Z        X      Y      Z        X      Y      Z
     1   8    -0.00   0.00  -0.00    -0.00   0.00   0.00    -0.00   0.00   0.00
     2   6     0.00  -0.00   0.00     0.00  -0.00  -0.00     0.00  -0.00  -0.00
     3   6    -0.00  -0.00   0.00    -0.00  -0.00   0.00    -0.00  -0.00   0.00
     4  16     0.00  -0.00   0.00    -0.00   0.00   0.00     0.00  -0.00   0.00
     5   6     0.02  -0.01   0.03    -0.03  -0.00   0.01     0.01  -0.01   0.03
     6   6    -0.02   0.08  -0.15     0.14   0.01  -0.02    -0.04   0.14  -0.26
     7   6    -0.08  -0.03   0.06    -0.09   0.04  -0.08     0.13  -0.08   0.15
     8   6     0.14   0.00  -0.01    -0.09  -0.05   0.10     0.04   0.10  -0.19
     9   6    -0.02   0.06  -0.11     0.10   0.01  -0.01     0.04  -0.17   0.32
    10   6    -0.13  -0.01   0.03    -0.12   0.05  -0.08    -0.09   0.09  -0.17
    11   6     0.10  -0.02   0.04    -0.06  -0.05   0.10    -0.07  -0.09   0.17
    12  16     0.00   0.00   0.00    -0.00  -0.00  -0.00     0.00   0.00   0.00
    13   6    -0.00  -0.00   0.00    -0.00   0.00   0.00    -0.00  -0.00   0.00
    14   1    -0.00   0.01  -0.00    -0.00   0.00  -0.00    -0.00   0.00  -0.00
    15   1     0.00   0.00  -0.01     0.00   0.00  -0.00     0.01   0.00  -0.00
    16   1    -0.27   0.00  -0.04    -0.05  -0.00  -0.00    -0.22  -0.00  -0.03
    17   1     0.15  -0.09   0.16     0.45  -0.06   0.11    -0.31   0.01  -0.00
    18   1    -0.27  -0.14   0.28     0.40   0.10  -0.21    -0.25   0.01  -0.02
    19   1     0.07  -0.29   0.55     0.12  -0.00  -0.00    -0.06   0.23  -0.44
    20   1     0.29  -0.11   0.20     0.47  -0.08   0.13     0.23   0.03  -0.07
    21   1    -0.12  -0.11   0.20     0.40   0.10  -0.19     0.28   0.03  -0.05
    22   1     0.02   0.02   0.01     0.00  -0.00  -0.00     0.01   0.00   0.00
    23   1     0.00   0.02  -0.02     0.00  -0.00  -0.00     0.00   0.00  -0.01
                     52                     53                     54
                      A                      A                      A
 Frequencies --   1661.4791              1817.5118              3066.2238
 Red. masses --      5.5165                11.7109                 1.0589
 Frc consts  --      8.9723                22.7927                 5.8656
 IR Inten    --      0.7861               219.1768                 9.5717
  Atom  AN      X      Y      Z        X      Y      Z        X      Y      Z
     1   8     0.00  -0.00  -0.00    -0.43   0.02   0.28    -0.00  -0.00   0.00
     2   6    -0.00  -0.00   0.00     0.64  -0.03  -0.43     0.00  -0.00  -0.00
     3   6     0.00   0.00  -0.00    -0.03  -0.00   0.04    -0.00   0.00  -0.00
     4  16     0.00  -0.00   0.00    -0.00  -0.00  -0.00    -0.00   0.00   0.00
     5   6     0.02   0.00  -0.00    -0.00   0.00  -0.00     0.00   0.00  -0.01
     6   6    -0.20  -0.01   0.02    -0.00  -0.00   0.00    -0.00   0.00  -0.00
     7   6     0.30  -0.02   0.04     0.00   0.00  -0.00    -0.00  -0.00   0.00
     8   6    -0.27  -0.05   0.10    -0.00  -0.00   0.00     0.00  -0.00   0.00
     9   6     0.14   0.01  -0.02     0.00   0.00  -0.00     0.00  -0.00   0.00
    10   6    -0.29   0.02  -0.03    -0.00  -0.00   0.00    -0.00   0.00  -0.00
    11   6     0.28   0.05  -0.11     0.00   0.00  -0.00    -0.00  -0.00   0.00
    12  16     0.00   0.00   0.00    -0.00   0.00   0.00     0.00  -0.00   0.00
    13   6     0.00  -0.00  -0.00    -0.03   0.01   0.03     0.03   0.06  -0.00
    14   1     0.00  -0.00   0.00    -0.12  -0.11   0.02    -0.01   0.00   0.03
    15   1    -0.00  -0.00  -0.00     0.17   0.14  -0.12     0.01  -0.01  -0.00
    16   1     0.01   0.01  -0.00     0.01  -0.02  -0.01    -0.01  -0.03   0.06
    17   1    -0.32   0.11  -0.19    -0.00   0.00  -0.00     0.00   0.00  -0.00
    18   1     0.22   0.12  -0.23     0.00   0.00  -0.00     0.00   0.00  -0.00
    19   1     0.16  -0.00  -0.01     0.00  -0.00   0.00    -0.00  -0.00   0.00
    20   1     0.28  -0.11   0.19     0.00  -0.00   0.00    -0.00  -0.00   0.00
    21   1    -0.28  -0.14   0.27    -0.00  -0.00   0.00    -0.00  -0.00  -0.00
    22   1    -0.00   0.00   0.00     0.10  -0.13  -0.09    -0.00  -0.34   0.54
    23   1    -0.00   0.00   0.00     0.02  -0.03   0.01    -0.41  -0.35  -0.54
                     55                     56                     57
                      A                      A                      A
 Frequencies --   3087.7877              3091.6521              3115.5226
 Red. masses --      1.0594                 1.0867                 1.1049
 Frc consts  --      5.9515                 6.1197                 6.3188
 IR Inten    --      6.2700                 7.1117                 2.2617
  Atom  AN      X      Y      Z        X      Y      Z        X      Y      Z
     1   8    -0.00   0.00  -0.00    -0.00  -0.00   0.00    -0.00  -0.00   0.00
     2   6    -0.00  -0.00  -0.00    -0.00   0.00  -0.00     0.00  -0.00  -0.00
     3   6    -0.01   0.03  -0.06     0.00  -0.00   0.00    -0.00   0.00  -0.00
     4  16    -0.00  -0.00   0.00    -0.00   0.00   0.00     0.00   0.00   0.00
     5   6     0.00   0.00  -0.00     0.02   0.03  -0.08    -0.00  -0.00   0.00
     6   6    -0.00  -0.00   0.00    -0.00   0.00  -0.00     0.00  -0.00   0.00
     7   6     0.00   0.00   0.00    -0.00  -0.00   0.00     0.00   0.00  -0.00
     8   6    -0.00   0.00  -0.00     0.00   0.00  -0.00     0.00  -0.00   0.00
     9   6    -0.00  -0.00  -0.00    -0.00  -0.00   0.00    -0.00   0.00  -0.00
    10   6    -0.00  -0.00   0.00    -0.00   0.00  -0.00     0.00  -0.00   0.00
    11   6    -0.00   0.00  -0.00    -0.00  -0.00   0.00    -0.00  -0.00  -0.00
    12  16     0.00  -0.00   0.00     0.00  -0.00   0.00    -0.00  -0.00   0.00
    13   6    -0.00  -0.00   0.00    -0.00  -0.00  -0.00    -0.03   0.01  -0.09
    14   1    -0.16   0.09   0.85     0.00  -0.00  -0.01    -0.00  -0.00   0.00
    15   1     0.28  -0.39  -0.10    -0.01   0.01   0.00     0.00  -0.00  -0.00
    16   1    -0.00  -0.01   0.01    -0.21  -0.39   0.89     0.01   0.02  -0.04
    17   1     0.00  -0.00  -0.00     0.01   0.01  -0.02    -0.00  -0.00   0.00
    18   1     0.00  -0.00   0.00     0.00  -0.00   0.00    -0.00   0.00  -0.00
    19   1     0.00   0.00  -0.00     0.00  -0.00   0.00     0.00   0.00  -0.00
    20   1     0.00   0.00  -0.00     0.00  -0.00   0.00    -0.00  -0.00   0.00
    21   1     0.00  -0.00   0.00     0.00  -0.00   0.00    -0.00   0.00  -0.00
    22   1     0.00   0.02  -0.02    -0.01   0.00  -0.01    -0.02  -0.43   0.63
    23   1     0.01   0.01   0.02     0.05   0.04   0.06     0.35   0.31   0.43
                     58                     59                     60
                      A                      A                      A
 Frequencies --   3161.0926              3180.8014              3188.4553
 Red. masses --      1.1059                 1.0863                 1.0874
 Frc consts  --      6.5106                 6.4754                 6.5136
[...]
 0129549,-0.05518134,-0.00313834,0.00305301,0.00222204,0.00452384,-0.00
 062472,0.00019916,-0.00081731,0.00016360,0.00005967,-0.00006601,-0.000
 07027,-0.00002641,0.00000796,-0.00001156,-0.00000269,-0.00001242,-0.00
 001106,0.00000823,0.00001741,0.00000793,-0.00001919,-0.00002334,-0.000
 00009,0.00001665,0.00012045,0.00069588,-0.00149022,-0.00055548,0.00087
 493,-0.00045986,0.00309771,0.00054352,0.05037321,0.00032125,0.00014604
 ,-0.00117927,-0.00019765,0.00008404,0.00284559,-0.14519407,-0.00161874
 ,-0.18398655,-0.00249420,0.00254167,-0.02487855,-0.00149665,0.00163568
 ,-0.00039978,-0.00020518,0.00036822,0.00016954,-0.00001905,-0.00003855
 ,-0.00001782,-0.00005468,-0.00000846,0.00003124,-0.00000064,0.00004164
 ,0.00005643,0.00006287,0.00001856,-0.00003589,-0.00003690,-0.00008163,
 -0.00004048,0.00021754,0.00013641,0.00165103,-0.00018586,-0.00042891,-
 0.00029148,0.14625154,-0.00304479,0.20115976,0.00132103,0.00160320,0.0
 0021336,0.01249399,-0.01727670,-0.00274551,-0.15385692,0.13902385,0.01
 217432,-0.00557710,0.00809302,0.00226152,-0.00108124,-0.00108818,0.000
 95462,-0.00020887,0.00076587,0.00026804,-0.00019767,-0.00000978,-0.000
 09727,-0.00000956,-0.00005626,0.00005414,-0.00002518,0.00001272,0.0000
 2677,0.00002187,-0.00000281,0.00002792,0.00002147,0.00006455,0.0000420
 7,-0.00025122,0.00036923,0.00064430,-0.00255364,-0.00239117,0.00032607
 ,-0.01078076,0.01608877,0.00297200,0.16024141,0.00021918,0.00550592,0.
 00059228,0.02094362,-0.02481399,-0.00278018,0.13213278,-0.21911785,-0.
 02045784,-0.00202926,0.00469250,-0.00049853,-0.00150770,-0.00037369,0.
 00120363,-0.00001168,0.00073043,0.00010754,-0.00020437,-0.00001842,0.0
 0005358,0.00002745,-0.00005384,0.00005567,-0.00003011,0.00000851,0.000
 02096,0.00001576,-0.00000756,-0.00000043,-0.00004090,-0.00000455,0.000
 03810,-0.00085164,0.00020623,0.00029578,-0.00353888,-0.00286506,-0.000
 37618,-0.00165029,0.00172037,0.00068812,-0.14403445,0.23593006,-0.0002
 3670,0.00075806,-0.00106601,0.00003225,-0.00073099,-0.00018811,0.01381
 040,-0.02351659,-0.04755803,0.01333238,-0.01966069,-0.00535648,0.00301
 367,0.00342101,-0.00457015,0.00027563,-0.00186839,-0.00036143,0.000464
 47,0.00002512,0.00015988,0.00003645,0.00017239,-0.00013370,0.00005769,
 -0.00004526,-0.00007956,-0.00005104,0.00003996,-0.00002128,0.00001521,
 -0.00014410,-0.00019421,-0.00040908,0.00145606,0.00025055,-0.00001759,
 0.00035389,0.00202005,-0.01327699,0.01927275,0.00476280,-0.01708396,0.
 02088904,0.05243362,-0.00037381,-0.00036016,-0.00018699,0.00043769,0.0
 0054728,0.00044216,0.00039006,0.00039102,-0.00037909,0.00520734,0.0131
 7002,0.00791888,-0.15911647,-0.08584502,-0.10060238,-0.02083258,-0.014
 36079,-0.01692669,0.00075945,-0.00127327,-0.00230062,-0.00004139,0.000
 11508,0.00038834,0.00024655,0.00018142,0.00016153,-0.00028958,-0.00114
 559,-0.00122144,-0.00398269,0.00078705,0.00426245,0.00041096,-0.000555
 76,-0.00017077,0.00127642,0.00104429,0.00127461,-0.00005785,-0.0001155
 3,0.00013582,0.00001622,-0.00004595,0.00010285,0.17543450,0.00041416,0
 .00094662,0.00018393,-0.00097305,-0.00236572,-0.00042941,-0.00019570,-
 0.00017398,0.00007416,-0.00311246,-0.02178718,-0.01282305,-0.09190194,
 -0.10052248,-0.08117995,-0.00346272,-0.00066223,-0.00258215,0.00174899
 ,-0.00012841,-0.00044964,0.00000038,-0.00013142,0.00023203,0.00007028,
 0.00006888,-0.00000710,-0.00005058,-0.00003924,-0.00021031,-0.00043954
 ,0.00148341,0.00012662,0.00946222,0.00336860,0.01935556,0.00183434,0.0
 0098973,-0.00127600,0.00012487,-0.00021606,-0.00041465,-0.00013148,0.0
 0010536,-0.00030521,0.08668919,0.11870792,0.00031125,-0.00006425,0.000
 20236,0.00041018,-0.00028698,-0.00090580,0.00032036,0.00007323,0.00004
 468,-0.00035449,-0.00462277,0.00109707,-0.11030591,-0.08451646,-0.1446
 8067,0.01175803,0.00683376,0.00920425,0.00239899,0.00126919,0.00040998
 ,-0.00010897,-0.00009121,0.00021526,0.00014969,0.00002446,0.00013574,0
 .00053787,0.00041527,0.00033835,0.00253331,-0.00069691,-0.00152625,-0.
 01423253,0.00130641,-0.02346090,-0.00102131,-0.00078400,0.00248504,-0.
 00022451,0.00017662,0.00023189,-0.00001859,0.00002117,-0.00004771,0.10
 674998,0.08025841,0.15639218,0.00005416,0.00000430,0.00000592,-0.00005
 950,-0.00000665,-0.00000795,0.00003546,0.00006469,0.00003538,-0.000002
 42,-0.00007903,0.00011023,0.00055716,0.00203852,0.00091197,0.00463295,
 0.00210686,0.00277766,-0.21466569,-0.10998111,-0.08570799,-0.01687148,
 -0.01487762,-0.01424086,-0.00285593,-0.00066517,0.00486239,-0.00000038
 ,0.00046458,0.00065282,0.00140250,-0.00050647,0.00177190,0.00018653,-0
 .00001332,-0.00006763,-0.00003248,0.00009513,-0.00011869,-0.00000627,0
 .00000019,0.00000387,0.00000318,-0.00000343,-0.00000035,0.00030468,-0.
 00001515,-0.00011994,0.22737266,0.00002175,0.00001586,0.00001827,-0.00
 002149,-0.00005446,-0.00000723,0.00018613,-0.00016024,0.00002345,0.000
 16698,0.00014093,-0.00033635,-0.00033537,-0.00252385,0.00207762,-0.011
 56569,-0.00422942,-0.00560468,-0.10986764,-0.11191069,-0.06836137,0.00
 034347,0.00231533,-0.00063333,-0.00129542,0.00539665,-0.00213172,0.000
 48590,-0.00005813,0.00005269,0.00014661,0.00327398,-0.00465655,-0.0001
 2316,-0.00005499,0.00046783,0.00002761,-0.00006203,0.00012960,-0.00003
 448,-0.00001407,0.00003693,0.00002232,0.00002049,-0.00006721,0.0008699
 4,0.00058310,-0.00008135,0.12062829,0.11025668,-0.00005836,0.00001451,
 0.00001385,0.00006847,-0.00002605,-0.00000716,-0.00004352,0.00016017,-
 0.00001536,-0.00006654,0.00035448,0.00036428,-0.00261634,0.00081984,-0
 .00054771,-0.02186103,-0.01359711,-0.00779334,-0.08512000,-0.06855513,
 -0.10452578,0.01200307,0.00836581,0.00999473,0.00366829,-0.00246477,0.
 00051699,0.00075875,0.00002948,-0.00066212,0.00303378,-0.00413265,-0.0
 0311347,0.00025333,0.00003651,0.00008165,0.00001713,0.00004806,-0.0001
 4913,-0.00001693,-0.00002307,0.00001355,-0.00001378,-0.00002029,0.0000
 4553,0.00127472,0.00011349,-0.00010736,0.09036580,0.07718510,0.1061106
 5,-0.00007107,0.00000177,-0.00000825,0.00009115,0.00000072,-0.00000066
 ,-0.00007534,0.00008708,-0.00001854,-0.00008712,-0.00005645,0.00013515
 ,0.00024681,0.00060584,0.00104982,-0.00403240,-0.00250849,0.00247023,0
 .00074993,0.01421234,0.02602278,-0.06283383,0.01016466,0.03412871,0.00
 777849,-0.01112524,-0.02278673,-0.00320080,-0.00381175,-0.00063999,-0.
 00125490,-0.00030808,-0.00008641,-0.00017855,0.00004925,-0.00003861,0.
 00002840,-0.00004900,0.00009354,0.00000358,-0.00000924,-0.00000587,-0.
 00001707,-0.00001526,0.00003958,-0.00002091,0.00000553,-0.00000563,0.0
 0063686,0.00099073,-0.00096749,0.06130035,0.00003526,-0.00002694,0.000
 00121,-0.00004259,0.00005916,-0.00000007,-0.00003635,-0.00000528,0.000
 00926,-0.00013006,0.00007927,0.00004680,-0.00015227,0.00021463,0.00000
 518,-0.00191329,0.00535644,-0.00198986,-0.00068787,0.00329901,0.002350
 72,0.01017255,-0.10105030,-0.12192287,0.00380203,-0.00388495,-0.013699
 78,-0.00444542,0.00381255,-0.00297582,-0.00028784,-0.00032403,0.000430
 44,0.00010721,-0.00001393,-0.00001142,-0.00001618,0.00003403,-0.000032
 00,-0.00000112,-0.00000012,0.00000171,-0.00000266,-0.00000169,0.000005
 96,0.00001140,-0.00001646,0.00001575,0.00130113,-0.00242052,0.00177357
 ,-0.00928798,0.09821509,0.00010331,0.00001703,0.00000808,-0.00010897,-
 0.00005169,-0.00000340,0.00009658,-0.00005727,0.00002052,0.00013331,0.
 00003224,-0.00013481,-0.00030416,-0.00039168,-0.00024988,0.00341386,-0
 .00157132,0.00224254,-0.00038147,-0.00659540,-0.00919833,0.03421899,-0
 .12197673,-0.27181916,0.00360966,-0.00472946,-0.00795477,-0.00173178,-
 0.00333560,0.00212725,-0.00016436,0.00049136,0.00048439,0.00006206,-0.
 00004349,0.00002556,-0.00004564,0.00000161,-0.00005545,-0.00000866,0.0
 0000959,0.00000372,0.00001915,0.00001514,-0.00004398,0.00001136,0.0000
 1195,-0.00003372,-0.00045423,0.00194093,-0.00014518,-0.03780866,0.1343
 2739,0.28569026,-0.00007757,0.00000350,0.00000048,0.00008176,0.0000073
 3,-0.00000092,-0.00001815,0.00003566,-0.00000336,-0.00003178,0.0000035
 7,0.00005630,-0.00000125,0.00023296,-0.00015388,0.00034227,-0.00015345
 ,-0.00070914,-0.00114169,-0.00419205,-0.00236963,-0.01684620,0.0007122
 6,0.01295574,-0.27902593,-0.01636046,0.11644024,0.00012233,-0.00088212
 ,-0.00008038,0.00207936,-0.00101536,0.00120925,0.00000590,0.00004398,-
 0.00001781,0.00002388,-0.00000834,-0.00001551,0.00000119,-0.00000773,0
 .00000424,-0.00001035,-0.00000610,0.00002070,0.00003406,0.00000630,0.0
 0000362,-0.00095936,0.00000165,0.00070959,0.00059832,0.00105298,-0.000
 83786,0.29448801,0.00000232,0.00000515,0.00000011,-0.00000848,-0.00002
 262,0.00001091,-0.00000532,-0.00005429,-0.00001961,0.00001607,0.000027
 52,-0.00005768,0.00020314,-0.00065526,0.00046053,-0.00008240,-0.000700
 58,-0.00045585,-0.00365186,0.00352915,-0.00439671,-0.01415689,0.002715
 31,0.00861870,-0.01637973,-0.04411761,-0.00420669,0.01410334,0.0038346
 5,-0.00624668,-0.00163476,0.00354862,-0.00515287,-0.00007195,-0.000064
 84,0.00014887,0.00000620,0.00001206,0.00007862,-0.00000122,-0.00000223
 ,-0.00000158,0.00000555,0.00000416,-0.00001517,0.00008222,0.00004740,0
 .00002892,-0.00079374,0.00017571,0.00032977,0.00139091,-0.00240903,0.0
 0182247,0.01939387,0.03628436,0.00005468,0.00000226,0.00000255,-0.0000
 4581,-0.00001120,-0.00001256,0.00000308,0.00005854,0.00002735,0.000049
 28,0.00002830,0.00006609,-0.00009959,0.00041627,-0.00013092,-0.0008403
 2,-0.00045508,-0.00073859,-0.00133727,-0.00412858,0.00077850,-0.013474
 67,-0.00035763,0.01006215,0.11652604,-0.00428811,-0.11347820,0.0261776
 3,0.00295278,-0.00795156,0.00030345,-0.00549853,-0.00275644,0.00003828
 ,0.00001542,-0.00005807,-0.00001992,0.00001527,-0.00001461,-0.00001503
 ,0.00000042,0.00000635,0.00000086,-0.00000153,0.00000610,0.00007063,0.
 00000060,-0.00004381,-0.00074699,-0.00014622,0.00044000,-0.00023477,0.
 00202675,-0.00019121,-0.12681437,0.00742824,0.11445538,-0.00008648,0.0
 0001988,0.00000066,0.00010048,-0.00003822,-0.00000284,-0.00005910,0.00
 005661,-0.00004409,0.00007587,-0.00002221,0.00004331,-0.00045550,-0.00
 094620,-0.00111528,-0.00262675,-0.00070175,0.00472808,-0.00008928,0.00
 052361,0.00085990,0.00148026,-0.00069534,0.00192055,0.00712827,0.00336
 926,0.00315404,-0.21698597,-0.11092980,-0.08641714,-0.01714652,-0.0146
 6950,-0.01394274,-0.00001888,0.00011314,-0.00014386,0.00003065,-0.0000
 0917,0.00009070,-0.00000440,-0.00002209,0.00000763,-0.00001819,-0.0000
 1021,0.00003309,-0.00047338,-0.00002224,0.00023033,-0.00009245,0.00021
 828,-0.00027686,0.00029518,0.00014531,0.00027589,0.00043598,0.00088574
 ,-0.00095067,0.22784704,-0.00002672,-0.00000468,0.00000137,0.00003594,
 0.00001603,-0.00000230,-0.00001635,0.00001454,0.00000577,0.00009951,-0
 .00013980,-0.00002868,-0.00000866,0.00035766,-0.00015614,-0.00112099,0
 .00567701,-0.00239510,0.00051442,-0.00005008,-0.00006388,-0.00012697,0
 .00396912,-0.00486969,-0.01167510,-0.00401762,-0.00449953,-0.11103470,
 -0.11357258,-0.06941750,0.00019211,0.00228386,-0.00052296,-0.00007581,
 -0.00000785,0.00007543,0.00003135,-0.00003805,0.00001585,-0.00000234,-
 0.00000138,0.00000017,-0.00000464,-0.00000251,0.00001311,0.00002447,-0
 .00011068,0.00008457,0.00022187,-0.00084297,0.00050473,-0.00069040,-0.
 00011282,-0.00033636,0.00123688,-0.00230940,0.00182415,0.12145960,0.11
 138661,-0.00002225,0.00000075,-0.00000208,0.00001113,0.00000401,0.0000
 0756,-0.00000453,-0.00000266,-0.00000608,-0.00014083,0.00008843,0.0000
 5083,0.00065430,0.00024870,0.00052433,0.00354844,-0.00265005,0.0006357
 0,0.00088192,-0.00000930,-0.00068316,0.00299482,-0.00451713,-0.0029194
 1,-0.02314396,-0.01352060,-0.00729665,-0.08651783,-0.06932177,-0.10559
 292,0.01222430,0.00836171,0.00990243,-0.00001418,-0.00001394,0.0000003
 2,-0.00000173,0.00000895,-0.00000352,0.00001026,0.00000187,-0.00000456
 ,-0.00000152,-0.00000121,-0.00000017,0.00022068,0.00010327,-0.00014448
 ,-0.00029157,0.00050980,-0.00015118,-0.00119045,-0.00081902,-0.0004369
 5,-0.00034573,0.00203458,-0.00001467,0.09212625,0.07764042,0.10638392,
 0.00019882,0.00009595,0.00000536,-0.00020046,-0.00026303,-0.00000908,-
 0.00009294,0.00023083,0.00010333,-0.00061410,0.00016187,0.00019037,0.0
 0044312,0.00039062,-0.00093159,0.00798919,-0.01094859,-0.02178260,-0.0
 0351470,-0.00356336,-0.00068846,-0.00112116,-0.00028883,-0.00012233,-0
 .00429230,-0.00240507,0.00257412,0.00096101,0.01416873,0.02569162,-0.0
 6336878,0.01186927,0.03621735,-0.00002948,-0.00018717,0.00002686,-0.00
 005960,0.00009970,0.00006096,-0.00010779,0.00001179,0.00003793,0.00001
 472,-0.00000311,0.00002630,0.00019671,0.00020049,-0.00005315,0.0002870
 7,-0.00082609,-0.00119384,0.00009578,0.00034159,-0.00013983,-0.0000802
 7,0.00070516,0.00132310,0.00069725,0.00098837,-0.00098772,0.06254751,0
 .00008378,-0.00013250,-0.00001225,-0.00006362,0.00024983,0.00002365,-0
 .00017122,-0.00022324,-0.00008504,0.00072711,0.00017549,0.00008521,0.0
 0148223,-0.00180352,0.00069994,0.00318039,-0.00413963,-0.01419466,-0.0
 0417743,0.00318263,-0.00232858,-0.00013186,-0.00022084,0.00040643,-0.0
 0205563,0.00531823,-0.00214379,-0.00097305,0.00423656,0.00245508,0.011
 74264,-0.10636927,-0.12528502,-0.00067540,-0.00073745,0.00014031,-0.00
 005512,0.00017270,0.00069328,-0.00001676,0.00005071,0.00000476,0.00002
 099,-0.00000054,0.00000692,0.00016084,-0.00021778,0.00009437,0.0000320
 6,0.00011403,-0.00093276,0.00035416,-0.00080567,0.00043014,-0.00011137
 ,0.00014250,0.00012551,0.00126014,-0.00249733,0.00185648,-0.01076706,0
 .10350865,0.00007534,0.00008972,0.00002911,-0.00002908,-0.00023572,-0.
 00010929,0.00000999,0.00038468,0.00017063,0.00061234,0.00020660,0.0002
 9631,0.00034195,0.00083169,-0.00095481,0.00249691,-0.00587547,-0.00815
 842,-0.00158406,-0.00309708,0.00194211,-0.00019536,0.00042555,0.000448
 31,0.00353347,-0.00187648,0.00230635,-0.00002505,-0.00663073,-0.008400
 65,0.03562128,-0.12448955,-0.26807709,0.00019170,0.00036130,-0.0003581
 9,0.00000253,0.00003752,0.00016126,-0.00001116,-0.00004289,-0.00003920
 ,-0.00002457,-0.00001948,0.00004322,-0.00017801,0.00008251,-0.00000361
 ,0.00026541,-0.00039625,-0.00034262,-0.00015576,0.00046547,-0.00033824
 ,-0.00005422,-0.00040009,-0.00044942,-0.00058168,0.00213299,-0.0002522
 1,-0.04033522,0.13806096,0.28209394,0.00030121,0.00022028,-0.00108602,
 0.00759623,0.00820593,0.01031762,-0.00112239,0.00182606,-0.00056467,0.
 00027525,-0.00005371,0.00017571,0.00093914,0.00159267,-0.00180705,0.00
 014502,0.00026584,0.00002325,-0.00002296,-0.00006356,-0.00008416,-0.00
 004433,0.00001642,0.00003274,0.00000075,0.00003656,0.00003016,0.000146
 31,-0.00000918,0.00008452,0.00001003,-0.00021798,-0.00010317,-0.023202
 28,-0.01320312,-0.01027395,-0.09582085,-0.07968830,-0.08169042,-0.0002
 2948,-0.00000282,-0.00005741,0.00032548,0.00048281,-0.00019960,0.00042
 961,-0.00058862,0.00133627,0.00001831,0.00001064,0.00003298,-0.0000078
 1,0.00000956,0.00001225,-0.00001262,0.00001489,0.00001425,0.00000555,-
 0.00000419,-0.00000850,0.00004005,0.00024754,0.00004216,0.10818868,-0.
 00033384,0.00384235,0.00298450,-0.01437695,-0.02221025,-0.01983596,0.0
 0398312,-0.00320712,0.00126273,-0.00028359,-0.00012240,0.00004446,0.00
 006661,-0.00122560,-0.00040250,0.00005468,0.00020228,0.00026010,-0.000
 00641,-0.00001989,-0.00003938,-0.00001368,-0.00001969,0.00002424,0.000
 01817,0.00001885,0.00002300,0.00004888,0.00000466,-0.00000654,0.000042
 47,-0.00001269,-0.00005964,0.00029480,0.00331721,0.00169165,-0.0738371
 9,-0.15471174,-0.11274755,0.00008684,0.00070090,-0.00006392,-0.0006989
 0,-0.00111882,0.00030406,-0.00031547,0.00008412,0.00051713,-0.00001447
 ,0.00002604,0.00001307,0.00000126,-0.00000003,-0.00000738,0.00000517,0
 .00000481,-0.00000403,0.00001567,0.00000132,-0.00000391,-0.00000807,-0
 .00000460,0.00000162,0.07928766,0.16528600,0.00126900,0.00019654,0.000
 48838,-0.00131315,0.00359955,0.00129772,-0.00007463,0.00074694,-0.0002
 2178,-0.00017315,-0.00019055,0.00001297,0.00079589,0.00030606,0.002550
 02,0.00001377,-0.00012660,-0.00009578,-0.00005298,0.00001983,0.0000596
 0,0.00004846,0.00001124,-0.00003797,-0.00002912,-0.00003289,-0.0000382
 7,-0.00008225,0.00002630,-0.00000169,0.00005737,0.00011350,-0.00000491
 ,0.00722818,0.00632335,0.00528898,-0.07609364,-0.10783720,-0.15431567,
 0.00008918,0.00001763,-0.00004136,0.00003561,0.00012575,-0.00004615,-0
 .00101662,-0.00074330,-0.00025760,0.00000327,-0.00001880,-0.00002393,-
 0.00000047,-0.00000349,0.00000729,-0.00000209,-0.00001175,0.00000035,-
 0.00000921,-0.00000719,0.00000544,-0.00001136,-0.00009887,-0.00001484,
 0.08256131,0.11742954,0.16395802,-0.00057599,0.00082732,0.00284366,0.0
 0015845,0.00432861,-0.01590233,-0.00002466,0.00078294,0.00095765,-0.00
 027899,0.00031134,0.00009371,-0.00740693,0.00048148,0.00062927,0.00051
 228,-0.00124821,0.00190857,-0.00027107,-0.00036905,-0.00011192,-0.0002
 0011,0.00012744,-0.00008734,-0.00006970,0.00003413,0.00014954,0.000041
 34,0.00012848,-0.00007626,-0.00006093,0.00013305,0.00030388,-0.0025693
 8,-0.01211208,0.02381373,-0.04080679,-0.00540912,0.01471850,0.00006434
 ,0.00026692,-0.00006652,0.00012838,0.00016174,0.00001463,0.00004442,0.
 00033674,-0.00029485,0.00005444,-0.00005096,0.00004875,-0.00004502,0.0
 0002460,0.00002920,-0.00000788,-0.00002304,0.00001813,-0.00003963,-0.0
 0001762,-0.00000132,0.00001038,-0.00009337,-0.00001890,0.00204110,0.00
 598323,-0.01324338,0.04930196,-0.00069198,0.00126840,-0.00336145,-0.00
 068451,-0.01281777,0.02868052,0.00092936,-0.00173946,-0.00280103,0.000
 66586,0.00077310,-0.00075759,-0.00015087,-0.00010117,-0.00027905,0.000
 02956,0.00004888,0.00013798,0.00000222,-0.00003973,-0.00004931,-0.0000
 1802,-0.00000860,0.00001758,0.00001650,0.00000547,0.00000377,0.0000055
 9,-0.00001562,0.00000178,0.00005745,0.00002531,0.00003271,-0.00137425,
 -0.00010656,0.00123757,-0.00495669,-0.08472478,0.10257233,-0.00040313,
 -0.00072164,-0.00000274,-0.00037303,-0.00054550,-0.00036471,-0.0000567
 0,-0.00001350,0.00002467,-0.00000146,0.00001258,0.00000322,-0.00000237
 ,0.00000158,-0.00000346,0.00000088,0.00000449,-0.00000358,-0.00000050,
 0.00000160,0.00000063,-0.00000397,0.00000104,-0.00001686,0.00161462,0.
 00916431,-0.01984559,0.00539542,0.08952759,0.00027871,-0.00005121,0.00
 103529,-0.00069398,0.00004693,0.00129107,-0.00057045,0.00014262,-0.000
 73008,0.00002045,0.00008703,0.00008466,0.00105546,-0.00076364,0.000344
 56,-0.00007655,0.00030233,-0.00001474,-0.00003416,0.00008122,0.0000413
 3,0.00004070,-0.00000165,-0.00000143,-0.00000919,-0.00001471,-0.000020
 43,0.00000545,-0.00000720,0.00003669,0.00001616,0.00001860,-0.00013038
 ,0.00127474,0.00131630,-0.00307230,0.01326001,0.09566187,-0.27217803,-
 0.00000027,-0.00012756,-0.00001694,-0.00003554,0.00004889,-0.00005480,
 -0.00003142,-0.00012176,0.00045510,-0.00001042,-0.00000116,0.00000312,
 0.00000846,-0.00000589,-0.00000452,0.00000471,0.00000293,-0.00000477,0
 .00001393,0.00000079,-0.00000249,-0.00000212,-0.00000207,0.00000735,0.
 00121171,0.00861472,-0.01856879,-0.01572641,-0.10522738,0.29150052\\-0
 .00001461,0.00003561,0.00002344,0.00001182,-0.00001192,-0.00000361,-0.
 00001862,-0.00005139,-0.00000626,0.00003989,-0.00003998,0.00001667,-0.
 00000629,0.00009198,-0.00006148,-0.00002074,0.00000041,-0.00000496,-0.
 00000163,-0.00000087,0.00000125,0.00001139,0.00000420,0.00000692,-0.00
 001411,-0.00000154,-0.00000462,-0.00000150,0.00000206,0.00000178,0.000
 01251,-0.00000303,-0.00001008,0.00002750,-0.00002943,0.00004125,-0.000
 06182,0.00003973,0.00003469,-0.00000683,-0.00000077,-0.00000367,-0.000
 00136,-0.00000697,-0.00000388,0.00000999,-0.00002483,0.00000069,-0.000
 00211,-0.00000654,-0.00000245,0.00000370,-0.00000115,-0.00000833,0.000
 00749,0.00000471,-0.00000289,0.00000557,0.00000485,0.00000395,0.000002
 42,0.00000429,0.00000600,0.00001166,-0.00000122,-0.00001259,0.00000568
 ,-0.00000819,-0.00001181\\\@


 Any fool can criticize, condemn, and complain -- and most do.
 -- Dale Carnegie
 Job cpu time:       0 days  0 hours  1 minutes 59.4 seconds.
 Elapsed time:       0 days  0 hours  2 minutes  3.4 seconds.
 File lengths (MBytes):  RWF=    154 Int=      0 D2E=      0 Chk=     16 Scr=      1
 Normal termination of Gaussian 16 at Sat Feb 24 00:19:55 2024.
