 Entering Gaussian System, Link 0=g16
 Input=/Volumes/SSD-PMU3/b3lyp_6-31gd_freq/XHTNAEVSSJZLEX-BVVZNTARSA-N_calculating/gaussianinput1.gjf
 Output=/Volumes/SSD-PMU3/b3lyp_6-31gd_freq/XHTNAEVSSJZLEX-BVVZNTARSA-N_calculating/gaussianinput1.log
 Initial command:
 /Applications/g16/l1.exe "/Users/macmini_m1_2022/PycharmProjects/sphere_model/sphere_model_lib/Gau-81190.inp" -scrdir="/Users/macmini_m1_2022/PycharmProjects/sphere_model/sphere_model_lib/"
 Entering Link 1 = /Applications/g16/l1.exe PID=     81191.
  
 Copyright (c) 1988,1990,1992,1993,1995,1998,2003,2009,2016,
            Gaussian, Inc.  All Rights Reserved.
  
 This is part of the Gaussian(R) 16 program.  It is based on
 the Gaussian(R) 09 system (copyright 2009, Gaussian, Inc.),
 the Gaussian(R) 03 system (copyright 2003, Gaussian, Inc.),
 the Gaussian(R) 98 system (copyright 1998, Gaussian, Inc.),
 the Gaussian(R) 94 system (copyright 1995, Gaussian, Inc.),
 the Gaussian 92(TM) system (copyright 1992, Gaussian, Inc.),
 the Gaussian 90(TM) system (copyright 1990, Gaussian, Inc.),
 the Gaussian 88(TM) system (copyright 1988, Gaussian, Inc.),
 the Gaussian 86(TM) system (copyright 1986, Carnegie Mellon
 University), and the Gaussian 82(TM) system (copyright 1983,
 Carnegie Mellon University). Gaussian is a federally registered
 trademark of Gaussian, Inc.
  
 This software contains proprietary and confidential information,
 including trade secrets, belonging to Gaussian, Inc.
  
 This software is provided under written license and may be
 used, copied, transmitted, or stored only in accord with that
 written license.
  
 The following legend is applicable only to US Government
 contracts under FAR:
  
                    RESTRICTED RIGHTS LEGEND
  
 Use, reproduction and disclosure by the US Government is
 subject to restrictions as set forth in subparagraphs (a)
 and (c) of the Commercial Computer Software - Restricted
 Rights clause in FAR 52.227-19.
  
 Gaussian, Inc.
 340 Quinnipiac St., Bldg. 40, Wallingford CT 06492
  
  
 ---------------------------------------------------------------
 Warning -- This program may not be used in any manner that
 competes with the business of Gaussian, Inc. or will provide
 assistance to any competitor of Gaussian, Inc.  The licensee
 of this program is prohibited from giving any competitor of
 Gaussian, Inc. access to this program.  By using this program,
 the user acknowledges that Gaussian, Inc. is engaged in the
 business of creating and licensing software in the field of
 computational chemistry and represents and warrants to the
 licensee that it is not a competitor of Gaussian, Inc. and that
 it will not use this program in any manner prohibited above.
 ---------------------------------------------------------------
  

 Cite this work as:
 Gaussian 16, Revision A.03,
 M. J. Frisch, G. W. Trucks, H. B. Schlegel, G. E. Scuseria, 
 M. A. Robb, J. R. Cheeseman, G. Scalmani, V. Barone, 
 G. A. Petersson, H. Nakatsuji, X. Li, M. Caricato, A. V. Marenich, 
 J. Bloino, B. G. Janesko, R. Gomperts, B. Mennucci, H. P. Hratchian, 
 J. V. Ortiz, A. F. Izmaylov, J. L. Sonnenberg, D. Williams-Young, 
 F. Ding, F. Lipparini, F. Egidi, J. Goings, B. Peng, A. Petrone, 
 T. Henderson, D. Ranasinghe, V. G. Zakrzewski, J. Gao, N. Rega, 
 G. Zheng, W. Liang, M. Hada, M. Ehara, K. Toyota, R. Fukuda, 
 J. Hasegawa, M. Ishida, T. Nakajima, Y. Honda, O. Kitao, H. Nakai, 
 T. Vreven, K. Throssell, J. A. Montgomery, Jr., J. E. Peralta, 
 F. Ogliaro, M. J. Bearpark, J. J. Heyd, E. N. Brothers, K. N. Kudin, 
 V. N. Staroverov, T. A. Keith, R. Kobayashi, J. Normand, 
 K. Raghavachari, A. P. Rendell, J. C. Burant, S. S. Iyengar, 
 J. Tomasi, M. Cossi, J. M. Millam, M. Klene, C. Adamo, R. Cammi, 
 J. W. Ochterski, R. L. Martin, K. Morokuma, O. Farkas, 
 J. B. Foresman, and D. J. Fox, Gaussian, Inc., Wallingford CT, 2016.
 
 ******************************************
 Gaussian 16:  EM64M-G16RevA.03 25-Dec-2016
                24-Feb-2024 
 ******************************************
 %nprocshared=10
 Will use up to   10 processors via shared memory.
 %mem=12GB
 %chk= 1.chk
 ---------------------
 # freq b3lyp/6-31g(d)
 ---------------------
 1/10=4,30=1,38=1/1,3;
 2/12=2,17=6,18=5,40=1/2;
 3/5=1,6=6,7=1,11=2,25=1,30=1,71=2,74=-5,140=1/1,2,3;
 4//1;
 5/5=2,38=5,98=1/2;
 8/6=4,10=90,11=11/1;
 11/6=1,8=1,9=11,15=111,16=1/1,2,10;
 10/6=1/2;
 6/7=2,8=2,9=2,10=2,28=1/1;
 7/8=1,10=1,25=1/1,2,3,16;
 1/10=4,30=1/3;
 99//99;
 ---------
 good luck
 ---------
 Symbolic Z-matrix:
 Charge =  0 Multiplicity = 1
 O                     1.21384   0.        0. 
 C                     0.        0.        0. 
 C                    -0.80362  -1.29319   0.01313 
 S                    -1.76764  -1.54686  -1.53824 
 C                    -2.7802   0.        -1.51574 
 C                    -3.71482  0.        -2.70426 
 C                    -3.21627  -0.00004  -4.01531 
 C                    -4.09202  -0.00005  -5.10052 
 C                    -5.47234  -0.00003  -4.89037 
 C                    -5.97498   0.00001  -3.58827 
 C                    -5.10046   0.00002  -2.50175 
 S                    -1.76764   1.54686  -1.53824 
 C                    -0.80362   1.29319   0.01313 
 H                    -0.11376  -2.1366    0.08642 
 H                    -1.48711  -1.3111    0.87194 
 H                    -3.36442  0.        -0.59014 
 H                    -2.14275  -0.00006  -4.18065 
 H                    -3.69438  -0.00007  -6.11161 
 H                    -6.15294  -0.00003  -5.73737 
 H                    -7.04787   0.00002  -3.41662 
 H                    -5.49558   0.00004  -1.48876 
 H                    -0.11376   2.1366    0.08642 
 H                    -1.48711   1.3111    0.87194 
 

 GradGradGradGradGradGradGradGradGradGradGradGradGradGradGradGradGradGrad
 Berny optimization.
 Initialization pass.
 Trust Radius=3.00D-01 FncErr=1.00D-07 GrdErr=1.00D-07 EigMax=2.50D+02 EigMin=1.00D-04
 Number of steps in this run=      2 maximum allowed number of steps=      2.
 GradGradGradGradGradGradGradGradGradGradGradGradGradGradGradGradGradGrad

                          Input orientation:                          
 ---------------------------------------------------------------------
 Center     Atomic      Atomic             Coordinates (Angstroms)
 Number     Number       Type             X           Y           Z
 ---------------------------------------------------------------------
      1          8           0        1.213836    0.000000    0.000000
      2          6           0        0.000000    0.000000    0.000000
      3          6           0       -0.803621   -1.293190    0.013132
      4         16           0       -1.767637   -1.546859   -1.538238
      5          6           0       -2.780203   -0.000001   -1.515736
      6          6           0       -3.714824   -0.000003   -2.704263
      7          6           0       -3.216275   -0.000038   -4.015314
      8          6           0       -4.092017   -0.000047   -5.100523
      9          6           0       -5.472337   -0.000025   -4.890368
     10          6           0       -5.974979    0.000005   -3.588265
     11          6           0       -5.100463    0.000015   -2.501747
     12         16           0       -1.767640    1.546859   -1.538237
     13          6           0       -0.803621    1.293189    0.013132
     14          1           0       -0.113757   -2.136604    0.086417
     15          1           0       -1.487113   -1.311102    0.871941
     16          1           0       -3.364419   -0.000003   -0.590140
     17          1           0       -2.142754   -0.000059   -4.180647
     18          1           0       -3.694382   -0.000073   -6.111609
     19          1           0       -6.152940   -0.000033   -5.737368
     20          1           0       -7.047868    0.000021   -3.416616
     21          1           0       -5.495575    0.000036   -1.488764
     22          1           0       -0.113758    2.136604    0.086416
     23          1           0       -1.487113    1.311102    0.871942
 ---------------------------------------------------------------------
                    Distance matrix (angstroms):
                    1          2          3          4          5
     1  O    0.000000
     2  C    1.213836   0.000000
     3  C    2.396382   1.522603   0.000000
     4  S    3.694338   2.807755   1.844024   0.000000
     5  C    4.271979   3.166541   2.813654   1.848936   0.000000
     6  C    5.621808   4.594884   4.187084   2.746619   1.511990
     7  C    5.979016   5.144625   4.870474   3.259925   2.537331
     8  C    7.359851   6.539108   6.215725   4.526063   3.817270
     9  C    8.283756   7.339085   6.893003   5.230131   4.316912
    10  C    8.034594   6.969650   6.433145   4.929211   3.808145
    11  C    6.791841   5.680974   5.143914   3.798539   2.521076
    12  S    3.694340   2.807757   3.376678   3.093718   1.848936
    13  C    2.396381   1.522602   2.586379   3.376677   2.813655
    14  H    2.516952   2.141375   1.092076   2.392200   3.773844
    15  H    3.126403   2.165820   1.097741   2.437876   3.015306
    16  H    4.616133   3.415784   2.931545   2.416892   1.094548
    17  H    5.361390   4.697787   4.588382   3.084741   2.740090
    18  H    7.838518   7.141444   6.895006   5.198136   4.685912
    19  H    9.337386   8.412851   7.959631   6.265480   5.403474
    20  H    8.940303   7.832350   7.240593   5.813947   4.671864
    21  H    6.872599   5.693660   5.093384   4.036441   2.715506
    22  H    2.516953   2.141375   3.499253   4.352323   3.773844
    23  H    3.126403   2.165820   2.826137   3.749080   3.015307
                    6          7          8          9         10
     6  C    0.000000
     7  C    1.402642   0.000000
     8  C    2.425765   1.394490   0.000000
     9  C    2.804979   2.419821   1.396226   0.000000
    10  C    2.426883   2.791562   2.415051   1.395751   0.000000
    11  C    1.400360   2.416826   2.787580   2.417395   1.394740
    12  S    2.746621   3.259961   4.526094   5.230145   4.929206
    13  C    4.187085   4.870494   6.215744   6.893013   6.433143
    14  H    5.031962   5.569087   6.877192   7.618907   7.240325
    15  H    4.412586   5.347350   6.646406   7.127772   6.461686
    16  H    2.142965   3.428376   4.568693   4.789079   3.975396
    17  H    2.156644   1.086178   2.155411   3.404383   3.877740
    18  H    3.407407   2.150125   1.086466   2.156978   3.401233
    19  H    3.891547   3.404331   2.157076   1.086568   2.156459
    20  H    3.408318   3.878085   3.401852   2.157369   1.086533
    21  H    2.156041   3.402744   3.874891   3.401683   2.153540
    22  H    5.031963   5.569115   6.877220   7.618919   7.240321
    23  H    4.412588   5.347369   6.646426   7.127782   6.461684
                   11         12         13         14         15
    11  C    0.000000
    12  S    3.798524   0.000000
    13  C    5.143906   1.844025   0.000000
    14  H    6.010904   4.352325   3.499252   0.000000
    15  H    5.114401   3.749079   2.826136   1.784547   0.000000
    16  H    2.582265   2.416893   2.931547   3.948366   2.716788
    17  H    3.400992   3.084801   4.588415   5.185508   5.260926
    18  H    3.874038   5.198179   6.895033   7.470018   7.440484
    19  H    3.402492   6.265495   7.959641   8.657548   8.195841
    20  H    2.151597   5.813934   7.240585   8.057189   7.143722
    21  H    1.087312   4.036410   5.093365   6.000866   4.833195
    22  H    6.010892   2.392200   1.092076   4.273208   3.793393
    23  H    5.114394   2.437876   1.097742   3.793393   2.622204
                   16         17         18         19         20
    16  H    0.000000
    17  H    3.792652   0.000000
    18  H    5.531320   2.477128   0.000000
    19  H    5.854042   4.301741   2.486878   0.000000
    20  H    4.642926   4.964261   4.302192   2.487325   0.000000
    21  H    2.312866   4.299726   4.961350   4.299159   2.475122
    22  H    3.948369   5.185555   7.470058   8.657563   8.057177
    23  H    2.716792   5.260957   7.440511   8.195852   7.143715
                   21         22         23
    21  H    0.000000
    22  H    6.000839   0.000000
    23  H    4.833176   1.784547   0.000000
 Stoichiometry    C10H10OS2
 Framework group  C1[X(C10H10OS2)]
 Deg. of freedom    63
 Full point group                 C1      NOp   1
 Largest Abelian subgroup         C1      NOp   1
 Largest concise Abelian subgroup C1      NOp   1
                         Standard orientation:                         
 ---------------------------------------------------------------------
 Center     Atomic      Atomic             Coordinates (Angstroms)
 Number     Number       Type             X           Y           Z
 ---------------------------------------------------------------------
      1          8           0       -4.069551   -0.000036    0.825258
      2          6           0       -3.132691   -0.000006    0.053447
      3          6           0       -2.520788   -1.293176   -0.467711
      4         16           0       -0.790313   -1.546859    0.116690
      5          6           0       -0.023110    0.000024   -0.544457
      6          6           0        1.453965    0.000016   -0.221405
      7          6           0        1.902800   -0.000064    1.107486
      8          6           0        3.268737   -0.000079    1.388234
      9          6           0        4.200466   -0.000017    0.348364
     10          6           0        3.760479    0.000058   -0.976224
     11          6           0        2.394656    0.000073   -1.258761
     12         16           0       -0.790322    1.546859    0.116796
     13          6           0       -2.520797    1.293203   -0.467621
     14          1           0       -3.099832   -2.136605   -0.085657
     15          1           0       -2.539326   -1.311050   -1.565150
     16          1           0       -0.160737    0.000060   -1.630319
     17          1           0        1.179364   -0.000116    1.917685
     18          1           0        3.604729   -0.000139    2.421442
     19          1           0        5.264327   -0.000029    0.569336
     20          1           0        4.479412    0.000104   -1.790896
     21          1           0        2.055511    0.000129   -2.291829
     22          1           0       -3.099845    2.136603   -0.085508
     23          1           0       -2.539335    1.311154   -1.565059
 ---------------------------------------------------------------------
 Rotational constants (GHZ):           1.5661355           0.3513183           0.3308661
 Standard basis: 6-31G(d) (6D, 7F)
 There are   223 symmetry adapted cartesian basis functions of A   symmetry.
 There are   223 symmetry adapted basis functions of A   symmetry.
   223 basis functions,   452 primitive gaussians,   223 cartesian basis functions
    55 alpha electrons       55 beta electrons
       nuclear repulsion energy       957.4844142803 Hartrees.
 NAtoms=   23 NActive=   23 NUniq=   23 SFac= 1.00D+00 NAtFMM=   60 NAOKFM=F Big=F
 Integral buffers will be    131072 words long.
 Raffenetti 2 integral format.
 Two-electron integral symmetry is turned on.
 One-electron integrals computed using PRISM.
 NBasis=   223 RedAO= T EigKep=  4.70D-04  NBF=   223
 NBsUse=   223 1.00D-06 EigRej= -1.00D+00 NBFU=   223
 ExpMin= 1.17D-01 ExpMax= 2.19D+04 ExpMxC= 3.30D+03 IAcc=3 IRadAn=         5 AccDes= 0.00D+00
 Harris functional with IExCor=  402 and IRadAn=       5 diagonalized for initial guess.
 HarFok:  IExCor=  402 AccDes= 0.00D+00 IRadAn=         5 IDoV= 1 UseB2=F ITyADJ=14
 ICtDFT=  3500011 ScaDFX=  1.000000  1.000000  1.000000  1.000000
 FoFCou: FMM=F IPFlag=           0 FMFlag=      100000 FMFlg1=           0
         NFxFlg=           0 DoJE=T BraDBF=F KetDBF=T FulRan=T
         wScrn=  0.000000 ICntrl=       500 IOpCl=  0 I1Cent=   200000004 NGrid=           0
         NMat0=    1 NMatS0=      1 NMatT0=    0 NMatD0=    1 NMtDS0=    0 NMtDT0=    0
 Petite list used in FoFCou.
 Requested convergence on RMS density matrix=1.00D-08 within 128 cycles.
 Requested convergence on MAX density matrix=1.00D-06.
 Requested convergence on             energy=1.00D-06.
 No special actions if energy rises.
 Integral accuracy reduced to 1.0D-05 until final iterations.
 Initial convergence to 1.0D-05 achieved.  Increase integral accuracy.
 SCF Done:  E(RB3LYP) =  -1258.67581426     A.U. after   15 cycles
            NFock= 15  Conv=0.57D-08     -V/T= 2.0056
 DoSCS=F DFT=T ScalE2(SS,OS)=  1.000000  1.000000
 Range of M.O.s used for correlation:     1   223
 NBasis=   223 NAE=    55 NBE=    55 NFC=     0 NFV=     0
 NROrb=    223 NOA=    55 NOB=    55 NVA=   168 NVB=   168
 Symmetrizing basis deriv contribution to polar:
 IMax=3 JMax=2 DiffMx= 0.00D+00
 G2DrvN: will do    24 centers at a time, making    1 passes.
 Calling FoFCou, ICntrl=  3107 FMM=F I1Cent=   0 AccDes= 0.00D+00.
 End of G2Drv F.D. properties file   721 does not exist.
 End of G2Drv F.D. properties file   722 does not exist.
 End of G2Drv F.D. properties file   788 does not exist.
          IDoAtm=11111111111111111111111
          Differentiating once with respect to electric field.
                with respect to dipole field.
          Differentiating once with respect to nuclear coordinates.
 Keep R1 ints in memory in canonical form, NReq=322406392.
          There are    72 degrees of freedom in the 1st order CPHF.  IDoFFX=6 NUNeed=     3.
     69 vectors produced by pass  0 Test12= 1.28D-14 1.39D-09 XBig12= 2.01D+02 7.03D+00.
 AX will form    69 AO Fock derivatives at one time.
     69 vectors produced by pass  1 Test12= 1.28D-14 1.39D-09 XBig12= 2.36D+01 1.03D+00.
     69 vectors produced by pass  2 Test12= 1.28D-14 1.39D-09 XBig12= 4.11D-01 1.23D-01.
     69 vectors produced by pass  3 Test12= 1.28D-14 1.39D-09 XBig12= 1.87D-03 6.22D-03.
     69 vectors produced by pass  4 Test12= 1.28D-14 1.39D-09 XBig12= 4.19D-06 4.03D-04.
     58 vectors produced by pass  5 Test12= 1.28D-14 1.39D-09 XBig12= 5.36D-09 1.01D-05.
     10 vectors produced by pass  6 Test12= 1.28D-14 1.39D-09 XBig12= 4.36D-12 2.81D-07.
      3 vectors produced by pass  7 Test12= 1.28D-14 1.39D-09 XBig12= 3.76D-15 8.42D-09.
 InvSVY:  IOpt=1 It=  1 EMax= 7.11D-15
 Solved reduced A of dimension   416 with    72 vectors.
 Isotropic polarizability for W=    0.000000      135.84 Bohr**3.
 End of Minotr F.D. properties file   721 does not exist.
 End of Minotr F.D. properties file   722 does not exist.
 End of Minotr F.D. properties file   788 does not exist.

 **********************************************************************

            Population analysis using the SCF density.

 **********************************************************************

 Orbital symmetries:
       Occupied  (A) (A) (A) (A) (A) (A) (A) (A) (A) (A) (A) (A)
                 (A) (A) (A) (A) (A) (A) (A) (A) (A) (A) (A) (A)
                 (A) (A) (A) (A) (A) (A) (A) (A) (A) (A) (A) (A)
                 (A) (A) (A) (A) (A) (A) (A) (A) (A) (A) (A) (A)
                 (A) (A) (A) (A) (A) (A) (A)
       Virtual   (A) (A) (A) (A) (A) (A) (A) (A) (A) (A) (A) (A)
                 (A) (A) (A) (A) (A) (A) (A) (A) (A) (A) (A) (A)
                 (A) (A) (A) (A) (A) (A) (A) (A) (A) (A) (A) (A)
                 (A) (A) (A) (A) (A) (A) (A) (A) (A) (A) (A) (A)
                 (A) (A) (A) (A) (A) (A) (A) (A) (A) (A) (A) (A)
                 (A) (A) (A) (A) (A) (A) (A) (A) (A) (A) (A) (A)
                 (A) (A) (A) (A) (A) (A) (A) (A) (A) (A) (A) (A)
                 (A) (A) (A) (A) (A) (A) (A) (A) (A) (A) (A) (A)
                 (A) (A) (A) (A) (A) (A) (A) (A) (A) (A) (A) (A)
                 (A) (A) (A) (A) (A) (A) (A) (A) (A) (A) (A) (A)
                 (A) (A) (A) (A) (A) (A) (A) (A) (A) (A) (A) (A)
                 (A) (A) (A) (A) (A) (A) (A) (A) (A) (A) (A) (A)
                 (A) (A) (A) (A) (A) (A) (A) (A) (A) (A) (A) (A)
                 (A) (A) (A) (A) (A) (A) (A) (A) (A) (A) (A) (A)
 The electronic state is 1-A.
 Alpha  occ. eigenvalues --  -88.89063 -88.89062 -19.15409 -10.29369 -10.26414
 Alpha  occ. eigenvalues --  -10.23259 -10.23258 -10.21571 -10.20266 -10.19996
 Alpha  occ. eigenvalues --  -10.19942 -10.19915 -10.19847  -7.95133  -7.95133
 Alpha  occ. eigenvalues --   -5.91668  -5.91666  -5.91307  -5.91305  -5.90541
 Alpha  occ. eigenvalues --   -5.90540  -1.05374  -0.87538  -0.84274  -0.78536
 Alpha  occ. eigenvalues --   -0.77986  -0.75414  -0.72661  -0.65410  -0.63552
 Alpha  occ. eigenvalues --   -0.61547  -0.58324  -0.54580  -0.52206  -0.48216
 Alpha  occ. eigenvalues --   -0.47792  -0.47502  -0.45768  -0.44273  -0.44047
 Alpha  occ. eigenvalues --   -0.43307  -0.42754  -0.40181  -0.39982  -0.38726
 Alpha  occ. eigenvalues --   -0.36527  -0.35819  -0.35059  -0.33724  -0.32806
 Alpha  occ. eigenvalues --   -0.27736  -0.25897  -0.25498  -0.24749  -0.22103
 Alpha virt. eigenvalues --   -0.04756  -0.02186  -0.01231   0.01643   0.04756
 Alpha virt. eigenvalues --    0.05552   0.07903   0.08470   0.09298   0.10951
 Alpha virt. eigenvalues --    0.13438   0.14018   0.14091   0.14998   0.15829
 Alpha virt. eigenvalues --    0.16403   0.17335   0.18479   0.19390   0.23440
 Alpha virt. eigenvalues --    0.27624   0.27963   0.29100   0.29699   0.31439
 Alpha virt. eigenvalues --    0.33037   0.34336   0.35743   0.37720   0.39623
 Alpha virt. eigenvalues --    0.39862   0.40518   0.41728   0.45600   0.46712
 Alpha virt. eigenvalues --    0.46990   0.52799   0.53111   0.54430   0.54522
 Alpha virt. eigenvalues --    0.54962   0.56505   0.57698   0.58412   0.58454
 Alpha virt. eigenvalues --    0.59020   0.59497   0.60277   0.60951   0.61267
 Alpha virt. eigenvalues --    0.63305   0.64032   0.65663   0.65932   0.68657
 Alpha virt. eigenvalues --    0.70351   0.74437   0.75849   0.76029   0.80536
 Alpha virt. eigenvalues --    0.80553   0.81809   0.82851   0.82955   0.83631
 Alpha virt. eigenvalues --    0.84005   0.84928   0.86094   0.86601   0.87046
 Alpha virt. eigenvalues --    0.87342   0.90836   0.90975   0.92336   0.92344
 Alpha virt. eigenvalues --    0.93692   0.94473   0.97290   0.99040   0.99723
 Alpha virt. eigenvalues --    1.00120   1.02112   1.03763   1.06119   1.10021
 Alpha virt. eigenvalues --    1.10147   1.10561   1.12323   1.13499   1.15800
 Alpha virt. eigenvalues --    1.19486   1.24512   1.25678   1.25920   1.35133
 Alpha virt. eigenvalues --    1.41252   1.42503   1.43028   1.43373   1.44613
 Alpha virt. eigenvalues --    1.45790   1.47641   1.48869   1.50360   1.50710
 Alpha virt. eigenvalues --    1.53527   1.62448   1.74516   1.76383   1.78588
 Alpha virt. eigenvalues --    1.79379   1.79437   1.80506   1.83888   1.89053
 Alpha virt. eigenvalues --    1.89254   1.89931   1.90523   1.91587   1.93485
 Alpha virt. eigenvalues --    1.96856   1.99823   2.01141   2.04181   2.07652
 Alpha virt. eigenvalues --    2.07899   2.11391   2.12677   2.14251   2.16089
 Alpha virt. eigenvalues --    2.19181   2.20545   2.21879   2.27397   2.29578
 Alpha virt. eigenvalues --    2.30285   2.35085   2.38660   2.39692   2.41700
 Alpha virt. eigenvalues --    2.48385   2.56478   2.57601   2.59074   2.64338
 Alpha virt. eigenvalues --    2.67190   2.71064   2.73366   2.73828   2.75823
 Alpha virt. eigenvalues --    2.89279   2.95521   2.95797   3.04249   3.39825
 Alpha virt. eigenvalues --    3.87697   3.95300   3.99121   4.08211   4.10713
 Alpha virt. eigenvalues --    4.11810   4.14997   4.26364   4.29280   4.32388
 Alpha virt. eigenvalues --    4.40170   4.47533   4.68496
          Condensed to atoms (all electrons):
               1          2          3          4          5          6
     1  O    7.956785   0.597644  -0.080374   0.002633  -0.000044   0.000000
     2  C    0.597644   4.503531   0.292144  -0.022727  -0.008038  -0.000007
     3  C   -0.080374   0.292144   5.562845   0.212805  -0.015387   0.002533
     4  S    0.002633  -0.022727   0.212805  15.640864   0.236299  -0.038617
     5  C   -0.000044  -0.008038  -0.015387   0.236299   5.532010   0.316792
     6  C    0.000000  -0.000007   0.002533  -0.038617   0.316792   4.710091
     7  C   -0.000000  -0.000023   0.000046  -0.000038  -0.076600   0.527481
     8  C    0.000000   0.000000  -0.000000   0.000084   0.006727  -0.020915
     9  C   -0.000000  -0.000000   0.000000  -0.000023   0.000473  -0.033684
    10  C   -0.000000  -0.000000   0.000000  -0.000389   0.006967  -0.023626
    11  C    0.000000   0.000000  -0.000014   0.002712  -0.048496   0.564577
    12  S    0.002633  -0.022727  -0.002903  -0.066761   0.236299  -0.038616
    13  C   -0.080374   0.292144  -0.143626  -0.002903  -0.015386   0.002533
    14  H    0.005814  -0.022260   0.346483  -0.027191   0.002146  -0.000035
    15  H    0.002048  -0.032995   0.334400  -0.042546  -0.005197  -0.000056
    16  H    0.000001  -0.001488  -0.004283  -0.055698   0.337333  -0.032244
    17  H    0.000000  -0.000008  -0.000044   0.003699  -0.008999  -0.042359
    18  H    0.000000  -0.000000  -0.000000   0.000004  -0.000199   0.003452
    19  H    0.000000   0.000000  -0.000000  -0.000001   0.000008   0.000684
    20  H    0.000000  -0.000000  -0.000000   0.000005  -0.000209   0.004062
    21  H   -0.000000  -0.000000  -0.000005   0.000174  -0.011852  -0.041897
    22  H    0.005814  -0.022260   0.006002  -0.000596   0.002146  -0.000035
    23  H    0.002048  -0.032995   0.002243  -0.001175  -0.005197  -0.000056
               7          8          9         10         11         12
     1  O   -0.000000   0.000000  -0.000000  -0.000000   0.000000   0.002633
     2  C   -0.000023   0.000000  -0.000000  -0.000000   0.000000  -0.022727
     3  C    0.000046  -0.000000   0.000000   0.000000  -0.000014  -0.002903
     4  S   -0.000038   0.000084  -0.000023  -0.000389   0.002712  -0.066761
     5  C   -0.076600   0.006727   0.000473   0.006967  -0.048496   0.236299
     6  C    0.527481  -0.020915  -0.033684  -0.023626   0.564577  -0.038616
     7  C    4.957381   0.525832  -0.035509  -0.045314  -0.040548  -0.000038
     8  C    0.525832   4.863912   0.546904  -0.025958  -0.045011   0.000084
     9  C   -0.035509   0.546904   4.846827   0.550884  -0.037169  -0.000023
    10  C   -0.045314  -0.025958   0.550884   4.856383   0.532640  -0.000389
    11  C   -0.040548  -0.045011  -0.037169   0.532640   4.915947   0.002712
    12  S   -0.000038   0.000084  -0.000023  -0.000389   0.002712  15.640864
    13  C    0.000046  -0.000000   0.000000   0.000000  -0.000014   0.212805
    14  H   -0.000001  -0.000000   0.000000  -0.000000  -0.000000  -0.000596
    15  H    0.000011   0.000000  -0.000000   0.000000  -0.000003  -0.001175
    16  H    0.006338  -0.000117   0.000001   0.000277  -0.005958  -0.055698
    17  H    0.361794  -0.039927   0.004332   0.000446   0.005057   0.003699
    18  H   -0.038873   0.358580  -0.041972   0.004440   0.000926   0.000004
    19  H    0.004650  -0.042387   0.359938  -0.042707   0.004728  -0.000001
    20  H    0.000851   0.004462  -0.042301   0.357556  -0.039713   0.000005
    21  H    0.006195   0.000308   0.004719  -0.043411   0.352394   0.000174
    22  H   -0.000001  -0.000000   0.000000  -0.000000  -0.000000  -0.027191
    23  H    0.000011   0.000000  -0.000000   0.000000  -0.000003  -0.042546
              13         14         15         16         17         18
     1  O   -0.080374   0.005814   0.002048   0.000001   0.000000   0.000000
     2  C    0.292144  -0.022260  -0.032995  -0.001488  -0.000008  -0.000000
     3  C   -0.143626   0.346483   0.334400  -0.004283  -0.000044  -0.000000
     4  S   -0.002903  -0.027191  -0.042546  -0.055698   0.003699   0.000004
     5  C   -0.015386   0.002146  -0.005197   0.337333  -0.008999  -0.000199
     6  C    0.002533  -0.000035  -0.000056  -0.032244  -0.042359   0.003452
     7  C    0.000046  -0.000001   0.000011   0.006338   0.361794  -0.038873
     8  C   -0.000000  -0.000000   0.000000  -0.000117  -0.039927   0.358580
     9  C    0.000000   0.000000  -0.000000   0.000001   0.004332  -0.041972
    10  C    0.000000  -0.000000   0.000000   0.000277   0.000446   0.004440
    11  C   -0.000014  -0.000000  -0.000003  -0.005958   0.005057   0.000926
    12  S    0.212805  -0.000596  -0.001175  -0.055698   0.003699   0.000004
    13  C    5.562845   0.006002   0.002243  -0.004283  -0.000044  -0.000000
    14  H    0.006002   0.502995  -0.022328  -0.000074   0.000001   0.000000
    15  H    0.002243  -0.022328   0.573194   0.006816   0.000001   0.000000
    16  H   -0.004283  -0.000074   0.006816   0.603322   0.000149   0.000002
    17  H   -0.000044   0.000001   0.000001   0.000149   0.552172  -0.004953
    18  H   -0.000000   0.000000   0.000000   0.000002  -0.004953   0.584777
    19  H   -0.000000  -0.000000   0.000000  -0.000000  -0.000162  -0.005400
    20  H   -0.000000   0.000000  -0.000000  -0.000013   0.000016  -0.000182
    21  H   -0.000005   0.000000  -0.000001   0.007633  -0.000164   0.000017
    22  H    0.346483  -0.000145  -0.000206  -0.000074   0.000001   0.000000
    23  H    0.334400  -0.000206   0.002818   0.006816   0.000001   0.000000
              19         20         21         22         23
     1  O    0.000000   0.000000  -0.000000   0.005814   0.002048
     2  C    0.000000  -0.000000  -0.000000  -0.022260  -0.032995
     3  C   -0.000000  -0.000000  -0.000005   0.006002   0.002243
     4  S   -0.000001   0.000005   0.000174  -0.000596  -0.001175
     5  C    0.000008  -0.000209  -0.011852   0.002146  -0.005197
     6  C    0.000684   0.004062  -0.041897  -0.000035  -0.000056
     7  C    0.004650   0.000851   0.006195  -0.000001   0.000011
     8  C   -0.042387   0.004462   0.000308  -0.000000   0.000000
     9  C    0.359938  -0.042301   0.004719   0.000000  -0.000000
    10  C   -0.042707   0.357556  -0.043411  -0.000000   0.000000
    11  C    0.004728  -0.039713   0.352394  -0.000000  -0.000003
    12  S   -0.000001   0.000005   0.000174  -0.027191  -0.042546
    13  C   -0.000000  -0.000000  -0.000005   0.346483   0.334400
    14  H   -0.000000   0.000000   0.000000  -0.000145  -0.000206
    15  H    0.000000  -0.000000  -0.000001  -0.000206   0.002818
    16  H   -0.000000  -0.000013   0.007633  -0.000074   0.006816
    17  H   -0.000162   0.000016  -0.000164   0.000001   0.000001
    18  H   -0.005400  -0.000182   0.000017   0.000000   0.000000
    19  H    0.590012  -0.005497  -0.000175  -0.000000   0.000000
    20  H   -0.005497   0.590291  -0.005514   0.000000  -0.000000
    21  H   -0.000175  -0.005514   0.599145   0.000000  -0.000001
    22  H   -0.000000   0.000000   0.000000   0.502995  -0.022328
    23  H    0.000000  -0.000000  -0.000001  -0.022328   0.573194
 Mulliken charges:
               1
     1  O   -0.414628
     2  C    0.480064
     3  C   -0.512865
     4  S    0.159383
     5  C   -0.481596
     6  C    0.139943
     7  C   -0.153691
     8  C   -0.132578
     9  C   -0.123395
    10  C   -0.127800
    11  C   -0.164763
    12  S    0.159383
    13  C   -0.512865
    14  H    0.209396
    15  H    0.182976
    16  H    0.191240
    17  H    0.165291
    18  H    0.139376
    19  H    0.136309
    20  H    0.136182
    21  H    0.132267
    22  H    0.209396
    23  H    0.182975
 Sum of Mulliken charges =  -0.00000
 Mulliken charges with hydrogens summed into heavy atoms:
               1
     1  O   -0.414628
     2  C    0.480064
     3  C   -0.120493
     4  S    0.159383
     5  C   -0.290355
     6  C    0.139943
     7  C    0.011600
     8  C    0.006798
     9  C    0.012914
    10  C    0.008382
    11  C   -0.032496
    12  S    0.159383
    13  C   -0.120493
 APT charges:
               1
     1  O   -0.612780
     2  C    0.688199
     3  C   -0.025481
     4  S   -0.152857
     5  C    0.365110
     6  C    0.015962
     7  C   -0.058122
     8  C    0.003169
     9  C   -0.013019
    10  C   -0.017430
    11  C   -0.031396
    12  S   -0.152859
    13  C   -0.025482
    14  H    0.010954
    15  H   -0.016438
    16  H   -0.090303
    17  H    0.052954
    18  H    0.015432
    19  H    0.015523
    20  H    0.012274
    21  H    0.022072
    22  H    0.010954
    23  H   -0.016438
 Sum of APT charges =   0.00000
 APT charges with hydrogens summed into heavy atoms:
               1
     1  O   -0.612780
     2  C    0.688199
     3  C   -0.030965
     4  S   -0.152857
     5  C    0.274807
     6  C    0.015962
     7  C   -0.005167
     8  C    0.018602
     9  C    0.002504
    10  C   -0.005157
    11  C   -0.009324
    12  S   -0.152859
    13  C   -0.030966
 Electronic spatial extent (au):  <R**2>=           3378.3073
 Charge=             -0.0000 electrons
 Dipole moment (field-independent basis, Debye):
    X=              1.7669    Y=              0.0001    Z=             -2.8481  Tot=              3.3517
 Quadrupole moment (field-independent basis, Debye-Ang):
   XX=            -88.3502   YY=            -93.7978   ZZ=            -85.2440
   XY=             -0.0003   XZ=              8.9167   YZ=             -0.0005
 Traceless Quadrupole moment (field-independent basis, Debye-Ang):
   XX=              0.7805   YY=             -4.6671   ZZ=              3.8867
   XY=             -0.0003   XZ=              8.9167   YZ=             -0.0005
 Octapole moment (field-independent basis, Debye-Ang**2):
  XXX=             73.2012  YYY=             -0.0005  ZZZ=             -2.6061  XYY=            -28.7975
  XXY=              0.0011  XXZ=            -27.5496  XZZ=              8.0574  YZZ=              0.0002
  YYZ=              2.9239  XYZ=             -0.0018
 Hexadecapole moment (field-independent basis, Debye-Ang**3):
 XXXX=          -3494.8539 YYYY=           -628.6301 ZZZZ=           -399.7554 XXXY=             -0.0046
 XXXZ=            108.7858 YYYX=              0.0007 YYYZ=              0.0009 ZZZX=              4.8995
 ZZZY=             -0.0033 XXYY=           -670.3258 XXZZ=           -619.2813 YYZZ=           -185.3322
 XXYZ=             -0.0023 YYXZ=             -4.3324 ZZXY=             -0.0006
 N-N= 9.574844142803D+02 E-N=-4.880306504501D+03  KE= 1.251614241284D+03
  Exact polarizability: 194.571   0.000  96.766  -0.683  -0.002 116.186
 Approx polarizability: 278.139   0.000 151.728  -6.524  -0.004 209.227
 Calling FoFJK, ICntrl=    100127 FMM=F ISym2X=0 I1Cent= 0 IOpClX= 0 NMat=1 NMatS=1 NMatT=0.
 Full mass-weighted force constant matrix:
 Low frequencies ---   -1.7172   -0.0011    0.0019    0.0036    1.1051    1.4928
 Low frequencies ---   40.8457   51.0951   80.1800
 Diagonal vibrational polarizability:
       14.0219397      15.6477260       8.8451138
 Harmonic frequencies (cm**-1), IR intensities (KM/Mole), Raman scattering
 activities (A**4/AMU), depolarization ratios for plane and unpolarized
 incident light, reduced masses (AMU), force constants (mDyne/A),
 and normal coordinates:
                      1                      2                      3
                      A                      A                      A
 Frequencies --     40.8440                51.0951                80.1800
 Red. masses --      4.2686                 9.7234                 6.5098
 Frc consts  --      0.0042                 0.0150                 0.0247
 IR Inten    --      0.2535                 1.1615                 0.6584
  Atom  AN      X      Y      Z        X      Y      Z        X      Y      Z
     1   8    -0.00   0.11  -0.00     0.29   0.00   0.44    -0.00   0.15  -0.00
     2   6    -0.00   0.04  -0.00     0.06  -0.00   0.16    -0.00   0.09   0.00
     3   6    -0.03  -0.02   0.09    -0.06   0.01   0.01    -0.10   0.06  -0.04
     4  16    -0.03  -0.02   0.09     0.01  -0.02  -0.19    -0.11  -0.13  -0.08
     5   6     0.00  -0.08   0.00    -0.00  -0.00  -0.17    -0.00  -0.15  -0.00
     6   6     0.00  -0.06   0.00    -0.02  -0.00  -0.06     0.00  -0.15  -0.00
     7   6     0.00  -0.23  -0.00    -0.14  -0.00  -0.02     0.00   0.01  -0.00
     8   6     0.00  -0.18  -0.00    -0.17  -0.00   0.11     0.00   0.25   0.00
     9   6     0.00   0.07  -0.00    -0.08   0.00   0.19     0.00   0.30   0.00
    10   6    -0.00   0.26   0.00     0.04   0.00   0.15    -0.00   0.09   0.00
    11   6    -0.00   0.20   0.00     0.07   0.00   0.02    -0.00  -0.14  -0.00
    12  16     0.03  -0.02  -0.09     0.01   0.02  -0.19     0.11  -0.13   0.08
    13   6     0.03  -0.02  -0.09    -0.06  -0.01   0.01     0.10   0.06   0.04
    14   1    -0.04   0.02   0.16    -0.01   0.00   0.05    -0.17   0.09  -0.07
    15   1    -0.04  -0.10   0.09    -0.19   0.06   0.01    -0.12   0.10  -0.04
    16   1    -0.00  -0.13   0.00     0.06  -0.00  -0.18    -0.00  -0.09  -0.00
    17   1     0.00  -0.42  -0.00    -0.22  -0.00  -0.09     0.00  -0.00  -0.00
    18   1     0.00  -0.32  -0.00    -0.26  -0.00   0.14     0.00   0.40   0.00
    19   1     0.00   0.12  -0.00    -0.10   0.00   0.29     0.00   0.50   0.00
    20   1    -0.00   0.46   0.00     0.12   0.00   0.22    -0.00   0.11   0.00
    21   1    -0.00   0.34   0.00     0.16   0.00  -0.01    -0.00  -0.27  -0.00
    22   1     0.04   0.02  -0.16    -0.01  -0.00   0.05     0.17   0.09   0.07
    23   1     0.04  -0.10  -0.09    -0.19  -0.06   0.01     0.12   0.10   0.04
                      4                      5                      6
                      A                      A                      A
 Frequencies --    110.6080               122.5869               199.7115
 Red. masses --      3.7814                 5.5572                 6.6137
 Frc consts  --      0.0273                 0.0492                 0.1554
 IR Inten    --      0.0685                 2.9865                 0.2677
  Atom  AN      X      Y      Z        X      Y      Z        X      Y      Z
     1   8    -0.00   0.17   0.00     0.31   0.00   0.13    -0.12  -0.00   0.08
     2   6    -0.00   0.03   0.00     0.08   0.00  -0.14    -0.14  -0.00   0.05
     3   6    -0.04  -0.07   0.19     0.03   0.01  -0.23    -0.14   0.03  -0.01
     4  16     0.08  -0.03  -0.12    -0.08  -0.01   0.06    -0.09  -0.02  -0.12
     5   6     0.00   0.06  -0.00    -0.04  -0.00   0.13     0.07  -0.00   0.07
     6   6     0.00   0.05  -0.00    -0.04  -0.00   0.10     0.10  -0.00   0.18
     7   6    -0.00   0.04   0.00     0.04   0.00   0.07     0.24  -0.00   0.14
     8   6    -0.00  -0.00  -0.00     0.06   0.00  -0.02     0.28   0.00   0.02
     9   6     0.00  -0.04  -0.00    -0.00   0.00  -0.08     0.21   0.00  -0.05
    10   6     0.00  -0.02  -0.00    -0.08  -0.00  -0.05     0.08  -0.00  -0.01
    11   6     0.00   0.02  -0.00    -0.10  -0.00   0.04     0.06  -0.00   0.13
    12  16    -0.08  -0.03   0.12    -0.08   0.01   0.06    -0.09   0.02  -0.12
    13   6     0.04  -0.07  -0.19     0.03  -0.01  -0.23    -0.14  -0.03  -0.01
    14   1     0.03   0.00   0.46    -0.05   0.00  -0.38    -0.08  -0.01  -0.00
    15   1    -0.26  -0.29   0.19     0.22   0.10  -0.24    -0.22   0.07  -0.01
    16   1     0.00   0.16   0.00    -0.03   0.00   0.13     0.25  -0.00   0.05
    17   1    -0.00   0.05  -0.00     0.09   0.00   0.12     0.33  -0.00   0.23
    18   1    -0.00  -0.01  -0.00     0.13   0.00  -0.04     0.37   0.00  -0.01
    19   1    -0.00  -0.08  -0.00     0.01   0.00  -0.14     0.23   0.00  -0.14
    20   1     0.00  -0.05  -0.00    -0.14  -0.00  -0.09    -0.00  -0.00  -0.08
    21   1     0.00   0.03  -0.00    -0.17  -0.00   0.06    -0.01  -0.00   0.15
    22   1    -0.03   0.00  -0.46    -0.05  -0.00  -0.38    -0.08   0.01  -0.00
    23   1     0.26  -0.29  -0.19     0.22  -0.10  -0.24    -0.22  -0.07  -0.01
                      7                      8                      9
                      A                      A                      A
 Frequencies --    253.5089               253.7091               290.7923
 Red. masses --      5.0769                 7.4692                 5.8870
 Frc consts  --      0.1922                 0.2833                 0.2933
 IR Inten    --      0.0469                 2.0945                 0.9355
  Atom  AN      X      Y      Z        X      Y      Z        X      Y      Z
     1   8     0.00   0.06  -0.00    -0.02   0.00   0.10    -0.00   0.05   0.00
     2   6     0.00   0.07   0.00    -0.13   0.00  -0.04     0.00   0.16   0.00
     3   6     0.01   0.07  -0.02    -0.08   0.05  -0.08     0.20   0.20   0.03
     4  16    -0.02  -0.14   0.04    -0.11   0.14   0.12     0.18  -0.07   0.02
     5   6    -0.00  -0.10   0.00     0.04  -0.00  -0.11    -0.00  -0.06  -0.00
     6   6    -0.00   0.17   0.00     0.12   0.00  -0.21    -0.00  -0.05  -0.00
     7   6    -0.00   0.27   0.00     0.04   0.00  -0.19    -0.00  -0.12  -0.00
     8   6    -0.00   0.04   0.00     0.00   0.00  -0.02    -0.00  -0.03  -0.00
     9   6    -0.00  -0.22  -0.00     0.13  -0.00   0.10    -0.00   0.09   0.00
    10   6    -0.00   0.03  -0.00     0.25   0.00   0.05    -0.00  -0.03  -0.00
    11   6    -0.00   0.26   0.00     0.26   0.00  -0.12    -0.00  -0.11  -0.00
    12  16     0.02  -0.14  -0.04    -0.11  -0.14   0.12    -0.18  -0.07  -0.02
    13   6    -0.01   0.07   0.02    -0.08  -0.05  -0.08    -0.20   0.20  -0.03
    14   1    -0.07   0.07  -0.14    -0.04  -0.02  -0.17     0.10   0.18  -0.16
    15   1     0.10   0.16  -0.03     0.05   0.10  -0.08     0.32   0.34   0.03
    16   1     0.00  -0.18   0.00    -0.07  -0.00  -0.09    -0.00  -0.07  -0.00
    17   1     0.00   0.36   0.00    -0.03   0.00  -0.25     0.00  -0.19  -0.00
    18   1     0.00  -0.01  -0.00    -0.14  -0.00   0.02    -0.00  -0.02  -0.00
    19   1    -0.00  -0.54  -0.00     0.10  -0.00   0.21    -0.00   0.22   0.00
    20   1    -0.00  -0.03  -0.00     0.33  -0.00   0.13    -0.00  -0.03  -0.00
    21   1    -0.00   0.36   0.00     0.41   0.00  -0.17    -0.00  -0.17  -0.00
    22   1     0.08   0.07   0.14    -0.04   0.02  -0.17    -0.10   0.18   0.16
    23   1    -0.10   0.16   0.03     0.05  -0.10  -0.08    -0.32   0.34  -0.03
                     10                     11                     12
                      A                      A                      A
 Frequencies --    363.2899               396.9850               416.6880
 Red. masses --     10.2637                 1.9721                 2.9711
 Frc consts  --      0.7981                 0.1831                 0.3039
 IR Inten    --      1.4804                 2.4996                 0.0129
  Atom  AN      X      Y      Z        X      Y      Z        X      Y      Z
     1   8    -0.05  -0.00   0.06    -0.12  -0.00   0.04    -0.00  -0.01  -0.00
     2   6    -0.07  -0.00   0.03    -0.04  -0.00   0.14     0.00   0.00   0.00
     3   6     0.05   0.10  -0.03     0.05   0.11  -0.04     0.00   0.00   0.00
     4  16     0.08   0.33  -0.04     0.02  -0.04  -0.00    -0.00   0.00   0.00
     5   6     0.08   0.00  -0.14     0.01  -0.00   0.04    -0.00  -0.00  -0.00
     6   6    -0.03  -0.00   0.16     0.01   0.00  -0.02    -0.00  -0.01  -0.00
     7   6    -0.03  -0.00   0.17    -0.01   0.00  -0.01     0.00  -0.21  -0.00
     8   6     0.00  -0.00   0.02    -0.02  -0.00   0.00    -0.00   0.21   0.00
     9   6    -0.10   0.00  -0.08    -0.02   0.00   0.00    -0.00  -0.01  -0.00
    10   6    -0.16   0.00  -0.05    -0.00   0.00  -0.00     0.00  -0.20  -0.00
    11   6    -0.16  -0.00   0.09    -0.00   0.00  -0.02     0.00   0.21   0.00
    12  16     0.08  -0.33  -0.04     0.02   0.04  -0.00     0.00   0.00  -0.00
    13   6     0.05  -0.10  -0.03     0.05  -0.11  -0.04    -0.00   0.00  -0.00
    14   1     0.21  -0.04  -0.10     0.02  -0.05  -0.43     0.00   0.01   0.01
    15   1     0.06   0.18  -0.03     0.21   0.48  -0.05    -0.00  -0.01   0.00
    16   1     0.32   0.00  -0.17    -0.03  -0.00   0.04    -0.00  -0.00  -0.00
    17   1     0.02  -0.00   0.21    -0.03   0.00  -0.03     0.00  -0.45  -0.00
    18   1     0.13   0.00  -0.02    -0.03  -0.00   0.00    -0.00   0.46   0.00
    19   1    -0.08   0.00  -0.15    -0.02   0.00   0.01    -0.00  -0.02  -0.00
    20   1    -0.22   0.00  -0.10     0.01   0.00   0.01     0.00  -0.43  -0.00
    21   1    -0.29  -0.00   0.14    -0.00  -0.00  -0.02     0.00   0.47   0.00
    22   1     0.21   0.04  -0.10     0.02   0.05  -0.43    -0.00   0.01  -0.01
    23   1     0.06  -0.18  -0.03     0.21  -0.48  -0.05     0.00  -0.01  -0.00
                     13                     14                     15
                      A                      A                      A
 Frequencies --    478.5501               510.2339               564.5440
 Red. masses --      4.0475                 3.7914                 9.2334
 Frc consts  --      0.5461                 0.5816                 1.7338
 IR Inten    --     10.9508                 0.0600                 1.1519
  Atom  AN      X      Y      Z        X      Y      Z        X      Y      Z
     1   8    -0.00   0.31   0.00     0.00  -0.10  -0.00     0.10   0.00  -0.21
     2   6     0.00  -0.13  -0.00    -0.00   0.04   0.00     0.43  -0.00   0.24
     3   6    -0.03  -0.14  -0.15    -0.02   0.04   0.04     0.20   0.11   0.14
     4  16     0.05  -0.01   0.02    -0.05  -0.05   0.02    -0.18   0.05  -0.04
     5   6     0.00   0.07   0.00     0.00   0.08   0.00    -0.15   0.00  -0.08
     6   6    -0.00   0.11   0.00     0.00   0.33   0.00    -0.12   0.00  -0.01
     7   6    -0.00  -0.03  -0.00    -0.00  -0.00  -0.00     0.02   0.00  -0.05
     8   6    -0.00  -0.04  -0.00    -0.00  -0.14  -0.00     0.05   0.00  -0.06
     9   6    -0.00   0.08   0.00    -0.00   0.21   0.00     0.14  -0.00   0.02
    10   6    -0.00  -0.06  -0.00     0.00  -0.15  -0.00     0.02  -0.00   0.07
    11   6    -0.00  -0.00  -0.00     0.00   0.01  -0.00    -0.01  -0.00   0.09
    12  16    -0.05  -0.01  -0.02     0.05  -0.05  -0.02    -0.18  -0.05  -0.04
    13   6     0.03  -0.14   0.15     0.02   0.04  -0.04     0.20  -0.11   0.14
    14   1     0.01  -0.30  -0.44    -0.06   0.11   0.13     0.06   0.16   0.03
    15   1     0.17   0.12  -0.15    -0.08  -0.05   0.04     0.02   0.34   0.13
    16   1     0.00   0.02   0.00     0.00   0.01   0.00    -0.13   0.00  -0.09
    17   1     0.00  -0.12  -0.00    -0.00  -0.29  -0.00     0.12  -0.00   0.03
    18   1    -0.00  -0.12  -0.00    -0.00  -0.46  -0.00    -0.03  -0.00  -0.03
    19   1    -0.00   0.14   0.00    -0.00   0.33   0.00     0.14  -0.00   0.02
    20   1     0.00  -0.16  -0.00     0.00  -0.47  -0.00    -0.07  -0.00  -0.00
    21   1    -0.00  -0.07  -0.00    -0.00  -0.25  -0.00     0.08  -0.00   0.06
    22   1    -0.01  -0.30   0.44     0.06   0.11  -0.13     0.06  -0.16   0.03
    23   1    -0.17   0.12   0.15     0.08  -0.05  -0.04     0.02  -0.34   0.13
                     16                     17                     18
                      A                      A                      A
 Frequencies --    610.0727               629.7334               700.1010
 Red. masses --      6.3989                 6.3311                 4.9901
 Frc consts  --      1.4032                 1.4792                 1.4411
 IR Inten    --      5.2682                 0.0624                 8.3653
  Atom  AN      X      Y      Z        X      Y      Z        X      Y      Z
     1   8     0.04   0.00  -0.06     0.01   0.00  -0.01    -0.00  -0.09  -0.00
     2   6     0.11  -0.00   0.04     0.01   0.00   0.00    -0.00   0.09   0.00
     3   6     0.03   0.06   0.04     0.01   0.01   0.00    -0.27   0.04  -0.09
     4  16    -0.09  -0.00  -0.01    -0.00   0.03  -0.02     0.10  -0.04   0.06
     5   6     0.31  -0.00   0.13    -0.01  -0.00   0.12    -0.00   0.16   0.00
     6   6     0.28  -0.00   0.05     0.05   0.00  -0.14    -0.00   0.09   0.00
     7   6    -0.06  -0.00   0.15     0.26   0.00  -0.16    -0.00  -0.11  -0.00
     8   6    -0.11  -0.00   0.12     0.18  -0.00   0.29    -0.00   0.11   0.00
     9   6    -0.29   0.00  -0.07    -0.05  -0.00   0.14     0.00  -0.11  -0.00
    10   6     0.06   0.00  -0.20    -0.27  -0.00   0.16     0.00   0.11   0.00
    11   6     0.09   0.00  -0.18    -0.17   0.00  -0.28     0.00  -0.11  -0.00
    12  16    -0.09   0.00  -0.01    -0.00  -0.03  -0.02    -0.10  -0.04  -0.06
    13   6     0.03  -0.06   0.04     0.01  -0.01   0.00     0.27   0.04   0.09
    14   1     0.05   0.10   0.16     0.04   0.02   0.06    -0.38   0.18   0.06
    15   1    -0.14  -0.00   0.04    -0.05  -0.01   0.00    -0.23  -0.08  -0.08
    16   1     0.37  -0.00   0.13    -0.07  -0.00   0.13    -0.00   0.10   0.00
    17   1    -0.26   0.00  -0.03     0.12   0.00  -0.29    -0.00  -0.20  -0.00
    18   1     0.12   0.00   0.04     0.02  -0.00   0.34    -0.00   0.19   0.00
    19   1    -0.30  -0.00  -0.00     0.03   0.00  -0.24     0.00  -0.20  -0.00
    20   1     0.25   0.00  -0.02    -0.12  -0.00   0.30     0.00   0.18   0.00
    21   1    -0.13   0.00  -0.11    -0.02   0.00  -0.33     0.00  -0.19  -0.00
    22   1     0.05  -0.10   0.16     0.04  -0.02   0.06     0.38   0.18  -0.06
    23   1    -0.14   0.00   0.04    -0.05   0.01   0.00     0.23  -0.08   0.08
                     19                     20                     21
                      A                      A                      A
 Frequencies --    708.7904               709.8926               723.7297
 Red. masses --      2.8719                 5.7424                 1.9240
 Frc consts  --      0.8501                 1.7050                 0.5937
 IR Inten    --      6.2191                 1.8263                81.7143
  Atom  AN      X      Y      Z        X      Y      Z        X      Y      Z
     1   8     0.00   0.03   0.00     0.00  -0.00   0.01     0.00  -0.00  -0.00
     2   6    -0.00  -0.04  -0.00    -0.03   0.00  -0.02     0.00  -0.02   0.00
     3   6     0.11  -0.01   0.06     0.02   0.04  -0.01     0.03   0.00   0.04
     4  16    -0.06  -0.02  -0.01     0.03   0.07  -0.07    -0.03  -0.04   0.01
     5   6    -0.00   0.10   0.00    -0.15  -0.00   0.54     0.00   0.23  -0.00
     6   6    -0.00   0.14   0.00    -0.03  -0.00  -0.01     0.00  -0.00   0.00
     7   6    -0.00  -0.11  -0.00    -0.06   0.00  -0.09     0.00  -0.03   0.00
     8   6    -0.00   0.16  -0.00    -0.09  -0.00  -0.12     0.00  -0.04   0.00
     9   6     0.00  -0.11  -0.00     0.04   0.00   0.01    -0.00  -0.04  -0.00
    10   6     0.00   0.16   0.00     0.10  -0.00  -0.01    -0.00  -0.04  -0.00
    11   6     0.00  -0.11  -0.00     0.06   0.00   0.00    -0.00  -0.04  -0.00
    12  16     0.06  -0.02   0.01     0.03  -0.07  -0.07     0.03  -0.04  -0.01
    13   6    -0.11  -0.01  -0.06     0.02  -0.04  -0.01    -0.03   0.00  -0.04
    14   1     0.11  -0.07  -0.06     0.15   0.02   0.16    -0.02  -0.01  -0.07
    15   1     0.13   0.08   0.05    -0.13  -0.06  -0.00     0.09   0.09   0.04
    16   1    -0.00   0.08   0.00    -0.26  -0.00   0.56     0.00   0.18  -0.00
    17   1    -0.00  -0.48  -0.00    -0.05   0.00  -0.08     0.00   0.33   0.00
    18   1    -0.00  -0.06  -0.00    -0.17   0.00  -0.09     0.00   0.42   0.00
    19   1     0.00  -0.52   0.00     0.01   0.00   0.18    -0.00   0.46   0.00
    20   1     0.00  -0.06  -0.00     0.09   0.00  -0.02    -0.00   0.45   0.00
    21   1     0.00  -0.48  -0.00     0.09   0.00  -0.01    -0.00   0.39   0.00
    22   1    -0.11  -0.07   0.06     0.15  -0.02   0.16     0.02  -0.01   0.07
    23   1    -0.13   0.08  -0.05    -0.12   0.06  -0.00    -0.09   0.09  -0.04
                     22                     23                     24
                      A                      A                      A
 Frequencies --    799.5978               801.2234               826.0324
 Red. masses --      2.1933                 3.8930                 4.6287
 Frc consts  --      0.8262                 1.4725                 1.8608
 IR Inten    --      0.0717                 0.3767                 2.3154
  Atom  AN      X      Y      Z        X      Y      Z        X      Y      Z
     1   8    -0.00   0.02   0.00    -0.05  -0.00   0.11     0.06  -0.00  -0.01
     2   6    -0.00   0.02  -0.00    -0.22   0.00  -0.12    -0.07   0.00  -0.16
     3   6     0.04  -0.01  -0.07     0.26  -0.05   0.05    -0.03   0.25   0.05
     4  16    -0.00   0.02  -0.01    -0.07  -0.02  -0.02     0.00  -0.03   0.01
     5   6     0.00  -0.18  -0.00     0.04   0.00  -0.02     0.25  -0.00   0.01
     6   6    -0.00   0.20   0.00    -0.00  -0.00  -0.00    -0.01  -0.00  -0.00
     7   6    -0.00  -0.06  -0.00    -0.00   0.00  -0.01    -0.02   0.00  -0.13
     8   6    -0.00  -0.01  -0.00    -0.00   0.00  -0.01    -0.06   0.00  -0.15
     9   6     0.00  -0.10  -0.00     0.01   0.00   0.00     0.09  -0.00   0.02
    10   6    -0.00  -0.01   0.00    -0.01  -0.00   0.01    -0.12  -0.00   0.12
    11   6    -0.00  -0.06  -0.00    -0.01   0.00   0.01    -0.07  -0.00   0.09
    12  16     0.00   0.02   0.01    -0.07   0.02  -0.02     0.00   0.03   0.01
    13   6    -0.04  -0.01   0.07     0.26   0.05   0.05    -0.03  -0.25   0.05
    14   1     0.14   0.04   0.18     0.44  -0.18   0.06    -0.01   0.34   0.27
    15   1    -0.12  -0.22  -0.06     0.30  -0.24   0.05    -0.12   0.02   0.06
    16   1     0.00  -0.19  -0.00     0.03   0.00  -0.02     0.32   0.00   0.01
    17   1    -0.00  -0.00  -0.00     0.00   0.00  -0.01     0.01   0.00  -0.11
    18   1    -0.00   0.44   0.00    -0.02  -0.00  -0.01    -0.24   0.00  -0.10
    19   1     0.00   0.48   0.00     0.01  -0.00  -0.01     0.09  -0.00   0.01
    20   1    -0.00   0.45   0.00    -0.03  -0.00   0.00    -0.26  -0.00   0.00
    21   1    -0.00   0.01   0.00    -0.00   0.00   0.01    -0.02  -0.00   0.08
    22   1    -0.14   0.04  -0.18     0.44   0.18   0.06    -0.01  -0.34   0.27
    23   1     0.12  -0.22   0.06     0.30   0.24   0.05    -0.12  -0.02   0.06
                     25                     26                     27
                      A                      A                      A
 Frequencies --    843.2442               856.3530               858.3666
 Red. masses --      1.9681                 4.8421                 1.2482
 Frc consts  --      0.8245                 2.0921                 0.5419
 IR Inten    --      0.5298                 0.5842                 0.0555
  Atom  AN      X      Y      Z        X      Y      Z        X      Y      Z
     1   8    -0.00  -0.03  -0.00    -0.08  -0.00   0.00     0.00   0.00  -0.00
     2   6     0.00  -0.07  -0.00     0.11  -0.00   0.22    -0.00   0.00  -0.00
     3   6    -0.10   0.01   0.13     0.00  -0.21  -0.11    -0.00  -0.00  -0.00
     4  16     0.01   0.03  -0.02    -0.02   0.01   0.01     0.00   0.00  -0.00
     5   6    -0.00  -0.12  -0.00     0.27  -0.00   0.07    -0.00  -0.00  -0.00
     6   6    -0.00   0.08   0.00     0.03  -0.00   0.01    -0.00   0.00  -0.00
     7   6     0.00  -0.00  -0.00    -0.02   0.00  -0.13     0.00   0.07   0.00
     8   6     0.00  -0.01   0.00    -0.07   0.00  -0.16     0.00   0.07   0.00
     9   6    -0.00  -0.04  -0.00     0.07   0.00   0.02    -0.00   0.01   0.00
    10   6     0.00  -0.01  -0.00    -0.11  -0.00   0.11     0.00  -0.07  -0.00
    11   6     0.00  -0.01  -0.00    -0.06  -0.00   0.07     0.00  -0.08  -0.00
    12  16    -0.01   0.03   0.02    -0.02  -0.01   0.01    -0.00   0.00   0.00
    13   6     0.10   0.01  -0.13     0.00   0.21  -0.11     0.00  -0.00   0.00
    14   1    -0.14  -0.17  -0.33     0.12  -0.28  -0.08     0.00  -0.00   0.00
    15   1     0.17   0.46   0.12    -0.19  -0.10  -0.12     0.00  -0.00  -0.00
    16   1    -0.00  -0.07  -0.00     0.42   0.00   0.06    -0.00  -0.03  -0.00
    17   1     0.00  -0.08  -0.00    -0.01  -0.00  -0.13     0.00  -0.49  -0.00
    18   1     0.00   0.13   0.00    -0.26  -0.00  -0.10     0.00  -0.49  -0.00
    19   1    -0.00   0.21   0.00     0.07  -0.00   0.03    -0.00  -0.04  -0.00
    20   1     0.00   0.14   0.00    -0.23   0.00   0.01     0.00   0.46   0.00
    21   1     0.00  -0.06  -0.00    -0.02   0.00   0.06    -0.00   0.53   0.00
    22   1     0.14  -0.17   0.33     0.12   0.28  -0.08    -0.00  -0.00  -0.00
    23   1    -0.17   0.46  -0.12    -0.19   0.10  -0.12    -0.00  -0.00   0.00
                     28                     29                     30
                      A                      A                      A
 Frequencies --    935.0054               962.0584               971.0657
 Red. masses --      1.4312                 1.8632                 1.3539
 Frc consts  --      0.7372                 1.0161                 0.7522
 IR Inten    --      0.0339                 1.6348                 0.0072
  Atom  AN      X      Y      Z        X      Y      Z        X      Y      Z
     1   8     0.00  -0.00  -0.00     0.06   0.00  -0.03     0.00  -0.00  -0.00
     2   6    -0.00  -0.01  -0.00    -0.02   0.00  -0.08    -0.00  -0.00  -0.00
     3   6    -0.01   0.00   0.01    -0.05  -0.07   0.13    -0.00   0.00   0.00
     4  16    -0.00   0.00  -0.00    -0.01   0.02  -0.02    -0.00  -0.00  -0.00
     5   6    -0.00  -0.04  -0.00     0.05  -0.00   0.04     0.00  -0.01  -0.00
     6   6    -0.00   0.08   0.00     0.03  -0.00   0.01    -0.00   0.01   0.00
     7   6     0.00  -0.09  -0.00     0.00   0.00  -0.03     0.00  -0.10  -0.00
     8   6     0.00  -0.01  -0.00    -0.02   0.00  -0.04    -0.00   0.08   0.00
     9   6    -0.00   0.10   0.00     0.01  -0.00   0.01    -0.00   0.03   0.00
    10   6     0.00   0.03   0.00    -0.02  -0.00   0.02     0.00  -0.10  -0.00
    11   6     0.00  -0.11  -0.00    -0.00   0.00  -0.00    -0.00   0.07   0.00
    12  16     0.00   0.00   0.00    -0.01  -0.02  -0.02     0.00  -0.00   0.00
    13   6     0.01   0.00  -0.01    -0.05   0.07   0.13     0.00   0.00  -0.00
    14   1     0.01  -0.02  -0.01    -0.25  -0.15  -0.34     0.00  -0.00  -0.00
    15   1    -0.01   0.03   0.01     0.43   0.22   0.12    -0.01   0.01   0.00
    16   1     0.00  -0.06  -0.00     0.16   0.00   0.02     0.00   0.01   0.00
    17   1    -0.00   0.50   0.00    -0.01  -0.00  -0.04    -0.00   0.53   0.00
    18   1     0.00   0.09   0.00    -0.06   0.00  -0.03     0.00  -0.44  -0.00
    19   1    -0.00  -0.56  -0.00     0.00   0.00   0.02    -0.00  -0.16  -0.00
    20   1     0.00  -0.15  -0.00    -0.03  -0.00   0.02    -0.00   0.56   0.00
    21   1     0.00   0.60   0.00    -0.01  -0.00   0.00    -0.00  -0.40  -0.00
    22   1    -0.01  -0.02   0.01    -0.25   0.15  -0.34    -0.00  -0.00   0.00
    23   1     0.01   0.03  -0.01     0.43  -0.22   0.12     0.01   0.01  -0.00
                     31                     32                     33
                      A                      A                      A
 Frequencies --   1000.2059              1017.4915              1059.1194
 Red. masses --      1.2619                 6.2285                 2.2360
 Frc consts  --      0.7438                 3.7992                 1.4778
 IR Inten    --      0.0017                 1.5494                 2.9673
  Atom  AN      X      Y      Z        X      Y      Z        X      Y      Z
     1   8    -0.00  -0.00   0.00     0.00   0.00  -0.00     0.00   0.00  -0.00
     2   6     0.00  -0.00  -0.00    -0.00   0.00  -0.00     0.00   0.00  -0.00
     3   6    -0.00   0.00   0.00    -0.00   0.00   0.00    -0.00  -0.00   0.00
     4  16    -0.00   0.00  -0.00     0.00  -0.00   0.00    -0.00   0.00   0.00
     5   6    -0.00  -0.01  -0.00    -0.02   0.00  -0.00     0.03   0.00   0.01
     6   6    -0.00   0.00   0.00    -0.04  -0.00  -0.00    -0.03  -0.00  -0.00
     7   6     0.00  -0.05  -0.00     0.26   0.00  -0.31    -0.04   0.00  -0.07
     8   6    -0.00   0.09   0.00     0.01  -0.00   0.08    -0.01  -0.00   0.19
     9   6     0.00  -0.09  -0.00    -0.37   0.00  -0.07     0.15  -0.00   0.03
    10   6    -0.00   0.07   0.00     0.05   0.00  -0.07     0.06   0.00  -0.18
    11   6     0.00  -0.03  -0.00     0.11  -0.00   0.38    -0.07  -0.00   0.04
    12  16     0.00   0.00   0.00     0.00   0.00   0.00    -0.00  -0.00   0.00
    13   6     0.00   0.00  -0.00    -0.00  -0.00   0.00    -0.00   0.00   0.00
    14   1     0.00  -0.00  -0.00    -0.00   0.00  -0.00    -0.00  -0.01  -0.01
    15   1    -0.01   0.01   0.00     0.01   0.00   0.00     0.01   0.01   0.00
    16   1     0.00  -0.02  -0.00     0.08   0.00  -0.01     0.08  -0.00   0.00
    17   1    -0.00   0.33   0.00     0.23   0.00  -0.36    -0.30   0.00  -0.29
    18   1     0.00  -0.55  -0.00    -0.04  -0.00   0.08    -0.39  -0.00   0.32
    19   1    -0.00   0.56   0.00    -0.38   0.00  -0.06     0.17  -0.00   0.04
    20   1     0.00  -0.45  -0.00     0.01   0.00  -0.08    -0.22   0.00  -0.45
    21   1     0.00   0.22   0.00     0.04  -0.00   0.42    -0.39  -0.00   0.14
    22   1    -0.00  -0.00   0.00    -0.00  -0.00  -0.00    -0.00   0.01  -0.01
    23   1     0.01   0.01  -0.00     0.01  -0.00   0.00     0.01  -0.01   0.00
                     34                     35                     36
                      A                      A                      A
 Frequencies --   1093.1648              1112.9943              1195.0102
 Red. masses --      1.3431                 1.6044                 1.1036
 Frc consts  --      0.9457                 1.1710                 0.9286
 IR Inten    --     11.4279                 4.5833                 0.0232
  Atom  AN      X      Y      Z        X      Y      Z        X      Y      Z
     1   8    -0.00  -0.01  -0.00    -0.00  -0.00   0.00    -0.00  -0.00   0.00
     2   6    -0.00   0.14   0.00     0.00  -0.00   0.00     0.00  -0.00   0.00
     3   6     0.00  -0.07   0.01     0.00   0.00  -0.00     0.00   0.00  -0.00
     4  16    -0.00   0.01  -0.01     0.00  -0.00   0.00     0.00   0.00  -0.00
     5   6    -0.00  -0.03  -0.00    -0.01   0.00  -0.02    -0.01   0.00  -0.00
     6   6    -0.00   0.01   0.00    -0.04  -0.00   0.06     0.01  -0.00  -0.00
     7   6     0.00  -0.00  -0.00     0.11   0.00  -0.02    -0.00   0.00  -0.01
     8   6    -0.00   0.00  -0.00    -0.04   0.00  -0.06     0.04   0.00  -0.02
     9   6    -0.00   0.00   0.00    -0.02  -0.00   0.09    -0.01  -0.00   0.06
    10   6     0.00  -0.00  -0.00     0.08   0.00  -0.05    -0.04   0.00  -0.03
    11   6    -0.00  -0.00  -0.00    -0.09   0.00  -0.08     0.01   0.00  -0.01
    12  16     0.00   0.01   0.01     0.00   0.00   0.00     0.00  -0.00  -0.00
    13   6    -0.00  -0.07  -0.01     0.00  -0.00  -0.00     0.00  -0.00  -0.00
    14   1    -0.30   0.09  -0.09    -0.01   0.02   0.01    -0.03   0.03   0.01
    15   1     0.53  -0.28   0.01     0.00  -0.01  -0.00     0.03  -0.02  -0.00
    16   1     0.00   0.20   0.00     0.17   0.00  -0.05     0.02  -0.00  -0.01
    17   1     0.00   0.03   0.00     0.42  -0.00   0.25    -0.13   0.00  -0.12
    18   1    -0.00  -0.01  -0.00    -0.26  -0.00   0.00     0.45   0.00  -0.15
    19   1    -0.00   0.00   0.00    -0.11  -0.00   0.56    -0.14  -0.00   0.65
    20   1     0.00  -0.00   0.00     0.28  -0.00   0.12    -0.38   0.00  -0.33
    21   1     0.00   0.02   0.00    -0.43  -0.00   0.02     0.17   0.00  -0.06
    22   1     0.30   0.09   0.09    -0.01  -0.02   0.01    -0.03  -0.03   0.01
    23   1    -0.53  -0.28  -0.01     0.00   0.01  -0.00     0.03   0.02  -0.00
                     37                     38                     39
                      A                      A                      A
 Frequencies --   1201.5777              1210.7465              1216.9436
 Red. masses --      1.1541                 1.7654                 1.1635
 Frc consts  --      0.9817                 1.5248                 1.0152
 IR Inten    --      2.3424                 0.3587                 1.1015
  Atom  AN      X      Y      Z        X      Y      Z        X      Y      Z
     1   8    -0.05  -0.00   0.03    -0.02  -0.00   0.01     0.00   0.00  -0.00
     2   6     0.03  -0.00   0.05     0.01  -0.00   0.02    -0.00   0.00  -0.00
     3   6     0.02   0.01  -0.03     0.01   0.00  -0.01    -0.00   0.00   0.00
     4  16    -0.00   0.00  -0.01    -0.00   0.00  -0.01     0.00  -0.00   0.00
     5   6    -0.02  -0.00   0.02    -0.05   0.00  -0.04     0.01   0.00   0.00
     6   6    -0.02  -0.00   0.02     0.23   0.00   0.00    -0.03  -0.00   0.00
     7   6    -0.01   0.00  -0.01     0.04  -0.00   0.01    -0.05   0.00  -0.04
     8   6     0.01  -0.00   0.00    -0.04   0.00  -0.05     0.06   0.00  -0.01
     9   6     0.00   0.00  -0.00     0.01  -0.00   0.00     0.01  -0.00   0.00
    10   6     0.00   0.00  -0.00    -0.04  -0.00   0.04     0.04  -0.00   0.03
    11   6     0.01   0.00  -0.01    -0.01  -0.00   0.04    -0.05  -0.00   0.01
    12  16    -0.00  -0.00  -0.01    -0.00  -0.00  -0.01     0.00   0.00   0.00
    13   6     0.02  -0.01  -0.03     0.01  -0.00  -0.01    -0.00  -0.00   0.00
    14   1    -0.34   0.31   0.08    -0.13   0.11   0.02     0.02  -0.02  -0.00
    15   1     0.35  -0.29  -0.02     0.12  -0.10  -0.01    -0.01   0.01   0.00
    16   1     0.33  -0.00  -0.03    -0.68  -0.00   0.04     0.11  -0.00  -0.01
    17   1    -0.04   0.00  -0.04    -0.12   0.00  -0.14    -0.37   0.00  -0.33
    18   1    -0.03  -0.00   0.02    -0.12   0.00  -0.03     0.50   0.00  -0.15
    19   1     0.02   0.00  -0.10    -0.00  -0.00   0.06     0.01  -0.00   0.01
    20   1     0.05  -0.00   0.04    -0.12   0.00  -0.02     0.39  -0.00   0.33
    21   1     0.10   0.00  -0.04    -0.50  -0.00   0.22    -0.42  -0.00   0.13
    22   1    -0.34  -0.31   0.08    -0.13  -0.11   0.02     0.02   0.02  -0.00
    23   1     0.35   0.29  -0.02     0.12   0.10  -0.01    -0.01  -0.01   0.00
                     40                     41                     42
                      A                      A                      A
 Frequencies --   1230.1650              1243.4900              1265.7298
 Red. masses --      1.1126                 1.2928                 1.9722
 Frc consts  --      0.9920                 1.1778                 1.8615
 IR Inten    --     30.3815                25.1011                 1.9939
  Atom  AN      X      Y      Z        X      Y      Z        X      Y      Z
     1   8    -0.00  -0.01  -0.00    -0.00   0.02   0.00     0.01   0.00  -0.00
     2   6     0.00   0.03   0.00     0.00  -0.13  -0.00    -0.02   0.00  -0.03
     3   6    -0.04   0.03  -0.00     0.05   0.00  -0.01     0.03  -0.01   0.00
     4  16    -0.00  -0.01   0.01     0.00   0.00   0.01     0.00  -0.01   0.01
     5   6     0.00  -0.05  -0.00     0.00  -0.06  -0.00    -0.19  -0.00  -0.02
     6   6    -0.00   0.00  -0.00    -0.00   0.01  -0.00     0.13  -0.00   0.13
     7   6    -0.00   0.00   0.00    -0.00   0.00   0.00     0.01   0.00  -0.03
     8   6     0.00  -0.00   0.00     0.00  -0.00   0.00    -0.00   0.00  -0.05
     9   6     0.00   0.00  -0.00     0.00   0.00  -0.00     0.01  -0.00   0.02
    10   6     0.00  -0.00   0.00     0.00  -0.00   0.00    -0.06   0.00  -0.00
    11   6    -0.00  -0.00   0.00    -0.00  -0.00   0.00     0.05   0.00  -0.04
    12  16     0.00  -0.01  -0.01    -0.00   0.00  -0.01     0.00   0.01   0.01
    13   6     0.04   0.03   0.00    -0.05   0.00   0.01     0.03   0.01   0.00
    14   1     0.34  -0.22   0.02    -0.40   0.33   0.05     0.03  -0.01  -0.02
    15   1     0.06  -0.04   0.00    -0.15   0.09  -0.01    -0.26   0.16  -0.00
    16   1    -0.00   0.81   0.00    -0.00   0.60   0.00     0.70   0.00  -0.14
    17   1    -0.00  -0.01  -0.00    -0.00  -0.01  -0.00    -0.26   0.00  -0.28
    18   1     0.00  -0.00  -0.00     0.00  -0.00  -0.00    -0.26  -0.00   0.02
    19   1    -0.00   0.00   0.00    -0.00   0.00   0.00     0.02   0.00  -0.07
    20   1     0.00  -0.00   0.00     0.00  -0.00   0.00    -0.04  -0.00   0.02
    21   1    -0.00   0.02   0.00    -0.00   0.02   0.00     0.04   0.00  -0.03
    22   1    -0.34  -0.22  -0.02     0.40   0.33  -0.05     0.03   0.01  -0.02
    23   1    -0.06  -0.04  -0.00     0.15   0.09   0.01    -0.26  -0.16  -0.00
                     43                     44                     45
                      A                      A                      A
 Frequencies --   1271.1393              1284.5147              1363.0952
 Red. masses --      2.1500                 1.3431                 4.8472
 Frc consts  --      2.0468                 1.3057                 5.3063
 IR Inten    --     37.5316                13.4490                 1.3840
  Atom  AN      X      Y      Z        X      Y      Z        X      Y      Z
     1   8    -0.00  -0.04  -0.00     0.01  -0.00  -0.02    -0.00  -0.00  -0.00
     2   6    -0.00   0.24   0.00     0.04   0.00   0.04     0.00   0.00   0.00
     3   6     0.06  -0.13   0.00    -0.09   0.06  -0.01    -0.00   0.00   0.00
     4  16     0.00   0.00   0.01    -0.00  -0.01  -0.00    -0.00   0.00  -0.00
     5   6     0.00  -0.01   0.00    -0.04  -0.00  -0.01     0.08   0.00  -0.03
     6   6    -0.00   0.00  -0.00     0.03  -0.00   0.02    -0.07  -0.00   0.24
     7   6    -0.00   0.00   0.00     0.01   0.00  -0.00    -0.19   0.00  -0.15
     8   6     0.00   0.00   0.00    -0.00   0.00  -0.01     0.23   0.00  -0.07
     9   6     0.00   0.00  -0.00     0.00  -0.00   0.00    -0.05  -0.00   0.23
    10   6     0.00  -0.00   0.00    -0.01  -0.00   0.00    -0.17   0.00  -0.16
    11   6    -0.00  -0.00   0.00     0.01   0.00  -0.01     0.22   0.00  -0.07
    12  16    -0.00   0.00  -0.01    -0.00   0.01  -0.00    -0.00  -0.00  -0.00
    13   6    -0.06  -0.13  -0.00    -0.09  -0.06  -0.01    -0.00  -0.00   0.00
    14   1    -0.09  -0.12  -0.19     0.44  -0.26   0.08    -0.01  -0.00  -0.01
    15   1    -0.51   0.33  -0.02     0.39  -0.22   0.00     0.03  -0.04   0.00
    16   1    -0.00   0.19   0.00     0.12   0.00  -0.04    -0.62  -0.00   0.07
    17   1     0.00  -0.00   0.00    -0.05   0.00  -0.05     0.17  -0.00   0.17
    18   1     0.00  -0.00  -0.00    -0.06  -0.00   0.01    -0.19  -0.00   0.06
    19   1    -0.00   0.00   0.00     0.00   0.00  -0.00     0.05   0.00  -0.26
    20   1     0.00  -0.00   0.00    -0.01   0.00  -0.00     0.18  -0.00   0.14
    21   1    -0.00   0.01   0.00     0.01   0.00  -0.01    -0.17  -0.00   0.06
    22   1     0.09  -0.12   0.19     0.44   0.26   0.08    -0.01   0.00  -0.01
    23   1     0.51   0.33   0.02     0.39   0.22   0.00     0.03   0.04   0.00
                     46                     47                     48
                      A                      A                      A
 Frequencies --   1372.3843              1471.6931              1485.1518
 Red. masses --      1.2784                 1.1085                 1.0976
 Frc consts  --      1.4186                 1.4146                 1.4264
 IR Inten    --      1.8376                12.8588                12.3811
  Atom  AN      X      Y      Z        X      Y      Z        X      Y      Z
     1   8    -0.00   0.00   0.00    -0.00  -0.00   0.00    -0.01  -0.00   0.01
     2   6     0.00  -0.00   0.00    -0.00   0.02   0.00    -0.01  -0.00  -0.02
     3   6    -0.00  -0.00   0.00    -0.02  -0.05  -0.04    -0.01  -0.05  -0.03
     4  16     0.00   0.00  -0.00    -0.00  -0.00  -0.00    -0.00  -0.00  -0.00
     5   6     0.04   0.00  -0.02     0.00   0.00   0.00     0.00  -0.00  -0.00
     6   6    -0.03  -0.00   0.09    -0.00  -0.00  -0.00     0.00   0.00  -0.01
     7   6     0.06  -0.00   0.03    -0.00  -0.00   0.00    -0.01  -0.00   0.00
     8   6     0.03   0.00  -0.02     0.00  -0.00  -0.00     0.01  -0.00   0.00
     9   6     0.01   0.00  -0.06     0.00   0.00  -0.00     0.00   0.00  -0.00
    10   6    -0.01   0.00  -0.03    -0.00   0.00  -0.00    -0.01   0.00  -0.00
    11   6    -0.07  -0.00   0.01     0.00  -0.00   0.00     0.00  -0.00   0.00
    12  16     0.00  -0.00  -0.00     0.00  -0.00   0.00    -0.00   0.00  -0.00
    13   6    -0.00   0.00   0.00     0.02  -0.05   0.04    -0.01   0.05  -0.03
    14   1    -0.01   0.00  -0.01     0.09   0.12   0.47     0.07   0.13   0.47
    15   1     0.00  -0.01  -0.00     0.25   0.43  -0.03     0.22   0.45  -0.03
    16   1    -0.32  -0.00   0.03    -0.00  -0.01  -0.00    -0.00   0.00  -0.01
    17   1    -0.36   0.00  -0.34     0.00   0.00   0.00     0.00  -0.00   0.01
    18   1    -0.33  -0.00   0.10    -0.00   0.00   0.00    -0.02  -0.00   0.01
    19   1    -0.06  -0.00   0.30    -0.00  -0.00   0.00    -0.01  -0.00   0.03
    20   1     0.28  -0.00   0.22     0.00   0.00   0.00     0.02  -0.00   0.02
    21   1     0.50   0.00  -0.18    -0.00  -0.00   0.00    -0.01  -0.00   0.01
    22   1    -0.01  -0.00  -0.01    -0.09   0.12  -0.47     0.07  -0.13   0.47
    23   1     0.00   0.01  -0.00    -0.25   0.43   0.03     0.22  -0.45  -0.03
                     49                     50                     51
                      A                      A                      A
 Frequencies --   1501.2514              1544.0440              1643.4140
 Red. masses --      2.1860                 2.1865                 5.4473
 Frc consts  --      2.9028                 3.0713                 8.6681
 IR Inten    --      7.5815                 9.1788                 1.1977
  Atom  AN      X      Y      Z        X      Y      Z        X      Y      Z
     1   8     0.00   0.00  -0.00     0.00  -0.00  -0.00     0.00   0.00  -0.00
     2   6     0.00  -0.00   0.00     0.00   0.00  -0.00    -0.00  -0.00   0.00
     3   6     0.00   0.01   0.00    -0.00   0.00   0.00     0.00  -0.00   0.00
     4  16    -0.00  -0.00   0.00    -0.00  -0.00   0.00    -0.00  -0.00   0.00
     5   6    -0.02  -0.00   0.03    -0.03   0.00  -0.01    -0.01  -0.00   0.03
     6   6     0.03   0.00  -0.16     0.14  -0.00   0.03     0.05   0.00  -0.29
     7   6    -0.10  -0.00   0.04    -0.05   0.00  -0.11     0.07  -0.00   0.21
     8   6     0.13  -0.00   0.04    -0.13  -0.00   0.08     0.09   0.00  -0.19
     9   6     0.03   0.00  -0.12     0.10  -0.00   0.02    -0.07  -0.00   0.36
    10   6    -0.14   0.00  -0.02    -0.08   0.00  -0.12    -0.04   0.00  -0.22
    11   6     0.08  -0.00   0.07    -0.09  -0.00   0.08    -0.12  -0.00   0.16
    12  16    -0.00   0.00   0.00    -0.00   0.00   0.00    -0.00   0.00   0.00
    13   6     0.00  -0.01   0.00    -0.00  -0.00   0.00     0.00   0.00   0.00
    14   1    -0.01  -0.01  -0.05     0.00  -0.00  -0.00    -0.01  -0.00  -0.01
    15   1    -0.03  -0.05   0.00    -0.00  -0.00   0.00    -0.01  -0.00   0.00
    16   1     0.25   0.00  -0.01    -0.03   0.00  -0.01     0.20   0.00  -0.00
    17   1     0.09  -0.00   0.23     0.39  -0.00   0.26    -0.29   0.00  -0.11
    18   1    -0.34  -0.00   0.21     0.47   0.00  -0.10    -0.21   0.00  -0.11
    19   1    -0.12  -0.00   0.61     0.12  -0.00   0.03     0.11   0.00  -0.49
    20   1     0.22  -0.00   0.32     0.38  -0.00   0.28     0.26  -0.00   0.01
    21   1    -0.18  -0.00   0.18     0.44   0.00  -0.08     0.29  -0.00   0.03
    22   1    -0.01   0.01  -0.05     0.00   0.00  -0.00    -0.01   0.00  -0.01
    23   1    -0.03   0.05   0.00    -0.00   0.00   0.00    -0.01   0.00   0.00
                     52                     53                     54
                      A                      A                      A
 Frequencies --   1662.0952              1818.3011              3047.3644
 Red. masses --      5.5085                11.1118                 1.0664
 Frc consts  --      8.9659                21.6455                 5.8346
 IR Inten    --      0.9254               218.3199                 0.2201
  Atom  AN      X      Y      Z        X      Y      Z        X      Y      Z
     1   8     0.00   0.00  -0.00    -0.38  -0.00   0.32    -0.00   0.00   0.00
     2   6    -0.00  -0.00   0.00     0.58   0.00  -0.49    -0.00  -0.00  -0.00
     3   6     0.00  -0.00  -0.00    -0.03   0.00   0.04     0.01   0.02   0.05
     4  16     0.00   0.00  -0.00    -0.00   0.00   0.00     0.00  -0.00   0.00
     5   6     0.02   0.00   0.01    -0.00  -0.00   0.00    -0.00  -0.00  -0.00
     6   6    -0.20   0.00  -0.02    -0.00   0.00  -0.00     0.00   0.00   0.00
     7   6     0.27  -0.00   0.13     0.00  -0.00   0.00     0.00   0.00   0.00
     8   6    -0.29  -0.00   0.02    -0.00   0.00  -0.00     0.00   0.00  -0.00
     9   6     0.14  -0.00   0.01     0.00  -0.00   0.00    -0.00  -0.00   0.00
    10   6    -0.25   0.00  -0.12    -0.00   0.00  -0.00    -0.00  -0.00   0.00
    11   6     0.31   0.00  -0.03     0.00  -0.00   0.00     0.00   0.00   0.00
    12  16     0.00  -0.00  -0.00    -0.00  -0.00   0.00    -0.00  -0.00  -0.00
    13   6     0.00   0.00  -0.00    -0.03  -0.00   0.04    -0.01   0.02  -0.05
    14   1    -0.00   0.00   0.00     0.15  -0.16  -0.12    -0.12  -0.17   0.09
    15   1     0.00   0.00  -0.00    -0.10   0.10   0.02     0.01  -0.01  -0.67
    16   1    -0.01  -0.00   0.01    -0.00  -0.00   0.00     0.00   0.00   0.00
    17   1    -0.24   0.00  -0.33    -0.00   0.00  -0.00     0.00  -0.00  -0.00
    18   1     0.30   0.00  -0.18     0.00   0.00  -0.00     0.00   0.00   0.00
    19   1     0.15  -0.00   0.05     0.00   0.00  -0.00     0.00   0.00   0.00
    20   1     0.18  -0.00   0.28     0.00  -0.00   0.00     0.00  -0.00  -0.00
    21   1    -0.35  -0.00   0.19    -0.00  -0.00   0.00    -0.00   0.00  -0.00
    22   1    -0.00  -0.00   0.00     0.15   0.16  -0.12     0.12  -0.17  -0.09
    23   1     0.00  -0.00  -0.00    -0.10  -0.10   0.02    -0.01  -0.01   0.67
                     55                     56                     57
                      A                      A                      A
 Frequencies --   3055.0322              3074.3018              3151.0973
 Red. masses --      1.0663                 1.0862                 1.0981
 Frc consts  --      5.8638                 6.0485                 6.4242
 IR Inten    --     31.8749                 7.3850                 0.5946
  Atom  AN      X      Y      Z        X      Y      Z        X      Y      Z
     1   8    -0.00  -0.00   0.00     0.00   0.00  -0.00    -0.00   0.00   0.00
     2   6    -0.00   0.00  -0.00     0.00  -0.00   0.00     0.00  -0.00  -0.00
     3   6    -0.01  -0.02  -0.05     0.00   0.00   0.01    -0.03  -0.04   0.04
     4  16    -0.00   0.00  -0.00    -0.00   0.00   0.00    -0.00   0.00  -0.00
     5   6    -0.00   0.00  -0.01    -0.01   0.00  -0.08    -0.00   0.00   0.00
     6   6     0.00  -0.00   0.00     0.00   0.00  -0.00    -0.00   0.00   0.00
     7   6     0.00  -0.00   0.00     0.00  -0.00   0.00     0.00  -0.00  -0.00
     8   6     0.00   0.00  -0.00     0.00   0.00  -0.00    -0.00  -0.00   0.00
     9   6    -0.00   0.00   0.00     0.00  -0.00   0.00     0.00   0.00  -0.00
    10   6    -0.00   0.00   0.00    -0.00   0.00  -0.00    -0.00  -0.00   0.00
    11   6     0.00  -0.00   0.00     0.00  -0.00   0.00    -0.00  -0.00   0.00
    12  16    -0.00  -0.00  -0.00    -0.00  -0.00   0.00     0.00   0.00   0.00
    13   6    -0.01   0.02  -0.05     0.00  -0.00   0.01     0.03  -0.04  -0.04
    14   1     0.12   0.18  -0.09    -0.01  -0.02   0.01     0.35   0.52  -0.24
    15   1    -0.01   0.01   0.66     0.01  -0.00  -0.08    -0.00  -0.01  -0.21
    16   1     0.01  -0.00   0.12     0.13  -0.00   0.98    -0.00   0.00  -0.00
    17   1     0.00   0.00  -0.00    -0.00  -0.00   0.00    -0.00   0.00   0.00
    18   1     0.00  -0.00   0.00    -0.00  -0.00   0.00     0.00   0.00   0.00
    19   1     0.00  -0.00   0.00    -0.00  -0.00   0.00    -0.00   0.00  -0.00
    20   1     0.00   0.00  -0.00    -0.00  -0.00   0.00     0.00   0.00  -0.00
    21   1    -0.00   0.00  -0.00    -0.01   0.00  -0.02    -0.00   0.00  -0.00
    22   1     0.12  -0.18  -0.09    -0.01   0.02   0.01    -0.35   0.52   0.24
    23   1    -0.01  -0.01   0.66     0.01   0.00  -0.08     0.00  -0.01   0.21
                     58                     59                     60
                      A                      A                      A
 Frequencies --   3152.2063              3181.4591              3189.4451
 Red. masses --      1.0991                 1.0863                 1.0876
 Frc consts  --      6.4348                 6.4779                 6.5184
[...]
 .00010104,-0.00018085,0.00024389,-0.00012919,0.00030906,-0.04476913,0.
 01873172,-0.10359463,-0.09479070,0.01075781,0.38494816,0.00144379,0.00
 119169,-0.00021604,0.01202085,-0.01545145,0.00206516,-0.16073837,0.141
 17714,-0.00708802,-0.00814764,0.00911352,-0.00156610,-0.00119214,-0.00
 152494,-0.00292803,-0.00034286,0.00097470,0.00008264,-0.00017087,0.000
 04756,0.00000038,0.00002291,-0.00005466,0.00001381,-0.00006444,0.00000
 888,-0.00000133,-0.00003176,-0.00008429,-0.00006322,0.00009160,0.00010
 583,-0.00016729,-0.00011353,-0.00008204,-0.00010037,-0.00209711,-0.002
 57807,-0.00025198,0.16914864,0.00024782,0.00559797,-0.00044205,0.02203
 578,-0.02526671,0.00188588,0.13473085,-0.21295246,0.01298795,-0.002845
 89,0.00544812,0.00105713,-0.00144004,-0.00032267,-0.00175655,-0.000270
 72,0.00069356,0.00013180,-0.00002486,-0.00002244,-0.00003352,-0.000022
 08,-0.00003621,0.00000572,-0.00001792,0.00000556,-0.00004305,0.0000028
 8,-0.00008198,0.00001791,-0.00007913,0.00001323,-0.00014776,-0.0003018
 2,0.00030443,-0.00030638,-0.00483654,-0.00353477,-0.00020541,-0.145833
 98,0.22905350,0.00017716,-0.00093075,-0.00117423,-0.00087368,0.0016881
 4,0.00012468,-0.00863760,0.01609517,-0.04707320,-0.01489912,0.01805355
 ,-0.00249519,-0.00202791,-0.00257612,-0.00561122,-0.00111476,0.0016716
 6,0.00043115,-0.00026150,-0.00000153,0.00002723,0.00004643,-0.00007556
 ,0.00007666,-0.00014980,0.00002205,-0.00000587,-0.00005772,-0.00017734
 ,-0.00013645,0.00012808,0.00017593,-0.00039439,0.00019864,-0.00054062,
 0.00007707,0.00011210,-0.00076693,0.00119502,0.01220335,-0.01271704,0.
 05057033,-0.00157228,-0.00478646,-0.00186200,-0.01195606,0.00311006,0.
 01304600,-0.14926836,-0.00000799,0.13284776,0.00638357,-0.00031079,-0.
 02001120,0.00205968,-0.00116959,-0.00008448,0.00006578,-0.00035623,-0.
 00002377,0.00007698,0.00009320,-0.00017630,0.00000737,0.00006323,0.000
 08273,-0.00002899,-0.00001091,0.00004345,-0.00004548,0.00002806,-0.000
 04148,0.00007479,-0.00002087,0.00008376,-0.00008677,0.00025599,0.00003
 165,0.00005897,0.00033452,-0.00070835,-0.01077245,-0.00219944,0.015526
 98,0.16472544,-0.00409510,-0.00424755,-0.00322940,-0.01672351,0.005734
 97,0.02383277,-0.00224484,-0.05466387,0.00854700,0.00320803,0.00195152
 ,-0.00461051,-0.00109751,-0.00035409,0.00150029,0.00012876,-0.00002142
 ,0.00001633,0.00002270,0.00000713,-0.00004418,-0.00003182,-0.00000030,
 0.00001316,-0.00000306,-0.00000525,-0.00002483,0.00000136,-0.00002226,
 0.00000074,-0.00002340,-0.00001196,-0.00005046,-0.00024268,0.00016653,
 -0.00028733,0.00109623,-0.00019417,-0.00194154,0.01430572,0.00216268,-
 0.02011910,0.00535870,0.05013222,0.00003690,0.00046836,-0.00107488,0.0
 0065835,-0.00115990,0.00217564,0.13793363,0.00715279,-0.19696523,0.002
 90895,-0.00308905,-0.02500114,0.00139005,-0.00096644,0.00169273,-0.000
 20261,-0.00038207,0.00017913,0.00021426,0.00010277,-0.00013453,-0.0000
 1491,0.00009304,0.00015616,-0.00005040,-0.00002192,0.00004330,-0.00005
 316,0.00001029,-0.00005016,0.00009997,-0.00000729,0.00000581,-0.000149
 89,0.00042448,-0.00024188,0.00021025,-0.00026814,-0.00071003,-0.001956
 92,-0.00059685,0.00373269,-0.13944157,-0.00293214,0.21511335,0.0000985
 0,0.,0.00010283,-0.00054331,0.,-0.00044478,0.00079382,-0.00117517,0.00
 085974,-0.00936759,0.01077474,0.01033050,-0.12370360,-0.00000018,0.129
 31595,0.01051305,0.,-0.01873338,-0.00321130,0.00000005,-0.00262608,0.0
 0062860,-0.00000006,-0.00079071,0.00001775,0.,-0.00006883,0.00010505,0
 .00000003,0.00006672,0.00058452,-0.00000005,-0.00274400,-0.00936751,-0
 .01077472,0.01033041,0.00079381,0.00117517,0.00085972,0.00042119,0.000
 01933,-0.00002729,-0.00024062,-0.00002924,-0.00103664,0.13283216,0.,0.
 00073076,0.,0.,-0.00209156,0.,-0.00205129,0.00127848,-0.00060198,0.019
 60320,-0.01172240,-0.01716617,-0.00000015,-0.03460758,0.00000054,-0.00
 000004,0.00054660,-0.00000018,0.,0.00138876,0.,-0.00000001,0.00023545,
 -0.00000002,0.00000001,0.00006171,0.,0.,-0.00010129,0.,-0.00000001,-0.
 00029074,0.00000004,-0.01960321,-0.01172251,0.01716615,0.00205129,0.00
 127850,0.00060197,-0.00041227,-0.00001620,-0.00014353,0.00004209,0.000
 45882,0.00129224,0.00000019,0.05434687,0.00001034,0.,-0.00004164,-0.00
 009899,0.,-0.00003394,-0.00012948,0.00013627,0.00194607,-0.00262584,0.
 00058835,0.00219307,0.11713927,0.00000041,-0.24085853,0.01292121,-0.00
 000009,-0.02308860,-0.00462262,0.00000010,-0.00223062,0.00132000,-0.00
 000007,-0.00069517,-0.00012829,0.00000001,0.00032301,-0.00042220,-0.00
 000002,0.00004669,0.00285259,-0.00000007,0.00085532,-0.00262582,-0.000
 58834,0.00219312,-0.00012948,-0.00013626,0.00194606,0.00005867,0.00004
 130,0.00012046,0.00119810,-0.00026558,0.00012141,-0.12436988,-0.000000
 37,0.25621985,-0.00007208,0.,0.00002927,0.00012514,0.00000002,-0.00005
 565,0.00035813,-0.00013928,-0.00014745,-0.00030387,0.00026076,-0.00005
 416,-0.00017666,-0.00000005,-0.00045545,-0.00746135,0.00000016,0.00044
 194,-0.33461804,0.00000569,0.04375585,-0.01450865,0.00000036,0.0050577
 6,-0.00011851,0.00000007,-0.00358590,0.00063699,-0.00000002,-0.0003103
 1,0.00133135,0.00000014,0.00192163,-0.00030381,-0.00026074,-0.00005415
 ,0.00035807,0.00013926,-0.00014741,0.00002722,0.00001221,0.00004662,-0
 .00010234,-0.00004290,-0.00013612,0.00002933,0.,0.00012602,0.35509767,
 0.,-0.00015741,0.,0.,0.00046021,0.,0.00045069,-0.00018077,-0.00024781,
 0.00019808,-0.00061860,0.00110005,-0.00000005,-0.00254310,0.00000005,0
 .00000087,0.00336297,-0.00000010,0.00000572,-0.03652472,-0.00000134,-0
 .00000029,0.00306497,0.00000003,0.00000005,0.00728773,-0.00000017,-0.0
 0000003,-0.00043484,0.,0.00000003,0.00608503,-0.00000027,-0.00019803,-
 0.00061858,-0.00109994,-0.00045072,-0.00018077,0.00024781,0.00001330,0
 .00001832,0.00004291,-0.00009432,-0.00002110,-0.00016101,0.00000001,-0
 .00036820,0.,-0.00000628,0.02581530,0.00017545,0.00000001,-0.00000214,
 -0.00020158,-0.00000003,-0.00001904,-0.00038058,0.00001871,0.00008588,
 -0.00001971,0.00039813,-0.00059625,0.00110757,0.00000002,0.00090204,0.
 03040696,-0.00000052,0.00015970,0.04291436,-0.00000137,-0.06761894,-0.
 02596467,0.00000050,0.00850672,-0.00265530,-0.00000020,-0.00390952,-0.
 00026609,0.,-0.00114651,0.00080256,-0.00000026,-0.00560248,-0.00001968
 ,-0.00039800,-0.00059609,-0.00038053,-0.00001870,0.00008585,0.00000069
 ,-0.00000532,-0.00001596,0.00010193,0.00003612,0.00013538,0.00003568,0
 .00000002,0.00025910,-0.04651236,0.00000157,0.06794137,-0.00001569,0.,
 0.00000631,0.00002860,0.,-0.00000092,-0.00001966,0.00000865,-0.0000013
 8,0.00006112,-0.00006098,0.00003986,0.00065990,-0.00000002,-0.00094856
 ,-0.00235315,0.00000009,-0.00297370,0.01142645,-0.00000056,-0.02024000
 ,-0.09804995,0.00000282,0.09551671,-0.00629138,0.00000075,0.03111274,-
 0.00584419,0.00000016,-0.00058177,-0.00109474,0.,-0.00074602,0.0000611
 1,0.00006098,0.00003985,-0.00001966,-0.00000865,-0.00000138,-0.0000051
 8,0.00000034,-0.00000196,0.00000537,-0.00000220,0.00001454,-0.00021008
 ,0.,-0.00030051,0.00096808,-0.00000006,0.00039588,0.09987864,0.,-0.000
 01413,0.,0.,0.00002858,0.,-0.00003128,-0.00002984,-0.00001108,0.000116
 01,-0.00008127,0.00005042,0.00000001,0.00044418,-0.00000003,0.00000001
 ,0.00733292,-0.00000007,0.00000007,0.00255134,-0.00000022,0.00000290,-
 0.03619050,-0.00000672,0.00000004,0.00262955,-0.00000046,0.00000018,0.
 00686040,-0.00000013,0.00000004,-0.00018209,0.00000005,-0.00011599,-0.
 00008126,-0.00005041,0.00003128,-0.00002984,0.00001108,0.,0.00000116,0
 .00000339,-0.00000566,0.00000584,0.00000582,-0.00000001,-0.00015849,-0
 .00000001,-0.00000009,-0.00400725,0.00000010,-0.00000311,0.02566466,-0
 .00011952,0.,0.00001734,0.00015187,0.,-0.00001774,-0.00006041,0.000069
 19,0.00001391,0.00005903,-0.00015896,-0.00000965,0.00100637,-0.0000000
 4,-0.00070620,-0.00418351,-0.00000010,-0.00134480,0.01110041,-0.000000
 60,-0.01881007,0.09539391,-0.00000671,-0.30256421,-0.00046516,-0.00000
 006,-0.00037411,0.00065882,-0.00000012,0.00159797,-0.00071646,0.000000
 02,0.00045193,0.00005904,0.00015896,-0.00000965,-0.00006042,-0.0000691
 8,0.00001391,-0.00002396,-0.00001039,-0.00003407,0.00000945,-0.0000144
 1,0.00001249,-0.00028272,0.,-0.00034444,-0.00012322,0.00000010,0.00099
 470,-0.10268606,0.00000740,0.32049625,-0.00005572,0.,0.00000158,0.0000
 6484,0.,-0.00000904,0.00003110,0.00000733,-0.00000535,-0.00000068,-0.0
 0002769,0.00001007,0.00011114,-0.00000001,-0.00002881,-0.00056634,0.00
 000002,0.00109485,-0.00519335,0.00000022,0.00261670,-0.01437397,-0.000
 00031,-0.02674935,-0.17025417,-0.00000099,-0.13627380,0.01134995,0.000
 00010,0.01058202,-0.00015458,0.00000013,0.00257538,-0.00000068,0.00002
 769,0.00001006,0.00003110,-0.00000733,-0.00000535,-0.00000658,-0.00000
 217,-0.00000673,-0.00001135,-0.00001125,-0.00002006,-0.00004050,0.,-0.
 00008340,-0.00077442,-0.00000002,-0.00136148,0.00108261,-0.00000006,0.
 00031318,0.17747536,0.,0.00000598,0.,0.,-0.00001464,0.,0.00007009,-0.0
 0003237,-0.00003068,0.00011744,-0.00007557,0.00009027,-0.00000003,-0.0
 0101010,0.,0.00000003,-0.00036534,0.,0.00000019,0.00715804,-0.00000015
 ,0.00000031,0.00263088,0.00000043,-0.00000101,-0.03628579,-0.00000209,
 -0.00000050,0.00262403,-0.00000051,0.00000017,0.00722725,-0.00000023,-
 0.00011744,-0.00007557,-0.00009027,-0.00007009,-0.00003238,0.00003068,
 0.00001030,0.00001007,0.00001773,-0.00000902,0.00000407,-0.00001028,0.
 ,0.00000519,0.,0.00000002,0.00013877,0.00000002,-0.00000007,-0.0038246
 8,0.00000009,0.00000097,0.02553310,-0.00006395,0.,0.00000358,0.0000728
 9,0.,-0.00001129,-0.00001259,0.00001343,0.00000859,-0.00004088,-0.0000
 0800,-0.00000219,-0.00002766,0.00000002,0.00006734,0.00103051,0.,-0.00
 009866,0.00147573,-0.00000014,0.00099911,0.00485611,0.00000004,0.00779
 195,-0.13624968,-0.00000206,-0.23029699,-0.02103834,-0.00000015,-0.018
 08245,0.00377644,-0.00000025,-0.00391730,-0.00004087,0.00000801,-0.000
 00219,-0.00001258,-0.00001343,0.00000859,-0.00000890,-0.00000473,-0.00
 001087,0.00000415,-0.00000934,-0.00000071,0.00000766,0.,0.00007122,0.0
 0032646,0.,0.00027458,-0.00040244,0.00000010,0.00080504,0.14718577,0.0
 0000236,0.24239801,-0.00009935,0.,0.00000707,0.00012551,0.,-0.00001614
 ,-0.00006389,0.00008919,0.00003123,-0.00004710,-0.00012128,-0.00013103
 ,-0.00055963,0.00000002,0.00056297,0.00009117,0.00000003,-0.00362662,0
 .00067166,-0.00000002,-0.00028872,0.00127063,0.00000011,0.00225919,-0.
 00717436,0.00000010,-0.00061748,-0.33280314,0.00000433,0.04349629,-0.0
 1555720,0.00000030,0.00555248,-0.00004710,0.00012127,-0.00013102,-0.00
 006389,-0.00008919,0.00003123,-0.00002519,-0.00001554,-0.00004215,0.00
 000447,-0.00001728,-0.00000719,-0.00001436,0.,-0.00001521,-0.00006604,
 -0.00000001,0.00003538,-0.00045558,0.,-0.00010213,0.00085065,-0.000000
 05,0.00025785,0.35304499,0.,-0.00002691,0.,0.,0.00007818,0.,-0.0000210
 0,0.00004929,-0.00003173,-0.00005879,-0.00003920,-0.00010398,-0.000000
 02,0.00029842,0.,0.00000009,0.00721108,-0.00000020,0.,-0.00049820,0.00
 000003,0.00000007,0.00698492,-0.00000025,0.00000069,0.00259186,-0.0000
 0006,0.00000438,-0.03564733,-0.00000102,-0.00000036,0.00224478,0.00000
 001,0.00005879,-0.00003919,0.00010397,0.00002100,0.00004929,0.00003173
 ,-0.00000999,-0.00000169,-0.00001984,-0.00000287,0.00000453,-0.0000040
 0,0.,-0.00004269,0.,-0.00000002,-0.00118961,0.00000003,0.00000003,0.00
 029269,0.,-0.00000006,-0.00388468,0.00000009,-0.00000475,0.02545286,-0
 .00003438,0.,0.00000346,0.00005556,0.,0.00000363,-0.00005733,0.0000801
 1,0.00000599,-0.00004838,-0.00008574,-0.00012725,-0.00107059,0.0000000
 1,0.00045711,-0.00249559,-0.00000016,-0.00366408,-0.00033444,-0.000000
 01,-0.00128626,0.00094967,-0.00000025,-0.00553132,0.03099222,-0.000000
 40,0.00054520,0.04358683,-0.00000107,-0.06736435,-0.02607186,0.0000003
 9,0.00820913,-0.00004838,0.00008574,-0.00012725,-0.00005733,-0.0000801
 1,0.00000599,-0.00001610,-0.00000814,-0.00002970,0.00000526,-0.0000042
 4,0.00000207,0.00000610,0.,-0.00001040,0.00003551,0.00000003,0.0002117
 1,0.00165153,-0.00000003,-0.00010435,-0.00045665,0.00000010,0.00106145
 ,-0.04697701,0.00000131,0.06677088,0.00009152,0.,-0.00000140,-0.000102
 17,0.,0.00000548,-0.00002755,-0.00000140,-0.00002182,0.00026393,-0.000
 18930,-0.00016661,0.00057129,-0.00000004,0.00261626,-0.00751043,0.0000
 0065,0.02950128,-0.00593106,0.00000011,-0.00074112,-0.00091824,0.,-0.0
 0065832,-0.00240006,0.00000004,-0.00304014,0.01159038,-0.00000045,-0.0
 2008024,-0.09670605,0.00000219,0.09387446,0.00026391,0.00018929,-0.000
 16662,-0.00002756,0.00000139,-0.00002181,0.00000147,0.00000488,-0.0000
 0268,-0.00002869,0.00002255,-0.00003236,-0.00029947,0.00000003,-0.0013
 3126,-0.00035112,0.00000005,0.00168293,0.00018720,-0.00000001,0.000086
 01,0.00045350,-0.00000003,-0.00109094,0.00093846,-0.00000004,0.0003961
 9,0.09996795,0.,0.00000235,0.,0.,-0.00000119,0.,0.00013899,-0.00021174
 ,-0.00004642,0.00037955,-0.00004219,0.00025295,-0.00000010,-0.00357608
 ,-0.00000003,0.00000009,0.00294965,-0.00000032,0.00000015,0.00588835,-
 0.00000012,0.,-0.00026785,0.00000002,0.00000002,0.00712193,-0.00000012
 ,0.00000009,0.00256066,-0.00000019,0.00000227,-0.03525874,-0.00000538,
 -0.00037956,-0.00004220,-0.00025294,-0.00013899,-0.00021175,0.00004642
 ,0.00003192,0.00003395,0.00007114,-0.00000381,0.00002467,-0.00000159,0
 .,0.00034790,0.00000005,0.00000001,0.00061444,-0.00000003,-0.00000002,
 -0.00121897,0.00000002,0.,0.00024962,0.,-0.00000006,-0.00389125,0.0000
 0008,-0.00000248,0.02486982,0.00001822,0.,-0.00000312,-0.00003173,0.,0
 .00000419,0.00002753,-0.00008997,0.00001345,-0.00009398,0.00014320,0.0
 0014792,-0.00148846,0.00000009,0.00070306,-0.00010177,-0.00000012,-0.0
 0303552,0.00075682,-0.00000007,0.00168515,-0.00057534,0.00000002,0.000
 45529,-0.00446404,-0.00000009,-0.00161767,0.01158713,-0.00000052,-0.01
 875218,0.09443244,-0.00000541,-0.29915555,-0.00009396,-0.00014320,0.00
 014793,0.00002754,0.00008998,0.00001345,0.00002165,0.00000610,0.000027
 43,0.00001135,0.00000761,0.00001444,0.00027293,0.00000002,0.00076609,-
 0.00006939,-0.00000001,-0.00016949,0.00009469,0.00000002,-0.00006265,0
 .00063721,-0.00000003,-0.00105523,-0.00022963,0.00000008,0.00099596,-0
 .10077224,0.00000601,0.31883518,0.00144379,-0.00119169,-0.00021604,0.0
 1202086,0.01545146,0.00206514,-0.00209711,0.00257808,-0.00025198,-0.00
 011353,0.00008204,-0.00010037,-0.00119215,0.00152494,-0.00292804,-0.00
 034284,-0.00097471,0.00008264,-0.00017087,-0.00004756,0.00000038,0.000
 02290,0.00005466,0.00001380,-0.00006444,-0.00000888,-0.00000134,-0.000
 03176,0.00008429,-0.00006321,0.00009159,-0.00010583,-0.00016729,-0.008
 14766,-0.00911355,-0.00156611,-0.16073799,-0.14117699,-0.00708784,0.00
 055584,0.00085028,-0.00002635,-0.00002538,0.00009863,-0.00003172,0.000
 42118,0.00041227,0.00005868,0.00002722,-0.00001331,0.00000069,-0.00000
 518,0.,-0.00002396,-0.00000658,-0.00001031,-0.00000890,-0.00002519,0.0
 0000999,-0.00001610,0.00000147,-0.00003192,0.00002166,0.16914828,-0.00
 024782,0.00559796,0.00044205,-0.02203577,-0.02526668,-0.00188585,0.004
 83654,-0.00353476,0.00020541,0.00030182,0.00030443,0.00030638,0.001440
 05,-0.00032268,0.00175654,0.00027071,0.00069356,-0.00013180,0.00002486
 ,-0.00002243,0.00003352,0.00002208,-0.00003622,-0.00000572,0.00001792,
 0.00000557,0.00004305,-0.00000289,-0.00008198,-0.00001791,0.00007913,0
 .00001323,0.00014776,0.00284587,0.00544812,-0.00105713,-0.13473067,-0.
 21295275,-0.01298775,-0.00085028,-0.00142931,-0.00012386,0.00001425,0.
 00032187,-0.00001953,-0.00001933,-0.00001620,-0.00004130,-0.00001221,0
 .00001832,0.00000532,-0.00000034,0.00000116,0.00001039,0.00000217,0.00
 001007,0.00000473,0.00001554,-0.00000169,0.00000814,-0.00000488,0.0000
 3395,-0.00000610,0.14583383,0.22905377,0.00017716,0.00093075,-0.001174
 24,-0.00087368,-0.00168814,0.00012467,0.00011210,0.00076693,0.00119503
 ,0.00019865,0.00054063,0.00007707,-0.00202794,0.00257612,-0.00561121,-
 0.00111473,-0.00167166,0.00043115,-0.00026150,0.00000153,0.00002723,0.
 00004642,0.00007558,0.00007665,-0.00014980,-0.00002205,-0.00000588,-0.
 00005771,0.00017733,-0.00013645,0.00012806,-0.00017593,-0.00039437,-0.
 01489912,-0.01805351,-0.00249520,-0.00863740,-0.01609498,-0.04707312,-
 0.00002635,0.00012386,0.00034928,-0.00031010,-0.00035054,0.00024915,-0
 .00002729,0.00014352,0.00012046,0.00004661,-0.00004292,-0.00001596,-0.
 00000196,-0.00000340,-0.00003407,-0.00000673,-0.00001773,-0.00001087,-
 0.00004215,0.00001984,-0.00002970,-0.00000269,-0.00007114,0.00002743,0
 .01220316,0.01271682,0.05057030,-0.00157227,0.00478645,-0.00186200,-0.
 01195606,-0.00311005,0.01304601,0.00005897,-0.00033452,-0.00070835,-0.
 00008677,-0.00025598,0.00003165,0.00205967,0.00116960,-0.00008447,0.00
 006577,0.00035622,-0.00002377,0.00007696,-0.00009320,-0.00017627,0.000
 00739,-0.00006322,0.00008274,-0.00002900,0.00001091,0.00004346,-0.0000
 4548,-0.00002806,-0.00004149,0.00007481,0.00002087,0.00008376,0.006383
 52,0.00031079,-0.02001123,-0.14926761,0.00000812,0.13284688,-0.0000253
 8,-0.00001425,-0.00031010,0.00067635,0.00032212,-0.00033335,-0.0002406
 1,-0.00004210,0.00119811,-0.00010232,0.00009433,0.00010192,0.00000537,
 0.00000566,0.00000945,-0.00001135,0.00000902,0.00000415,0.00000448,0.0
 0000287,0.00000526,-0.00002869,0.00000381,0.00001135,-0.01077246,0.002
 19943,0.01552699,0.16472473,0.00409508,-0.00424754,0.00322940,0.016723
 47,0.00573496,-0.02383276,-0.00109621,-0.00019417,0.00194154,0.0002426
 8,0.00016653,0.00028734,0.00109751,-0.00035409,-0.00150029,-0.00012876
 ,-0.00002141,-0.00001633,-0.00002269,0.00000713,0.00004417,0.00003182,
 -0.00000030,-0.00001315,0.00000306,-0.00000525,0.00002483,-0.00000136,
 -0.00002226,-0.00000074,0.00002339,-0.00001196,0.00005046,-0.00320800,
 0.00195151,0.00461053,0.00224498,-0.05466408,-0.00854714,-0.00009863,0
 .00032187,0.00035054,-0.00032213,-0.00143288,0.00007042,0.00002924,0.0
 0045881,0.00026558,0.00004289,-0.00002111,-0.00003612,0.00000220,0.000
 00584,0.00001441,0.00001125,0.00000407,0.00000934,0.00001728,0.0000045
 3,0.00000424,-0.00002254,0.00002467,-0.00000761,-0.01430572,0.00216268
 ,0.02011911,-0.00535881,0.05013243,0.00003690,-0.00046837,-0.00107488,
 0.00065836,0.00115992,0.00217562,0.00021027,0.00026813,-0.00071003,-0.
 00014989,-0.00042447,-0.00024188,0.00139004,0.00096643,0.00169274,-0.0
 0020262,0.00038206,0.00017914,0.00021424,-0.00010277,-0.00013450,-0.00
 001489,-0.00009302,0.00015616,-0.00005040,0.00002192,0.00004331,-0.000
 05316,-0.00001029,-0.00005017,0.00009998,0.00000728,0.00000581,0.00290
 888,0.00308907,-0.02500116,0.13793277,-0.00715294,-0.19696444,-0.00003
 172,0.00001953,0.00024915,-0.00033335,-0.00007042,0.00054481,-0.001036
 63,-0.00129224,0.00012142,-0.00013610,0.00016101,0.00013536,0.00001454
 ,-0.00000582,0.00001249,-0.00002006,0.00001028,-0.00000071,-0.00000718
 ,0.00000400,0.00000207,-0.00003236,0.00000159,0.00001444,-0.00195688,0
 .00059685,0.00373264,-0.13944071,0.00293226,0.21511261\\-0.00000391,-0
 .00000003,0.00003212,0.00003205,0.00000029,-0.00000802,-0.00002033,-0.
 00003417,-0.00001258,0.00001314,-0.00001253,-0.00000338,0.00000126,0.,
 0.00002528,-0.00000268,0.00000109,-0.00002723,0.00000789,-0.00000046,-
 0.00000549,0.00001612,0.00000007,-0.00000955,-0.00001181,0.00000002,0.
 00000717,-0.00001075,-0.00000015,0.00000600,-0.00001634,-0.00000023,0.
 00001106,0.00001306,0.00001276,-0.00000333,-0.00001968,0.00003351,-0.0
 0001282,-0.00000478,0.00000084,0.00000154,0.00000292,0.00000609,-0.000
 00157,0.00002231,-0.00000015,0.00000429,-0.00002412,-0.00000018,-0.000
 00533,-0.00000693,0.,0.00000690,0.00000365,-0.00000002,0.00000731,0.00
 000716,0.00000006,-0.00000172,0.00000402,-0.00000010,-0.00001099,-0.00
 000483,-0.00000075,0.00000153,0.00000257,-0.00000596,-0.00000121\\\@


 THE PROBLEM WITH THE LADDER OF SUCCESS IS YOU CAN'T
 CLIMB IT WHILE YOU'RE TWIDDLING YOUR THUMBS.
 Job cpu time:       0 days  0 hours  1 minutes 56.2 seconds.
 Elapsed time:       0 days  0 hours  2 minutes  2.2 seconds.
 File lengths (MBytes):  RWF=    154 Int=      0 D2E=      0 Chk=     16 Scr=      1
 Normal termination of Gaussian 16 at Sat Feb 24 00:22:01 2024.
