 Entering Gaussian System, Link 0=g16
 Input=/Volumes/SSD-PMU3/b3lyp_6-31gd_freq/CLOIHANKXGLKAV-IWSPIJDZSA-N_calculating/gaussianinput0.gjf
 Output=/Volumes/SSD-PMU3/b3lyp_6-31gd_freq/CLOIHANKXGLKAV-IWSPIJDZSA-N_calculating/gaussianinput0.log
 Initial command:
 /Applications/g16/l1.exe "/Users/macmini_m1_2022/PycharmProjects/sphere_model/sphere_model_lib/Gau-79044.inp" -scrdir="/Users/macmini_m1_2022/PycharmProjects/sphere_model/sphere_model_lib/"
 Entering Link 1 = /Applications/g16/l1.exe PID=     79045.
  
 Copyright (c) 1988,1990,1992,1993,1995,1998,2003,2009,2016,
            Gaussian, Inc.  All Rights Reserved.
  
 This is part of the Gaussian(R) 16 program.  It is based on
 the Gaussian(R) 09 system (copyright 2009, Gaussian, Inc.),
 the Gaussian(R) 03 system (copyright 2003, Gaussian, Inc.),
 the Gaussian(R) 98 system (copyright 1998, Gaussian, Inc.),
 the Gaussian(R) 94 system (copyright 1995, Gaussian, Inc.),
 the Gaussian 92(TM) system (copyright 1992, Gaussian, Inc.),
 the Gaussian 90(TM) system (copyright 1990, Gaussian, Inc.),
 the Gaussian 88(TM) system (copyright 1988, Gaussian, Inc.),
 the Gaussian 86(TM) system (copyright 1986, Carnegie Mellon
 University), and the Gaussian 82(TM) system (copyright 1983,
 Carnegie Mellon University). Gaussian is a federally registered
 trademark of Gaussian, Inc.
  
 This software contains proprietary and confidential information,
 including trade secrets, belonging to Gaussian, Inc.
  
 This software is provided under written license and may be
 used, copied, transmitted, or stored only in accord with that
 written license.
  
 The following legend is applicable only to US Government
 contracts under FAR:
  
                    RESTRICTED RIGHTS LEGEND
  
 Use, reproduction and disclosure by the US Government is
 subject to restrictions as set forth in subparagraphs (a)
 and (c) of the Commercial Computer Software - Restricted
 Rights clause in FAR 52.227-19.
  
 Gaussian, Inc.
 340 Quinnipiac St., Bldg. 40, Wallingford CT 06492
  
  
 ---------------------------------------------------------------
 Warning -- This program may not be used in any manner that
 competes with the business of Gaussian, Inc. or will provide
 assistance to any competitor of Gaussian, Inc.  The licensee
 of this program is prohibited from giving any competitor of
 Gaussian, Inc. access to this program.  By using this program,
 the user acknowledges that Gaussian, Inc. is engaged in the
 business of creating and licensing software in the field of
 computational chemistry and represents and warrants to the
 licensee that it is not a competitor of Gaussian, Inc. and that
 it will not use this program in any manner prohibited above.
 ---------------------------------------------------------------
  

 Cite this work as:
 Gaussian 16, Revision A.03,
 M. J. Frisch, G. W. Trucks, H. B. Schlegel, G. E. Scuseria, 
 M. A. Robb, J. R. Cheeseman, G. Scalmani, V. Barone, 
 G. A. Petersson, H. Nakatsuji, X. Li, M. Caricato, A. V. Marenich, 
 J. Bloino, B. G. Janesko, R. Gomperts, B. Mennucci, H. P. Hratchian, 
 J. V. Ortiz, A. F. Izmaylov, J. L. Sonnenberg, D. Williams-Young, 
 F. Ding, F. Lipparini, F. Egidi, J. Goings, B. Peng, A. Petrone, 
 T. Henderson, D. Ranasinghe, V. G. Zakrzewski, J. Gao, N. Rega, 
 G. Zheng, W. Liang, M. Hada, M. Ehara, K. Toyota, R. Fukuda, 
 J. Hasegawa, M. Ishida, T. Nakajima, Y. Honda, O. Kitao, H. Nakai, 
 T. Vreven, K. Throssell, J. A. Montgomery, Jr., J. E. Peralta, 
 F. Ogliaro, M. J. Bearpark, J. J. Heyd, E. N. Brothers, K. N. Kudin, 
 V. N. Staroverov, T. A. Keith, R. Kobayashi, J. Normand, 
 K. Raghavachari, A. P. Rendell, J. C. Burant, S. S. Iyengar, 
 J. Tomasi, M. Cossi, J. M. Millam, M. Klene, C. Adamo, R. Cammi, 
 J. W. Ochterski, R. L. Martin, K. Morokuma, O. Farkas, 
 J. B. Foresman, and D. J. Fox, Gaussian, Inc., Wallingford CT, 2016.
 
 ******************************************
 Gaussian 16:  EM64M-G16RevA.03 25-Dec-2016
                23-Feb-2024 
 ******************************************
 %nprocshared=10
 Will use up to   10 processors via shared memory.
 %mem=12GB
 %chk= 0.chk
 ---------------------
 # freq b3lyp/6-31g(d)
 ---------------------
 1/10=4,30=1,38=1/1,3;
 2/12=2,17=6,18=5,40=1/2;
 3/5=1,6=6,7=1,11=2,25=1,30=1,71=2,74=-5,140=1/1,2,3;
 4//1;
 5/5=2,38=5,98=1/2;
 8/6=4,10=90,11=11/1;
 11/6=1,8=1,9=11,15=111,16=1/1,2,10;
 10/6=1/2;
 6/7=2,8=2,9=2,10=2,28=1/1;
 7/8=1,10=1,25=1/1,2,3,16;
 1/10=4,30=1/3;
 99//99;
 ---------
 good luck
 ---------
 Symbolic Z-matrix:
 Charge =  0 Multiplicity = 1
 O                     1.21612   0.        0. 
 C                     0.        0.        0. 
 C                    -0.81558  -1.28396   0.00282 
 C                    -1.85848  -1.2717    1.1405 
 C                    -2.71238  -0.00608   1.07978 
 Br                   -4.05775  -0.10338   2.56987 
 C                    -1.88485   1.28346   1.1551 
 C                    -2.72207   2.57338   1.08368 
 C                    -1.84597   3.83401   1.11752 
 C                    -0.79271   3.82457   0.00173 
 C                     0.0511    2.54515   0.04601 
 C                    -0.82596   1.28613   0.00282 
 H                    -0.13718  -2.13656   0.09647 
 H                    -1.33074  -1.36876  -0.96562 
 H                    -1.34529  -1.31174   2.10869 
 H                    -2.49344  -2.16054   1.07816 
 H                    -3.33911  -0.00271   0.18289 
 H                    -1.33772   1.27482   2.10988 
 H                    -3.31186   2.5612    0.15405 
 H                    -3.43926   2.5911    1.91024 
 H                    -1.34169   3.8959    2.09289 
 H                    -2.48037   4.72544   1.0389 
 H                    -0.14276   4.70459   0.08265 
 H                    -1.2962    3.89774  -0.97385 
 H                     0.65383   2.52394   0.96355 
 H                     0.76503   2.51527  -0.7839 
 H                    -1.39458   1.28282  -0.94432 
 

 GradGradGradGradGradGradGradGradGradGradGradGradGradGradGradGradGradGrad
 Berny optimization.
 Initialization pass.
 Trust Radius=3.00D-01 FncErr=1.00D-07 GrdErr=1.00D-07 EigMax=2.50D+02 EigMin=1.00D-04
 Number of steps in this run=      2 maximum allowed number of steps=      2.
 GradGradGradGradGradGradGradGradGradGradGradGradGradGradGradGradGradGrad

                          Input orientation:                          
 ---------------------------------------------------------------------
 Center     Atomic      Atomic             Coordinates (Angstroms)
 Number     Number       Type             X           Y           Z
 ---------------------------------------------------------------------
      1          8           0        1.216120    0.000000    0.000000
      2          6           0        0.000000    0.000000    0.000000
      3          6           0       -0.815578   -1.283964    0.002819
      4          6           0       -1.858476   -1.271699    1.140503
      5          6           0       -2.712381   -0.006080    1.079782
      6         35           0       -4.057748   -0.103380    2.569868
      7          6           0       -1.884852    1.283463    1.155101
      8          6           0       -2.722073    2.573379    1.083684
      9          6           0       -1.845969    3.834010    1.117517
     10          6           0       -0.792706    3.824568    0.001726
     11          6           0        0.051103    2.545149    0.046014
     12          6           0       -0.825960    1.286134    0.002819
     13          1           0       -0.137183   -2.136562    0.096471
     14          1           0       -1.330742   -1.368764   -0.965618
     15          1           0       -1.345288   -1.311736    2.108688
     16          1           0       -2.493439   -2.160545    1.078158
     17          1           0       -3.339108   -0.002705    0.182890
     18          1           0       -1.337720    1.274821    2.109877
     19          1           0       -3.311862    2.561198    0.154046
     20          1           0       -3.439261    2.591096    1.910244
     21          1           0       -1.341694    3.895903    2.092890
     22          1           0       -2.480367    4.725444    1.038895
     23          1           0       -0.142757    4.704586    0.082647
     24          1           0       -1.296200    3.897744   -0.973847
     25          1           0        0.653832    2.523942    0.963553
     26          1           0        0.765033    2.515265   -0.783898
     27          1           0       -1.394581    1.282824   -0.944324
 ---------------------------------------------------------------------
                    Distance matrix (angstroms):
                    1          2          3          4          5
     1  O    0.000000
     2  C    1.216120   0.000000
     3  C    2.403408   1.521098   0.000000
     4  C    3.517258   2.524262   1.543409   0.000000
     5  C    4.074198   2.919414   2.527983   1.527950   0.000000
     6  Br   5.867588   4.804189   4.300603   2.871385   2.009934
     7  C    3.549305   2.556209   3.010445   2.555340   1.534079
     8  C    4.827630   3.899530   4.436450   3.941276   2.579480
     9  C    5.032382   4.399554   5.338344   5.105776   3.936799
    10  C    4.320035   3.905855   5.108583   5.329598   4.418283
    11  C    2.799494   2.546078   3.926208   4.405988   3.900550
    12  C    2.413346   1.528515   2.570119   2.983777   2.527499
    13  H    2.530935   2.143134   1.093578   2.191082   3.483891
    14  H    3.048350   2.139347   1.100207   2.173401   2.819485
    15  H    3.567636   2.824361   2.171646   1.096516   2.152284
    16  H    4.426196   3.470968   2.177146   1.094126   2.165562
    17  H    4.558899   3.344114   2.835887   2.172473   1.094172
    18  H    3.549486   2.804683   3.355549   2.774101   2.142778
    19  H    5.204429   4.189498   4.586892   4.216222   2.794151
    20  H    5.659981   4.710767   5.053521   4.244122   2.821940
    21  H    5.108881   4.621514   5.610367   5.279982   4.258009
    22  H    6.088772   5.437035   6.321231   6.030157   4.737386
    23  H    4.897602   4.707477   6.026756   6.307038   5.457804
    24  H    4.738411   4.221483   5.294806   5.613356   4.632796
    25  H    2.759508   2.779607   4.193128   4.555205   4.212590
    26  H    2.672926   2.743416   4.189439   4.992716   4.682189
    27  H    3.058291   2.117130   2.796556   3.329758   2.737677
                    6          7          8          9         10
     6  Br   0.000000
     7  C    2.940472   0.000000
     8  C    3.340331   1.539455   0.000000
     9  C    4.743873   2.551120   1.535543   0.000000
    10  C    5.717047   2.996710   2.541371   1.534419   0.000000
    11  C    5.501564   2.563171   2.961091   2.531435   1.533261
    12  C    4.354876   1.564932   2.533873   2.962202   2.538652
    13  H    5.061853   3.983920   5.462581   6.293665   5.997813
    14  H    4.640843   3.440755   4.655742   5.627945   5.309984
    15  H    3.005038   2.817005   4.247386   5.264200   5.579091
    16  H    2.983989   3.498212   4.739445   6.029549   6.314489
    17  H    2.494843   2.171240   2.797923   4.221774   4.600544
    18  H    3.083761   1.100466   2.157721   2.791513   3.352991
    19  H    3.673216   2.161267   1.101011   2.167295   2.822313
    20  H    2.842153   2.167102   1.094474   2.170675   3.488287
    21  H    4.857852   2.828305   2.161715   1.099762   2.163202
    22  H    5.305615   3.495050   2.166059   1.096949   2.176120
    23  H    6.680566   3.986118   3.492419   2.174808   1.097002
    24  H    6.016067   3.422484   2.832047   2.163357   1.100274
    25  H    5.628681   2.832030   3.378403   2.826480   2.170072
    26  H    6.431506   3.506985   3.956153   3.488811   2.181291
    27  H    4.622074   2.155911   2.746012   3.311116   2.778080
                   11         12         13         14         15
    11  C    0.000000
    12  C    1.535000   0.000000
    13  H    4.685767   3.492568   0.000000
    14  H    4.272190   2.870742   1.772605   0.000000
    15  H    4.591306   3.384275   2.487745   3.074869   0.000000
    16  H    5.448263   3.976988   2.552690   2.481089   1.760886
    17  H    4.243092   2.830096   3.848784   2.686768   3.065547
    18  H    2.793223   2.168345   4.139158   4.055522   2.586568
    19  H    3.364738   2.797922   5.670172   4.541265   4.763156
    20  H    3.957285   3.488630   6.045183   5.328877   4.433531
    21  H    2.820305   3.383086   6.467393   6.088621   5.207664
    22  H    3.485375   3.954664   7.312031   6.517598   6.235415
    23  H    2.168431   3.486969   6.841164   6.276603   6.461196
    24  H    2.164453   2.827633   6.237127   5.266628   6.053356
    25  H    1.098003   2.155218   4.806021   4.776337   4.474398
    26  H    1.095145   2.158922   4.819599   4.417123   5.240844
    27  H    2.159684   1.104727   3.788998   2.652442   4.006876
                   16         17         18         19         20
    16  H    0.000000
    17  H    2.484539   0.000000
    18  H    3.768537   3.057925   0.000000
    19  H    4.880436   2.564210   3.062234   0.000000
    20  H    4.915795   3.117946   2.487752   1.761067   0.000000
    21  H    6.247940   4.778798   2.621140   3.069546   2.477028
    22  H    6.886113   4.881145   3.789386   2.481593   2.496832
    23  H    7.324396   5.690808   4.159433   3.826544   4.321330
    24  H    6.507455   4.552474   4.048556   2.668593   3.823352
    25  H    5.644720   4.789254   2.615462   4.047644   4.201683
    26  H    5.995673   4.911092   3.786054   4.183649   4.994020
    27  H    4.141825   2.589282   3.054741   2.552768   3.747112
                   21         22         23         24         25
    21  H    0.000000
    22  H    1.759437   0.000000
    23  H    2.476387   2.525721   0.000000
    24  H    3.067075   2.477593   1.760001   0.000000
    25  H    2.672041   3.830860   2.483094   3.073024   0.000000
    26  H    3.823659   4.328982   2.523511   2.489179   1.751007
    27  H    4.006950   4.118704   3.785523   2.616937   3.062085
                   26         27
    26  H    0.000000
    27  H    2.491702   0.000000
 Stoichiometry    C10H15BrO
 Framework group  C1[X(C10H15BrO)]
 Deg. of freedom    75
 Full point group                 C1      NOp   1
 Largest Abelian subgroup         C1      NOp   1
 Largest concise Abelian subgroup C1      NOp   1
                         Standard orientation:                         
 ---------------------------------------------------------------------
 Center     Atomic      Atomic             Coordinates (Angstroms)
 Number     Number       Type             X           Y           Z
 ---------------------------------------------------------------------
      1          8           0        2.542149    2.302648   -0.648301
      2          6           0        1.633610    1.788572   -0.024417
      3          6           0        0.422849    2.576728    0.451616
      4          6           0       -0.888284    1.892001    0.010945
      5          6           0       -0.905967    0.426181    0.441863
      6         35           0       -2.660846   -0.361867   -0.140560
      7          6           0        0.279397   -0.377854   -0.107534
      8          6           0        0.290591   -1.855880    0.322857
      9          6           0        1.518340   -2.605360   -0.214550
     10          6           0        2.828188   -1.923229    0.201907
     11          6           0        2.839645   -0.446127   -0.209102
     12          6           0        1.616360    0.303438    0.336745
     13          1           0        0.486893    3.596994    0.063195
     14          1           0        0.456086    2.632199    1.549921
     15          1           0       -0.981228    1.945954   -1.080292
     16          1           0       -1.748633    2.421042    0.431694
     17          1           0       -0.948680    0.341996    1.531956
     18          1           0        0.232825   -0.334522   -1.206160
     19          1           0        0.283681   -1.904011    1.422794
     20          1           0       -0.627607   -2.344005   -0.018496
     21          1           0        1.462983   -2.646632   -1.312142
     22          1           0        1.498213   -3.644391    0.136601
     23          1           0        3.686826   -2.441946   -0.242039
     24          1           0        2.947355   -2.000825    1.292953
     25          1           0        2.846336   -0.360573   -1.303746
     26          1           0        3.751306    0.052048    0.137364
     27          1           0        1.637684    0.260010    1.440412
 ---------------------------------------------------------------------
 Rotational constants (GHZ):           0.9492189           0.4779241           0.3322026
 Standard basis: 6-31G(d) (6D, 7F)
 There are   225 symmetry adapted cartesian basis functions of A   symmetry.
 There are   225 symmetry adapted basis functions of A   symmetry.
   225 basis functions,   451 primitive gaussians,   225 cartesian basis functions
    59 alpha electrons       59 beta electrons
       nuclear repulsion energy      1034.5686331267 Hartrees.
 NAtoms=   27 NActive=   27 NUniq=   27 SFac= 1.00D+00 NAtFMM=   60 NAOKFM=F Big=F
 Integral buffers will be    131072 words long.
 Raffenetti 2 integral format.
 Two-electron integral symmetry is turned on.
 One-electron integrals computed using PRISM.
 NBasis=   225 RedAO= T EigKep=  7.43D-04  NBF=   225
 NBsUse=   225 1.00D-06 EigRej= -1.00D+00 NBFU=   225
 ExpMin= 1.43D-01 ExpMax= 5.74D+05 ExpMxC= 5.74D+03 IAcc=3 IRadAn=         5 AccDes= 0.00D+00
 Harris functional with IExCor=  402 and IRadAn=       5 diagonalized for initial guess.
 HarFok:  IExCor=  402 AccDes= 0.00D+00 IRadAn=         5 IDoV= 1 UseB2=F ITyADJ=14
 ICtDFT=  3500011 ScaDFX=  1.000000  1.000000  1.000000  1.000000
 FoFCou: FMM=F IPFlag=           0 FMFlag=      100000 FMFlg1=           0
         NFxFlg=           0 DoJE=T BraDBF=F KetDBF=T FulRan=T
         wScrn=  0.000000 ICntrl=       500 IOpCl=  0 I1Cent=   200000004 NGrid=           0
         NMat0=    1 NMatS0=      1 NMatT0=    0 NMatD0=    1 NMtDS0=    0 NMtDT0=    0
 Petite list used in FoFCou.
 Requested convergence on RMS density matrix=1.00D-08 within 128 cycles.
 Requested convergence on MAX density matrix=1.00D-06.
 Requested convergence on             energy=1.00D-06.
 No special actions if energy rises.
 Integral accuracy reduced to 1.0D-05 until final iterations.
 Initial convergence to 1.0D-05 achieved.  Increase integral accuracy.
 SCF Done:  E(RB3LYP) =  -3037.05272739     A.U. after   14 cycles
            NFock= 14  Conv=0.59D-08     -V/T= 2.0067
 DoSCS=F DFT=T ScalE2(SS,OS)=  1.000000  1.000000
 Range of M.O.s used for correlation:     1   225
 NBasis=   225 NAE=    59 NBE=    59 NFC=     0 NFV=     0
 NROrb=    225 NOA=    59 NOB=    59 NVA=   166 NVB=   166

 **** Warning!!: The largest alpha MO coefficient is  0.19733980D+02

 Symmetrizing basis deriv contribution to polar:
 IMax=3 JMax=2 DiffMx= 0.00D+00
 G2DrvN: will do    28 centers at a time, making    1 passes.
 Calling FoFCou, ICntrl=  3107 FMM=F I1Cent=   0 AccDes= 0.00D+00.
 End of G2Drv F.D. properties file   721 does not exist.
 End of G2Drv F.D. properties file   722 does not exist.
 End of G2Drv F.D. properties file   788 does not exist.
          IDoAtm=111111111111111111111111111
          Differentiating once with respect to electric field.
                with respect to dipole field.
          Differentiating once with respect to nuclear coordinates.
 Keep R1 ints in memory in canonical form, NReq=333770458.
          There are    84 degrees of freedom in the 1st order CPHF.  IDoFFX=6 NUNeed=     3.
     81 vectors produced by pass  0 Test12= 1.17D-14 1.19D-09 XBig12= 1.04D+02 3.21D+00.
 AX will form    81 AO Fock derivatives at one time.
     81 vectors produced by pass  1 Test12= 1.17D-14 1.19D-09 XBig12= 1.13D+01 6.68D-01.
     81 vectors produced by pass  2 Test12= 1.17D-14 1.19D-09 XBig12= 1.85D-01 4.16D-02.
     81 vectors produced by pass  3 Test12= 1.17D-14 1.19D-09 XBig12= 6.36D-04 2.44D-03.
     81 vectors produced by pass  4 Test12= 1.17D-14 1.19D-09 XBig12= 9.74D-07 1.02D-04.
     44 vectors produced by pass  5 Test12= 1.17D-14 1.19D-09 XBig12= 7.15D-10 2.66D-06.
      4 vectors produced by pass  6 Test12= 1.17D-14 1.19D-09 XBig12= 4.47D-13 6.85D-08.
      1 vectors produced by pass  7 Test12= 1.17D-14 1.19D-09 XBig12= 3.27D-16 1.85D-09.
 InvSVY:  IOpt=1 It=  1 EMax= 1.42D-14
 Solved reduced A of dimension   454 with    84 vectors.
 Isotropic polarizability for W=    0.000000      118.32 Bohr**3.
 End of Minotr F.D. properties file   721 does not exist.
 End of Minotr F.D. properties file   722 does not exist.
 End of Minotr F.D. properties file   788 does not exist.

 **********************************************************************

            Population analysis using the SCF density.

 **********************************************************************

 Orbital symmetries:
       Occupied  (A) (A) (A) (A) (A) (A) (A) (A) (A) (A) (A) (A)
                 (A) (A) (A) (A) (A) (A) (A) (A) (A) (A) (A) (A)
                 (A) (A) (A) (A) (A) (A) (A) (A) (A) (A) (A) (A)
                 (A) (A) (A) (A) (A) (A) (A) (A) (A) (A) (A) (A)
                 (A) (A) (A) (A) (A) (A) (A) (A) (A) (A) (A)
       Virtual   (A) (A) (A) (A) (A) (A) (A) (A) (A) (A) (A) (A)
                 (A) (A) (A) (A) (A) (A) (A) (A) (A) (A) (A) (A)
                 (A) (A) (A) (A) (A) (A) (A) (A) (A) (A) (A) (A)
                 (A) (A) (A) (A) (A) (A) (A) (A) (A) (A) (A) (A)
                 (A) (A) (A) (A) (A) (A) (A) (A) (A) (A) (A) (A)
                 (A) (A) (A) (A) (A) (A) (A) (A) (A) (A) (A) (A)
                 (A) (A) (A) (A) (A) (A) (A) (A) (A) (A) (A) (A)
                 (A) (A) (A) (A) (A) (A) (A) (A) (A) (A) (A) (A)
                 (A) (A) (A) (A) (A) (A) (A) (A) (A) (A) (A) (A)
                 (A) (A) (A) (A) (A) (A) (A) (A) (A) (A) (A) (A)
                 (A) (A) (A) (A) (A) (A) (A) (A) (A) (A) (A) (A)
                 (A) (A) (A) (A) (A) (A) (A) (A) (A) (A) (A) (A)
                 (A) (A) (A) (A) (A) (A) (A) (A) (A) (A) (A) (A)
                 (A) (A) (A) (A) (A) (A) (A) (A) (A) (A)
 The electronic state is 1-A.
 Alpha  occ. eigenvalues -- -482.89672 -61.85868 -56.37910 -56.37542 -56.37531
 Alpha  occ. eigenvalues --  -19.14441 -10.27759 -10.25501 -10.21306 -10.20936
 Alpha  occ. eigenvalues --  -10.20670 -10.20338 -10.18827 -10.18583 -10.18499
 Alpha  occ. eigenvalues --  -10.18476  -8.56935  -6.52264  -6.51055  -6.51045
 Alpha  occ. eigenvalues --   -2.63831  -2.63497  -2.63489  -2.62525  -2.62525
 Alpha  occ. eigenvalues --   -1.04328  -0.86833  -0.82008  -0.78116  -0.75344
 Alpha  occ. eigenvalues --   -0.74496  -0.69520  -0.63348  -0.62865  -0.58788
 Alpha  occ. eigenvalues --   -0.56627  -0.54135  -0.48129  -0.47677  -0.46672
 Alpha  occ. eigenvalues --   -0.45749  -0.45341  -0.42739  -0.42358  -0.41662
 Alpha  occ. eigenvalues --   -0.40539  -0.38295  -0.37452  -0.37079  -0.36321
 Alpha  occ. eigenvalues --   -0.35229  -0.34988  -0.33801  -0.32795  -0.31665
 Alpha  occ. eigenvalues --   -0.30663  -0.27395  -0.27184  -0.24528
 Alpha virt. eigenvalues --   -0.02363  -0.00793   0.07909   0.08862   0.10692
 Alpha virt. eigenvalues --    0.11593   0.12777   0.13285   0.14105   0.14767
 Alpha virt. eigenvalues --    0.15579   0.16539   0.17019   0.17252   0.17964
 Alpha virt. eigenvalues --    0.18438   0.18625   0.18896   0.19928   0.21113
 Alpha virt. eigenvalues --    0.22740   0.23919   0.25285   0.25373   0.26816
 Alpha virt. eigenvalues --    0.28117   0.29074   0.31589   0.33880   0.36193
 Alpha virt. eigenvalues --    0.43189   0.44099   0.45989   0.46187   0.47656
 Alpha virt. eigenvalues --    0.49824   0.51240   0.52143   0.52615   0.53716
 Alpha virt. eigenvalues --    0.54342   0.55997   0.56965   0.58587   0.59943
 Alpha virt. eigenvalues --    0.60933   0.62011   0.64459   0.65892   0.67135
 Alpha virt. eigenvalues --    0.68197   0.68951   0.70482   0.70910   0.74639
 Alpha virt. eigenvalues --    0.75282   0.76845   0.77533   0.80638   0.80960
 Alpha virt. eigenvalues --    0.82206   0.83624   0.84402   0.85520   0.85830
 Alpha virt. eigenvalues --    0.86916   0.88091   0.88932   0.89759   0.90110
 Alpha virt. eigenvalues --    0.91694   0.91823   0.93182   0.93248   0.94650
 Alpha virt. eigenvalues --    0.95459   0.96825   0.97875   1.00241   1.03076
 Alpha virt. eigenvalues --    1.06811   1.09482   1.11771   1.12241   1.18724
 Alpha virt. eigenvalues --    1.19727   1.23254   1.26423   1.31768   1.32915
 Alpha virt. eigenvalues --    1.40012   1.40699   1.44340   1.47827   1.48647
 Alpha virt. eigenvalues --    1.54346   1.57981   1.60043   1.64608   1.65270
 Alpha virt. eigenvalues --    1.69044   1.71590   1.73023   1.74183   1.74679
 Alpha virt. eigenvalues --    1.77989   1.80995   1.81514   1.84524   1.85258
 Alpha virt. eigenvalues --    1.86750   1.89578   1.91123   1.92107   1.94428
 Alpha virt. eigenvalues --    1.95525   1.97062   1.98769   1.98904   2.00367
 Alpha virt. eigenvalues --    2.01514   2.04931   2.05923   2.07557   2.09428
 Alpha virt. eigenvalues --    2.12614   2.19361   2.20401   2.25319   2.28976
 Alpha virt. eigenvalues --    2.29902   2.32271   2.33813   2.37111   2.38123
 Alpha virt. eigenvalues --    2.39346   2.41841   2.43822   2.46849   2.51360
 Alpha virt. eigenvalues --    2.56915   2.58986   2.60433   2.61430   2.62914
 Alpha virt. eigenvalues --    2.68824   2.72831   2.75947   2.77949   2.82779
 Alpha virt. eigenvalues --    2.85758   2.98134   3.04205   4.00503   4.11581
 Alpha virt. eigenvalues --    4.19426   4.23102   4.29210   4.33304   4.49911
 Alpha virt. eigenvalues --    4.54557   4.58028   4.60525   4.68998   8.65539
 Alpha virt. eigenvalues --   73.48648
          Condensed to atoms (all electrons):
               1          2          3          4          5          6
     1  O    7.997564   0.588124  -0.073759   0.000924   0.000175   0.000000
     2  C    0.588124   4.522270   0.340480  -0.029368  -0.012487   0.000104
     3  C   -0.073759   0.340480   5.323445   0.308033  -0.039193   0.004941
     4  C    0.000924  -0.029368   0.308033   5.095587   0.350080  -0.050324
     5  C    0.000175  -0.012487  -0.039193   0.350080   5.074073   0.251282
     6  Br   0.000000   0.000104   0.004941  -0.050324   0.251282  35.030896
     7  C    0.000281  -0.019104  -0.006809  -0.035256   0.342825  -0.045180
     8  C   -0.000056   0.002463  -0.000129   0.004244  -0.038253  -0.011459
     9  C   -0.000012  -0.000017  -0.000022  -0.000111   0.003696   0.000236
    10  C    0.000641   0.004393  -0.000071  -0.000020   0.000121  -0.000013
    11  C    0.006704  -0.027530   0.006022   0.000034   0.003549  -0.000114
    12  C   -0.093332   0.278755  -0.137746  -0.002643  -0.033880   0.004145
    13  H    0.005248  -0.022002   0.343134  -0.023291   0.003772  -0.000124
    14  H    0.001223  -0.030961   0.351505  -0.035559  -0.003260  -0.000042
    15  H    0.000450  -0.002764  -0.039258   0.374534  -0.038101   0.000020
    16  H   -0.000057   0.003377  -0.027963   0.370796  -0.030763   0.000333
    17  H   -0.000005  -0.001401  -0.000821  -0.047129   0.362960  -0.041743
    18  H    0.000423  -0.003079   0.000333  -0.006043  -0.045711   0.000522
    19  H   -0.000000   0.000003  -0.000016   0.000073  -0.005351   0.000217
    20  H    0.000000  -0.000068  -0.000005   0.000094  -0.006482   0.013711
    21  H   -0.000000  -0.000036   0.000000   0.000002   0.000037   0.000024
    22  H    0.000000   0.000007  -0.000000   0.000001  -0.000114  -0.000001
    23  H    0.000002  -0.000076   0.000002  -0.000000   0.000007  -0.000000
    24  H   -0.000003  -0.000070  -0.000000   0.000001  -0.000020   0.000000
    25  H    0.003700  -0.004436   0.000254  -0.000054   0.000072  -0.000002
    26  H    0.005146  -0.003205   0.000240  -0.000008  -0.000127   0.000002
    27  H    0.001188  -0.036213   0.002622  -0.001769  -0.003998  -0.000055
               7          8          9         10         11         12
     1  O    0.000281  -0.000056  -0.000012   0.000641   0.006704  -0.093332
     2  C   -0.019104   0.002463  -0.000017   0.004393  -0.027530   0.278755
     3  C   -0.006809  -0.000129  -0.000022  -0.000071   0.006022  -0.137746
     4  C   -0.035256   0.004244  -0.000111  -0.000020   0.000034  -0.002643
     5  C    0.342825  -0.038253   0.003696   0.000121   0.003549  -0.033880
     6  Br  -0.045180  -0.011459   0.000236  -0.000013  -0.000114   0.004145
     7  C    5.029409   0.379942  -0.033036  -0.012544  -0.032303   0.328447
     8  C    0.379942   5.047791   0.373585  -0.045827  -0.012353  -0.036659
     9  C   -0.033036   0.373585   5.002371   0.377843  -0.042409  -0.013232
    10  C   -0.012544  -0.045827   0.377843   5.025314   0.356721  -0.034352
    11  C   -0.032303  -0.012353  -0.042409   0.356721   5.010407   0.353431
    12  C    0.328447  -0.036659  -0.013232  -0.034352   0.353431   5.355797
    13  H   -0.000051   0.000010   0.000000   0.000001  -0.000157   0.006604
    14  H   -0.001176  -0.000011   0.000001  -0.000003  -0.000101   0.003664
    15  H   -0.006925   0.000007   0.000000  -0.000001  -0.000049   0.000406
    16  H    0.004643  -0.000127   0.000001   0.000000   0.000010  -0.000336
    17  H   -0.045534  -0.005659  -0.000012  -0.000020  -0.000041  -0.004050
    18  H    0.366679  -0.043988  -0.003633  -0.000526  -0.004321  -0.047815
    19  H   -0.042584   0.366610  -0.039603  -0.004470  -0.000619  -0.007673
    20  H   -0.032384   0.368430  -0.029391   0.004400  -0.000011   0.004733
    21  H   -0.005797  -0.040386   0.372836  -0.040694  -0.003991  -0.001106
    22  H    0.004351  -0.032106   0.370091  -0.032422   0.004632   0.000225
    23  H    0.000173   0.004705  -0.032407   0.371503  -0.032865   0.004408
    24  H   -0.000927  -0.004320  -0.041255   0.369758  -0.038333  -0.006251
    25  H   -0.006563  -0.000767  -0.004502  -0.039446   0.376462  -0.041859
    26  H    0.004287   0.000058   0.004599  -0.032056   0.372173  -0.034170
    27  H   -0.044166  -0.007552  -0.000841  -0.002674  -0.040465   0.345168
              13         14         15         16         17         18
     1  O    0.005248   0.001223   0.000450  -0.000057  -0.000005   0.000423
     2  C   -0.022002  -0.030961  -0.002764   0.003377  -0.001401  -0.003079
     3  C    0.343134   0.351505  -0.039258  -0.027963  -0.000821   0.000333
     4  C   -0.023291  -0.035559   0.374534   0.370796  -0.047129  -0.006043
     5  C    0.003772  -0.003260  -0.038101  -0.030763   0.362960  -0.045711
     6  Br  -0.000124  -0.000042   0.000020   0.000333  -0.041743   0.000522
     7  C   -0.000051  -0.001176  -0.006925   0.004643  -0.045534   0.366679
     8  C    0.000010  -0.000011   0.000007  -0.000127  -0.005659  -0.043988
     9  C    0.000000   0.000001   0.000000   0.000001  -0.000012  -0.003633
    10  C    0.000001  -0.000003  -0.000001   0.000000  -0.000020  -0.000526
    11  C   -0.000157  -0.000101  -0.000049   0.000010  -0.000041  -0.004321
    12  C    0.006604   0.003664   0.000406  -0.000336  -0.004050  -0.047815
    13  H    0.545356  -0.025576  -0.003340  -0.002601  -0.000075  -0.000034
    14  H   -0.025576   0.576180   0.005343  -0.005797   0.004194   0.000089
    15  H   -0.003340   0.005343   0.564981  -0.033367   0.005792   0.005034
    16  H   -0.002601  -0.005797  -0.033367   0.559553  -0.004546  -0.000049
    17  H   -0.000075   0.004194   0.005792  -0.004546   0.589584   0.006447
    18  H   -0.000034   0.000089   0.005034  -0.000049   0.006447   0.611844
    19  H   -0.000000  -0.000007   0.000005   0.000002   0.005433   0.006161
    20  H   -0.000000   0.000000   0.000002   0.000002  -0.000007  -0.003766
    21  H   -0.000000  -0.000000  -0.000001   0.000000   0.000007   0.004939
    22  H    0.000000  -0.000000   0.000000  -0.000000  -0.000001  -0.000058
    23  H   -0.000000  -0.000000  -0.000000   0.000000  -0.000000  -0.000028
    24  H    0.000000  -0.000001  -0.000000  -0.000000  -0.000005   0.000144
    25  H    0.000000  -0.000004  -0.000010   0.000000   0.000004   0.005146
    26  H   -0.000004  -0.000018   0.000000   0.000000   0.000003  -0.000025
    27  H   -0.000114   0.001581   0.000109  -0.000033   0.005398   0.006776
              19         20         21         22         23         24
     1  O   -0.000000   0.000000  -0.000000   0.000000   0.000002  -0.000003
     2  C    0.000003  -0.000068  -0.000036   0.000007  -0.000076  -0.000070
     3  C   -0.000016  -0.000005   0.000000  -0.000000   0.000002  -0.000000
     4  C    0.000073   0.000094   0.000002   0.000001  -0.000000   0.000001
     5  C   -0.005351  -0.006482   0.000037  -0.000114   0.000007  -0.000020
     6  Br   0.000217   0.013711   0.000024  -0.000001  -0.000000   0.000000
     7  C   -0.042584  -0.032384  -0.005797   0.004351   0.000173  -0.000927
     8  C    0.366610   0.368430  -0.040386  -0.032106   0.004705  -0.004320
     9  C   -0.039603  -0.029391   0.372836   0.370091  -0.032407  -0.041255
    10  C   -0.004470   0.004400  -0.040694  -0.032422   0.371503   0.369758
    11  C   -0.000619  -0.000011  -0.003991   0.004632  -0.032865  -0.038333
    12  C   -0.007673   0.004733  -0.001106   0.000225   0.004408  -0.006251
    13  H   -0.000000  -0.000000  -0.000000   0.000000  -0.000000   0.000000
    14  H   -0.000007   0.000000  -0.000000  -0.000000  -0.000000  -0.000001
    15  H    0.000005   0.000002  -0.000001   0.000000  -0.000000  -0.000000
    16  H    0.000002   0.000002   0.000000  -0.000000   0.000000  -0.000000
    17  H    0.005433  -0.000007   0.000007  -0.000001  -0.000000  -0.000005
    18  H    0.006161  -0.003766   0.004939  -0.000058  -0.000028   0.000144
    19  H    0.616803  -0.033882   0.005912  -0.004320  -0.000050   0.004790
    20  H   -0.033882   0.557738  -0.003834  -0.002280  -0.000141  -0.000045
    21  H    0.005912  -0.003834   0.606652  -0.036038  -0.004395   0.005992
    22  H   -0.004320  -0.002280  -0.036038   0.597422  -0.002156  -0.004478
    23  H   -0.000050  -0.000141  -0.004395  -0.002156   0.595929  -0.036505
    24  H    0.004790  -0.000045   0.005992  -0.004478  -0.036505   0.616872
    25  H    0.000147  -0.000021   0.004569  -0.000056  -0.004095   0.005674
    26  H   -0.000023   0.000012  -0.000049  -0.000151  -0.002045  -0.004096
    27  H    0.006010  -0.000014   0.000181  -0.000048  -0.000049   0.005078
              25         26         27
     1  O    0.003700   0.005146   0.001188
     2  C   -0.004436  -0.003205  -0.036213
     3  C    0.000254   0.000240   0.002622
     4  C   -0.000054  -0.000008  -0.001769
     5  C    0.000072  -0.000127  -0.003998
     6  Br  -0.000002   0.000002  -0.000055
     7  C   -0.006563   0.004287  -0.044166
     8  C   -0.000767   0.000058  -0.007552
     9  C   -0.004502   0.004599  -0.000841
    10  C   -0.039446  -0.032056  -0.002674
    11  C    0.376462   0.372173  -0.040465
    12  C   -0.041859  -0.034170   0.345168
    13  H    0.000000  -0.000004  -0.000114
    14  H   -0.000004  -0.000018   0.001581
    15  H   -0.000010   0.000000   0.000109
    16  H    0.000000   0.000000  -0.000033
    17  H    0.000004   0.000003   0.005398
    18  H    0.005146  -0.000025   0.006776
    19  H    0.000147  -0.000023   0.006010
    20  H   -0.000021   0.000012  -0.000014
    21  H    0.004569  -0.000049   0.000181
    22  H   -0.000056  -0.000151  -0.000048
    23  H   -0.004095  -0.002045  -0.000049
    24  H    0.005674  -0.004096   0.005078
    25  H    0.587598  -0.032903   0.006088
    26  H   -0.032903   0.574366  -0.003846
    27  H    0.006088  -0.003846   0.622224
 Mulliken charges:
               1
     1  O   -0.444570
     2  C    0.452838
     3  C   -0.355221
     4  C   -0.272829
     5  C   -0.134910
     6  Br  -0.157376
     7  C   -0.090698
     8  C   -0.268193
     9  C   -0.264777
    10  C   -0.265554
    11  C   -0.254481
    12  C   -0.190680
    13  H    0.173244
    14  H    0.158735
    15  H    0.167131
    16  H    0.166922
    17  H    0.171228
    18  H    0.144538
    19  H    0.126430
    20  H    0.163209
    21  H    0.135177
    22  H    0.137500
    23  H    0.138081
    24  H    0.128003
    25  H    0.145002
    26  H    0.151837
    27  H    0.139414
 Sum of Mulliken charges =  -0.00000
 Mulliken charges with hydrogens summed into heavy atoms:
               1
     1  O   -0.444570
     2  C    0.452838
     3  C   -0.023242
     4  C    0.061224
     5  C    0.036318
     6  Br  -0.157376
     7  C    0.053840
     8  C    0.021446
     9  C    0.007900
    10  C    0.000530
    11  C    0.042358
    12  C   -0.051265
 APT charges:
               1
     1  O   -0.634640
     2  C    0.719569
     3  C   -0.058706
     4  C    0.052375
     5  C    0.427935
     6  Br  -0.350874
     7  C    0.017687
     8  C    0.079288
     9  C    0.127625
    10  C    0.122548
    11  C    0.087178
    12  C   -0.066985
    13  H   -0.028982
    14  H   -0.003563
    15  H   -0.010046
    16  H   -0.022813
    17  H   -0.060896
    18  H   -0.032558
    19  H   -0.045264
    20  H   -0.016294
    21  H   -0.046393
    22  H   -0.057933
    23  H   -0.058828
    24  H   -0.050372
    25  H   -0.028342
    26  H   -0.034744
    27  H   -0.025970
 Sum of APT charges =   0.00000
 APT charges with hydrogens summed into heavy atoms:
               1
     1  O   -0.634640
     2  C    0.719569
     3  C   -0.091250
     4  C    0.019515
     5  C    0.367038
     6  Br  -0.350874
     7  C   -0.014871
     8  C    0.017730
     9  C    0.023298
    10  C    0.013348
    11  C    0.024092
    12  C   -0.092956
 Electronic spatial extent (au):  <R**2>=           3126.8071
 Charge=             -0.0000 electrons
 Dipole moment (field-independent basis, Debye):
    X=              0.0474    Y=             -0.6031    Z=              1.7051  Tot=              1.8092
 Quadrupole moment (field-independent basis, Debye-Ang):
   XX=            -96.3975   YY=            -86.3432   ZZ=            -83.8831
   XY=             -8.4092   XZ=              2.9822   YZ=              3.6690
 Traceless Quadrupole moment (field-independent basis, Debye-Ang):
   XX=             -7.5229   YY=              2.5314   ZZ=              4.9915
   XY=             -8.4092   XZ=              2.9822   YZ=              3.6690
 Octapole moment (field-independent basis, Debye-Ang**2):
  XXX=            -82.6713  YYY=             -8.2763  ZZZ=             -4.5894  XYY=            -42.9904
  XXY=            -23.1138  XXZ=              5.0107  XZZ=            -24.7314  YZZ=             -0.4999
  YYZ=              5.1584  XYZ=              7.4017
 Hexadecapole moment (field-independent basis, Debye-Ang**3):
 XXXX=          -2153.0119 YYYY=          -1424.1215 ZZZZ=           -194.5699 XXXY=             -1.9074
 XXXZ=             36.7007 YYYX=              1.3444 YYYZ=             12.7601 ZZZX=              5.5588
 ZZZY=             -0.4747 XXYY=           -636.6825 XXZZ=           -389.1506 YYZZ=           -272.8110
 XXYZ=             27.4430 YYXZ=             20.2681 ZZXY=             12.0214
 N-N= 1.034568633127D+03 E-N=-9.282136183296D+03  KE= 3.016825848212D+03
  Exact polarizability: 139.004   3.096 123.560  -0.962   0.175  92.405
 Approx polarizability: 194.047  16.488 165.724  -2.081  -1.885 158.836
 Calling FoFJK, ICntrl=    100127 FMM=F ISym2X=0 I1Cent= 0 IOpClX= 0 NMat=1 NMatS=1 NMatT=0.
 Full mass-weighted force constant matrix:
 Low frequencies ---   -0.0122   -0.0114   -0.0039    4.6974    6.0075    7.8598
 Low frequencies ---   62.9154   78.7739  136.7230
 Diagonal vibrational polarizability:
       11.1970002       8.0381828      25.0386002
 Harmonic frequencies (cm**-1), IR intensities (KM/Mole), Raman scattering
 activities (A**4/AMU), depolarization ratios for plane and unpolarized
 incident light, reduced masses (AMU), force constants (mDyne/A),
 and normal coordinates:
                      1                      2                      3
                      A                      A                      A
 Frequencies --     62.8845                78.7591               136.7211
 Red. masses --      6.5132                 3.1641                 4.0300
 Frc consts  --      0.0152                 0.0116                 0.0444
 IR Inten    --      3.6889                 0.3696                 1.3477
  Atom  AN      X      Y      Z        X      Y      Z        X      Y      Z
     1   8     0.25   0.05   0.33    -0.07  -0.07  -0.15    -0.01  -0.05  -0.05
     2   6     0.05   0.02   0.03    -0.01  -0.02  -0.03    -0.00   0.01   0.02
     3   6    -0.04   0.04  -0.24     0.01   0.01  -0.01    -0.00   0.07  -0.07
     4   6    -0.01  -0.01  -0.25    -0.00   0.01   0.02    -0.02   0.06  -0.03
     5   6     0.00   0.03  -0.11     0.02  -0.01  -0.02    -0.02   0.09   0.07
     6  35    -0.04  -0.04   0.09    -0.01   0.01   0.03     0.09  -0.06  -0.01
     7   6    -0.01   0.02  -0.09     0.02   0.02  -0.07    -0.02   0.07   0.13
     8   6    -0.03   0.01  -0.13    -0.02  -0.02  -0.21    -0.07   0.07   0.08
     9   6    -0.01   0.02  -0.10     0.05   0.03  -0.13    -0.18   0.06  -0.14
    10   6    -0.03  -0.00  -0.00    -0.01  -0.01   0.14    -0.12  -0.07  -0.12
    11   6     0.01   0.01   0.03     0.06   0.01   0.21    -0.04  -0.00   0.10
    12   6    -0.02   0.00  -0.03    -0.01   0.00   0.06    -0.01   0.04   0.12
    13   1    -0.01  -0.00  -0.36     0.01  -0.00  -0.04     0.02   0.04  -0.17
    14   1    -0.15   0.20  -0.24     0.03   0.03  -0.01    -0.02   0.17  -0.08
    15   1     0.04  -0.12  -0.26    -0.05   0.04   0.03    -0.01  -0.01  -0.03
    16   1    -0.03   0.02  -0.35     0.01  -0.01   0.07    -0.01   0.10  -0.07
    17   1     0.06   0.14  -0.10     0.06  -0.04  -0.02    -0.07   0.15   0.07
    18   1     0.03   0.04  -0.10     0.06   0.12  -0.07    -0.00   0.08   0.12
    19   1    -0.08  -0.02  -0.13    -0.15  -0.13  -0.22     0.07   0.02   0.08
    20   1    -0.01   0.02  -0.18     0.03   0.01  -0.37    -0.14   0.14   0.17
    21   1     0.05   0.06  -0.10     0.21   0.15  -0.14    -0.28   0.24  -0.14
    22   1    -0.03   0.01  -0.13    -0.00  -0.00  -0.24    -0.21   0.01  -0.30
    23   1    -0.00   0.00   0.03     0.06   0.01   0.26    -0.17  -0.04  -0.25
    24   1    -0.09  -0.03   0.00    -0.20  -0.07   0.16    -0.07  -0.25  -0.14
    25   1     0.08   0.03   0.04     0.23   0.06   0.22     0.01   0.15   0.11
    26   1    -0.01  -0.00   0.10     0.01  -0.01   0.37    -0.01  -0.11   0.20
    27   1    -0.08  -0.01  -0.03    -0.13   0.03   0.06    -0.00   0.08   0.12
                      4                      5                      6
                      A                      A                      A
 Frequencies --    160.4346               186.6177               232.0900
 Red. masses --      3.4456                 2.6228                 6.6966
 Frc consts  --      0.0523                 0.0538                 0.2125
 IR Inten    --      0.3567                 0.3834                 2.4980
  Atom  AN      X      Y      Z        X      Y      Z        X      Y      Z
     1   8     0.04   0.07   0.02     0.11  -0.03   0.04    -0.15  -0.02   0.08
     2   6     0.01   0.03  -0.04     0.01  -0.01  -0.09    -0.18  -0.04   0.03
     3   6     0.03   0.03   0.05     0.01   0.04  -0.17    -0.20   0.00  -0.12
     4   6    -0.02   0.08   0.11    -0.08  -0.02   0.22    -0.11  -0.13  -0.07
     5   6     0.01   0.04  -0.01    -0.02  -0.05   0.12     0.01  -0.08   0.06
     6  35     0.07  -0.06   0.01    -0.02   0.01  -0.03     0.16   0.11   0.02
     7   6    -0.03   0.07  -0.11    -0.02  -0.01   0.04    -0.04  -0.10   0.03
     8   6    -0.13   0.06  -0.12     0.03  -0.02   0.01    -0.04  -0.15  -0.07
     9   6    -0.09  -0.02   0.09     0.04   0.01  -0.02     0.03  -0.09   0.00
    10   6    -0.12   0.00   0.13     0.02   0.02   0.01    -0.02   0.02   0.01
    11   6    -0.06  -0.06  -0.09     0.00   0.01   0.01    -0.11   0.00  -0.05
    12   6    -0.02   0.02  -0.11    -0.01   0.01  -0.02    -0.10  -0.05   0.02
    13   1     0.03   0.04   0.09    -0.06  -0.04  -0.41    -0.20  -0.06  -0.28
    14   1     0.11  -0.02   0.05     0.20   0.32  -0.19    -0.25   0.18  -0.12
    15   1    -0.13   0.18   0.13    -0.40   0.01   0.24    -0.10  -0.26  -0.07
    16   1     0.03   0.05   0.25     0.02  -0.05   0.46    -0.18  -0.18  -0.14
    17   1     0.07  -0.04  -0.02    -0.03  -0.17   0.11     0.08  -0.01   0.07
    18   1    -0.07   0.11  -0.11    -0.08   0.01   0.04    -0.06  -0.06   0.03
    19   1    -0.30   0.08  -0.12     0.06  -0.04   0.01    -0.15  -0.23  -0.08
    20   1    -0.09   0.09  -0.24     0.03  -0.03   0.03     0.01  -0.14  -0.20
    21   1     0.02  -0.17   0.09     0.04   0.06  -0.02     0.08  -0.15   0.00
    22   1    -0.15   0.02   0.23     0.05  -0.00  -0.06     0.09  -0.08   0.06
    23   1    -0.09  -0.09   0.30     0.04   0.03   0.02     0.02   0.06   0.05
    24   1    -0.23   0.18   0.15     0.00   0.01   0.01    -0.04   0.08   0.01
    25   1    -0.11  -0.22  -0.11     0.01   0.00   0.01    -0.22  -0.04  -0.06
    26   1    -0.03  -0.04  -0.20    -0.01   0.03   0.01    -0.10   0.05  -0.16
    27   1    -0.01  -0.01  -0.11     0.01   0.07  -0.01    -0.06  -0.08   0.02
                      7                      8                      9
                      A                      A                      A
 Frequencies --    269.0120               296.3845               317.3064
 Red. masses --      3.5598                 1.9650                 2.8388
 Frc consts  --      0.1518                 0.1017                 0.1684
 IR Inten    --      4.9851                 0.1218                 3.0519
  Atom  AN      X      Y      Z        X      Y      Z        X      Y      Z
     1   8    -0.04   0.26   0.02     0.02   0.05  -0.01    -0.05   0.12  -0.04
     2   6    -0.01   0.06  -0.10     0.03   0.02  -0.02     0.05   0.06   0.05
     3   6    -0.07  -0.05  -0.01     0.02  -0.03   0.01    -0.02   0.04  -0.06
     4   6    -0.05  -0.07   0.02     0.06  -0.05  -0.04     0.00  -0.04  -0.01
     5   6     0.04  -0.07  -0.03    -0.02  -0.01   0.10     0.03  -0.01   0.07
     6  35     0.01   0.03   0.00    -0.01  -0.00  -0.01    -0.04  -0.01  -0.01
     7   6     0.04  -0.04  -0.06    -0.01  -0.02   0.12     0.11   0.07   0.10
     8   6     0.04   0.01   0.09     0.01  -0.04   0.02    -0.02  -0.00  -0.12
     9   6    -0.08  -0.06  -0.04     0.01   0.06  -0.11    -0.01  -0.10   0.05
    10   6    -0.06  -0.14   0.03    -0.06   0.04   0.12     0.01  -0.08  -0.03
    11   6     0.11  -0.09   0.10    -0.03  -0.03  -0.08     0.02  -0.06  -0.03
    12   6     0.05   0.02  -0.12     0.03   0.02  -0.02     0.14   0.04   0.14
    13   1    -0.13  -0.02   0.07    -0.01  -0.01   0.06    -0.05  -0.01  -0.21
    14   1    -0.01  -0.13  -0.01     0.01  -0.08   0.02    -0.06   0.20  -0.07
    15   1    -0.12  -0.03   0.03     0.18  -0.18  -0.06     0.01  -0.13  -0.01
    16   1    -0.05  -0.13   0.10     0.02   0.02  -0.20    -0.02  -0.02  -0.06
    17   1     0.08  -0.10  -0.03    -0.08   0.05   0.10    -0.04  -0.00   0.07
    18   1    -0.00  -0.14  -0.06    -0.07  -0.01   0.12     0.18   0.20   0.10
    19   1     0.24   0.12   0.10     0.07  -0.16   0.02    -0.27  -0.16  -0.12
    20   1    -0.05   0.02   0.31    -0.00  -0.01   0.01     0.00   0.14  -0.37
    21   1    -0.13   0.06  -0.05     0.08   0.33  -0.12     0.03  -0.30   0.06
    22   1    -0.12  -0.09  -0.14     0.01  -0.02  -0.36    -0.06  -0.04   0.23
    23   1    -0.06  -0.16   0.06     0.04  -0.02   0.38    -0.03  -0.09  -0.10
    24   1    -0.13  -0.21   0.03    -0.33   0.18   0.16     0.10  -0.08  -0.04
    25   1     0.37  -0.04   0.11    -0.16  -0.19  -0.10    -0.17  -0.07  -0.04
    26   1     0.08  -0.20   0.34     0.01   0.02  -0.25     0.12  -0.14  -0.20
    27   1    -0.01   0.12  -0.11     0.14   0.05  -0.02     0.22   0.04   0.14
                     10                     11                     12
                      A                      A                      A
 Frequencies --    375.5940               399.6245               423.9213
 Red. masses --      3.2815                 3.0366                 3.3983
 Frc consts  --      0.2727                 0.2857                 0.3598
 IR Inten    --      0.1913                 2.1618                 0.6437
  Atom  AN      X      Y      Z        X      Y      Z        X      Y      Z
     1   8     0.08   0.07  -0.04    -0.05   0.01  -0.01    -0.00   0.09   0.02
     2   6     0.03   0.11  -0.06    -0.02   0.07   0.07    -0.02  -0.01  -0.10
     3   6     0.09   0.07   0.04     0.03   0.20   0.02     0.02   0.01   0.00
     4   6     0.17  -0.08   0.01     0.05   0.12   0.02    -0.04   0.16  -0.04
     5   6     0.03  -0.08   0.06     0.05   0.03  -0.10    -0.13   0.16   0.10
     6  35    -0.00  -0.01  -0.00    -0.01  -0.01   0.00     0.01  -0.01  -0.00
     7   6    -0.05  -0.10   0.02     0.02  -0.05  -0.05    -0.14   0.00   0.10
     8   6    -0.07  -0.14  -0.02     0.13  -0.08   0.04    -0.01  -0.09  -0.03
     9   6    -0.03  -0.09   0.03     0.06  -0.14  -0.08     0.11  -0.04   0.01
    10   6    -0.08   0.08  -0.07    -0.02  -0.07   0.04     0.15  -0.11   0.00
    11   6    -0.07   0.12   0.09    -0.13  -0.06  -0.00     0.02  -0.09   0.04
    12   6    -0.11   0.07  -0.04    -0.07   0.02   0.04    -0.06  -0.05  -0.08
    13   1    -0.04   0.09   0.06     0.06   0.13  -0.18     0.12   0.06   0.15
    14   1     0.14   0.04   0.04     0.00   0.40   0.01     0.06  -0.15   0.01
    15   1     0.31  -0.18  -0.01     0.02   0.23   0.03     0.02   0.11  -0.04
    16   1     0.10  -0.04  -0.17     0.03   0.02   0.09    -0.01   0.27  -0.10
    17   1     0.01  -0.09   0.06     0.06   0.01  -0.10    -0.19   0.28   0.11
    18   1    -0.11  -0.11   0.02     0.09  -0.10  -0.05    -0.28   0.01   0.11
    19   1    -0.18  -0.20  -0.02     0.37   0.01   0.04    -0.13  -0.24  -0.04
    20   1    -0.05  -0.10  -0.13     0.06  -0.10   0.28     0.09  -0.16  -0.20
    21   1    -0.07  -0.26   0.04     0.08  -0.07  -0.08     0.16  -0.01   0.00
    22   1     0.11  -0.04   0.19     0.04  -0.15  -0.12     0.06  -0.06  -0.04
    23   1    -0.07   0.17  -0.16     0.09   0.03   0.14     0.11  -0.04  -0.17
    24   1     0.02   0.00  -0.09    -0.15  -0.05   0.06     0.29  -0.22  -0.02
    25   1     0.12   0.28   0.10    -0.28  -0.15  -0.01     0.12  -0.12   0.04
    26   1    -0.12   0.06   0.31    -0.07  -0.05  -0.18    -0.05  -0.00   0.10
    27   1    -0.15   0.17  -0.03    -0.12  -0.02   0.04    -0.02   0.07  -0.07
                     13                     14                     15
                      A                      A                      A
 Frequencies --    462.3511               482.0853               522.0311
 Red. masses --      2.8868                 2.2636                 1.8935
 Frc consts  --      0.3636                 0.3100                 0.3040
 IR Inten    --      4.4842                 0.3634                 1.3130
  Atom  AN      X      Y      Z        X      Y      Z        X      Y      Z
     1   8    -0.11   0.02   0.03    -0.06  -0.01   0.01    -0.01   0.08  -0.01
     2   6    -0.04  -0.04   0.08    -0.01  -0.01   0.08     0.03   0.01  -0.01
     3   6     0.03   0.11  -0.02     0.02   0.07   0.01     0.05  -0.02  -0.02
     4   6     0.05   0.08   0.02     0.10  -0.08   0.02     0.05  -0.04   0.02
     5   6     0.07   0.04  -0.03    -0.00  -0.02   0.14     0.02  -0.06  -0.09
     6  35    -0.01  -0.01  -0.00    -0.00  -0.00  -0.01     0.00   0.00   0.00
     7   6     0.01  -0.11   0.02    -0.08   0.06  -0.09    -0.01  -0.04  -0.03
     8   6    -0.13  -0.11   0.06     0.03   0.12  -0.04    -0.08  -0.00   0.03
     9   6    -0.04   0.06   0.02     0.00   0.05   0.02    -0.01   0.13   0.05
    10   6    -0.01   0.05  -0.01     0.05  -0.06   0.02     0.08  -0.03   0.03
    11   6     0.18   0.03  -0.07     0.02  -0.05  -0.00    -0.09  -0.04   0.04
    12   6     0.08  -0.09  -0.06    -0.05  -0.04  -0.09    -0.04  -0.02   0.05
    13   1     0.15  -0.01  -0.31     0.00  -0.05  -0.30     0.01  -0.04  -0.08
    14   1    -0.00   0.41  -0.03    -0.03   0.39  -0.00     0.07   0.04  -0.03
    15   1     0.02   0.13   0.02     0.33  -0.33  -0.02    -0.02   0.05   0.03
    16   1     0.03   0.02   0.06    -0.00   0.02  -0.31     0.07  -0.07   0.11
    17   1     0.04   0.04  -0.03     0.03  -0.09   0.14     0.05  -0.10  -0.09
    18   1     0.00  -0.21   0.02    -0.24   0.14  -0.07     0.08  -0.09  -0.04
    19   1    -0.27  -0.20   0.05     0.12   0.26  -0.03    -0.26  -0.02   0.03
    20   1    -0.07  -0.10  -0.12     0.03   0.04   0.11     0.00  -0.03  -0.14
    21   1    -0.09   0.18   0.02     0.04   0.02   0.02     0.01   0.45   0.03
    22   1     0.08   0.01  -0.11    -0.11   0.06   0.05    -0.05   0.02  -0.29
    23   1    -0.05  -0.11   0.09     0.01  -0.07  -0.04    -0.05   0.02  -0.29
    24   1    -0.06   0.15   0.01     0.10  -0.08   0.01     0.36  -0.19  -0.01
    25   1     0.35   0.09  -0.06     0.11  -0.09  -0.00    -0.33  -0.18   0.02
    26   1     0.13  -0.00   0.13    -0.03  -0.00   0.06    -0.05   0.07  -0.24
    27   1     0.14  -0.19  -0.07    -0.12  -0.15  -0.09    -0.10   0.02   0.06
                     16                     17                     18
                      A                      A                      A
 Frequencies --    577.4548               642.5499               726.1268
 Red. masses --      3.3434                 5.3692                 2.8777
 Frc consts  --      0.6569                 1.3061                 0.8940
 IR Inten    --      8.4799                21.6720                16.4670
  Atom  AN      X      Y      Z        X      Y      Z        X      Y      Z
     1   8     0.13  -0.15  -0.03    -0.09  -0.04   0.15     0.03   0.04  -0.07
     2   6    -0.05   0.15  -0.03    -0.26  -0.13  -0.23     0.13   0.05   0.11
     3   6    -0.17   0.19   0.12     0.02  -0.01  -0.04    -0.04  -0.02  -0.05
     4   6    -0.07  -0.02  -0.00     0.11   0.06   0.01    -0.07   0.01  -0.06
     5   6     0.06  -0.03   0.01     0.34   0.09   0.12     0.22   0.10   0.16
     6  35    -0.00   0.00  -0.00    -0.03  -0.01  -0.01    -0.01  -0.01  -0.01
     7   6     0.05  -0.02   0.01     0.17   0.01   0.04    -0.05  -0.03  -0.10
     8   6    -0.03  -0.02   0.02     0.04   0.06  -0.02    -0.05  -0.06   0.01
     9   6    -0.01   0.03   0.03    -0.02   0.01   0.01     0.01  -0.01   0.00
    10   6     0.05  -0.08   0.03    -0.02  -0.00   0.01     0.00   0.03   0.01
    11   6     0.06  -0.05  -0.03    -0.08   0.01   0.04    -0.04   0.01   0.02
    12   6     0.01   0.08  -0.08    -0.04   0.01  -0.04    -0.01  -0.07   0.02
    13   1    -0.34   0.27   0.29     0.17   0.06   0.18     0.01   0.08   0.22
    14   1    -0.19   0.01   0.13     0.24  -0.30  -0.03    -0.30  -0.28  -0.03
    15   1     0.06  -0.07  -0.02     0.15  -0.05  -0.00    -0.37  -0.08  -0.03
    16   1    -0.23  -0.17  -0.14     0.03  -0.05  -0.05     0.01  -0.05   0.18
    17   1     0.06  -0.04   0.01     0.33   0.08   0.12     0.35   0.17   0.17
    18   1     0.01  -0.08   0.01     0.15   0.05   0.04    -0.20   0.03  -0.08
    19   1    -0.22  -0.10   0.01    -0.05   0.00  -0.02     0.08   0.09   0.02
    20   1     0.01   0.03  -0.18     0.01   0.20  -0.12    -0.07  -0.14   0.18
    21   1    -0.00   0.25   0.02    -0.00   0.04   0.00     0.02   0.05   0.00
    22   1    -0.06  -0.05  -0.19    -0.07   0.01  -0.02     0.07  -0.03  -0.06
    23   1    -0.04  -0.10  -0.13    -0.04   0.08  -0.13    -0.01   0.06  -0.05
    24   1     0.19  -0.15   0.00     0.09  -0.11  -0.01     0.06   0.01   0.00
    25   1     0.08  -0.16  -0.04    -0.15  -0.06   0.04    -0.07   0.01   0.02
    26   1     0.08  -0.05  -0.07    -0.07   0.05  -0.05    -0.04   0.04  -0.01
    27   1     0.06   0.11  -0.08     0.00   0.28  -0.02    -0.14  -0.29   0.01
                     19                     20                     21
                      A                      A                      A
 Frequencies --    788.9107               825.2234               848.8257
 Red. masses --      1.9698                 2.0987                 2.7367
 Frc consts  --      0.7223                 0.8421                 1.1618
 IR Inten    --      0.1817                 1.4825                11.8552
  Atom  AN      X      Y      Z        X      Y      Z        X      Y      Z
     1   8     0.02   0.01   0.02     0.00   0.02  -0.00    -0.06  -0.06   0.03
     2   6    -0.05   0.00  -0.09    -0.03   0.06  -0.02    -0.06   0.08   0.10
     3   6    -0.01   0.05  -0.01     0.01   0.10  -0.05     0.07  -0.03  -0.09
     4   6     0.01   0.03   0.03     0.07  -0.03  -0.03     0.12  -0.05  -0.05
     5   6    -0.03  -0.01   0.02     0.03  -0.06  -0.03    -0.03  -0.03   0.01
     6  35     0.00  -0.00   0.00     0.00  -0.00   0.00     0.00  -0.00   0.00
     7   6    -0.06  -0.05  -0.07    -0.06  -0.04   0.07    -0.04   0.04   0.02
     8   6    -0.10  -0.04  -0.04     0.02   0.08  -0.01    -0.05   0.01  -0.00
     9   6    -0.05   0.00  -0.04     0.01   0.10  -0.01    -0.05  -0.13  -0.02
    10   6     0.05   0.02   0.02     0.06  -0.05  -0.06     0.08  -0.07   0.07
    11   6     0.13   0.04   0.03     0.02  -0.06  -0.05     0.08   0.11  -0.04
    12   6     0.05  -0.02   0.12    -0.09  -0.09   0.09    -0.02   0.15  -0.05
    13   1    -0.05   0.09   0.11    -0.07   0.23   0.28     0.05   0.06   0.14
    14   1     0.15  -0.10  -0.00    -0.01  -0.28  -0.03    -0.13  -0.28  -0.07
    15   1     0.16  -0.08   0.01    -0.20   0.08   0.00    -0.34   0.09   0.00
    16   1    -0.07   0.06  -0.17     0.13  -0.15   0.23     0.36  -0.00   0.39
    17   1     0.01  -0.09   0.02    -0.02  -0.00  -0.02    -0.08   0.05   0.01
    18   1     0.00   0.08  -0.07    -0.01  -0.03   0.07    -0.13   0.07   0.02
    19   1     0.29   0.19  -0.03    -0.02  -0.01  -0.02     0.01   0.04   0.00
    20   1    -0.19  -0.17   0.38     0.09  -0.01  -0.09    -0.14   0.11   0.08
    21   1     0.01  -0.20  -0.04    -0.07  -0.18   0.00     0.02   0.07  -0.03
    22   1     0.02   0.06   0.14    -0.10   0.20   0.26    -0.18  -0.20  -0.21
    23   1    -0.01  -0.08   0.01     0.13  -0.24   0.31     0.07  -0.03  -0.01
    24   1     0.02  -0.07   0.02    -0.29   0.17  -0.00     0.17  -0.10   0.06
    25   1    -0.30  -0.13   0.01     0.10   0.13  -0.03     0.05  -0.03  -0.05
    26   1     0.24   0.13  -0.40    -0.07  -0.03   0.14     0.07   0.19  -0.14
    27   1    -0.05   0.05   0.12    -0.01  -0.16   0.08     0.01   0.08  -0.05
                     22                     23                     24
                      A                      A                      A
 Frequencies --    859.4792               874.7336               915.1630
 Red. masses --      1.6602                 2.1174                 1.5226
 Frc consts  --      0.7226                 0.9546                 0.7513
 IR Inten    --      0.9942                 4.1922                 4.1146
  Atom  AN      X      Y      Z        X      Y      Z        X      Y      Z
     1   8    -0.02  -0.02   0.00     0.03   0.01  -0.02     0.01   0.02  -0.01
     2   6     0.00   0.00   0.04     0.04  -0.02  -0.01     0.00  -0.01  -0.03
     3   6     0.01   0.00   0.01    -0.06  -0.07   0.08    -0.02   0.04   0.02
     4   6     0.03  -0.01  -0.04     0.01  -0.06   0.01     0.01  -0.02  -0.00
     5   6     0.01  -0.01  -0.02     0.09   0.08  -0.07     0.01  -0.01  -0.04
     6  35    -0.00   0.00   0.00    -0.00  -0.00  -0.00     0.00   0.00   0.00
     7   6    -0.03  -0.05   0.07    -0.03   0.02   0.08     0.02   0.02   0.08
     8   6     0.05  -0.01  -0.06    -0.09   0.05   0.04    -0.07   0.00  -0.08
     9   6    -0.01   0.12  -0.02    -0.02  -0.03  -0.10    -0.02  -0.04   0.00
    10   6    -0.09   0.04   0.03     0.14  -0.01  -0.00     0.02   0.04   0.07
    11   6     0.02  -0.04   0.05    -0.00   0.03   0.04    -0.06  -0.01  -0.05
    12   6     0.03   0.03  -0.08    -0.04  -0.01  -0.05     0.01  -0.09   0.01
    13   1     0.04  -0.01  -0.02    -0.19  -0.21  -0.28    -0.08   0.04   0.01
    14   1    -0.13   0.04   0.01    -0.05   0.33   0.06     0.02   0.03   0.02
    15   1    -0.17   0.13  -0.01     0.06   0.14   0.02     0.00   0.07   0.00
    16   1     0.10  -0.09   0.20    -0.04  -0.20   0.09    -0.02  -0.12   0.04
    17   1    -0.06   0.11  -0.01     0.05   0.21  -0.06    -0.09   0.04  -0.04
    18   1    -0.11  -0.08   0.07    -0.04  -0.10   0.07     0.11   0.18   0.08
    19   1     0.25  -0.14  -0.06    -0.04  -0.10   0.03     0.32   0.13  -0.06
    20   1     0.04  -0.07   0.05    -0.14   0.15   0.02    -0.23   0.04   0.32
    21   1     0.12  -0.27  -0.01    -0.10  -0.32  -0.08     0.29   0.06  -0.02
    22   1     0.03   0.25   0.35    -0.07   0.07   0.19    -0.09  -0.07  -0.09
    23   1    -0.25   0.07  -0.30     0.28   0.04   0.21    -0.07   0.11  -0.18
    24   1     0.12  -0.28  -0.02    -0.15  -0.04   0.03     0.35   0.09   0.03
    25   1    -0.05  -0.32   0.03    -0.11  -0.07   0.03     0.26   0.08  -0.04
    26   1     0.09  -0.03  -0.14    -0.08   0.26  -0.11    -0.20   0.02   0.28
    27   1     0.06   0.09  -0.07    -0.06   0.14  -0.04     0.29  -0.14  -0.00
                     25                     26                     27
                      A                      A                      A
 Frequencies --    922.2191               973.2311               986.6544
 Red. masses --      2.4417                 2.2557                 2.0316
 Frc consts  --      1.2235                 1.2588                 1.1653
 IR Inten    --      7.1510                 0.3237                 4.4001
  Atom  AN      X      Y      Z        X      Y      Z        X      Y      Z
     1   8     0.00  -0.03   0.01     0.03   0.02  -0.02    -0.01   0.00   0.02
     2   6    -0.05   0.04  -0.03     0.02  -0.01  -0.02     0.00  -0.06  -0.02
     3   6    -0.09  -0.09  -0.00    -0.03  -0.06   0.04     0.12   0.04   0.09
     4   6     0.14  -0.06   0.05    -0.01   0.02  -0.00    -0.12  -0.05  -0.09
     5   6     0.04   0.12  -0.05     0.02   0.04   0.01     0.06  -0.06  -0.00
     6  35    -0.00  -0.00  -0.00    -0.00  -0.00  -0.00     0.00   0.00  -0.00
     7   6    -0.12   0.06  -0.04    -0.01  -0.08   0.02    -0.09   0.01   0.01
     8   6    -0.02  -0.07  -0.00     0.15  -0.02  -0.08    -0.03  -0.02  -0.03
     9   6     0.09   0.03   0.06    -0.11   0.02   0.07     0.02   0.02   0.03
    10   6    -0.07  -0.02  -0.05    -0.02  -0.10   0.05     0.02  -0.05  -0.03
    11   6     0.01  -0.07  -0.04     0.04   0.15  -0.06    -0.01  -0.01  -0.03
    12   6     0.03   0.09   0.08    -0.06  -0.03   0.05     0.01   0.11   0.03
    13   1    -0.42  -0.13  -0.15    -0.12  -0.12  -0.14     0.50  -0.04  -0.07
    14   1     0.03   0.07  -0.02     0.04   0.15   0.02     0.06   0.18   0.08
    15   1     0.12   0.15   0.06     0.08   0.13  -0.00    -0.20   0.00  -0.08
    16   1     0.19  -0.06   0.16    -0.03  -0.00  -0.01    -0.23  -0.31   0.03
    17   1     0.05   0.21  -0.04     0.03   0.19   0.02     0.12   0.05   0.01
    18   1    -0.07   0.20  -0.03    -0.05  -0.09   0.02    -0.07   0.15   0.02
    19   1     0.04   0.09   0.00     0.18  -0.12  -0.09     0.08   0.09  -0.02
    20   1     0.07  -0.31   0.11     0.19  -0.08  -0.10    -0.01  -0.16   0.12
    21   1     0.13   0.15   0.05     0.04   0.14   0.06     0.09   0.07   0.03
    22   1     0.18  -0.02  -0.08    -0.47  -0.02  -0.05    -0.04  -0.00  -0.03
    23   1    -0.09  -0.11   0.00    -0.23  -0.37  -0.01     0.02  -0.14   0.10
    24   1    -0.03   0.13  -0.04     0.12   0.03   0.04    -0.02   0.15  -0.01
    25   1     0.10   0.11  -0.02    -0.07   0.30  -0.05     0.01   0.19  -0.01
    26   1     0.11  -0.36   0.11    -0.01   0.25  -0.07     0.04  -0.15   0.05
    27   1     0.04   0.13   0.08    -0.12  -0.03   0.04     0.03   0.42   0.04
                     28                     29                     30
                      A                      A                      A
 Frequencies --   1018.3475              1041.0980              1059.8701
 Red. masses --      2.0249                 1.9360                 1.8659
 Frc consts  --      1.2372                 1.2363                 1.2349
 IR Inten    --      2.9336                 0.4947                 4.4007
  Atom  AN      X      Y      Z        X      Y      Z        X      Y      Z
     1   8    -0.01  -0.02  -0.00    -0.02   0.00   0.00     0.01   0.01  -0.01
     2   6     0.00   0.07   0.08    -0.01   0.03   0.03    -0.00   0.00  -0.02
     3   6     0.01  -0.09  -0.07     0.09   0.03  -0.04     0.02   0.01   0.04
     4   6    -0.04   0.07   0.06    -0.08  -0.11   0.05     0.01  -0.04  -0.04
     5   6     0.04  -0.00  -0.02     0.04   0.08  -0.09    -0.05   0.01   0.03
     6  35    -0.00  -0.00   0.00    -0.00   0.00   0.00    -0.00   0.00   0.00
     7   6     0.04   0.00   0.00    -0.05   0.11   0.02     0.15   0.10  -0.00
     8   6    -0.06  -0.07  -0.00     0.03  -0.02   0.05    -0.03  -0.10  -0.00
     9   6    -0.01   0.11  -0.03     0.03  -0.02  -0.02     0.02   0.05   0.04
    10   6     0.07  -0.08   0.02    -0.06  -0.02   0.04    -0.01  -0.04  -0.03
    11   6    -0.07  -0.01  -0.06     0.05   0.04  -0.03     0.03   0.01   0.01
    12   6    -0.03   0.11  -0.02    -0.04  -0.02   0.01    -0.11  -0.06  -0.04
    13   1     0.06  -0.06  -0.00     0.01   0.09   0.10    -0.01  -0.03  -0.05
    14   1     0.07  -0.13  -0.07     0.51  -0.17  -0.04    -0.17   0.11   0.04
    15   1     0.20  -0.19   0.03     0.13  -0.17   0.03    -0.17  -0.00  -0.02
    16   1    -0.04   0.31  -0.24    -0.28  -0.29  -0.14     0.14   0.05   0.12
    17   1     0.14  -0.30  -0.04    -0.01   0.09  -0.09    -0.11   0.08   0.03
    18   1     0.24  -0.11  -0.01    -0.07   0.05   0.02     0.26   0.36  -0.00
    19   1     0.21  -0.19  -0.00    -0.05  -0.19   0.04     0.06   0.12   0.01
    20   1    -0.08  -0.14   0.14     0.07   0.00  -0.08    -0.08  -0.10   0.13
    21   1     0.13  -0.19  -0.02     0.04  -0.07  -0.02    -0.08   0.04   0.04
    22   1    -0.09   0.20   0.23     0.14  -0.01   0.03     0.42   0.03   0.01
    23   1     0.01  -0.21   0.06    -0.17  -0.06  -0.12    -0.16  -0.38   0.07
    24   1     0.01  -0.02   0.03     0.02  -0.24   0.01    -0.18  -0.12  -0.02
    25   1     0.19   0.08  -0.05     0.08  -0.13  -0.04    -0.06  -0.04   0.00
    26   1    -0.18   0.03   0.18    -0.00   0.15  -0.05    -0.11   0.31  -0.06
    27   1     0.12   0.10  -0.02    -0.02  -0.34  -0.00    -0.11   0.07  -0.03
                     31                     32                     33
                      A                      A                      A
 Frequencies --   1073.4546              1094.6203              1107.7120
 Red. masses --      1.4960                 2.2552                 2.1006
 Frc consts  --      1.0157                 1.5921                 1.5186
 IR Inten    --      2.6277                 8.8324                14.5647
  Atom  AN      X      Y      Z        X      Y      Z        X      Y      Z
     1   8    -0.00  -0.00   0.01     0.01   0.02  -0.01    -0.00   0.02  -0.01
     2   6     0.00  -0.03  -0.02     0.05  -0.09  -0.02     0.06  -0.10   0.00
     3   6    -0.03   0.03  -0.01    -0.08   0.01  -0.02    -0.06   0.03  -0.03
     4   6     0.03   0.00   0.00     0.05   0.09   0.02     0.05   0.03   0.05
     5   6     0.01  -0.01  -0.02     0.06  -0.07  -0.03     0.06  -0.01  -0.06
     6  35     0.00   0.00   0.00     0.00  -0.00   0.00    -0.00  -0.00   0.00
     7   6    -0.06   0.05  -0.02    -0.09   0.02   0.04    -0.04   0.14   0.04
     8   6     0.04  -0.06   0.00    -0.05   0.09   0.04     0.06  -0.08   0.00
     9   6    -0.05   0.02   0.01     0.14  -0.03  -0.02    -0.09  -0.02   0.01
    10   6     0.03  -0.03   0.01    -0.10  -0.10   0.02     0.03   0.08  -0.00
    11   6    -0.07   0.06   0.03     0.01   0.11  -0.02     0.07  -0.07   0.01
    12   6     0.11  -0.02  -0.02     0.02  -0.02   0.00    -0.08  -0.00  -0.01
    13   1     0.02   0.05   0.04     0.09   0.02   0.04     0.10   0.07   0.10
    14   1    -0.08  -0.03  -0.00    -0.34  -0.02  -0.01    -0.38  -0.09  -0.02
    15   1    -0.01  -0.00   0.01     0.05  -0.01   0.01     0.02  -0.18   0.04
    16   1    -0.01  -0.07   0.02    -0.02   0.01  -0.04    -0.06  -0.07  -0.05
    17   1    -0.02  -0.08  -0.03     0.01  -0.37  -0.05    -0.15  -0.40  -0.11
    18   1     0.02   0.28  -0.02    -0.11  -0.05   0.04    -0.05   0.18   0.04
    19   1    -0.08   0.08   0.01    -0.13   0.08   0.04     0.14  -0.33  -0.01
    20   1     0.24  -0.40  -0.04    -0.07   0.16  -0.01     0.05  -0.03  -0.03
    21   1    -0.38   0.00   0.03     0.34  -0.03  -0.03    -0.07   0.03   0.01
    22   1    -0.14   0.03   0.03     0.32  -0.03  -0.02    -0.14  -0.04  -0.04
    23   1     0.15   0.15   0.05    -0.25  -0.26  -0.08    -0.02   0.00  -0.01
    24   1    -0.17  -0.23   0.02    -0.09  -0.29  -0.00     0.17   0.29  -0.01
    25   1     0.05  -0.08   0.02    -0.07   0.16  -0.02    -0.03  -0.04   0.01
    26   1    -0.19   0.25   0.05    -0.05   0.22  -0.05     0.09  -0.06  -0.05
    27   1     0.46  -0.03  -0.03     0.12   0.07   0.00    -0.32   0.22   0.01
                     34                     35                     36
                      A                      A                      A
 Frequencies --   1127.5112              1140.9780              1165.1308
 Red. masses --      2.0572                 1.7196                 1.7668
 Frc consts  --      1.5409                 1.3190                 1.4132
 IR Inten    --      2.1657                 3.9796                 3.4427
  Atom  AN      X      Y      Z        X      Y      Z        X      Y      Z
     1   8    -0.03  -0.01   0.01     0.01   0.01   0.01    -0.00  -0.01   0.01
     2   6     0.03  -0.05   0.02    -0.02  -0.05  -0.07    -0.03   0.00  -0.03
     3   6     0.01   0.08  -0.03     0.03   0.04   0.06    -0.02   0.01   0.02
     4   6     0.02  -0.10   0.07     0.02  -0.07  -0.01     0.02   0.02  -0.06
     5   6    -0.05   0.15  -0.03    -0.08   0.07   0.02    -0.01  -0.11   0.03
     6  35     0.00  -0.00   0.00    -0.00  -0.00  -0.00    -0.00   0.00  -0.00
     7   6     0.06  -0.04  -0.02    -0.02   0.03  -0.09     0.03   0.13  -0.05
     8   6    -0.03  -0.00  -0.02     0.01   0.00   0.08    -0.02  -0.06   0.07
     9   6     0.02   0.03   0.03    -0.01   0.00  -0.07    -0.02   0.04  -0.03
    10   6     0.00  -0.06  -0.03    -0.01   0.00   0.07     0.02  -0.03   0.02
    11   6    -0.07   0.04   0.06     0.00   0.00  -0.07    -0.05   0.01   0.02
    12   6     0.12  -0.01  -0.08    -0.00  -0.01   0.07     0.11  -0.01  -0.01
    13   1     0.00   0.15   0.16    -0.01   0.02  -0.01    -0.04  -0.01  -0.03
    14   1    -0.16  -0.14  -0.02    -0.31   0.10   0.06     0.21   0.04   0.01
    15   1    -0.10  -0.35   0.07    -0.26  -0.28   0.00     0.03   0.34  -0.05
    16   1    -0.03  -0.13   0.01     0.19   0.13   0.09     0.04  -0.04   0.07
    17   1    -0.41   0.05  -0.06     0.42  -0.00   0.04     0.04   0.04   0.05
    18   1    -0.05  -0.25  -0.03     0.30  -0.20  -0.11    -0.40   0.01  -0.04
    19   1     0.12  -0.06  -0.02    -0.05  -0.29   0.06     0.08  -0.42   0.05
    20   1    -0.05  -0.02   0.06     0.06   0.03  -0.11    -0.06   0.08  -0.02
    21   1     0.23   0.03   0.02     0.10  -0.17  -0.07     0.18  -0.11  -0.03
    22   1    -0.14   0.03   0.01    -0.09   0.06   0.10    -0.01   0.07   0.10
    23   1     0.04  -0.11   0.09    -0.07   0.05  -0.11    -0.03  -0.11   0.02
    24   1    -0.03   0.17  -0.01     0.16  -0.06   0.04     0.11   0.14   0.02
    25   1    -0.30   0.36   0.08     0.15   0.04  -0.06    -0.16   0.29   0.04
    26   1     0.02  -0.06  -0.03    -0.04  -0.02   0.08    -0.04  -0.03   0.04
    27   1    -0.11   0.13  -0.07     0.11   0.08   0.07    -0.25  -0.34  -0.02
                     37                     38                     39
                      A                      A                      A
 Frequencies --   1200.1281              1211.3319              1237.1296
 Red. masses --      1.3758                 1.7612                 1.4288
 Frc consts  --      1.1675                 1.5226                 1.2884
 IR Inten    --     24.9046                20.0841                 9.4128
  Atom  AN      X      Y      Z        X      Y      Z        X      Y      Z
     1   8    -0.03  -0.00   0.00     0.00  -0.01   0.00     0.00  -0.01   0.01
     2   6     0.07  -0.07   0.05    -0.06   0.09  -0.01    -0.04   0.05  -0.02
     3   6    -0.03   0.05  -0.06     0.06  -0.02   0.03     0.01  -0.02   0.02
     4   6     0.02  -0.00   0.04    -0.05  -0.01  -0.02    -0.01  -0.01  -0.00
     5   6    -0.07  -0.04  -0.00     0.02  -0.01  -0.05     0.02   0.04  -0.02
     6  35    -0.00  -0.00  -0.00    -0.00   0.00  -0.00     0.00  -0.00   0.00
     7   6    -0.02   0.01   0.01    -0.05   0.06   0.08    -0.06  -0.03  -0.03
     8   6     0.01  -0.00  -0.02    -0.02   0.03  -0.02     0.06   0.00  -0.03
     9   6    -0.02  -0.01   0.02     0.02  -0.03   0.06    -0.06  -0.02   0.02
    10   6     0.01   0.01  -0.03    -0.04  -0.00  -0.08     0.04   0.05  -0.02
    11   6    -0.00  -0.02   0.04     0.03   0.02   0.09    -0.03  -0.06   0.04
    12   6     0.00   0.01  -0.04     0.02  -0.09  -0.06     0.06   0.02   0.03
    13   1    -0.15   0.13   0.14    -0.13  -0.04  -0.06     0.10  -0.05  -0.05
    14   1     0.14  -0.13  -0.04    -0.01   0.08   0.02    -0.03   0.03   0.02
    15   1     0.17   0.17   0.03    -0.12  -0.19  -0.02    -0.08  -0.15  -0.00
    16   1    -0.09  -0.11  -0.04     0.20   0.39  -0.02     0.04   0.06   0.01
    17   1     0.66   0.36   0.08     0.43  -0.26  -0.05    -0.09  -0.13  -0.04
    18   1     0.14  -0.05   0.00     0.08  -0.05   0.07    -0.20  -0.17  -0.03
    19   1     0.06  -0.05  -0.02     0.14  -0.15  -0.02     0.06  -0.07  -0.04
    20   1    -0.07   0.11   0.02     0.06  -0.15   0.05    -0.12   0.35  -0.05
    21   1     0.03   0.05   0.02     0.22   0.13   0.04    -0.13   0.05   0.01
    22   1     0.12  -0.03  -0.04    -0.24  -0.07  -0.09     0.42  -0.06  -0.07
    23   1    -0.06  -0.16   0.04     0.07   0.05   0.06    -0.20  -0.39   0.04
    24   1    -0.01   0.12  -0.02    -0.09   0.15  -0.06     0.04   0.17  -0.01
    25   1    -0.06  -0.01   0.04    -0.24  -0.00   0.09     0.02  -0.09   0.04
    26   1    -0.07   0.14  -0.02     0.11   0.03  -0.14    -0.24   0.31   0.07
    27   1     0.12   0.26  -0.03     0.17  -0.13  -0.06     0.24  -0.02   0.03
                     40                     41                     42
                      A                      A                      A
 Frequencies --   1260.8295              1279.9289              1289.2853
 Red. masses --      1.2954                 1.4612                 1.3593
 Frc consts  --      1.2133                 1.4103                 1.3313
 IR Inten    --     15.2508                 3.8564                 4.0527
  Atom  AN      X      Y      Z        X      Y      Z        X      Y      Z
     1   8     0.04   0.01  -0.02     0.01  -0.01  -0.01    -0.01   0.00  -0.00
     2   6    -0.04   0.05  -0.03    -0.03   0.10   0.03     0.03  -0.03   0.01
     3   6    -0.06  -0.03  -0.01    -0.03  -0.03  -0.02    -0.03  -0.00   0.01
     4   6     0.06   0.00   0.05     0.02   0.00   0.01     0.03   0.02  -0.06
     5   6    -0.05   0.01  -0.01    -0.01  -0.00   0.02    -0.00   0.02   0.08
     6  35    -0.00  -0.00  -0.00    -0.00  -0.00   0.00     0.00   0.00   0.00
     7   6     0.02   0.02   0.01    -0.01  -0.01  -0.02    -0.01   0.00  -0.07
     8   6    -0.01  -0.00  -0.02     0.01   0.03   0.07    -0.02   0.01   0.03
     9   6     0.01   0.01   0.04    -0.00  -0.03  -0.09     0.01  -0.01   0.04
    10   6     0.00  -0.01  -0.03    -0.02   0.02   0.02    -0.02   0.00  -0.08
    11   6    -0.00   0.02   0.01     0.02  -0.03   0.04     0.01   0.00   0.03
    12   6    -0.00   0.02   0.01    -0.00  -0.07  -0.04    -0.03   0.03   0.02
    13   1     0.68  -0.09  -0.05     0.36  -0.06  -0.03    -0.07  -0.01  -0.01
    14   1    -0.27  -0.03  -0.00     0.03  -0.03  -0.02     0.27   0.01   0.00
    15   1     0.07  -0.06   0.05     0.08   0.07   0.01    -0.06   0.15  -0.04
    16   1    -0.13  -0.26   0.00    -0.07  -0.13   0.01    -0.08  -0.26   0.07
    17   1     0.21   0.19   0.02    -0.08   0.07   0.02    -0.28  -0.23   0.04
    18   1     0.04  -0.11   0.00     0.20   0.21  -0.02     0.29  -0.11  -0.09
    19   1     0.12  -0.10  -0.02    -0.25   0.16   0.07     0.09  -0.26   0.02
    20   1    -0.06   0.02   0.05     0.20  -0.23  -0.09    -0.01   0.02  -0.01
    21   1     0.04   0.07   0.04     0.15  -0.16  -0.09     0.36   0.05   0.01
    22   1    -0.04  -0.02  -0.03    -0.11   0.02   0.04    -0.25  -0.03  -0.03
    23   1     0.09   0.07   0.04    -0.20  -0.20  -0.06     0.04  -0.00   0.04
    24   1    -0.12  -0.07  -0.02     0.27   0.34   0.01    -0.12   0.08  -0.06
    25   1     0.05  -0.14  -0.00    -0.19   0.18   0.06     0.13  -0.35   0.00
    26   1     0.03  -0.02  -0.02    -0.02   0.09  -0.03    -0.07   0.20  -0.03
    27   1    -0.05  -0.37  -0.00     0.17   0.21  -0.03     0.22   0.03   0.01
                     43                     44                     45
                      A                      A                      A
 Frequencies --   1317.8538              1325.7987              1339.7301
 Red. masses --      1.2606                 1.2895                 1.3851
 Frc consts  --      1.2899                 1.3355                 1.4648
 IR Inten    --      0.6625                 3.9358                11.6769
  Atom  AN      X      Y      Z        X      Y      Z        X      Y      Z
     1   8    -0.00   0.00   0.01     0.00   0.00  -0.00     0.00  -0.01  -0.01
     2   6    -0.01  -0.01  -0.02    -0.01   0.01  -0.00    -0.01   0.07   0.03
     3   6     0.04   0.01  -0.02     0.05  -0.01  -0.02    -0.02  -0.01  -0.01
     4   6    -0.04  -0.03   0.05    -0.03  -0.02   0.03    -0.00  -0.02  -0.01
     5   6     0.03  -0.04  -0.03     0.02  -0.01  -0.01    -0.01   0.01   0.01
     6  35    -0.00   0.00  -0.00     0.00   0.00   0.00    -0.00  -0.00   0.00
     7   6     0.05   0.00  -0.01     0.00  -0.02  -0.07     0.02   0.04  -0.03
     8   6    -0.02   0.01   0.02     0.03  -0.04   0.04    -0.01   0.02  -0.02
     9   6     0.02  -0.02  -0.00    -0.01   0.03   0.01    -0.00  -0.00   0.04
    10   6    -0.02   0.02  -0.05     0.01  -0.02  -0.01    -0.02   0.00   0.02
    11   6     0.01  -0.03  -0.01     0.00   0.04   0.02     0.04  -0.04  -0.06
    12   6     0.03   0.03   0.05    -0.07  -0.04   0.01     0.01  -0.11   0.03
    13   1    -0.05   0.04   0.03    -0.03   0.01  -0.00     0.19  -0.02   0.01
    14   1    -0.30  -0.01  -0.00    -0.31  -0.02  -0.01     0.09  -0.02  -0.02
    15   1     0.16   0.06   0.03     0.18   0.14   0.02     0.08   0.13  -0.00
    16   1     0.07   0.23  -0.05    -0.03   0.05  -0.05     0.02  -0.02   0.03
    17   1    -0.08   0.33  -0.00    -0.11   0.16  -0.00    -0.02  -0.08   0.00
    18   1    -0.33  -0.02   0.01    -0.20   0.29  -0.05    -0.23  -0.24  -0.03
    19   1    -0.07   0.06   0.02     0.02  -0.16   0.03     0.18  -0.20  -0.03
    20   1     0.10  -0.21  -0.00    -0.17   0.38  -0.04     0.00  -0.02  -0.01
    21   1     0.27  -0.01  -0.02     0.13   0.01   0.01    -0.06   0.08   0.04
    22   1    -0.26  -0.01  -0.01    -0.06   0.04   0.04     0.07  -0.02  -0.02
    23   1    -0.04  -0.03  -0.02     0.08   0.05   0.04     0.13   0.32  -0.04
    24   1    -0.05   0.09  -0.04    -0.04  -0.03  -0.00    -0.13  -0.29   0.01
[...]
 .00007176,0.00000615,0.00000051,0.00001312,0.00003426,0.00001365,0.000
 01510,-0.00011955,-0.00005236,0.00006566,-0.00009753,-0.00014393,-0.00
 002141,-0.00055653,0.00097997,0.00038099,0.00024356,-0.00034145,-0.000
 45112,-0.00300007,0.05642593,0.00014042,-0.00024220,-0.00017423,0.0000
 2868,0.00055495,0.00044643,-0.00000256,-0.00005861,-0.00004496,-0.0000
 6183,-0.00012558,-0.00000408,0.00074781,-0.00028355,-0.00048611,-0.000
 06976,0.00213135,-0.00023873,-0.00222615,-0.00042074,0.00170654,0.1295
 0388,-0.00468147,-0.20517034,-0.00282502,0.00013491,0.00223729,-0.0003
 5575,-0.00002596,0.00087838,-0.00014680,-0.00009964,-0.00004590,-0.000
 11198,0.00013596,0.00093529,-0.00001336,-0.00002452,0.00002114,-0.0000
 0186,-0.00000193,0.00001036,0.00002287,0.00000955,-0.00001605,0.000020
 39,-0.00006869,-0.00003315,0.00007817,-0.00003130,0.00000570,-0.000035
 11,-0.00051832,0.00066755,0.01770467,-0.00049444,-0.02115371,-0.142375
 84,0.00342545,0.21870448,0.00010125,-0.00004310,0.00002149,-0.00003981
 ,0.00012417,-0.00006335,-0.00001931,0.00002003,0.00001853,-0.00003675,
 -0.00003135,0.00007422,0.00017481,0.00000879,0.00014897,-0.00000787,-0
 .00003142,0.00008358,0.00023353,0.00116279,0.00006333,-0.01104658,-0.0
 0170031,-0.01799665,-0.10315671,-0.00369393,-0.10268481,0.01058187,0.0
 0116153,0.02260155,0.00141277,-0.00063302,0.00018551,-0.00007895,-0.00
 007438,0.00007075,0.00000864,-0.00000146,-0.00000116,-0.00000364,0.000
 00549,0.00000364,0.00001773,-0.00003167,-0.00000422,0.00000024,-0.0000
 2573,-0.00000621,0.00005859,0.00020905,0.00008687,0.00065423,-0.000486
 15,0.00034080,-0.00143834,-0.00411626,0.00023393,0.00027869,0.00059384
 ,0.00006694,0.11338938,0.00010318,0.00004345,0.00002920,-0.00006681,-0
 .00001901,-0.00005550,0.00000038,0.00001060,0.00000111,0.00006056,0.00
 004082,0.00008414,-0.00019139,-0.00004300,0.00019360,0.00005489,-0.000
 00357,-0.00000673,-0.00070444,0.00177050,-0.00131753,-0.01439190,-0.00
 293685,-0.02562889,-0.00344950,-0.05179717,-0.01094803,0.00022972,-0.0
 0053174,0.00088907,-0.00050851,0.00009203,-0.00082207,0.00003163,-0.00
 023839,0.00000296,0.00000692,0.00000722,-0.00000326,-0.00000212,0.0000
 0615,0.00000568,0.00003001,-0.00005069,0.00000856,-0.00000892,0.000018
 99,0.00000291,0.00015847,0.00012576,0.00016383,0.00042746,-0.00039790,
 0.00051114,-0.00336803,-0.00452309,-0.00033600,0.00071500,0.00113630,0
 .00039288,0.00857742,0.05402352,0.00011227,-0.00006358,0.00003580,-0.0
 0016141,0.00004711,-0.00000887,0.00002328,-0.00003031,-0.00001064,-0.0
 0004623,-0.00004580,-0.00001905,0.00020787,-0.00013572,0.00029206,0.00
 000145,-0.00005573,0.00002012,-0.00003717,0.00038478,-0.00008108,-0.00
 044663,-0.00022407,-0.00022434,-0.10263222,-0.01126694,-0.24481904,-0.
 01095194,-0.00040776,-0.02412687,-0.00147590,0.00061028,0.00063807,0.0
 0026067,-0.00017677,0.00004678,-0.00000512,-0.00001850,0.00000087,0.00
 000203,0.00000412,0.00000585,0.00000081,-0.00001702,0.00001273,0.00001
 004,-0.00001696,0.00000597,0.00004558,0.00016672,-0.00001647,0.0003342
 0,-0.00062377,0.00022023,0.00007953,0.00021379,0.00134489,-0.00020972,
 -0.00040115,0.00076228,0.11092068,0.01158190,0.26882350,0.00022647,0.0
 0024107,0.00000647,-0.00016955,-0.00011063,-0.00009636,-0.00004851,0.0
 0013189,0.00004570,-0.00039066,-0.00030004,0.00002077,0.00098034,-0.00
 094458,0.00008876,0.00007241,0.00006213,-0.00005654,-0.00267061,-0.003
 03216,-0.00026330,0.01234796,-0.01799853,0.00183434,-0.13657721,0.1224
 7958,-0.01338586,-0.01333940,0.01872665,-0.00320573,-0.00244247,-0.001
 68866,0.00475351,-0.00035239,-0.00049973,0.00000732,0.00002846,0.00003
 544,-0.00001980,0.00000425,0.00000951,-0.00000744,0.00000021,0.0000077
 1,0.00000006,0.00010171,-0.00015360,-0.00001437,-0.00000648,0.00004238
 ,-0.00003335,0.00001652,-0.00002149,0.00016441,0.00087296,0.00077645,0
 .00002246,0.00085034,0.00081398,0.00007364,-0.00923186,0.01221830,-0.0
 0138534,0.14856089,0.00025631,-0.00006091,0.00003237,-0.00023367,0.000
 26311,-0.00004934,-0.00004334,0.00005787,0.00006577,-0.00062407,-0.000
 41903,-0.00000791,0.00187273,-0.00092587,-0.00021060,-0.00009534,0.000
 01378,0.00008864,-0.00548525,-0.00272683,-0.00040635,0.01608978,-0.022
 98369,0.00280901,0.12176136,-0.21801927,0.01709163,-0.00084616,0.00132
 382,-0.00043009,-0.00023246,0.00108524,-0.00020818,-0.00038078,0.00027
 426,0.00032488,0.00002642,-0.00001053,-0.00001867,-0.00000750,0.000008
 81,-0.00000901,0.00001891,0.00002542,0.00000674,0.00014335,-0.00023179
 ,-0.00000009,-0.00007128,-0.00003341,-0.00003087,-0.00011661,0.0002921
 0,0.00009803,0.00018929,0.00105214,-0.00060547,0.00005668,0.00086010,0
 .00048158,-0.00119576,0.00198863,0.00067974,-0.13136078,0.23755522,-0.
 00014101,-0.00015505,0.00003587,0.00011492,0.00002043,0.00005027,0.000
 02496,-0.00005269,-0.00001726,0.00004647,0.00000105,-0.00003885,0.0000
 0238,0.00003700,0.00038756,-0.00002950,-0.00000026,0.00001906,0.000029
 84,0.00014911,0.00033314,0.00026856,-0.00176510,-0.00079519,-0.0138211
 1,0.01785525,-0.05195978,0.01539905,-0.02202525,0.00175304,0.00294429,
 0.00137475,-0.00397037,0.00007332,0.00051411,0.00001852,-0.00001688,-0
 .00002012,0.00000413,-0.00000449,-0.00000795,-0.00000058,-0.00001212,-
 0.00000078,0.00000655,-0.00001767,0.00001043,0.00000106,0.00005344,0.0
 0006790,-0.00001483,0.00032481,-0.00038993,0.00022071,0.00048674,-0.00
 011883,0.00026043,-0.00023743,0.00030453,-0.00002236,-0.01707945,0.024
 50851,-0.00214501,0.01196204,-0.01903179,0.05374277,-0.00000408,-0.000
 15985,0.00001513,0.00103939,0.00085265,-0.00000557,-0.00030467,0.00033
 367,-0.00000614,-0.00012892,-0.00005621,0.00005290,0.00006777,-0.00006
 092,0.00002062,0.00009331,-0.00012997,-0.00006506,-0.00039823,0.000494
 11,0.00013520,-0.00238307,0.00169069,0.00464249,-0.01375111,-0.0184484
 1,-0.00319324,-0.14104073,-0.12361304,-0.01398780,0.01252834,0.0170236
 8,0.00166613,-0.00229759,0.00315522,-0.00026543,0.00008176,0.00014336,
 -0.00002011,-0.00000892,-0.00001022,0.00000419,0.00000734,-0.00000317,
 -0.00000978,0.00003377,-0.00003771,-0.00001185,-0.00000608,0.00001799,
 0.00000524,0.00006774,-0.00008755,-0.00001305,0.00037179,0.00043443,-0
 .00003554,-0.00060830,-0.00148671,0.00013329,0.00117112,0.00028989,0.0
 0001274,0.00017740,0.00030854,-0.00068726,0.15313041,0.00058698,0.0000
 4399,-0.00002539,-0.00242291,-0.00053357,0.00017959,0.00054637,-0.0004
 9048,-0.00000246,0.00005649,0.00003758,-0.00009287,0.00017218,0.000174
 00,-0.00009670,-0.00016326,-0.00003298,0.00013169,0.00042278,0.0003217
 1,-0.00040806,0.00035518,0.00111176,0.00008898,0.00112628,0.00161451,0
 .00051380,-0.12298322,-0.21341297,-0.01724362,-0.01687035,-0.02273553,
 -0.00265910,0.00545808,-0.00354128,0.00045007,-0.00011954,-0.00024202,
 0.00001040,-0.00001453,0.00000322,-0.00000709,-0.00000022,0.00001262,0
 .00001895,-0.00003608,-0.00000681,0.00002660,-0.00000617,-0.00001423,0
 .00000232,-0.00005186,-0.00002172,0.00007651,-0.00001103,-0.00004434,-
 0.00006648,0.00004976,0.00004743,-0.00017605,-0.00001148,0.00015509,0.
 00044216,-0.00030257,0.00049824,0.00040001,0.13285687,0.23262456,0.000
 08239,-0.00008373,-0.00010162,-0.00010390,0.00013043,0.00042666,-0.000
 01988,-0.00003835,-0.00008785,0.00007951,0.00002410,-0.00000231,-0.000
 06622,0.00004485,-0.00003756,-0.00005534,0.00008269,0.00003974,0.00009
 951,-0.00048534,-0.00000190,0.00295111,-0.00134953,-0.00391264,0.01579
 662,0.02164370,0.00176275,-0.01460635,-0.01805747,-0.05220121,0.000387
 22,0.00179116,-0.00071289,0.00010386,-0.00021258,0.00058433,-0.0000099
 6,-0.00000524,0.00000523,-0.00000762,-0.00002331,0.00000607,-0.0000012
 7,0.00000282,0.00000244,-0.00002205,0.00001971,0.00000187,0.00001415,-
 0.00000804,0.00000618,-0.00004583,0.00004196,-0.00002204,0.00027980,0.
 00008327,0.00023791,0.00091232,0.00119688,0.00017735,-0.00081687,0.000
 30390,0.00094884,-0.00067915,-0.00038354,0.00080848,0.01279525,0.01914
 619,0.05393816,0.00027876,0.00025108,0.00008380,-0.00037582,-0.0000881
 3,0.00024117,0.00000704,0.00003675,-0.00005740,-0.00000737,0.00001036,
 0.00001560,-0.00002804,-0.00006872,0.00001064,0.00007138,0.00002584,-0
 .00005782,-0.00010969,0.00004479,0.00014891,0.00144639,0.00060009,0.00
 018606,0.01052138,-0.00138983,0.02261408,-0.10260423,0.00463028,-0.101
 80819,-0.01073169,0.00174936,-0.01772226,0.00032590,-0.00129576,0.0002
 5471,0.00000707,0.00001899,-0.00001355,0.00001232,0.00000427,0.0000012
 7,-0.00000663,-0.00000380,0.00000636,0.00001707,0.00000243,-0.00000770
 ,0.00000880,-0.00000057,-0.00001097,-0.00014010,0.00001023,-0.00000550
 ,-0.00015266,0.00002239,-0.00041357,0.00006855,0.00030622,-0.00021843,
 -0.00276408,-0.00043294,0.00427949,0.00116723,-0.00001882,-0.00083986,
 -0.00940944,0.00140888,-0.01761637,0.11259008,-0.00046929,-0.00034815,
 -0.00012645,0.00080023,0.00002273,-0.00036106,-0.00005835,0.00004725,0
 .00007751,0.00000649,-0.00002041,-0.00001018,-0.00003546,0.00002047,0.
 00003937,-0.00002329,0.00000748,0.00000913,-0.00000957,-0.00022131,-0.
 00000475,0.00050443,0.00011161,0.00080778,-0.00045480,-0.00052283,-0.0
 0137781,0.00451215,-0.05223391,0.01306945,0.01429675,-0.00296157,0.026
 34222,0.00072088,0.00200531,0.00116550,-0.00000146,0.00002205,0.000005
 80,-0.00001512,-0.00000832,-0.00001470,0.00000131,0.00000798,-0.000009
 09,-0.00001188,0.00000576,0.00000395,-0.00002885,-0.00002727,-0.000019
 26,-0.00000176,0.00003085,-0.00019878,-0.00016540,0.00012504,0.0000460
 2,-0.00004153,-0.00002427,-0.00011746,0.00051882,0.00097336,-0.0002182
 3,-0.00032250,0.00015614,-0.00028137,-0.01189416,0.00219828,-0.0241491
 2,-0.00973401,0.05444001,0.00020992,-0.00003335,-0.00005313,-0.0000598
 9,0.00029263,0.00022672,-0.00004235,0.00002223,-0.00007842,0.00004191,
 0.00003150,0.00000773,-0.00007759,0.00004840,-0.00002830,0.00000826,0.
 00001295,0.00001394,0.00022956,0.00009118,0.00008070,-0.00148732,-0.00
 055438,0.00057142,-0.01112287,0.00060496,-0.02428293,-0.10163357,0.013
 34240,-0.24328767,-0.00050575,0.00005084,-0.00028809,0.00011281,-0.000
 46239,0.00012109,0.00000810,0.00001784,0.00000361,0.00000673,0.0000012
 4,0.00001475,0.00000053,-0.00000893,0.00000769,-0.00000457,0.00001952,
 -0.00000293,0.00002992,0.00004038,0.00001978,-0.00000270,-0.00021742,0
 .00007370,0.00087740,0.00082677,0.00058358,0.00025331,-0.00018235,0.00
 045260,0.00433341,0.00013166,-0.00277778,0.00002542,-0.00044412,0.0009
 4961,-0.00149595,-0.00064970,-0.00229477,0.11012191,-0.01394247,0.2676
 0608,0.00083398,0.00017925,0.00013220,-0.00071096,0.00112733,0.0003323
 5,-0.00001224,-0.00016147,-0.00007795,0.00005239,0.00002742,-0.0001043
 7,0.00025305,-0.00012724,0.00006913,-0.00005876,-0.00000355,0.00014206
 ,0.00054692,0.00072375,-0.00173852,-0.00023098,0.00001431,0.00028006,0
 .00038626,-0.00079135,-0.00128870,-0.01025366,0.00105032,-0.01516228,-
 0.12453677,0.00185209,-0.11493736,-0.01202106,-0.00212130,-0.01665319,
 0.00000112,-0.00005332,0.00005927,0.00003116,0.00004454,0.00007292,-0.
 00000167,-0.00003122,0.00003867,-0.00001370,0.00001563,0.00003042,0.00
 014078,0.00015305,0.00012806,-0.00020551,-0.00019779,0.00087645,0.0002
 5474,0.00001336,0.00009860,-0.00006261,0.00001215,0.00002798,-0.000160
 50,0.00019045,0.00082126,0.00036167,-0.00000225,0.00029331,0.00086083,
 -0.00017555,0.00045508,-0.00110388,0.00303659,0.00007804,0.13502199,0.
 00135042,-0.00004563,0.00041348,-0.00220700,0.00114049,-0.00088018,0.0
 0005091,-0.00005696,-0.00001544,0.00001467,0.00009574,-0.00003110,0.00
 022364,-0.00005109,-0.00016936,-0.00005351,-0.00002572,0.00013874,0.00
 082083,0.00100166,-0.00114796,-0.00001247,-0.00019372,0.00001566,-0.00
 097473,0.00103945,0.00088192,0.01649615,-0.00178875,0.02571525,0.00202
 045,-0.04794573,0.00454172,-0.01578302,-0.00164120,-0.02418330,0.00004
 604,-0.00007533,0.00007112,0.00013700,0.00009823,0.00012368,-0.0000169
 6,-0.00002765,0.00004186,0.00002138,-0.00001250,-0.00000276,0.00011386
 ,0.00007641,0.00015656,0.00000866,0.00009416,0.00065266,-0.00001501,-0
 .00014175,0.00000998,-0.00001132,0.00013060,-0.00001245,0.00000173,0.0
 0010958,-0.00082271,-0.00044687,-0.00003602,-0.00009197,-0.00078693,0.
 00110612,0.00016106,0.00402778,-0.00462212,-0.00014286,-0.00154441,0.0
 5671917,0.00140560,0.00099250,0.00074919,-0.00233005,0.00057170,0.0000
 9876,0.00031857,-0.00020657,-0.00021703,0.00002129,0.00006017,-0.00000
 784,0.00019270,0.00011207,0.00030990,-0.00008187,-0.00008070,0.0000390
 2,0.00046703,0.00009950,0.00057639,-0.00001789,0.00006371,0.00010937,0
 .00048347,-0.00022329,0.00071441,-0.00000633,0.00071877,-0.00096575,-0
 .11473724,0.00301553,-0.23077059,-0.00006622,-0.00124772,-0.00120344,-
 0.00003560,-0.00009279,0.00000379,0.00003979,0.00003519,0.00002593,-0.
 00001090,-0.00001083,0.00002533,0.00003456,-0.00000725,-0.00000931,0.0
 0010595,0.00011226,-0.00007641,-0.00029305,0.00008947,0.00053914,0.000
 07610,-0.00000553,-0.00012934,-0.00002542,-0.00001720,-0.00000935,-0.0
 0039736,-0.00005039,0.00053449,-0.00003746,0.00006194,0.00022331,0.000
 04837,0.00057300,0.00026627,0.00033960,0.00024671,0.00137441,0.1283242
 4,-0.00485249,0.24849441,0.00106198,0.00086705,-0.00042626,-0.00096491
 ,0.00075844,-0.00014643,-0.00001625,0.00000095,0.00013532,-0.00011377,
 0.00004874,0.00000073,0.00001924,0.00067093,0.00068724,-0.00039659,-0.
 00025899,0.00027916,-0.00122599,-0.00338108,-0.00167683,0.00063172,-0.
 00003630,-0.00021517,-0.00072401,0.00349674,-0.00149993,-0.01177801,0.
 00061344,0.01323688,-0.15732201,0.00325523,0.12952331,-0.01359317,-0.0
 0184583,0.01502963,0.00005349,-0.00002054,-0.00003437,-0.00001561,0.00
 002771,-0.00002117,0.00000443,-0.00001538,-0.00000202,0.00003034,-0.00
 004677,0.00000009,-0.00001227,0.00002037,-0.00003167,0.00010210,-0.000
 03841,0.00018806,-0.00007167,-0.00000166,-0.00003395,-0.00000888,-0.00
 000153,0.00003231,0.00007012,0.00003304,0.00023734,-0.00058972,-0.0000
 3305,0.00090431,0.00073078,-0.00001157,-0.00023426,0.00025349,-0.00064
 299,-0.00022645,0.01232737,-0.00022911,-0.01388228,0.17122644,0.001431
 86,-0.00028222,-0.00048190,-0.00202152,0.00048068,0.00090218,0.0000824
 6,0.00011590,-0.00000397,-0.00005524,0.00021151,0.00010395,-0.00054294
 ,0.00090234,0.00078906,-0.00063583,-0.00037536,0.00045740,-0.00244864,
 -0.00534546,-0.00117862,0.00008095,-0.00053474,-0.00012868,0.00254810,
 -0.00535476,0.00185685,0.01860017,-0.00007631,-0.02338085,0.00395791,-
 0.04768349,-0.00642704,-0.01775510,-0.00036095,0.02217521,0.00006601,-
 0.00000273,-0.00005172,0.00001814,0.00004619,0.00000696,0.00001804,-0.
 00001252,0.00000296,0.00007286,-0.00003591,-0.00004354,-0.00003294,-0.
 00005444,-0.00007081,0.00024596,-0.00002998,-0.00018338,0.00000204,0.0
 0013574,0.00001582,-0.00000581,0.00013940,0.00002936,-0.00029728,-0.00
 001133,0.00016228,0.00155151,0.00002665,-0.00126096,-0.00084685,0.0008
 2166,-0.00025316,-0.00058387,0.00118212,0.00043943,-0.00004137,-0.0001
 7791,0.00027492,-0.00385490,0.05519119,-0.00141609,-0.00133146,0.00052
 296,0.00229517,-0.00032106,0.00020213,-0.00036298,0.00012291,-0.000146
 32,0.00005453,-0.00006884,-0.00007966,0.00027887,-0.00016026,0.0001819
 0,-0.00013402,-0.00000156,0.00010688,-0.00016777,-0.00015720,0.0006678
 0,-0.00022157,0.00004235,-0.00001924,-0.00031001,-0.00007993,0.0009135
 9,-0.00317060,0.00021381,0.00229132,0.12945241,-0.00463372,-0.20513178
 ,-0.00257971,0.00043662,0.00142722,0.00002171,0.00008644,-0.00000088,-
 0.00006401,-0.00008180,-0.00002654,-0.00000305,-0.00000550,0.00001446,
 -0.00002934,0.00002539,0.00003439,0.00005710,0.00009969,0.00000560,-0.
 00018983,-0.00007556,0.00046863,0.00003885,0.00001189,-0.00000009,0.00
 001746,-0.00001754,-0.00003331,-0.00022494,0.00013331,0.00046674,0.000
 18063,0.00017482,0.00017045,0.00010393,-0.00051544,-0.00003877,0.00016
 492,-0.00048216,0.00081218,0.01779864,-0.00049015,-0.02181143,-0.14168
 890,0.00654120,0.21823886,-0.00121009,0.00354927,0.00257685,-0.0131520
 1,-0.00037445,-0.01801000,0.00037965,-0.00035789,0.00108218,-0.0000781
 1,-0.00023684,-0.00001613,0.00090388,0.00003408,0.00086123,0.00014978,
 0.00015190,-0.00038458,0.00915777,-0.00058168,0.02122846,0.00151315,-0
 .00035592,0.00036725,-0.00004735,-0.00000154,0.00006523,0.00055480,0.0
 0121048,0.00022755,-0.01119965,-0.00127074,-0.01701337,-0.10757250,0.0
 0124091,-0.11097306,-0.00006578,-0.00010210,0.00041448,0.00070372,0.00
 041047,0.00033596,-0.00009644,0.00004260,0.00003177,-0.00002492,-0.000
 01700,0.00001714,-0.00012574,0.00002416,-0.00019352,-0.00277331,0.0000
 5123,0.00335338,-0.00015650,-0.00010539,-0.00030195,0.00019483,-0.0003
 1448,-0.00013659,-0.00016858,-0.00000276,0.00000244,0.00005002,0.00002
 377,-0.00004166,-0.00002062,0.00014049,0.00032825,0.00065821,-0.000487
 22,0.00032180,-0.00169995,-0.00325215,0.00006443,0.00032133,0.00044626
 ,0.00009858,0.12380442,0.00295521,-0.00330492,-0.00349498,0.01435512,0
 .00317444,0.02646227,-0.00157841,-0.00054214,-0.00307347,0.00036320,0.
 00021481,-0.00016226,0.00028270,0.00005625,0.00117671,0.00005213,-0.00
 000063,-0.00014644,-0.00087904,0.00044168,0.00001722,-0.00053300,0.000
 11034,-0.00110262,0.00007530,-0.00021017,0.00011224,-0.00055276,0.0016
 9587,-0.00122646,-0.01554957,-0.00152473,-0.02441618,0.00309942,-0.050
 41594,0.00653897,0.00005396,0.00051736,-0.00029482,-0.00026775,-0.0016
 7828,0.00015663,0.00001762,0.00010200,-0.00006154,0.00002427,-0.000031
 78,-0.00002235,-0.00026506,0.00005832,0.00001194,-0.00001141,0.0005594
 8,-0.00034748,0.00022489,0.00015368,-0.00003571,0.00000004,-0.00003117
 ,0.00008690,-0.00001036,0.00005076,0.00023216,0.00008556,-0.00003420,-
 0.00004102,0.00002061,0.00030515,0.00037670,0.00046670,-0.00036629,0.0
 0066401,-0.00318941,-0.00476954,-0.00023268,0.00062547,0.00108473,0.00
 053373,0.00013456,0.05438491,0.00055903,0.00056724,-0.00083099,-0.0012
 7514,-0.00060758,-0.00024584,-0.00054624,-0.00021760,-0.00064798,0.000
 33283,0.00019044,-0.00008999,-0.00146878,-0.00094218,-0.00029927,0.000
 13440,-0.00002066,0.00049923,-0.01017155,0.00080622,-0.02744663,-0.002
 03957,0.00090465,0.00100414,0.00019767,-0.00029315,0.00003366,0.000008
 32,0.00042227,0.00009957,-0.00096351,-0.00018870,-0.00097389,-0.107118
 05,0.00159457,-0.21751272,0.00007180,0.00018408,0.00031226,0.00032519,
 -0.00000955,0.00067738,0.00000324,-0.00017424,0.00014233,-0.00001226,0
 .00004962,0.00000958,0.00082149,0.00068471,0.00054243,0.00412726,-0.00
 001566,-0.00296279,0.00088706,-0.00070013,0.00063844,0.00017959,0.0003
 2399,0.00042689,0.00002078,0.00022404,0.00006992,-0.00000082,-0.000079
 11,-0.00002073,0.00016132,-0.00011731,0.00020126,0.00030311,-0.0005005
 7,0.00017441,-0.00009636,-0.00008097,0.00111638,-0.00013471,-0.0002929
 6,0.00076290,0.11569389,-0.00171146,0.24432004\\-0.00012123,-0.0000368
 5,-0.00006542,0.00023857,0.00000685,-0.00000940,-0.00003368,0.00024269
 ,-0.00010595,-0.00008891,-0.00033757,0.00001805,0.00084576,0.00015889,
 0.00021301,-0.00189021,-0.00093205,0.00117338,-0.00002015,0.00040013,0
 .00007300,0.00025038,-0.00018899,-0.00048396,0.00003812,0.00010934,0.0
 0010048,0.00003902,-0.00003867,-0.00006788,-0.00004088,0.00009143,0.00
 007694,-0.00008811,-0.00016728,-0.00022658,-0.00003845,-0.00001065,0.0
 0003913,0.00001650,-0.00001931,0.00000406,0.00019047,-0.00004092,-0.00
 018920,0.00028143,-0.00011522,-0.00023012,0.00012104,0.00001048,-0.000
 14900,0.00010035,0.00008760,-0.00011511,-0.00005158,0.00003813,0.00003
 252,0.00025741,0.00076268,-0.00011789,-0.00000816,0.00001892,-0.000004
 95,-0.00000908,-0.00003977,0.00001376,-0.00001466,-0.00001770,0.000013
 38,-0.00000225,0.00002485,-0.00000183,0.00000363,0.00000333,0.00000778
 ,-0.00001815,-0.00002870,0.00000766,0.00004283,0.00001838,-0.00000584\
 \\@


 NOTHING WILL BE ATTEMPTED IF ALL POSSIBLE OBJECTIONS
 MUST FIRST BE OVERCOME.

                               -- THE GOLDEN PRINCIPLE,
                    PAUL DICKSON'S "THE OFFICIAL RULES"
 Job cpu time:       0 days  0 hours  2 minutes 51.0 seconds.
 Elapsed time:       0 days  0 hours  2 minutes 56.0 seconds.
 File lengths (MBytes):  RWF=    184 Int=      0 D2E=      0 Chk=     16 Scr=      1
 Normal termination of Gaussian 16 at Fri Feb 23 23:28:24 2024.
