 Entering Gaussian System, Link 0=g16
 Input=/Volumes/SSD-PMU3/b3lyp_6-31gd_freq/TXEWIOREYPSNRR-RAFNTYLNSA-N_calculating/gaussianinput0.gjf
 Output=/Volumes/SSD-PMU3/b3lyp_6-31gd_freq/TXEWIOREYPSNRR-RAFNTYLNSA-N_calculating/gaussianinput0.log
 Initial command:
 /Applications/g16/l1.exe "/Users/macmini_m1_2022/PycharmProjects/sphere_model/sphere_model_lib/Gau-79207.inp" -scrdir="/Users/macmini_m1_2022/PycharmProjects/sphere_model/sphere_model_lib/"
 Entering Link 1 = /Applications/g16/l1.exe PID=     79208.
  
 Copyright (c) 1988,1990,1992,1993,1995,1998,2003,2009,2016,
            Gaussian, Inc.  All Rights Reserved.
  
 This is part of the Gaussian(R) 16 program.  It is based on
 the Gaussian(R) 09 system (copyright 2009, Gaussian, Inc.),
 the Gaussian(R) 03 system (copyright 2003, Gaussian, Inc.),
 the Gaussian(R) 98 system (copyright 1998, Gaussian, Inc.),
 the Gaussian(R) 94 system (copyright 1995, Gaussian, Inc.),
 the Gaussian 92(TM) system (copyright 1992, Gaussian, Inc.),
 the Gaussian 90(TM) system (copyright 1990, Gaussian, Inc.),
 the Gaussian 88(TM) system (copyright 1988, Gaussian, Inc.),
 the Gaussian 86(TM) system (copyright 1986, Carnegie Mellon
 University), and the Gaussian 82(TM) system (copyright 1983,
 Carnegie Mellon University). Gaussian is a federally registered
 trademark of Gaussian, Inc.
  
 This software contains proprietary and confidential information,
 including trade secrets, belonging to Gaussian, Inc.
  
 This software is provided under written license and may be
 used, copied, transmitted, or stored only in accord with that
 written license.
  
 The following legend is applicable only to US Government
 contracts under FAR:
  
                    RESTRICTED RIGHTS LEGEND
  
 Use, reproduction and disclosure by the US Government is
 subject to restrictions as set forth in subparagraphs (a)
 and (c) of the Commercial Computer Software - Restricted
 Rights clause in FAR 52.227-19.
  
 Gaussian, Inc.
 340 Quinnipiac St., Bldg. 40, Wallingford CT 06492
  
  
 ---------------------------------------------------------------
 Warning -- This program may not be used in any manner that
 competes with the business of Gaussian, Inc. or will provide
 assistance to any competitor of Gaussian, Inc.  The licensee
 of this program is prohibited from giving any competitor of
 Gaussian, Inc. access to this program.  By using this program,
 the user acknowledges that Gaussian, Inc. is engaged in the
 business of creating and licensing software in the field of
 computational chemistry and represents and warrants to the
 licensee that it is not a competitor of Gaussian, Inc. and that
 it will not use this program in any manner prohibited above.
 ---------------------------------------------------------------
  

 Cite this work as:
 Gaussian 16, Revision A.03,
 M. J. Frisch, G. W. Trucks, H. B. Schlegel, G. E. Scuseria, 
 M. A. Robb, J. R. Cheeseman, G. Scalmani, V. Barone, 
 G. A. Petersson, H. Nakatsuji, X. Li, M. Caricato, A. V. Marenich, 
 J. Bloino, B. G. Janesko, R. Gomperts, B. Mennucci, H. P. Hratchian, 
 J. V. Ortiz, A. F. Izmaylov, J. L. Sonnenberg, D. Williams-Young, 
 F. Ding, F. Lipparini, F. Egidi, J. Goings, B. Peng, A. Petrone, 
 T. Henderson, D. Ranasinghe, V. G. Zakrzewski, J. Gao, N. Rega, 
 G. Zheng, W. Liang, M. Hada, M. Ehara, K. Toyota, R. Fukuda, 
 J. Hasegawa, M. Ishida, T. Nakajima, Y. Honda, O. Kitao, H. Nakai, 
 T. Vreven, K. Throssell, J. A. Montgomery, Jr., J. E. Peralta, 
 F. Ogliaro, M. J. Bearpark, J. J. Heyd, E. N. Brothers, K. N. Kudin, 
 V. N. Staroverov, T. A. Keith, R. Kobayashi, J. Normand, 
 K. Raghavachari, A. P. Rendell, J. C. Burant, S. S. Iyengar, 
 J. Tomasi, M. Cossi, J. M. Millam, M. Klene, C. Adamo, R. Cammi, 
 J. W. Ochterski, R. L. Martin, K. Morokuma, O. Farkas, 
 J. B. Foresman, and D. J. Fox, Gaussian, Inc., Wallingford CT, 2016.
 
 ******************************************
 Gaussian 16:  EM64M-G16RevA.03 25-Dec-2016
                23-Feb-2024 
 ******************************************
 %nprocshared=10
 Will use up to   10 processors via shared memory.
 %mem=12GB
 %chk= 0.chk
 ---------------------
 # freq b3lyp/6-31g(d)
 ---------------------
 1/10=4,30=1,38=1/1,3;
 2/12=2,17=6,18=5,40=1/2;
 3/5=1,6=6,7=1,11=2,25=1,30=1,71=2,74=-5,140=1/1,2,3;
 4//1;
 5/5=2,38=5,98=1/2;
 8/6=4,10=90,11=11/1;
 11/6=1,8=1,9=11,15=111,16=1/1,2,10;
 10/6=1/2;
 6/7=2,8=2,9=2,10=2,28=1/1;
 7/8=1,10=1,25=1/1,2,3,16;
 1/10=4,30=1/3;
 99//99;
 ---------
 good luck
 ---------
 Symbolic Z-matrix:
 Charge =  0 Multiplicity = 1
 O                     1.21513   0.        0. 
 C                     0.        0.        0. 
 C                    -0.85068  -1.26848  -0.00648 
 C                    -1.76521  -1.25926   1.25025 
 C                    -1.72769  -1.25929  -1.28385 
 C                    -2.61694   0.       -1.29131 
 C                    -1.72768   1.25929  -1.28385 
 C                    -0.85068   1.26848  -0.00648 
 C                    -1.76521   1.25926   1.25025 
 C                    -2.64203   0.        1.21245 
 Br                   -3.82819   0.        2.84491 
 C                    -3.52838   0.       -0.03917 
 H                    -0.18517  -2.13692   0.0135 
 H                    -2.39128  -2.15881   1.25725 
 H                    -1.16     -1.27344   2.16334 
 H                    -1.09044  -1.28113  -2.17704 
 H                    -2.34583  -2.16655  -1.30773 
 H                    -3.24829   0.       -2.18856 
 H                    -1.09044   1.28113  -2.17704 
 H                    -2.34583   2.16655  -1.30773 
 H                    -0.18517   2.13692   0.0135 
 H                    -2.39128   2.15881   1.25725 
 H                    -1.16      1.27345   2.16334 
 H                    -4.17727  -0.88329  -0.03985 
 H                    -4.17726   0.88329  -0.03985 
 

 GradGradGradGradGradGradGradGradGradGradGradGradGradGradGradGradGradGrad
 Berny optimization.
 Initialization pass.
 Trust Radius=3.00D-01 FncErr=1.00D-07 GrdErr=1.00D-07 EigMax=2.50D+02 EigMin=1.00D-04
 Number of steps in this run=      2 maximum allowed number of steps=      2.
 GradGradGradGradGradGradGradGradGradGradGradGradGradGradGradGradGradGrad

                          Input orientation:                          
 ---------------------------------------------------------------------
 Center     Atomic      Atomic             Coordinates (Angstroms)
 Number     Number       Type             X           Y           Z
 ---------------------------------------------------------------------
      1          8           0        1.215133    0.000000    0.000000
      2          6           0        0.000000    0.000000    0.000000
      3          6           0       -0.850684   -1.268478   -0.006475
      4          6           0       -1.765210   -1.259256    1.250250
      5          6           0       -1.727686   -1.259291   -1.283850
      6          6           0       -2.616936    0.000001   -1.291310
      7          6           0       -1.727684    1.259291   -1.283850
      8          6           0       -0.850683    1.268479   -0.006475
      9          6           0       -1.765209    1.259257    1.250250
     10          6           0       -2.642026    0.000001    1.212446
     11         35           0       -3.828189    0.000001    2.844912
     12          6           0       -3.528377    0.000002   -0.039173
     13          1           0       -0.185170   -2.136920    0.013495
     14          1           0       -2.391280   -2.158806    1.257245
     15          1           0       -1.160004   -1.273444    2.163335
     16          1           0       -1.090442   -1.281126   -2.177036
     17          1           0       -2.345828   -2.166551   -1.307733
     18          1           0       -3.248291    0.000001   -2.188563
     19          1           0       -1.090440    1.281126   -2.177036
     20          1           0       -2.345826    2.166552   -1.307734
     21          1           0       -0.185168    2.136920    0.013495
     22          1           0       -2.391278    2.158808    1.257245
     23          1           0       -1.160003    1.273445    2.163335
     24          1           0       -4.177266   -0.883285   -0.039849
     25          1           0       -4.177264    0.883289   -0.039850
 ---------------------------------------------------------------------
                    Distance matrix (angstroms):
                    1          2          3          4          5
     1  O    0.000000
     2  C    1.215133   0.000000
     3  C    2.424186   1.527332   0.000000
     4  C    3.468616   2.502962   1.554285   0.000000
     5  C    3.448807   2.493789   1.549485   2.534378   0.000000
     6  C    4.043790   2.918190   2.525764   2.961536   1.541635
     7  C    3.448805   2.493788   2.964866   3.572975   2.518582
     8  C    2.424186   1.527332   2.536957   2.967349   2.964868
     9  C    3.468615   2.502961   2.967349   2.518513   3.572976
    10  C    4.043229   2.906945   2.510720   1.534915   2.941654
    11  Br   5.790390   4.769545   4.313349   2.895610   4.800480
    12  C    4.743672   3.528594   2.963132   2.521329   2.525377
    13  H    2.554889   2.144970   1.094303   2.190065   2.198339
    14  H    4.387177   3.458226   2.182455   1.095994   2.776085
    15  H    3.455858   2.765373   2.191752   1.095536   3.493644
    16  H    3.420007   2.751333   2.183799   3.493148   1.097423
    17  H    4.368587   3.450655   2.176066   2.775532   1.098085
    18  H    4.971113   3.916785   3.481245   3.951037   2.171765
    19  H    3.420005   2.751332   3.356978   4.319160   2.767234
    20  H    4.368586   3.450654   3.965874   4.314691   3.481245
    21  H    2.554888   2.144970   3.469877   3.944630   3.949268
    22  H    4.387176   3.458226   3.964430   3.474935   4.310559
    23  H    3.455858   2.765373   3.356356   2.759452   4.315101
    24  H    5.464407   4.269816   3.348975   2.761109   2.772970
    25  H    5.464406   4.269815   3.961988   3.474602   3.484052
                    6          7          8          9         10
     6  C    0.000000
     7  C    1.541634   0.000000
     8  C    2.525765   1.549484   0.000000
     9  C    2.961535   2.534378   1.554285   0.000000
    10  C    2.503882   2.941654   2.510720   1.534915   0.000000
    11  Br   4.309926   4.800480   4.313350   2.895610   2.017902
    12  C    1.548732   2.525376   2.963131   2.521328   1.533678
    13  H    3.490334   3.949266   3.469877   3.944630   3.469878
    14  H    3.347611   4.310558   3.964431   3.474934   2.173782
    15  H    3.959657   4.315100   3.356356   2.759451   2.173072
    16  H    2.180821   2.767233   3.356979   4.319160   3.941737
    17  H    2.183510   3.481245   3.965875   4.314691   3.336613
    18  H    1.097120   2.171765   3.481245   3.951037   3.454623
    19  H    2.180821   1.097423   2.183799   3.493148   3.941737
    20  H    2.183509   1.098086   2.176066   2.775533   3.336613
    21  H    3.490334   2.198339   1.094303   2.190065   3.469879
    22  H    3.347611   2.776086   2.182454   1.095994   2.173782
    23  H    3.959657   3.493644   2.191752   1.095536   2.173072
    24  H    2.186545   3.484053   3.961989   3.474602   2.169193
    25  H    2.186544   2.772969   3.348974   2.761108   2.169193
                   11         12         13         14         15
    11  Br   0.000000
    12  C    2.899626   0.000000
    13  H    5.084775   3.968154   0.000000
    14  H    3.040698   2.762995   2.532650   0.000000
    15  H    3.034044   3.475902   2.513504   1.766608   0.000000
    16  H    5.861442   3.486441   2.519985   3.775816   4.340935
    17  H    4.912820   2.775179   2.532778   2.565392   3.775200
    18  H    5.066769   2.167562   4.335689   4.155539   4.992156
    19  H    5.861443   3.486441   4.159444   5.031859   5.036813
    20  H    4.912821   2.775178   4.993391   5.028907   5.028724
    21  H    5.084776   3.968153   4.273840   4.986693   4.147614
    22  H    3.040699   2.762994   4.986693   4.317614   3.757311
    23  H    3.034044   3.475902   4.147614   3.757311   2.546889
    24  H    3.037087   1.096017   4.184648   2.549344   3.756343
    25  H    3.037088   1.096016   5.006129   3.758528   4.313859
                   16         17         18         19         20
    16  H    0.000000
    17  H    1.765123   0.000000
    18  H    2.509528   2.506840   0.000000
    19  H    2.562252   3.770698   2.509529   0.000000
    20  H    3.770697   4.333103   2.506840   1.765123   0.000000
    21  H    4.159445   4.993391   4.335690   2.519985   2.532779
    22  H    5.031859   5.028907   4.155540   3.775817   2.565393
    23  H    5.036814   5.028724   4.992156   4.340935   3.775200
    24  H    3.775490   2.570694   2.502031   4.333675   3.776667
    25  H    4.333674   3.776666   2.502030   3.775489   2.570692
                   21         22         23         24         25
    21  H    0.000000
    22  H    2.532650   0.000000
    23  H    2.513504   1.766608   0.000000
    24  H    5.006129   3.758528   4.313859   0.000000
    25  H    4.184647   2.549343   3.756343   1.766574   0.000000
 Stoichiometry    C10H13BrO
 Framework group  C1[X(C10H13BrO)]
 Deg. of freedom    69
 Full point group                 C1      NOp   1
 Largest Abelian subgroup         C1      NOp   1
 Largest concise Abelian subgroup C1      NOp   1
                         Standard orientation:                         
 ---------------------------------------------------------------------
 Center     Atomic      Atomic             Coordinates (Angstroms)
 Number     Number       Type             X           Y           Z
 ---------------------------------------------------------------------
      1          8           0       -2.956170   -1.897651    0.000001
      2          6           0       -2.117053   -1.018772    0.000001
      3          6           0       -1.534291   -0.399018    1.268479
      4          6           0        0.006203   -0.605401    1.259257
      5          6           0       -1.852569    1.117398    1.259291
      6          6           0       -1.243888    1.765725   -0.000001
      7          6           0       -1.852570    1.117396   -1.259291
      8          6           0       -1.534291   -0.399020   -1.268478
      9          6           0        0.006203   -0.605402   -1.259256
     10          6           0        0.584352    0.054887   -0.000000
     11         35           0        2.584192   -0.214497    0.000000
     12          6           0        0.291158    1.560279   -0.000002
     13          1           0       -1.979422   -0.894161    2.136921
     14          1           0        0.443599   -0.157408    2.158807
     15          1           0        0.248689   -1.673670    1.273445
     16          1           0       -2.938645    1.273288    1.281126
     17          1           0       -1.442982    1.580979    2.166551
     18          1           0       -1.456865    2.841974   -0.000001
     19          1           0       -2.938646    1.273286   -1.281126
     20          1           0       -1.442983    1.580978   -2.166552
     21          1           0       -1.979423   -0.894163   -2.136919
     22          1           0        0.443598   -0.157411   -2.158807
     23          1           0        0.248689   -1.673671   -1.273444
     24          1           0        0.738763    2.030074    0.883285
     25          1           0        0.738761    2.030072   -0.883289
 ---------------------------------------------------------------------
 Rotational constants (GHZ):           1.3826676           0.4757643           0.4488783
 Standard basis: 6-31G(d) (6D, 7F)
 There are   221 symmetry adapted cartesian basis functions of A   symmetry.
 There are   221 symmetry adapted basis functions of A   symmetry.
   221 basis functions,   443 primitive gaussians,   221 cartesian basis functions
    58 alpha electrons       58 beta electrons
       nuclear repulsion energy      1059.6123221841 Hartrees.
 NAtoms=   25 NActive=   25 NUniq=   25 SFac= 1.00D+00 NAtFMM=   60 NAOKFM=F Big=F
 Integral buffers will be    131072 words long.
 Raffenetti 2 integral format.
 Two-electron integral symmetry is turned on.
 One-electron integrals computed using PRISM.
 NBasis=   221 RedAO= T EigKep=  7.41D-04  NBF=   221
 NBsUse=   221 1.00D-06 EigRej= -1.00D+00 NBFU=   221
 ExpMin= 1.43D-01 ExpMax= 5.74D+05 ExpMxC= 5.74D+03 IAcc=3 IRadAn=         5 AccDes= 0.00D+00
 Harris functional with IExCor=  402 and IRadAn=       5 diagonalized for initial guess.
 HarFok:  IExCor=  402 AccDes= 0.00D+00 IRadAn=         5 IDoV= 1 UseB2=F ITyADJ=14
 ICtDFT=  3500011 ScaDFX=  1.000000  1.000000  1.000000  1.000000
 FoFCou: FMM=F IPFlag=           0 FMFlag=      100000 FMFlg1=           0
         NFxFlg=           0 DoJE=T BraDBF=F KetDBF=T FulRan=T
         wScrn=  0.000000 ICntrl=       500 IOpCl=  0 I1Cent=   200000004 NGrid=           0
         NMat0=    1 NMatS0=      1 NMatT0=    0 NMatD0=    1 NMtDS0=    0 NMtDT0=    0
 Petite list used in FoFCou.
 Requested convergence on RMS density matrix=1.00D-08 within 128 cycles.
 Requested convergence on MAX density matrix=1.00D-06.
 Requested convergence on             energy=1.00D-06.
 No special actions if energy rises.
 Integral accuracy reduced to 1.0D-05 until final iterations.
 Initial convergence to 1.0D-05 achieved.  Increase integral accuracy.
 SCF Done:  E(RB3LYP) =  -3035.84827656     A.U. after   14 cycles
            NFock= 14  Conv=0.72D-08     -V/T= 2.0067
 DoSCS=F DFT=T ScalE2(SS,OS)=  1.000000  1.000000
 Range of M.O.s used for correlation:     1   221
 NBasis=   221 NAE=    58 NBE=    58 NFC=     0 NFV=     0
 NROrb=    221 NOA=    58 NOB=    58 NVA=   163 NVB=   163

 **** Warning!!: The largest alpha MO coefficient is  0.19740682D+02

 Symmetrizing basis deriv contribution to polar:
 IMax=3 JMax=2 DiffMx= 0.00D+00
 G2DrvN: will do    26 centers at a time, making    1 passes.
 Calling FoFCou, ICntrl=  3107 FMM=F I1Cent=   0 AccDes= 0.00D+00.
 End of G2Drv F.D. properties file   721 does not exist.
 End of G2Drv F.D. properties file   722 does not exist.
 End of G2Drv F.D. properties file   788 does not exist.
          IDoAtm=1111111111111111111111111
          Differentiating once with respect to electric field.
                with respect to dipole field.
          Differentiating once with respect to nuclear coordinates.
 Keep R1 ints in memory in canonical form, NReq=311394119.
          There are    78 degrees of freedom in the 1st order CPHF.  IDoFFX=6 NUNeed=     3.
     75 vectors produced by pass  0 Test12= 1.21D-14 1.28D-09 XBig12= 1.11D+02 4.44D+00.
 AX will form    75 AO Fock derivatives at one time.
     75 vectors produced by pass  1 Test12= 1.21D-14 1.28D-09 XBig12= 1.07D+01 7.17D-01.
     75 vectors produced by pass  2 Test12= 1.21D-14 1.28D-09 XBig12= 2.74D-01 7.54D-02.
     75 vectors produced by pass  3 Test12= 1.21D-14 1.28D-09 XBig12= 1.68D-03 5.03D-03.
     75 vectors produced by pass  4 Test12= 1.21D-14 1.28D-09 XBig12= 2.04D-06 1.64D-04.
     46 vectors produced by pass  5 Test12= 1.21D-14 1.28D-09 XBig12= 1.65D-09 4.58D-06.
      4 vectors produced by pass  6 Test12= 1.21D-14 1.28D-09 XBig12= 1.40D-12 1.20D-07.
      2 vectors produced by pass  7 Test12= 1.21D-14 1.28D-09 XBig12= 1.26D-15 4.01D-09.
 InvSVY:  IOpt=1 It=  1 EMax= 7.11D-15
 Solved reduced A of dimension   427 with    78 vectors.
 Isotropic polarizability for W=    0.000000      113.51 Bohr**3.
 End of Minotr F.D. properties file   721 does not exist.
 End of Minotr F.D. properties file   722 does not exist.
 End of Minotr F.D. properties file   788 does not exist.

 **********************************************************************

            Population analysis using the SCF density.

 **********************************************************************

 Orbital symmetries:
       Occupied  (A) (A) (A) (A) (A) (A) (A) (A) (A) (A) (A) (A)
                 (A) (A) (A) (A) (A) (A) (A) (A) (A) (A) (A) (A)
                 (A) (A) (A) (A) (A) (A) (A) (A) (A) (A) (A) (A)
                 (A) (A) (A) (A) (A) (A) (A) (A) (A) (A) (A) (A)
                 (A) (A) (A) (A) (A) (A) (A) (A) (A) (A)
       Virtual   (A) (A) (A) (A) (A) (A) (A) (A) (A) (A) (A) (A)
                 (A) (A) (A) (A) (A) (A) (A) (A) (A) (A) (A) (A)
                 (A) (A) (A) (A) (A) (A) (A) (A) (A) (A) (A) (A)
                 (A) (A) (A) (A) (A) (A) (A) (A) (A) (A) (A) (A)
                 (A) (A) (A) (A) (A) (A) (A) (A) (A) (A) (A) (A)
                 (A) (A) (A) (A) (A) (A) (A) (A) (A) (A) (A) (A)
                 (A) (A) (A) (A) (A) (A) (A) (A) (A) (A) (A) (A)
                 (A) (A) (A) (A) (A) (A) (A) (A) (A) (A) (A) (A)
                 (A) (A) (A) (A) (A) (A) (A) (A) (A) (A) (A) (A)
                 (A) (A) (A) (A) (A) (A) (A) (A) (A) (A) (A) (A)
                 (A) (A) (A) (A) (A) (A) (A) (A) (A) (A) (A) (A)
                 (A) (A) (A) (A) (A) (A) (A) (A) (A) (A) (A) (A)
                 (A) (A) (A) (A) (A) (A) (A) (A) (A) (A) (A) (A)
                 (A) (A) (A) (A) (A) (A) (A)
 The electronic state is 1-A.
 Alpha  occ. eigenvalues -- -482.89324 -61.85499 -56.37549 -56.37163 -56.37163
 Alpha  occ. eigenvalues --  -19.14218 -10.27359 -10.25961 -10.20880 -10.20624
 Alpha  occ. eigenvalues --  -10.20623 -10.20583 -10.20581 -10.20216 -10.20215
 Alpha  occ. eigenvalues --  -10.20099  -8.56541  -6.51845  -6.50666  -6.50665
 Alpha  occ. eigenvalues --   -2.63417  -2.63088  -2.63087  -2.62147  -2.62147
 Alpha  occ. eigenvalues --   -1.04065  -0.89398  -0.80880  -0.79293  -0.77791
 Alpha  occ. eigenvalues --   -0.72565  -0.69083  -0.66040  -0.61588  -0.59429
 Alpha  occ. eigenvalues --   -0.58000  -0.51655  -0.47390  -0.47229  -0.46405
 Alpha  occ. eigenvalues --   -0.45413  -0.45147  -0.43045  -0.42603  -0.41533
 Alpha  occ. eigenvalues --   -0.41419  -0.39223  -0.37665  -0.37447  -0.35780
 Alpha  occ. eigenvalues --   -0.35335  -0.35168  -0.32149  -0.31393  -0.30601
 Alpha  occ. eigenvalues --   -0.27083  -0.27058  -0.23950
 Alpha virt. eigenvalues --   -0.02196  -0.00787   0.07177   0.10824   0.10965
 Alpha virt. eigenvalues --    0.11872   0.12549   0.12676   0.13718   0.14872
 Alpha virt. eigenvalues --    0.15438   0.16163   0.17870   0.18216   0.18490
 Alpha virt. eigenvalues --    0.18963   0.19620   0.20250   0.20761   0.22575
 Alpha virt. eigenvalues --    0.22859   0.24467   0.25141   0.25886   0.27326
 Alpha virt. eigenvalues --    0.27546   0.31426   0.32719   0.36525   0.43691
 Alpha virt. eigenvalues --    0.43954   0.46329   0.46582   0.47663   0.50980
 Alpha virt. eigenvalues --    0.51014   0.51461   0.51709   0.53386   0.54368
 Alpha virt. eigenvalues --    0.57110   0.58048   0.60698   0.61446   0.62754
 Alpha virt. eigenvalues --    0.62979   0.64628   0.65329   0.66923   0.69123
 Alpha virt. eigenvalues --    0.69816   0.70823   0.74104   0.75399   0.75942
 Alpha virt. eigenvalues --    0.76024   0.78167   0.79520   0.79527   0.83946
 Alpha virt. eigenvalues --    0.84508   0.84909   0.85649   0.85777   0.86655
 Alpha virt. eigenvalues --    0.89610   0.90491   0.90697   0.90834   0.92522
 Alpha virt. eigenvalues --    0.93272   0.93464   0.95492   0.96819   0.99614
 Alpha virt. eigenvalues --    1.01428   1.07885   1.09832   1.10257   1.15149
 Alpha virt. eigenvalues --    1.15790   1.19204   1.20756   1.21977   1.26257
 Alpha virt. eigenvalues --    1.30260   1.33749   1.39961   1.41491   1.42137
 Alpha virt. eigenvalues --    1.51074   1.56325   1.58344   1.60443   1.62367
 Alpha virt. eigenvalues --    1.64565   1.65956   1.69991   1.71726   1.72465
 Alpha virt. eigenvalues --    1.72542   1.75696   1.76778   1.77530   1.81748
 Alpha virt. eigenvalues --    1.81968   1.83432   1.85166   1.87295   1.88978
 Alpha virt. eigenvalues --    1.92790   1.98064   2.00976   2.03802   2.04649
 Alpha virt. eigenvalues --    2.05827   2.06805   2.07629   2.09723   2.12113
 Alpha virt. eigenvalues --    2.14510   2.18742   2.22161   2.24735   2.26033
 Alpha virt. eigenvalues --    2.30589   2.30819   2.32104   2.33442   2.37461
 Alpha virt. eigenvalues --    2.37934   2.40728   2.44002   2.45400   2.46630
 Alpha virt. eigenvalues --    2.50843   2.54162   2.61773   2.62288   2.66558
 Alpha virt. eigenvalues --    2.67769   2.68535   2.71957   2.73095   2.74305
 Alpha virt. eigenvalues --    2.75760   2.77691   2.77732   3.00415   3.02258
 Alpha virt. eigenvalues --    4.08255   4.11270   4.24051   4.26635   4.28606
 Alpha virt. eigenvalues --    4.47879   4.54752   4.67200   4.75043   4.78898
 Alpha virt. eigenvalues --    4.81283   8.66569  73.58222
          Condensed to atoms (all electrons):
               1          2          3          4          5          6
     1  O    8.002994   0.580340  -0.072819   0.000971   0.000824   0.000052
     2  C    0.580340   4.519298   0.326202  -0.028102  -0.030094  -0.020962
     3  C   -0.072819   0.326202   5.261378   0.306483   0.337362  -0.027999
     4  C    0.000971  -0.028102   0.306483   5.159249  -0.039215  -0.014317
     5  C    0.000824  -0.030094   0.337362  -0.039215   5.098123   0.372009
     6  C    0.000052  -0.020962  -0.027999  -0.014317   0.372009   4.970209
     7  C    0.000824  -0.030094  -0.008359  -0.002296  -0.049290   0.372009
     8  C   -0.072819   0.326202  -0.125248  -0.006522  -0.008359  -0.027999
     9  C    0.000971  -0.028102  -0.006522  -0.055387  -0.002296  -0.014317
    10  C    0.000101  -0.020648  -0.021089   0.359314  -0.017437  -0.022307
    11  Br  -0.000001   0.000092   0.004376  -0.052373  -0.000028   0.004508
    12  C   -0.000032  -0.002528  -0.012562  -0.053873  -0.045921   0.343859
    13  H    0.004237  -0.030213   0.345882  -0.029464  -0.029785   0.004065
    14  H   -0.000076   0.003395  -0.029481   0.363128  -0.005591  -0.000727
    15  H    0.000660  -0.000895  -0.036980   0.369158   0.004847  -0.000049
    16  H    0.000734  -0.001025  -0.038612   0.004946   0.367974  -0.034293
    17  H   -0.000079   0.003577  -0.031679  -0.005251   0.362568  -0.033553
    18  H   -0.000000   0.000301   0.004489   0.000054  -0.036476   0.369414
    19  H    0.000734  -0.001025   0.000118   0.000045  -0.004441  -0.034293
    20  H   -0.000079   0.003577  -0.000312   0.000095   0.005175  -0.033553
    21  H    0.004237  -0.030213   0.006811  -0.000090  -0.000046   0.004065
    22  H   -0.000076   0.003395  -0.000384   0.005445   0.000116  -0.000727
    23  H    0.000660  -0.000895   0.000408  -0.005599   0.000001  -0.000049
    24  H    0.000000   0.000157  -0.001138  -0.004920  -0.003428  -0.033439
    25  H    0.000000   0.000157  -0.000157   0.005414   0.004910  -0.033439
               7          8          9         10         11         12
     1  O    0.000824  -0.072819   0.000971   0.000101  -0.000001  -0.000032
     2  C   -0.030094   0.326202  -0.028102  -0.020648   0.000092  -0.002528
     3  C   -0.008359  -0.125248  -0.006522  -0.021089   0.004376  -0.012562
     4  C   -0.002296  -0.006522  -0.055387   0.359314  -0.052373  -0.053873
     5  C   -0.049290  -0.008359  -0.002296  -0.017437  -0.000028  -0.045921
     6  C    0.372009  -0.027999  -0.014317  -0.022307   0.004508   0.343859
     7  C    5.098124   0.337362  -0.039215  -0.017437  -0.000028  -0.045921
     8  C    0.337362   5.261377   0.306483  -0.021089   0.004376  -0.012562
     9  C   -0.039215   0.306483   5.159249   0.359314  -0.052373  -0.053873
    10  C   -0.017437  -0.021089   0.359314   4.950762   0.262152   0.363964
    11  Br  -0.000028   0.004376  -0.052373   0.262152  35.052946  -0.054438
    12  C   -0.045921  -0.012562  -0.053873   0.363964  -0.054438   5.137071
    13  H   -0.000046   0.006811  -0.000090   0.003813  -0.000111   0.000109
    14  H    0.000116  -0.000384   0.005445  -0.033633  -0.000436  -0.004729
    15  H    0.000001   0.000408  -0.005599  -0.034655  -0.000607   0.005292
    16  H   -0.004441   0.000118   0.000045   0.000220   0.000010   0.004827
    17  H    0.005175  -0.000312   0.000095  -0.001319  -0.000080  -0.003197
    18  H   -0.036476   0.004489   0.000054   0.004429  -0.000119  -0.036884
    19  H    0.367974  -0.038612   0.004946   0.000220   0.000010   0.004827
    20  H    0.362567  -0.031679  -0.005251  -0.001319  -0.000080  -0.003197
    21  H   -0.029785   0.345882  -0.029464   0.003813  -0.000111   0.000109
    22  H   -0.005591  -0.029481   0.363128  -0.033633  -0.000436  -0.004729
    23  H    0.004847  -0.036980   0.369158  -0.034655  -0.000607   0.005292
    24  H    0.004910  -0.000157   0.005414  -0.035481  -0.000530   0.366770
    25  H   -0.003428  -0.001138  -0.004920  -0.035481  -0.000530   0.366770
              13         14         15         16         17         18
     1  O    0.004237  -0.000076   0.000660   0.000734  -0.000079  -0.000000
     2  C   -0.030213   0.003395  -0.000895  -0.001025   0.003577   0.000301
     3  C    0.345882  -0.029481  -0.036980  -0.038612  -0.031679   0.004489
     4  C   -0.029464   0.363128   0.369158   0.004946  -0.005251   0.000054
     5  C   -0.029785  -0.005591   0.004847   0.367974   0.362568  -0.036476
     6  C    0.004065  -0.000727  -0.000049  -0.034293  -0.033553   0.369414
     7  C   -0.000046   0.000116   0.000001  -0.004441   0.005175  -0.036476
     8  C    0.006811  -0.000384   0.000408   0.000118  -0.000312   0.004489
     9  C   -0.000090   0.005445  -0.005599   0.000045   0.000095   0.000054
    10  C    0.003813  -0.033633  -0.034655   0.000220  -0.001319   0.004429
    11  Br  -0.000111  -0.000436  -0.000607   0.000010  -0.000080  -0.000119
    12  C    0.000109  -0.004729   0.005292   0.004827  -0.003197  -0.036884
    13  H    0.585167  -0.003911  -0.002715  -0.002295  -0.004007  -0.000142
    14  H   -0.003911   0.570673  -0.032376  -0.000037   0.005399  -0.000092
    15  H   -0.002715  -0.032376   0.563995  -0.000146  -0.000059   0.000017
    16  H   -0.002295  -0.000037  -0.000146   0.584635  -0.034069  -0.003180
    17  H   -0.004007   0.005399  -0.000059  -0.034069   0.591570  -0.003220
    18  H   -0.000142  -0.000092   0.000017  -0.003180  -0.003220   0.610288
    19  H   -0.000073   0.000001  -0.000005   0.004120   0.000013  -0.003180
    20  H    0.000022  -0.000005   0.000001   0.000013  -0.000195  -0.003220
    21  H   -0.000179   0.000022  -0.000086  -0.000073   0.000022  -0.000142
    22  H    0.000022  -0.000189  -0.000007   0.000001  -0.000005  -0.000092
    23  H   -0.000086  -0.000007   0.004393  -0.000005   0.000001   0.000017
    24  H   -0.000074   0.004784  -0.000052  -0.000021   0.004377  -0.003628
    25  H    0.000017  -0.000068  -0.000155  -0.000148  -0.000055  -0.003628
              19         20         21         22         23         24
     1  O    0.000734  -0.000079   0.004237  -0.000076   0.000660   0.000000
     2  C   -0.001025   0.003577  -0.030213   0.003395  -0.000895   0.000157
     3  C    0.000118  -0.000312   0.006811  -0.000384   0.000408  -0.001138
     4  C    0.000045   0.000095  -0.000090   0.005445  -0.005599  -0.004920
     5  C   -0.004441   0.005175  -0.000046   0.000116   0.000001  -0.003428
     6  C   -0.034293  -0.033553   0.004065  -0.000727  -0.000049  -0.033439
     7  C    0.367974   0.362567  -0.029785  -0.005591   0.004847   0.004910
     8  C   -0.038612  -0.031679   0.345882  -0.029481  -0.036980  -0.000157
     9  C    0.004946  -0.005251  -0.029464   0.363128   0.369158   0.005414
    10  C    0.000220  -0.001319   0.003813  -0.033633  -0.034655  -0.035481
    11  Br   0.000010  -0.000080  -0.000111  -0.000436  -0.000607  -0.000530
    12  C    0.004827  -0.003197   0.000109  -0.004729   0.005292   0.366770
    13  H   -0.000073   0.000022  -0.000179   0.000022  -0.000086  -0.000074
    14  H    0.000001  -0.000005   0.000022  -0.000189  -0.000007   0.004784
    15  H   -0.000005   0.000001  -0.000086  -0.000007   0.004393  -0.000052
    16  H    0.004120   0.000013  -0.000073   0.000001  -0.000005  -0.000021
    17  H    0.000013  -0.000195   0.000022  -0.000005   0.000001   0.004377
    18  H   -0.003180  -0.003220  -0.000142  -0.000092   0.000017  -0.003628
    19  H    0.584635  -0.034069  -0.002295  -0.000037  -0.000146  -0.000148
    20  H   -0.034069   0.591571  -0.004007   0.005399  -0.000059  -0.000055
    21  H   -0.002295  -0.004007   0.585167  -0.003911  -0.002715   0.000017
    22  H   -0.000037   0.005399  -0.003911   0.570674  -0.032376  -0.000068
    23  H   -0.000146  -0.000059  -0.002715  -0.032376   0.563995  -0.000155
    24  H   -0.000148  -0.000055   0.000017  -0.000068  -0.000155   0.576382
    25  H   -0.000021   0.004377  -0.000074   0.004784  -0.000052  -0.032368
              25
     1  O    0.000000
     2  C    0.000157
     3  C   -0.000157
     4  C    0.005414
     5  C    0.004910
     6  C   -0.033439
     7  C   -0.003428
     8  C   -0.001138
     9  C   -0.004920
    10  C   -0.035481
    11  Br  -0.000530
    12  C    0.366770
    13  H    0.000017
    14  H   -0.000068
    15  H   -0.000155
    16  H   -0.000148
    17  H   -0.000055
    18  H   -0.003628
    19  H   -0.000021
    20  H    0.004377
    21  H   -0.000074
    22  H    0.004784
    23  H   -0.000052
    24  H   -0.032368
    25  H    0.576382
 Mulliken charges:
               1
     1  O   -0.452359
     2  C    0.458105
     3  C   -0.180168
     4  C   -0.276892
     5  C   -0.281499
     6  C   -0.108166
     7  C   -0.281499
     8  C   -0.180168
     9  C   -0.276892
    10  C    0.022080
    11  Br  -0.165580
    12  C   -0.264441
    13  H    0.153048
    14  H    0.158778
    15  H    0.165613
    16  H    0.150701
    17  H    0.144284
    18  H    0.136931
    19  H    0.150701
    20  H    0.144283
    21  H    0.153048
    22  H    0.158778
    23  H    0.165613
    24  H    0.152851
    25  H    0.152851
 Sum of Mulliken charges =  -0.00000
 Mulliken charges with hydrogens summed into heavy atoms:
               1
     1  O   -0.452359
     2  C    0.458105
     3  C   -0.027120
     4  C    0.047498
     5  C    0.013486
     6  C    0.028766
     7  C    0.013485
     8  C   -0.027120
     9  C    0.047498
    10  C    0.022080
    11  Br  -0.165580
    12  C    0.041261
 APT charges:
               1
     1  O   -0.633722
     2  C    0.696041
     3  C   -0.041048
     4  C    0.029148
     5  C    0.110083
     6  C    0.116284
     7  C    0.110083
     8  C   -0.041048
     9  C    0.029148
    10  C    0.460850
    11  Br  -0.399665
    12  C   -0.002915
    13  H   -0.049279
    14  H   -0.019917
    15  H   -0.013343
    16  H   -0.036142
    17  H   -0.041051
    18  H   -0.071050
    19  H   -0.036142
    20  H   -0.041051
    21  H   -0.049279
    22  H   -0.019917
    23  H   -0.013343
    24  H   -0.021363
    25  H   -0.021363
 Sum of APT charges =   0.00000
 APT charges with hydrogens summed into heavy atoms:
               1
     1  O   -0.633722
     2  C    0.696041
     3  C   -0.090327
     4  C   -0.004112
     5  C    0.032891
     6  C    0.045234
     7  C    0.032891
     8  C   -0.090327
     9  C   -0.004112
    10  C    0.460850
    11  Br  -0.399665
    12  C   -0.045641
 Electronic spatial extent (au):  <R**2>=           2556.7477
 Charge=             -0.0000 electrons
 Dipole moment (field-independent basis, Debye):
    X=             -0.4600    Y=              2.6835    Z=             -0.0000  Tot=              2.7227
 Quadrupole moment (field-independent basis, Debye-Ang):
   XX=            -96.6422   YY=            -86.3869   ZZ=            -80.0627
   XY=             -8.1085   XZ=              0.0000   YZ=              0.0000
 Traceless Quadrupole moment (field-independent basis, Debye-Ang):
   XX=             -8.9449   YY=              1.3103   ZZ=              7.6346
   XY=             -8.1085   XZ=              0.0000   YZ=              0.0000
 Octapole moment (field-independent basis, Debye-Ang**2):
  XXX=             89.9359  YYY=             -0.6721  ZZZ=              0.0000  XYY=             38.6210
  XXY=             23.8640  XXZ=             -0.0000  XZZ=             19.2447  YZZ=             -4.2484
  YYZ=             -0.0000  XYZ=             -0.0000
 Hexadecapole moment (field-independent basis, Debye-Ang**3):
 XXXX=          -1866.3320 YYYY=           -663.5240 ZZZZ=           -517.9458 XXXY=            -92.5565
 XXXZ=              0.0001 YYYX=            -35.7514 YYYZ=              0.0000 ZZZX=             -0.0000
 ZZZY=              0.0000 XXYY=           -464.9893 XXZZ=           -385.5751 YYZZ=           -193.6739
 XXYZ=              0.0000 YYXZ=              0.0000 ZZXY=              4.5859
 N-N= 1.059612322184D+03 E-N=-9.329727769879D+03  KE= 3.015690890204D+03
  Exact polarizability: 135.008   0.954 104.134   0.000  -0.000 101.392
 Approx polarizability: 199.228   6.787 162.093   0.000  -0.000 153.755
 Calling FoFJK, ICntrl=    100127 FMM=F ISym2X=0 I1Cent= 0 IOpClX= 0 NMat=1 NMatS=1 NMatT=0.
 Full mass-weighted force constant matrix:
 Low frequencies ---   -0.0030    0.0033    0.0092   10.2825   10.3551   13.7029
 Low frequencies ---   88.4652  173.2654  201.0834
 Diagonal vibrational polarizability:
       14.7892259      10.5104156       4.6578223
 Harmonic frequencies (cm**-1), IR intensities (KM/Mole), Raman scattering
 activities (A**4/AMU), depolarization ratios for plane and unpolarized
 incident light, reduced masses (AMU), force constants (mDyne/A),
 and normal coordinates:
                      1                      2                      3
                      A                      A                      A
 Frequencies --     88.4607               173.2630               201.0825
 Red. masses --     11.9936                 3.8589                 4.1617
 Frc consts  --      0.0553                 0.0683                 0.0991
 IR Inten    --      3.8517                 0.9952                 0.1592
  Atom  AN      X      Y      Z        X      Y      Z        X      Y      Z
     1   8     0.57  -0.44   0.00     0.00  -0.00   0.06     0.04  -0.08  -0.00
     2   6     0.10  -0.00  -0.00    -0.00   0.00   0.01    -0.08   0.03  -0.00
     3   6    -0.06   0.15   0.00     0.08  -0.01  -0.03    -0.07   0.03  -0.00
     4   6    -0.06   0.12   0.02     0.05  -0.05  -0.17    -0.08  -0.17  -0.01
     5   6    -0.03   0.15  -0.01     0.15  -0.00   0.05     0.12   0.07   0.01
     6   6     0.01   0.13  -0.00     0.00  -0.00  -0.02     0.15   0.01  -0.00
     7   6    -0.03   0.15   0.01    -0.15   0.00   0.05     0.12   0.07  -0.01
     8   6    -0.06   0.15  -0.00    -0.08   0.01  -0.03    -0.07   0.03   0.00
     9   6    -0.06   0.12  -0.02    -0.05   0.05  -0.17    -0.08  -0.17   0.01
    10   6    -0.04   0.07  -0.00    -0.00  -0.00  -0.16    -0.03  -0.17   0.00
    11  35    -0.08  -0.10   0.00    -0.00   0.00   0.10    -0.03   0.09  -0.00
    12   6     0.01   0.09  -0.00     0.00  -0.00  -0.18     0.10  -0.16   0.00
    13   1    -0.07   0.15  -0.00     0.13  -0.02  -0.00    -0.11   0.08   0.00
    14   1    -0.05   0.13   0.00     0.14  -0.12  -0.18    -0.03  -0.26   0.01
    15   1    -0.09   0.11   0.05     0.04  -0.05  -0.25    -0.21  -0.20  -0.07
    16   1    -0.02   0.18  -0.04     0.16   0.06   0.22     0.14   0.20   0.05
    17   1    -0.04   0.14  -0.00     0.32  -0.05   0.00     0.21   0.01  -0.01
    18   1     0.05   0.14  -0.00     0.00  -0.00   0.01     0.25   0.03  -0.00
    19   1    -0.02   0.18   0.04    -0.16  -0.06   0.22     0.14   0.20  -0.05
    20   1    -0.04   0.14   0.00    -0.32   0.05   0.00     0.21   0.01   0.01
    21   1    -0.07   0.15   0.00    -0.13   0.02  -0.00    -0.11   0.08  -0.00
    22   1    -0.05   0.13  -0.00    -0.14   0.12  -0.18    -0.03  -0.26  -0.01
    23   1    -0.09   0.11  -0.05    -0.04   0.05  -0.25    -0.21  -0.20   0.07
    24   1     0.03   0.07   0.00     0.08   0.03  -0.24     0.16  -0.21  -0.00
    25   1     0.03   0.07  -0.00    -0.08  -0.03  -0.24     0.16  -0.21   0.00
                      4                      5                      6
                      A                      A                      A
 Frequencies --    245.6462               276.6121               310.2501
 Red. masses --     11.2211                 2.3903                 2.4700
 Frc consts  --      0.3989                 0.1078                 0.1401
 IR Inten    --      8.7416                 0.8790                 0.4259
  Atom  AN      X      Y      Z        X      Y      Z        X      Y      Z
     1   8    -0.05  -0.14   0.00     0.00   0.00   0.16    -0.00  -0.00  -0.08
     2   6    -0.21   0.01  -0.00    -0.00   0.00   0.05    -0.00  -0.00  -0.02
     3   6    -0.22   0.07  -0.02     0.00   0.04   0.00    -0.10   0.07   0.01
     4   6    -0.17  -0.01  -0.01    -0.02  -0.11  -0.09    -0.10  -0.07   0.03
     5   6    -0.19   0.08  -0.03    -0.05   0.03  -0.07     0.09   0.12   0.06
     6   6    -0.10   0.04   0.00    -0.00  -0.00  -0.05    -0.00   0.00  -0.04
     7   6    -0.19   0.08   0.03     0.05  -0.03  -0.07    -0.09  -0.12   0.06
     8   6    -0.22   0.07   0.02    -0.00  -0.04   0.00     0.10  -0.07   0.01
     9   6    -0.17  -0.01   0.01     0.02   0.11  -0.09     0.10   0.07   0.03
    10   6    -0.07  -0.05  -0.00    -0.00  -0.00  -0.02    -0.00   0.00   0.09
    11  35     0.29  -0.01   0.00     0.00   0.00   0.00     0.00  -0.00  -0.02
    12   6    -0.08  -0.05  -0.00     0.00  -0.00   0.15    -0.00   0.00   0.01
    13   1    -0.19   0.09   0.00     0.01   0.07   0.02    -0.15   0.11   0.00
    14   1    -0.20  -0.03   0.01     0.09  -0.32  -0.05    -0.08  -0.21   0.09
    15   1    -0.27  -0.03   0.02    -0.17  -0.15  -0.27    -0.20  -0.09  -0.09
    16   1    -0.19   0.10  -0.10    -0.06  -0.05  -0.14     0.12   0.28   0.25
    17   1    -0.24   0.07  -0.00    -0.13   0.10  -0.06     0.33   0.06  -0.02
    18   1    -0.00   0.06   0.00     0.00  -0.00  -0.09    -0.00  -0.00  -0.14
    19   1    -0.19   0.10   0.10     0.06   0.05  -0.14    -0.12  -0.28   0.25
    20   1    -0.24   0.07   0.00     0.13  -0.10  -0.06    -0.33  -0.06  -0.02
    21   1    -0.19   0.09  -0.00    -0.01  -0.07   0.02     0.15  -0.11   0.00
    22   1    -0.20  -0.03  -0.01    -0.09   0.32  -0.05     0.08   0.21   0.09
    23   1    -0.27  -0.03  -0.02     0.17   0.15  -0.27     0.20   0.09  -0.09
    24   1    -0.08  -0.04  -0.00    -0.16  -0.14   0.31    -0.05   0.07  -0.00
    25   1    -0.08  -0.04   0.00     0.16   0.14   0.31     0.05  -0.07  -0.00
                      7                      8                      9
                      A                      A                      A
 Frequencies --    369.4946               391.0492               394.9803
 Red. masses --      5.7352                 2.0282                 4.8403
 Frc consts  --      0.4613                 0.1827                 0.4449
 IR Inten    --      1.6572                 1.0699                 0.0858
  Atom  AN      X      Y      Z        X      Y      Z        X      Y      Z
     1   8     0.20   0.20  -0.00    -0.02   0.01  -0.00    -0.00   0.00  -0.00
     2   6     0.18   0.20  -0.00     0.03  -0.04   0.00     0.00  -0.00  -0.01
     3   6     0.08   0.09   0.08    -0.00   0.00  -0.00     0.12  -0.11  -0.01
     4   6     0.04  -0.11   0.06     0.00   0.06   0.08     0.10  -0.14   0.16
     5   6    -0.12   0.03   0.05    -0.06  -0.00  -0.09     0.15  -0.09  -0.16
     6   6    -0.17  -0.04  -0.00     0.11  -0.02   0.00     0.00  -0.00  -0.19
     7   6    -0.12   0.03  -0.05    -0.06  -0.00   0.09    -0.15   0.09  -0.16
     8   6     0.08   0.09  -0.08    -0.00   0.00   0.00    -0.12   0.11  -0.01
     9   6     0.04  -0.11  -0.06     0.00   0.06  -0.08    -0.10   0.14   0.16
    10   6    -0.03  -0.19   0.00     0.02  -0.09  -0.00     0.00  -0.00   0.20
    11  35     0.00  -0.00  -0.00    -0.01   0.01  -0.00    -0.00   0.00  -0.00
    12   6    -0.18  -0.20  -0.00     0.10  -0.11  -0.00     0.00  -0.00   0.00
    13   1    -0.01  -0.01  -0.03    -0.03   0.03   0.00     0.00  -0.00  -0.01
    14   1     0.19  -0.14   0.00    -0.04   0.28  -0.00     0.03  -0.20   0.23
    15   1    -0.15  -0.15   0.08     0.06   0.08   0.32     0.14  -0.13   0.06
    16   1    -0.15  -0.16   0.04    -0.07  -0.05  -0.34     0.15  -0.12  -0.03
    17   1    -0.19   0.19   0.01    -0.29   0.02   0.00     0.22  -0.02  -0.22
    18   1    -0.03  -0.01  -0.00     0.19  -0.00   0.00     0.00  -0.00  -0.06
    19   1    -0.15  -0.16  -0.04    -0.07  -0.05   0.34    -0.15   0.12  -0.03
    20   1    -0.19   0.19  -0.01    -0.29   0.02  -0.00    -0.22   0.02  -0.22
    21   1    -0.01  -0.01   0.03    -0.03   0.03  -0.00    -0.00   0.00  -0.01
    22   1     0.19  -0.14  -0.00    -0.04   0.28   0.00    -0.03   0.20   0.23
    23   1    -0.15  -0.15  -0.08     0.06   0.08  -0.32    -0.14   0.13   0.06
    24   1    -0.17  -0.19  -0.01     0.12  -0.12  -0.00    -0.16   0.15   0.01
    25   1    -0.17  -0.19   0.01     0.12  -0.12   0.00     0.16  -0.15   0.01
                     10                     11                     12
                      A                      A                      A
 Frequencies --    443.4201               446.3637               468.1544
 Red. masses --      1.8441                 1.8042                 4.1971
 Frc consts  --      0.2136                 0.2118                 0.5420
 IR Inten    --      1.1492                 1.7250                 9.6469
  Atom  AN      X      Y      Z        X      Y      Z        X      Y      Z
     1   8    -0.00  -0.00   0.00    -0.00   0.00  -0.00     0.00   0.00   0.31
     2   6    -0.00   0.00  -0.06     0.01  -0.01  -0.00     0.00  -0.00  -0.17
     3   6     0.04   0.03  -0.07     0.03   0.02  -0.04    -0.05  -0.02  -0.20
     4   6     0.04   0.08  -0.01     0.02  -0.07  -0.09    -0.09  -0.00   0.03
     5   6     0.07   0.03   0.00    -0.06   0.01  -0.09     0.01  -0.06   0.02
     6   6    -0.00  -0.00  -0.03     0.04   0.06  -0.00     0.00   0.00   0.07
     7   6    -0.07  -0.03   0.00    -0.06   0.01   0.09    -0.01   0.06   0.02
     8   6    -0.04  -0.03  -0.07     0.03   0.02   0.04     0.05   0.02  -0.20
     9   6    -0.04  -0.08  -0.01     0.02  -0.07   0.09     0.09   0.00   0.03
    10   6    -0.00  -0.00  -0.04     0.05   0.05  -0.00     0.00   0.00   0.08
    11  35     0.00   0.00   0.00    -0.01  -0.00   0.00    -0.00  -0.00  -0.01
    12   6    -0.00  -0.00   0.16     0.04   0.06   0.00     0.00   0.00  -0.03
    13   1     0.04   0.01  -0.08     0.05   0.04  -0.01    -0.18  -0.15  -0.34
    14   1    -0.01   0.24  -0.06     0.08  -0.32   0.00    -0.25   0.02   0.10
    15   1     0.11   0.10   0.15    -0.09  -0.10  -0.32    -0.06   0.00   0.07
    16   1     0.08   0.08   0.15    -0.09  -0.12  -0.32     0.02   0.01   0.09
    17   1     0.21  -0.01  -0.03    -0.31   0.04   0.00     0.08  -0.21   0.07
    18   1    -0.00  -0.00  -0.07     0.03   0.06  -0.00     0.00   0.00   0.10
    19   1    -0.08  -0.08   0.15    -0.09  -0.12   0.32    -0.02  -0.01   0.09
    20   1    -0.21   0.01  -0.03    -0.31   0.04  -0.00    -0.08   0.21   0.07
    21   1    -0.04  -0.01  -0.08     0.05   0.04   0.01     0.18   0.15  -0.34
    22   1     0.01  -0.24  -0.06     0.08  -0.32  -0.00     0.25  -0.02   0.10
    23   1    -0.11  -0.10   0.15    -0.09  -0.10   0.32     0.06  -0.00   0.07
    24   1    -0.21  -0.24   0.40     0.05   0.05   0.00     0.11   0.13  -0.16
    25   1     0.21   0.24   0.40     0.05   0.05  -0.00    -0.11  -0.13  -0.16
                     13                     14                     15
                      A                      A                      A
 Frequencies --    610.4751               631.7661               658.4461
 Red. masses --      5.3152                 3.4898                 6.4049
 Frc consts  --      1.1671                 0.8207                 1.6361
 IR Inten    --      1.0369                 0.8225                14.7512
  Atom  AN      X      Y      Z        X      Y      Z        X      Y      Z
     1   8    -0.17  -0.14   0.00    -0.00  -0.00   0.04    -0.04  -0.12  -0.00
     2   6    -0.04  -0.22  -0.00    -0.00  -0.00   0.14    -0.26   0.12  -0.00
     3   6     0.11   0.04  -0.05    -0.14  -0.13   0.10     0.00   0.10   0.00
     4   6     0.15  -0.05   0.03    -0.14   0.03  -0.05     0.13   0.10  -0.15
     5   6     0.01   0.16  -0.05     0.05  -0.13  -0.08    -0.10   0.03   0.12
     6   6    -0.13   0.26   0.00    -0.00   0.00  -0.08    -0.02  -0.24   0.00
     7   6     0.01   0.16   0.05    -0.05   0.13  -0.08    -0.10   0.03  -0.12
     8   6     0.11   0.04   0.05     0.14   0.13   0.10     0.00   0.10  -0.00
     9   6     0.15  -0.05  -0.03     0.14  -0.03  -0.05     0.13   0.10   0.15
    10   6     0.03  -0.12   0.00     0.00  -0.00  -0.08     0.32  -0.01   0.00
    11  35    -0.01  -0.00   0.00    -0.00  -0.00  -0.00    -0.03   0.00  -0.00
    12   6    -0.18  -0.08   0.00    -0.00  -0.00  -0.01     0.07  -0.20   0.00
    13   1     0.16   0.25   0.09    -0.09  -0.05   0.18     0.30  -0.05   0.08
    14   1     0.14   0.11  -0.04    -0.20   0.20  -0.11     0.09   0.03  -0.10
    15   1     0.14  -0.05   0.21     0.02   0.07   0.10     0.02   0.08  -0.14
    16   1    -0.00   0.05   0.14     0.08   0.06   0.09    -0.10   0.06   0.15
    17   1     0.10   0.09  -0.06     0.25  -0.17  -0.15    -0.03   0.14   0.03
    18   1     0.03   0.30  -0.00     0.00   0.00   0.18     0.24  -0.19  -0.00
    19   1    -0.00   0.05  -0.14    -0.08  -0.06   0.09    -0.10   0.06  -0.15
    20   1     0.10   0.09   0.06    -0.25   0.17  -0.15    -0.03   0.14  -0.03
    21   1     0.16   0.25  -0.09     0.09   0.05   0.18     0.30  -0.05  -0.08
    22   1     0.14   0.11   0.04     0.20  -0.20  -0.11     0.09   0.03   0.10
    23   1     0.14  -0.05  -0.21    -0.02  -0.07   0.10     0.02   0.08   0.14
    24   1    -0.12  -0.11  -0.01    -0.17  -0.17   0.17    -0.04  -0.08  -0.00
    25   1    -0.12  -0.11   0.01     0.17   0.17   0.17    -0.04  -0.08   0.00
                     16                     17                     18
                      A                      A                      A
 Frequencies --    718.5094               786.5415               792.9327
 Red. masses --      3.9386                 3.7520                 3.3961
 Frc consts  --      1.1980                 1.3676                 1.2581
 IR Inten    --      4.5735                 1.3912                17.0302
  Atom  AN      X      Y      Z        X      Y      Z        X      Y      Z
     1   8    -0.07  -0.07   0.00    -0.05   0.05   0.00     0.02   0.03   0.00
     2   6    -0.05  -0.07   0.00     0.27  -0.25   0.00     0.03   0.02  -0.00
     3   6    -0.00  -0.01   0.26     0.00  -0.00   0.01    -0.04  -0.07  -0.08
     4   6     0.05  -0.04   0.13    -0.07   0.10  -0.09     0.00  -0.06   0.04
     5   6    -0.03   0.05   0.12    -0.08   0.06   0.07    -0.11   0.01   0.13
     6   6     0.05  -0.01  -0.00     0.02  -0.01  -0.00    -0.06   0.20  -0.00
     7   6    -0.03   0.05  -0.12    -0.08   0.06  -0.07    -0.11   0.01  -0.13
     8   6    -0.00  -0.01  -0.26     0.00  -0.00  -0.01    -0.04  -0.07   0.08
     9   6     0.05  -0.04  -0.13    -0.07   0.10   0.09     0.00  -0.06  -0.04
    10   6    -0.05   0.05  -0.00    -0.08   0.04   0.00     0.18  -0.07  -0.00
    11  35     0.00   0.00  -0.00     0.00   0.00  -0.00    -0.01   0.00   0.00
    12   6     0.10   0.11  -0.00     0.08  -0.14   0.00     0.18   0.09  -0.00
    13   1    -0.04  -0.03   0.23     0.10  -0.09   0.02    -0.07  -0.21  -0.17
    14   1     0.29  -0.21   0.10     0.10  -0.13  -0.06    -0.16   0.03   0.08
    15   1     0.00  -0.06  -0.08    -0.19   0.07  -0.31     0.03  -0.06   0.19
    16   1    -0.05  -0.00  -0.10    -0.06   0.20   0.22    -0.11  -0.01   0.27
    17   1    -0.23   0.26   0.10     0.13  -0.06   0.03    -0.03  -0.19   0.19
    18   1    -0.02  -0.03  -0.00     0.27   0.04  -0.00    -0.06   0.20  -0.00
    19   1    -0.05  -0.00   0.10    -0.06   0.20  -0.22    -0.11  -0.01  -0.27
    20   1    -0.23   0.26  -0.10     0.13  -0.06  -0.03    -0.03  -0.19  -0.19
    21   1    -0.04  -0.03  -0.23     0.10  -0.09  -0.02    -0.07  -0.21   0.17
    22   1     0.29  -0.21  -0.10     0.10  -0.13   0.06    -0.16   0.03  -0.08
    23   1     0.00  -0.06   0.08    -0.19   0.07   0.31     0.03  -0.06  -0.19
    24   1     0.10   0.10   0.01     0.10  -0.17   0.00     0.24   0.06  -0.01
    25   1     0.10   0.10  -0.01     0.10  -0.17  -0.00     0.24   0.06   0.01
                     19                     20                     21
                      A                      A                      A
 Frequencies --    818.8143               854.3191               903.1289
 Red. masses --      2.9304                 2.6937                 2.3471
 Frc consts  --      1.1576                 1.1583                 1.1279
 IR Inten    --     29.4803                 0.8198                 5.0612
  Atom  AN      X      Y      Z        X      Y      Z        X      Y      Z
     1   8    -0.02   0.02  -0.00    -0.00  -0.00  -0.04    -0.03  -0.03   0.00
     2   6     0.10  -0.10   0.00     0.00  -0.00   0.05    -0.02  -0.04  -0.00
     3   6    -0.06   0.05  -0.01     0.08   0.14  -0.02     0.10   0.11   0.01
     4   6    -0.02  -0.02   0.11    -0.10   0.08  -0.01    -0.10   0.04   0.01
     5   6    -0.01   0.02  -0.09     0.11  -0.11  -0.05     0.03  -0.09   0.02
     6   6    -0.04  -0.15   0.00    -0.00   0.00   0.10    -0.09   0.02  -0.00
     7   6    -0.01   0.02   0.09    -0.11   0.11  -0.05     0.03  -0.09  -0.02
     8   6    -0.06   0.05   0.01    -0.08  -0.14  -0.02     0.10   0.11  -0.01
     9   6    -0.02  -0.02  -0.11     0.10  -0.08  -0.01    -0.10   0.04  -0.01
    10   6     0.26   0.01  -0.00    -0.00  -0.00   0.05     0.01  -0.08  -0.00
    11  35    -0.01   0.00  -0.00    -0.00   0.00  -0.00     0.00   0.00  -0.00
    12   6    -0.02   0.07   0.00     0.00   0.00   0.03     0.10   0.04  -0.00
    13   1    -0.17   0.14  -0.01     0.16   0.30   0.11     0.22   0.23   0.14
    14   1    -0.01  -0.22   0.21    -0.07  -0.10   0.06    -0.04  -0.02   0.01
    15   1    -0.22  -0.07   0.02    -0.31   0.03  -0.09    -0.35  -0.02   0.07
    16   1     0.02   0.21   0.06     0.09  -0.25  -0.14     0.00  -0.33   0.09
    17   1     0.22   0.01  -0.18    -0.06  -0.10   0.02    -0.03  -0.03   0.02
    18   1    -0.06  -0.15   0.00    -0.00   0.00   0.36    -0.30  -0.02  -0.00
    19   1     0.02   0.21  -0.06    -0.09   0.25  -0.14     0.00  -0.33  -0.09
    20   1     0.22   0.01   0.18     0.06   0.10   0.02    -0.03  -0.03  -0.02
    21   1    -0.17   0.14   0.01    -0.16  -0.30   0.11     0.22   0.23  -0.14
    22   1    -0.01  -0.22  -0.21     0.07   0.10   0.06    -0.04  -0.02  -0.01
    23   1    -0.22  -0.07  -0.02     0.31  -0.03  -0.09    -0.35  -0.02  -0.07
    24   1    -0.17   0.22  -0.00     0.07   0.02  -0.01     0.16  -0.01   0.00
    25   1    -0.17   0.22   0.00    -0.07  -0.02  -0.01     0.16  -0.01  -0.00
                     22                     23                     24
                      A                      A                      A
 Frequencies --    903.1927               911.0919               943.9006
 Red. masses --      1.5714                 1.5741                 2.2182
 Frc consts  --      0.7553                 0.7698                 1.1644
 IR Inten    --      2.8622                 1.4531                 0.6211
  Atom  AN      X      Y      Z        X      Y      Z        X      Y      Z
     1   8    -0.00  -0.00  -0.01    -0.00   0.00  -0.01     0.00   0.00   0.01
     2   6    -0.00  -0.00   0.05     0.00  -0.00   0.04    -0.00   0.00  -0.03
     3   6    -0.01   0.01  -0.02     0.01  -0.01  -0.01    -0.12   0.06   0.01
     4   6     0.05   0.03  -0.03    -0.02  -0.10  -0.05     0.11  -0.04   0.06
     5   6    -0.09  -0.02  -0.06     0.05   0.05  -0.03     0.04  -0.03  -0.07
     6   6    -0.00   0.00   0.02    -0.00  -0.00   0.05     0.00   0.00   0.12
     7   6     0.09   0.02  -0.06    -0.05  -0.05  -0.03    -0.04   0.03  -0.07
     8   6     0.01  -0.01  -0.02    -0.01   0.01  -0.01     0.12  -0.06   0.01
     9   6    -0.05  -0.03  -0.03     0.02   0.10  -0.05    -0.11   0.04   0.06
    10   6     0.00  -0.00   0.04     0.00  -0.00  -0.00    -0.00   0.00  -0.10
    11  35     0.00   0.00   0.00    -0.00   0.00  -0.00     0.00   0.00   0.00
    12   6     0.00   0.00   0.12     0.00   0.00   0.10     0.00  -0.00  -0.01
    13   1     0.10   0.05   0.06    -0.01   0.12   0.05    -0.39   0.22  -0.04
    14   1     0.06  -0.03  -0.01    -0.19   0.31  -0.17     0.27  -0.03  -0.02
    15   1    -0.02   0.01  -0.06     0.18  -0.04   0.34     0.10  -0.04   0.01
    16   1    -0.05   0.15   0.33     0.03  -0.05  -0.14     0.06   0.13  -0.14
    17   1     0.32  -0.14  -0.18    -0.10   0.07   0.03     0.02  -0.09  -0.02
    18   1    -0.00  -0.00   0.04    -0.00  -0.00  -0.01     0.00   0.00   0.38
    19   1     0.05  -0.15   0.33    -0.03   0.05  -0.14    -0.06  -0.13  -0.14
    20   1    -0.32   0.14  -0.18     0.10  -0.07   0.03    -0.02   0.09  -0.02
    21   1    -0.10  -0.05   0.06     0.01  -0.12   0.05     0.39  -0.22  -0.04
    22   1    -0.06   0.03  -0.01     0.19  -0.31  -0.17    -0.27   0.03  -0.02
    23   1     0.02  -0.01  -0.06    -0.18   0.04   0.34    -0.10   0.04   0.01
    24   1     0.29   0.24  -0.16     0.21   0.22  -0.13     0.11  -0.17   0.02
    25   1    -0.29  -0.24  -0.16    -0.21  -0.22  -0.13    -0.11   0.17   0.02
                     25                     26                     27
                      A                      A                      A
 Frequencies --    957.7125               989.7486              1024.6741
 Red. masses --      2.2747                 2.1098                 2.0218
 Frc consts  --      1.2293                 1.2177                 1.2507
 IR Inten    --      6.8062                 0.6775                 2.3096
  Atom  AN      X      Y      Z        X      Y      Z        X      Y      Z
     1   8     0.01   0.00   0.00    -0.01  -0.02  -0.00     0.00  -0.00   0.01
     2   6    -0.04   0.05  -0.00    -0.04   0.03   0.00    -0.00   0.00  -0.02
     3   6    -0.05   0.03   0.00     0.00   0.03  -0.05    -0.04  -0.09   0.02
     4   6     0.10   0.01   0.03     0.03   0.06   0.12     0.02   0.11  -0.05
     5   6    -0.06  -0.05  -0.10     0.01  -0.07   0.04     0.09   0.06  -0.03
     6   6    -0.11   0.00  -0.00     0.07   0.08  -0.00    -0.00   0.00   0.05
     7   6    -0.06  -0.05   0.10     0.01  -0.07  -0.04    -0.09  -0.06  -0.03
     8   6    -0.05   0.03  -0.00     0.00   0.03   0.05     0.04   0.09   0.02
     9   6     0.10   0.01  -0.03     0.03   0.06  -0.12    -0.02  -0.11  -0.05
    10   6    -0.11   0.02  -0.00     0.00   0.10  -0.00     0.00   0.00   0.09
    11  35    -0.00   0.00  -0.00     0.00  -0.00   0.00    -0.00  -0.00  -0.00
    12   6     0.16  -0.03  -0.00    -0.08  -0.11   0.00     0.00  -0.00   0.08
    13   1    -0.15   0.13   0.01    -0.11   0.07  -0.09     0.03  -0.20  -0.01
    14   1     0.27  -0.06  -0.02     0.09  -0.27   0.25     0.01  -0.13   0.07
    15   1     0.09   0.01  -0.13    -0.12   0.02  -0.22     0.09   0.12  -0.34
    16   1    -0.03   0.08   0.23     0.00  -0.14   0.03     0.10   0.20  -0.34
    17   1     0.25  -0.12  -0.20    -0.07  -0.28   0.19    -0.11   0.15   0.01
    18   1    -0.24  -0.02  -0.00     0.33   0.13  -0.00     0.00   0.00   0.16
    19   1    -0.03   0.08  -0.23     0.00  -0.14  -0.03    -0.10  -0.20  -0.34
    20   1     0.25  -0.12   0.20    -0.07  -0.28  -0.19     0.11  -0.15   0.01
    21   1    -0.15   0.13  -0.01    -0.11   0.07   0.09    -0.03   0.20  -0.01
    22   1     0.27  -0.06   0.02     0.09  -0.27  -0.25    -0.01   0.13   0.07
    23   1     0.09   0.01   0.13    -0.12   0.02   0.22    -0.09  -0.12  -0.34
    24   1     0.26  -0.15   0.01    -0.08  -0.09  -0.01     0.10   0.15  -0.05
    25   1     0.26  -0.15  -0.01    -0.08  -0.09   0.01    -0.10  -0.15  -0.05
                     28                     29                     30
                      A                      A                      A
 Frequencies --   1035.9996              1046.1333              1066.0867
 Red. masses --      6.1606                 2.3686                 1.9219
 Frc consts  --      3.8958                 1.5273                 1.2870
 IR Inten    --     32.0171                 0.1364                10.7204
  Atom  AN      X      Y      Z        X      Y      Z        X      Y      Z
     1   8     0.05   0.05  -0.00     0.01  -0.01   0.00     0.00  -0.00  -0.01
     2   6    -0.01   0.04   0.00    -0.06   0.05  -0.00    -0.00   0.00   0.09
     3   6    -0.10  -0.12   0.25     0.10  -0.09  -0.01    -0.09   0.04  -0.05
     4   6    -0.06   0.09  -0.09    -0.08   0.00   0.07     0.08   0.01  -0.07
     5   6     0.07  -0.08  -0.11    -0.00   0.08  -0.05     0.01  -0.04   0.04
     6   6    -0.06   0.30  -0.00    -0.10  -0.02   0.00    -0.00  -0.00  -0.06
     7   6     0.07  -0.08   0.11    -0.00   0.08   0.05    -0.01   0.04   0.04
     8   6    -0.10  -0.12  -0.25     0.10  -0.09   0.01     0.09  -0.04  -0.05
     9   6    -0.06   0.09   0.09    -0.08   0.00  -0.07    -0.08  -0.01  -0.07
    10   6     0.28  -0.03  -0.00     0.01   0.12  -0.00     0.00   0.00   0.13
    11  35    -0.00   0.00   0.00     0.00  -0.00   0.00     0.00  -0.00  -0.00
    12   6    -0.08  -0.14  -0.00     0.07  -0.10  -0.00     0.00  -0.00  -0.03
    13   1    -0.06  -0.00   0.35     0.13  -0.16  -0.04     0.02   0.19   0.09
    14   1     0.03  -0.01  -0.08    -0.32  -0.13   0.26    -0.09   0.04   0.00
    15   1    -0.03   0.09  -0.14     0.08   0.04  -0.11     0.20   0.04  -0.08
    16   1     0.07  -0.06  -0.01    -0.02  -0.08   0.06     0.01  -0.02  -0.07
    17   1     0.07  -0.09  -0.11     0.06   0.33  -0.21    -0.12  -0.32   0.24
    18   1    -0.06   0.30  -0.00     0.06   0.02   0.00    -0.00  -0.00  -0.17
    19   1     0.07  -0.06   0.01    -0.02  -0.08  -0.06    -0.01   0.02  -0.07
    20   1     0.07  -0.09   0.11     0.06   0.33   0.21     0.12   0.32   0.24
    21   1    -0.06  -0.00  -0.35     0.13  -0.16   0.04    -0.02  -0.19   0.09
    22   1     0.03  -0.01   0.08    -0.32  -0.13  -0.26     0.09  -0.04   0.00
    23   1    -0.03   0.09   0.14     0.08   0.04   0.11    -0.20  -0.04  -0.08
    24   1    -0.01  -0.15  -0.03     0.08  -0.10   0.00    -0.35   0.21   0.03
    25   1    -0.01  -0.15   0.03     0.08  -0.10  -0.00     0.35  -0.21   0.03
                     31                     32                     33
                      A                      A                      A
 Frequencies --   1077.7177              1092.1708              1122.1856
 Red. masses --      1.8581                 1.7511                 1.3929
 Frc consts  --      1.2715                 1.2307                 1.0334
 IR Inten    --     23.2192                 0.5767                 1.3363
  Atom  AN      X      Y      Z        X      Y      Z        X      Y      Z
     1   8     0.00   0.00  -0.02     0.01  -0.01   0.00     0.01   0.01  -0.00
     2   6    -0.00   0.00   0.13    -0.06   0.06  -0.00     0.00  -0.00   0.00
     3   6     0.04  -0.05  -0.07     0.07  -0.05   0.02     0.02   0.03   0.04
     4   6     0.00  -0.02   0.03    -0.01   0.03   0.02    -0.02  -0.07  -0.02
     5   6    -0.03   0.07  -0.05    -0.08  -0.01  -0.05    -0.06  -0.02  -0.02
     6   6     0.00   0.00   0.12     0.10   0.02  -0.00     0.05  -0.01  -0.00
     7   6     0.03  -0.07  -0.05    -0.08  -0.01   0.05    -0.06  -0.02   0.02
     8   6    -0.04   0.05  -0.07     0.07  -0.05  -0.02     0.02   0.03  -0.04
     9   6    -0.00   0.02   0.03    -0.01   0.03  -0.02    -0.02  -0.07   0.02
    10   6    -0.00  -0.00  -0.01    -0.04  -0.08   0.00    -0.01   0.08  -0.00
    11  35     0.00   0.00   0.00     0.00   0.00  -0.00     0.00  -0.00  -0.00
    12   6    -0.00   0.00  -0.09    -0.04   0.07   0.00     0.02  -0.00   0.00
    13   1     0.20   0.09   0.09     0.34  -0.21   0.06     0.03   0.30   0.20
    14   1    -0.31  -0.09   0.21     0.13  -0.06  -0.00    -0.20   0.10  -0.02
    15   1     0.09  -0.01  -0.04    -0.28  -0.04   0.05     0.22  -0.01   0.09
    16   1    -0.00   0.26  -0.05    -0.03   0.29   0.09    -0.06  -0.11   0.23
    17   1     0.05  -0.19   0.05     0.18  -0.17  -0.08     0.09  -0.14  -0.02
    18   1     0.00   0.00   0.09     0.18   0.04  -0.00     0.50   0.08  -0.00
    19   1     0.00  -0.26  -0.05    -0.03   0.29  -0.09    -0.06  -0.11  -0.23
    20   1    -0.05   0.19   0.05     0.18  -0.17   0.08     0.09  -0.14   0.02
    21   1    -0.20  -0.09   0.09     0.34  -0.21  -0.06     0.03   0.30  -0.20
    22   1     0.31   0.09   0.21     0.13  -0.06   0.00    -0.20   0.10   0.02
    23   1    -0.09   0.01  -0.04    -0.28  -0.04  -0.05     0.22  -0.01  -0.09
    24   1     0.02  -0.34   0.08    -0.08   0.12   0.00    -0.09   0.10   0.00
    25   1    -0.02   0.34   0.08    -0.08   0.12  -0.00    -0.09   0.10  -0.00
                     34                     35                     36
                      A                      A                      A
 Frequencies --   1134.7596              1157.2307              1205.7500
 Red. masses --      1.1835                 1.1360                 1.1240
 Frc consts  --      0.8979                 0.8964                 0.9628
 IR Inten    --      0.0457                 0.0042                 0.6587
  Atom  AN      X      Y      Z        X      Y      Z        X      Y      Z
     1   8     0.00   0.00   0.00    -0.00  -0.00   0.00    -0.01  -0.02   0.00
     2   6     0.00  -0.00  -0.03     0.00  -0.00  -0.02    -0.01   0.01  -0.00
     3   6     0.01   0.03   0.01    -0.02   0.04   0.01     0.01  -0.02  -0.00
     4   6     0.01  -0.03  -0.03     0.01  -0.01  -0.03    -0.02   0.03  -0.01
     5   6    -0.03  -0.01  -0.01    -0.01  -0.01   0.01     0.01   0.01  -0.02
     6   6     0.00  -0.00   0.03     0.00   0.00   0.01    -0.01  -0.00  -0.00
     7   6     0.03   0.01  -0.01     0.01   0.01   0.01     0.01   0.01   0.02
     8   6    -0.01  -0.03   0.01     0.02  -0.04   0.01     0.01  -0.02   0.00
     9   6    -0.01   0.03  -0.03    -0.01   0.01  -0.03    -0.02   0.03   0.01
    10   6     0.00   0.00   0.06    -0.00  -0.00   0.06    -0.00  -0.06   0.00
    11  35     0.00  -0.00  -0.00     0.00   0.00  -0.00     0.00   0.00  -0.00
    12   6    -0.00   0.00  -0.05    -0.00   0.00  -0.03     0.04   0.02  -0.00
    13   1     0.18  -0.16  -0.01    -0.04   0.05   0.00    -0.28  -0.08  -0.19
    14   1     0.05   0.09  -0.11    -0.26  -0.00   0.10     0.25   0.03  -0.15
    15   1    -0.11  -0.05   0.17     0.33   0.06  -0.15    -0.05   0.02  -0.04
    16   1     0.01   0.28  -0.08    -0.04  -0.22   0.15    -0.03  -0.30   0.14
    17   1     0.06   0.11  -0.10     0.04   0.34  -0.19     0.02   0.15  -0.10
    18   1     0.00   0.00   0.55     0.00   0.00   0.26     0.41   0.08  -0.00
    19   1    -0.01  -0.28  -0.08     0.04   0.22   0.15    -0.03  -0.30  -0.14
    20   1    -0.06  -0.11  -0.10    -0.04  -0.34  -0.19     0.02   0.15   0.10
    21   1    -0.18   0.16  -0.01     0.04  -0.05   0.00    -0.28  -0.08   0.19
    22   1    -0.05  -0.09  -0.11     0.26   0.00   0.10     0.25   0.03   0.15
    23   1     0.11   0.05   0.17    -0.33  -0.06  -0.15    -0.05   0.02   0.04
    24   1    -0.30   0.12   0.04     0.03  -0.13   0.02    -0.14   0.19   0.00
    25   1     0.30  -0.12   0.04    -0.03   0.13   0.02    -0.14   0.19  -0.00
                     37                     38                     39
                      A                      A                      A
 Frequencies --   1235.4584              1260.9238              1279.6462
 Red. masses --      1.7980                 1.4945                 1.6401
 Frc consts  --      1.6169                 1.4000                 1.5824
 IR Inten    --      7.3222                 6.0794                 0.5761
  Atom  AN      X      Y      Z        X      Y      Z        X      Y      Z
     1   8    -0.00  -0.00  -0.02     0.00   0.00  -0.03    -0.03  -0.02   0.00
     2   6     0.00  -0.00   0.15    -0.00   0.00   0.16     0.02  -0.02  -0.00
     3   6    -0.05   0.05  -0.04     0.07  -0.01  -0.02    -0.01   0.08   0.03
     4   6     0.07  -0.00   0.01    -0.04   0.02  -0.00     0.03  -0.04  -0.02
     5   6     0.03  -0.03   0.04    -0.01   0.04  -0.02    -0.02  -0.07  -0.01
     6   6     0.00   0.00  -0.09    -0.00  -0.00   0.03     0.06   0.05   0.00
     7   6    -0.03   0.03   0.04     0.01  -0.04  -0.02    -0.02  -0.07   0.01
     8   6     0.05  -0.05  -0.04    -0.07   0.01  -0.02    -0.01   0.08  -0.03
     9   6    -0.07   0.00   0.01     0.04  -0.02  -0.00     0.03  -0.04   0.02
    10   6    -0.00  -0.00  -0.09     0.00  -0.00   0.00     0.01   0.11  -0.00
    11  35    -0.00   0.00   0.00     0.00  -0.00  -0.00    -0.00  -0.00   0.00
    12   6     0.00   0.00   0.05    -0.00   0.00  -0.01    -0.06   0.00   0.00
    13   1     0.08  -0.39  -0.22    -0.45  -0.11  -0.35    -0.02  -0.37  -0.23
    14   1    -0.26  -0.08   0.21     0.11   0.03  -0.08    -0.09   0.07  -0.02
    15   1    -0.23  -0.07   0.12     0.09   0.04  -0.11    -0.16  -0.07   0.21
    16   1     0.03  -0.02  -0.10    -0.03  -0.09   0.09    -0.01  -0.04   0.07
    17   1    -0.04   0.15  -0.03     0.03  -0.03  -0.00     0.10   0.26  -0.22
    18   1     0.00   0.00   0.13     0.00   0.00   0.22     0.08   0.05  -0.00
    19   1    -0.03   0.02  -0.10     0.03   0.09   0.09    -0.01  -0.04  -0.07
    20   1     0.04  -0.15  -0.03    -0.03   0.03  -0.00     0.10   0.26   0.22
    21   1    -0.08   0.39  -0.22     0.45   0.11  -0.35    -0.02  -0.37   0.23
    22   1     0.26   0.08   0.21    -0.11  -0.03  -0.08    -0.09   0.07   0.02
    23   1     0.23   0.07   0.12    -0.09  -0.04  -0.11    -0.16  -0.07  -0.21
    24   1     0.16   0.01  -0.04    -0.18   0.16   0.01     0.17  -0.18  -0.02
    25   1    -0.16  -0.01  -0.04     0.18  -0.16   0.01     0.17  -0.18   0.02
                     40                     41                     42
                      A                      A                      A
 Frequencies --   1298.6093              1304.6449              1321.2944
 Red. masses --      1.6511                 1.4362                 1.6677
 Frc consts  --      1.6405                 1.4403                 1.7154
 IR Inten    --      6.6215                 0.0176                11.3403
  Atom  AN      X      Y      Z        X      Y      Z        X      Y      Z
     1   8    -0.01  -0.02   0.00    -0.00  -0.00  -0.01    -0.01  -0.02  -0.00
     2   6    -0.03   0.02  -0.00     0.00  -0.00   0.03    -0.00  -0.00  -0.00
     3   6     0.10  -0.02   0.02    -0.01   0.06   0.02     0.05   0.03   0.02
     4   6    -0.07  -0.03  -0.01    -0.02  -0.02  -0.03    -0.04   0.02   0.00
     5   6    -0.02   0.02   0.00     0.01  -0.01  -0.02    -0.05  -0.01   0.00
     6   6    -0.01  -0.02  -0.00    -0.00   0.00  -0.01     0.14   0.02  -0.00
     7   6    -0.02   0.02  -0.00    -0.01   0.01  -0.02    -0.05  -0.01  -0.00
     8   6     0.10  -0.02  -0.02     0.01  -0.06   0.02     0.05   0.03  -0.02
     9   6    -0.07  -0.03   0.01     0.02   0.02  -0.03    -0.04   0.02  -0.00
    10   6     0.06   0.12  -0.00     0.00   0.00   0.16     0.03  -0.11  -0.00
    11  35     0.00  -0.00   0.00    -0.00  -0.00  -0.00     0.00   0.00  -0.00
    12   6    -0.02  -0.03   0.00     0.00  -0.00  -0.04    -0.07   0.03   0.00
    13   1    -0.33   0.08  -0.14     0.05  -0.31  -0.16    -0.20   0.02  -0.12
    14   1     0.27   0.12  -0.24     0.19   0.11  -0.19    -0.11  -0.06   0.08
    15   1    -0.05  -0.03   0.13     0.09   0.01   0.02     0.40   0.12  -0.28
    16   1     0.01   0.22  -0.08     0.02   0.02  -0.05    -0.05  -0.03   0.14
    17   1    -0.00  -0.23   0.12     0.02  -0.13   0.04     0.09   0.07  -0.09
    18   1    -0.19  -0.06   0.00    -0.00   0.00  -0.22    -0.42  -0.09  -0.00
    19   1     0.01   0.22   0.08    -0.02  -0.02  -0.05    -0.05  -0.03  -0.14
    20   1    -0.00  -0.23  -0.12    -0.02   0.13   0.04     0.09   0.07   0.09
    21   1    -0.33   0.08   0.14    -0.05   0.31  -0.16    -0.20   0.02   0.12
    22   1     0.27   0.12   0.24    -0.19  -0.11  -0.19    -0.11  -0.06  -0.08
    23   1    -0.05  -0.03  -0.13    -0.09  -0.01   0.02     0.40   0.12   0.28
    24   1     0.09  -0.12  -0.01     0.27  -0.38   0.03     0.06  -0.06  -0.01
    25   1     0.09  -0.12   0.01    -0.27   0.38   0.03     0.06  -0.06   0.01
                     43                     44                     45
                      A                      A                      A
 Frequencies --   1321.6712              1343.1424              1356.2767
 Red. masses --      1.6378                 1.4971                 1.5499
 Frc consts  --      1.6856                 1.5913                 1.6797
 IR Inten    --      6.3937                 1.9095                 0.7956
  Atom  AN      X      Y      Z        X      Y      Z        X      Y      Z
     1   8     0.00   0.00   0.00     0.02   0.01  -0.00     0.00   0.00  -0.00
     2   6     0.00  -0.00  -0.05    -0.01   0.01  -0.00     0.00   0.00   0.04
     3   6     0.07   0.07   0.05    -0.00  -0.08  -0.03    -0.04  -0.01  -0.07
     4   6    -0.05  -0.03   0.02     0.03   0.03  -0.02    -0.05  -0.01   0.07
     5   6    -0.02  -0.05   0.02    -0.02   0.02   0.02     0.00   0.04   0.02
     6   6    -0.00  -0.00  -0.08     0.04  -0.05   0.00     0.00  -0.00  -0.12
     7   6     0.02   0.05   0.02    -0.02   0.02  -0.02    -0.00  -0.04   0.02
     8   6    -0.07  -0.07   0.05    -0.00  -0.08   0.03     0.04   0.01  -0.07
     9   6     0.05   0.03   0.02     0.03   0.03   0.02     0.05   0.01   0.07
    10   6    -0.00   0.00  -0.08     0.01  -0.01   0.00    -0.00  -0.00  -0.03
    11  35    -0.00  -0.00   0.00     0.00  -0.00   0.00    -0.00  -0.00  -0.00
    12   6     0.00  -0.00   0.05    -0.10   0.09  -0.00    -0.00   0.00   0.03
    13   1    -0.04  -0.05  -0.07    -0.14   0.32   0.13     0.29   0.01   0.11
    14   1    -0.18  -0.02   0.09    -0.03  -0.04   0.04     0.31   0.01  -0.12
    15   1     0.38   0.07  -0.17    -0.25  -0.03   0.07     0.21   0.04  -0.12
    16   1     0.04   0.39  -0.18    -0.04  -0.14   0.08    -0.03  -0.15   0.05
    17   1     0.01  -0.19   0.08     0.02   0.14  -0.06    -0.05  -0.05   0.10
    18   1     0.00   0.00   0.06     0.16  -0.02  -0.00     0.00  -0.00   0.56
    19   1    -0.04  -0.39  -0.18    -0.04  -0.14  -0.08     0.03   0.15   0.05
    20   1    -0.01   0.19   0.08     0.02   0.14   0.06     0.05   0.05   0.10
    21   1     0.04   0.05  -0.07    -0.14   0.32  -0.13    -0.29  -0.01   0.11
    22   1     0.18   0.02   0.09    -0.03  -0.04  -0.04    -0.31  -0.01  -0.12
    23   1    -0.38  -0.07  -0.17    -0.25  -0.03  -0.07    -0.21  -0.04  -0.12
    24   1     0.06   0.08  -0.03     0.35  -0.29  -0.02     0.09  -0.01  -0.02
    25   1    -0.06  -0.08  -0.03     0.35  -0.29   0.02    -0.09   0.01  -0.02
                     46                     47                     48
                      A                      A                      A
 Frequencies --   1378.0756              1386.0113              1392.8641
 Red. masses --      1.5980                 1.4508                 1.4525
 Frc consts  --      1.7880                 1.6421                 1.6603
 IR Inten    --      2.2434                 0.5129                 1.0435
  Atom  AN      X      Y      Z        X      Y      Z        X      Y      Z
     1   8     0.00   0.00  -0.01    -0.01  -0.01   0.00     0.02   0.02  -0.00
     2   6    -0.00  -0.00   0.07    -0.00   0.00  -0.00    -0.01  -0.01   0.00
     3   6     0.02  -0.04  -0.08     0.06   0.01   0.03    -0.02   0.00  -0.06
     4   6    -0.01   0.01  -0.00     0.03   0.02  -0.03    -0.07  -0.02   0.05
     5   6    -0.02  -0.07   0.09    -0.00  -0.07   0.03    -0.00  -0.07   0.04
     6   6    -0.00   0.00  -0.05    -0.09   0.02   0.00    -0.03   0.02   0.00
     7   6     0.02   0.07   0.09    -0.00  -0.07  -0.03    -0.00  -0.07  -0.04
     8   6    -0.02   0.04  -0.08     0.06   0.01  -0.03    -0.02   0.00   0.06
     9   6     0.01  -0.01  -0.00     0.03   0.02   0.03    -0.07  -0.02  -0.05
    10   6    -0.00  -0.00   0.05    -0.03  -0.07  -0.00     0.04   0.00  -0.00
    11  35     0.00   0.00  -0.00    -0.00   0.00   0.00     0.00   0.00   0.00
    12   6     0.00  -0.00   0.00     0.03   0.02  -0.00    -0.03   0.02  -0.00
    13   1    -0.15   0.32   0.04    -0.28   0.10  -0.09     0.21   0.10   0.11
    14   1     0.15   0.05  -0.10    -0.28  -0.03   0.14     0.32   0.03  -0.16
    15   1    -0.06  -0.00  -0.01    -0.03   0.01  -0.05     0.24   0.05  -0.10
    16   1     0.03   0.30  -0.21     0.06   0.39  -0.19     0.03   0.19  -0.15
    17   1     0.03   0.33  -0.15    -0.02   0.08  -0.04     0.03   0.27  -0.15
    18   1     0.00   0.00  -0.08     0.37   0.11  -0.00     0.26   0.08  -0.00
    19   1    -0.03  -0.30  -0.21     0.06   0.39   0.19     0.03   0.19   0.15
    20   1    -0.03  -0.33  -0.15    -0.02   0.08   0.04     0.03   0.27   0.15
    21   1     0.15  -0.32   0.04    -0.28   0.10   0.09     0.21   0.10  -0.11
    22   1    -0.15  -0.05  -0.10    -0.28  -0.03  -0.14     0.32   0.03   0.16
    23   1     0.06   0.00  -0.01    -0.03   0.01   0.05     0.24   0.05   0.10
    24   1     0.14  -0.12  -0.00    -0.02   0.06   0.00     0.14  -0.04  -0.04
    25   1    -0.14   0.12   0.00    -0.02   0.06  -0.00     0.14  -0.04   0.04
                     49                     50                     51
                      A                      A                      A
 Frequencies --   1392.9444              1401.3385              1509.0107
 Red. masses --      1.5390                 1.4841                 1.0867
 Frc consts  --      1.7594                 1.7171                 1.4579
 IR Inten    --      0.9433                 0.1673                 0.0206
  Atom  AN      X      Y      Z        X      Y      Z        X      Y      Z
     1   8     0.00   0.00   0.01    -0.01  -0.01  -0.00     0.00   0.00  -0.00
     2   6    -0.00  -0.00  -0.05     0.00   0.00   0.00    -0.00  -0.00   0.00
     3   6     0.04  -0.03   0.04    -0.00   0.05   0.04     0.00  -0.00  -0.00
     4   6     0.04   0.02  -0.06    -0.02   0.00   0.01     0.02  -0.02   0.03
     5   6    -0.01   0.04   0.01     0.03   0.04  -0.04     0.02  -0.02  -0.03
     6   6    -0.00   0.00  -0.14    -0.09  -0.07  -0.00     0.00  -0.00  -0.00
     7   6     0.01  -0.05   0.01     0.03   0.04   0.04    -0.02   0.02  -0.03
     8   6    -0.04   0.03   0.04    -0.00   0.05  -0.04    -0.00   0.00  -0.00
     9   6    -0.04  -0.02  -0.06    -0.02   0.00  -0.01    -0.02   0.02   0.03
    10   6     0.00   0.00   0.06     0.02  -0.05   0.00     0.00  -0.00   0.00
    11  35     0.00   0.00  -0.00     0.00   0.00  -0.00    -0.00   0.00   0.00
    12   6    -0.00   0.00   0.01    -0.05   0.09  -0.00    -0.00   0.00   0.00
    13   1    -0.25   0.17   0.01     0.09  -0.26  -0.09     0.01  -0.01   0.00
    14   1    -0.15  -0.01   0.05    -0.01  -0.05   0.03    -0.10   0.34  -0.10
    15   1    -0.21  -0.04   0.13     0.21   0.05  -0.07    -0.16  -0.06  -0.33
    16   1    -0.02   0.00   0.05     0.01  -0.08  -0.04     0.04   0.17   0.29
    17   1    -0.08  -0.20   0.17    -0.01  -0.31   0.14    -0.31   0.08   0.08
    18   1     0.00   0.00   0.55     0.44   0.03   0.00     0.00  -0.00  -0.01
    19   1     0.02   0.00   0.05     0.01  -0.08   0.04    -0.04  -0.17   0.29
    20   1     0.08   0.20   0.17    -0.01  -0.31  -0.14     0.31  -0.08   0.08
    21   1     0.25  -0.16   0.01     0.09  -0.26   0.09    -0.01   0.01   0.00
    22   1     0.15   0.01   0.05    -0.01  -0.05  -0.03     0.10  -0.34  -0.10
[...]
 50,0.00001913,0.00016958,0.00011896,-0.00012854,-0.00003253,0.00010417
 ,0.00004926,-0.00016310,-0.00166724,0.00056736,0.00061311,-0.00021590,
 0.00055561,-0.00045652,0.00024147,0.00004777,-0.00065360,0.00017215,0.
 00019592,-0.00005027,0.00033794,0.00102649,0.00067821,0.12951198,0.241
 96346,-0.00221846,-0.00173834,0.00127978,-0.00081343,0.00407969,-0.005
 50737,-0.01748331,-0.02517163,-0.00456231,-0.00066865,-0.00115145,0.00
 206940,0.00078997,-0.00290876,-0.04932357,0.00111439,0.00048111,-0.001
 03664,-0.00008530,-0.00003240,0.00027606,0.00034770,0.00015051,0.00065
 801,-0.00020388,0.00006227,0.00030024,-0.00000308,0.00005990,-0.000223
 83,0.00006948,0.00002100,0.00000731,-0.00040864,-0.00079963,0.00017998
 ,0.00060311,0.00045404,0.00100510,0.00060621,0.00056720,-0.00036272,0.
 00001891,0.00042757,0.00036280,0.01496804,0.02264354,0.00108833,0.0030
 5348,0.00279595,0.05273381,-0.00047346,0.,0.00002565,0.00109978,0.,0.0
 0043417,-0.00146138,0.00357990,0.00119458,-0.00012298,0.00013235,0.000
 35615,-0.01121822,0.00018817,-0.01560989,-0.13360307,-0.00000001,-0.12
 143975,-0.01121823,-0.00018813,-0.01560992,-0.00146139,-0.00357990,0.0
 0119459,-0.00012298,-0.00013235,0.00035615,-0.00247374,0.,0.00185491,-
 0.00009329,0.,0.00142784,0.01202215,0.,0.01905463,-0.00053347,-0.00007
 826,-0.00110697,0.00004513,-0.00000863,-0.00004623,0.00012671,-0.00013
 087,-0.00008807,0.00015235,-0.00059864,0.00023536,0.00082153,0.0000106
 8,0.00030250,0.14623517,0.,0.00090280,0.,0.,-0.00237912,0.,0.00342156,
 -0.00447180,-0.00112555,-0.00006441,-0.00001231,-0.00065030,0.01651778
 ,-0.00044316,0.02366990,0.,-0.04833905,0.00000002,-0.01651775,-0.00044
 313,-0.02366989,-0.00342155,-0.00447179,0.00112556,0.00006441,-0.00001
 231,0.00065030,0.,0.00039740,0.,0.,0.00015072,0.,-0.00000001,-0.000069
 54,-0.00000002,0.00105571,0.00018143,0.00147545,-0.00004817,0.00001322
 ,0.00004680,-0.00009488,0.00005188,0.00006512,-0.00057083,0.00103866,-
 0.00046341,-0.00083932,0.00085543,0.00017415,-0.00000002,0.05468053,0.
 00002339,0.,-0.00007597,0.00014448,0.,0.00017971,0.00035722,0.00028440
 ,0.00120528,0.00034263,-0.00032158,0.00035366,0.00077186,0.00036444,0.
 00102846,-0.12199174,0.00000001,-0.22083637,0.00077188,-0.00036443,0.0
 0102847,0.00035722,-0.00028439,0.00120528,0.00034263,0.00032158,0.0003
 5366,0.00473485,0.,-0.00101007,0.00006470,0.,-0.00169220,-0.01467018,0
 .00000001,-0.02413558,-0.00002281,-0.00014931,0.00005697,-0.00003037,0
 .00003969,-0.00003462,-0.00011671,0.00004733,0.00003847,-0.00024633,0.
 00039485,0.00059861,-0.00003344,0.00044743,0.00008293,0.12982990,-0.00
 000002,0.23906255,0.00013806,-0.00042449,0.00028311,0.00133175,-0.0000
 2200,-0.00040088,0.00000811,-0.00001855,-0.00011683,-0.00002947,0.0000
 4842,0.00010277,0.00039388,0.00127344,-0.00004346,-0.01216580,0.000340
 77,0.01617341,-0.13782167,-0.00015557,0.12296060,0.01215381,0.00079584
 ,-0.01681338,-0.00254110,0.00052318,-0.00336707,-0.00058024,-0.0003452
 3,-0.00077668,0.00020771,0.00014508,0.00022606,-0.00161394,-0.00415991
 ,-0.00116582,0.00004184,0.00001664,0.00002761,-0.00001127,0.00007204,0
 .00000009,0.00007548,-0.00007426,0.00001622,0.00068024,-0.00041101,-0.
 00026703,-0.00000228,0.00008444,-0.00036157,0.00015235,0.00057083,-0.0
 0024633,0.14889545,-0.00008254,0.00007142,-0.00012879,-0.00031585,-0.0
 0010096,0.00077422,0.00024819,-0.00016089,-0.00007047,-0.00005898,0.00
 015517,-0.00000374,-0.00074864,0.00155148,0.00109659,-0.01583366,-0.00
 113245,0.02317540,0.00060164,-0.05143217,0.00211504,0.00065019,-0.0007
 1637,0.00034558,-0.00005573,0.00049760,-0.00059579,-0.00039766,-0.0000
 4770,-0.00067396,0.00014257,0.00008873,0.00015170,-0.00238035,-0.00490
 735,-0.00098930,0.00004075,-0.00000784,0.00001902,0.00000281,0.0000367
 0,-0.00003846,0.00007122,-0.00006582,-0.00003242,0.00041101,-0.0004785
 6,-0.00048355,0.00003036,0.00036034,-0.00031431,0.00059864,0.00103865,
 -0.00039485,0.00270282,0.05319955,-0.00139750,0.00009995,0.00049926,0.
 00264055,-0.00105249,-0.00058354,-0.00017431,0.00024029,-0.00037625,0.
 00018886,-0.00002393,-0.00000626,-0.00009859,-0.00035530,-0.00007162,-
 0.00067796,0.00015540,0.00140729,0.12231131,0.00269636,-0.21777451,0.0
 1432439,0.00126244,-0.02138319,-0.00483660,0.00034543,-0.00377001,-0.0
 0068684,-0.00072078,0.00035040,0.00017975,0.00013916,0.00006300,-0.000
 28142,-0.00017956,0.00127732,0.00001678,0.00009500,-0.00000337,-0.0000
 4090,0.00009176,0.00000796,-0.00001802,-0.00003476,0.00005861,-0.00026
 703,0.00048355,0.00032691,-0.00019047,0.00005441,0.00022986,0.00023536
 ,0.00046341,0.00059861,-0.13195851,-0.00263660,0.23807869,-0.00138429,
 0.00131747,0.00060959,-0.00004862,-0.00402377,-0.00363871,-0.00011766,
 0.00006553,0.00053641,-0.00014145,-0.00005072,0.00010000,-0.00233887,-
 0.00293651,0.00030536,0.01202776,-0.01692271,0.00109616,-0.13141079,0.
 12049176,0.00060926,-0.01252331,0.01740198,-0.00323794,0.00078422,-0.0
 0045655,0.00165346,-0.00015187,-0.00010344,-0.00008473,0.00013172,0.00
 004496,-0.00009314,0.00119734,-0.00032418,-0.00035449,0.00008193,0.000
 12269,0.00013322,0.00006715,0.00001213,-0.00006367,-0.00001570,0.00000
 007,0.00004668,-0.00000228,-0.00003036,-0.00019047,0.00088473,-0.00114
 121,0.00001923,0.00082153,0.00083932,-0.00003344,-0.01086246,0.0156946
 5,-0.00027978,0.14207589,0.00003154,-0.00005304,0.00022312,-0.00024741
 ,0.00084874,-0.00048696,-0.00028859,0.00064857,-0.00025678,0.00010850,
 0.00001913,-0.00016958,-0.00551539,-0.00346849,-0.00015106,0.01608696,
 -0.02252867,0.00044299,0.11891278,-0.22192763,0.00337661,-0.00024174,0
 .00151732,-0.00033488,-0.00014907,0.00013728,-0.00019150,-0.00011895,-
 0.00012854,0.00003253,-0.00010417,0.00004926,0.00016310,0.00166724,0.0
 0056735,-0.00061311,0.00009153,0.00002625,0.00012351,-0.00000877,0.000
 03574,-0.00003188,-0.00007143,0.00004336,0.00009542,-0.00008444,0.0003
 6035,-0.00005441,0.00114121,-0.00168444,0.00018301,-0.00001068,0.00085
 543,-0.00044743,-0.00033790,0.00102645,-0.00067822,-0.12951101,0.24196
 251,-0.00221846,0.00173834,0.00127978,-0.00081343,-0.00407970,-0.00550
 737,0.00034770,-0.00015051,0.00065801,-0.00020388,-0.00006227,0.000300
 24,-0.00008530,0.00003240,0.00027606,0.00111439,-0.00048112,-0.0010366
 3,0.00078987,0.00290891,-0.04932376,-0.01748330,0.02517165,-0.00456234
 ,-0.00066865,0.00115145,0.00206940,-0.00000308,-0.00005990,-0.00022383
 ,0.00006948,-0.00002100,0.00000731,-0.00040864,0.00079964,0.00017998,0
 .00008609,0.00009551,0.00008690,0.00006879,-0.00002304,-0.00007357,-0.
 00000297,-0.00004184,0.00002055,-0.00036157,0.00031431,0.00022986,0.00
 001923,-0.00018301,0.00065785,0.00030251,-0.00017415,0.00008293,0.0149
 6802,-0.02264353,0.00108833,0.00305361,-0.00279612,0.05273401,0.002081
 65,-0.00178592,-0.00005198,0.01161739,0.01669156,0.00034739,-0.0021741
 9,0.00300979,-0.00003196,-0.00026753,0.00011338,0.00020653,-0.00029082
 ,0.00016189,-0.00020720,-0.00106424,0.00136924,-0.00372223,-0.01026441
 ,-0.01404055,-0.00015180,-0.14690477,-0.13063145,-0.00301280,-0.011433
 08,-0.01508059,0.00030287,-0.00037076,0.00178361,0.00277210,-0.0007126
 3,-0.00057809,0.00057391,0.00061807,0.00039635,-0.00004624,0.00064839,
 0.00094766,-0.00000011,0.00007085,-0.00009532,-0.00006825,0.00001710,-
 0.00003424,-0.00000897,0.00004184,-0.00004075,0.00001678,0.00008193,-0
 .00009153,0.00008609,-0.00053347,-0.00105570,-0.00002281,0.00080358,0.
 00028771,0.00004896,0.00015093,0.00021590,0.00060311,0.15689004,0.0003
 3025,0.00574619,0.00008894,-0.02112648,-0.02611286,-0.00042899,0.00486
 417,-0.00323949,0.00000839,0.00044002,0.00041313,-0.00039981,0.0004640
 7,0.00029601,0.00050288,0.00059898,0.00101964,0.00043471,0.00186102,0.
 00264343,-0.00047826,-0.12608686,-0.21783395,-0.00371450,0.00176195,0.
 00237818,0.00035469,0.00048493,0.00067116,-0.00031632,0.00013903,0.000
 16546,-0.00020531,0.00007393,0.00003779,0.00005146,-0.00094766,-0.0014
 2712,-0.00004391,-0.00011949,0.00002925,0.00008101,-0.00001270,-0.0000
 1117,0.00007958,-0.00001664,-0.00000784,-0.00009500,-0.00012268,0.0000
 2626,-0.00009551,0.00007826,0.00018143,0.00014931,-0.00010876,0.000069
 61,-0.00045272,-0.00020792,0.00055561,-0.00045404,0.13800870,0.2338434
 9,0.00016137,-0.00001756,-0.00118084,-0.00010743,0.00030502,-0.0001143
 1,0.00003654,0.00028804,0.00132842,-0.00004414,-0.00050527,0.00002886,
 -0.00016713,0.00065682,-0.00004052,-0.00257289,0.00163447,-0.00505445,
 -0.01651047,-0.02311947,0.00003455,-0.00273220,-0.00364964,-0.04896270
 ,0.01702665,0.02283503,-0.00010173,0.00155491,-0.00199158,-0.00366162,
 0.00131373,0.00083330,-0.00084995,0.00005555,0.00003473,-0.00049365,-0
 .00000011,0.00004391,0.00025743,-0.00013583,0.00009985,0.00005439,0.00
 000674,0.00001132,-0.00001638,0.00002761,-0.00001902,-0.00000337,0.000
 13322,-0.00012351,0.00008690,-0.00110697,-0.00147545,0.00005697,0.0009
 0645,-0.00022332,0.00087864,0.00049950,0.00045652,0.00100510,0.0030296
 7,0.00407188,0.05457290,-0.00133788,0.00130400,-0.00060330,-0.00019447
 ,-0.00394099,0.00350631,-0.00009623,0.00014749,-0.00044523,-0.00225861
 ,-0.00301738,-0.00034585,-0.00018677,-0.00006989,-0.00018053,0.0000246
 0,0.00001958,0.00034109,0.00073920,-0.00046270,-0.00173243,-0.01252478
 ,0.01719196,0.00325093,-0.13575241,0.12601524,-0.00400177,0.01102284,-
 0.01754417,0.00042182,0.00080318,-0.00023926,-0.00067049,0.00101743,-0
 .00029775,0.00046415,0.00007085,0.00011949,-0.00013583,0.00100148,-0.0
 0108783,-0.00006823,-0.00002092,-0.00004578,0.00016931,-0.00001127,-0.
 00000281,-0.00004090,0.00006715,0.00000877,0.00006879,0.00004513,0.000
 04817,-0.00003037,-0.00003313,-0.00039315,-0.00018585,0.00080232,-0.00
 024147,0.00060621,0.00017158,-0.00022566,-0.00049524,0.14685542,-0.000
 04832,0.00000481,-0.00026602,-0.00027012,0.00069583,0.00072763,-0.0002
 6678,0.00063740,0.00017898,-0.00525894,-0.00338274,-0.00005453,0.00009
 968,0.00001318,0.00019579,-0.00015123,-0.00011463,-0.00021067,-0.00017
 703,0.00018337,0.00006279,-0.00054638,0.00218307,0.00019773,0.12163416
 ,-0.22329707,0.00023576,0.01648403,-0.02392452,-0.00020980,0.00009509,
 0.00109104,-0.00009954,0.00145087,0.00063333,0.00095175,0.00009532,0.0
 0002925,-0.00009985,0.00108783,-0.00159909,-0.00012897,-0.00006459,0.0
 0030796,0.00001578,-0.00007204,0.00003670,-0.00009176,-0.00001213,0.00
 003574,0.00002304,0.00000863,0.00001322,-0.00003969,-0.00017572,0.0001
 8491,-0.00004769,-0.00019862,0.00004777,-0.00056720,0.00020718,0.00050
 694,-0.00042373,-0.13241948,0.24368593,0.00206623,-0.00164254,0.001184
 51,0.00105366,0.00374280,-0.00512826,-0.00037606,0.00009067,0.00058771
 ,0.00001873,0.00002267,0.00023191,0.00021626,0.00007808,0.00027344,-0.
 00021999,0.00006468,-0.00027495,0.00061532,-0.00123981,0.00207518,0.01
 685081,-0.02391468,-0.00401977,-0.00389848,-0.00058031,-0.04863618,0.0
 0030984,0.00018727,-0.00127505,-0.00042595,0.00023036,0.00014687,0.000
 63650,-0.00076628,-0.00003455,-0.00006825,-0.00008101,0.00005439,-0.00
 006823,0.00012897,0.00071223,0.00030264,-0.00032504,0.00023749,0.00000
 009,0.00003846,0.00000796,-0.00006367,0.00003188,-0.00007357,-0.000046
 23,-0.00004680,-0.00003462,-0.00002072,0.00040940,0.00039524,-0.000556
 39,0.00065360,-0.00036272,-0.00060627,0.00043613,0.00094535,-0.0002786
 4,-0.00036970,0.05220674,0.00000180,-0.00044809,-0.00029555,0.00154061
 ,-0.00001282,0.00039925,-0.00002332,0.00008860,0.00005757,0.00016373,0
 .00120349,0.00043470,-0.00000128,0.00002805,-0.00007211,-0.00036583,-0
 .00016868,0.00041827,-0.00290426,0.00040999,0.00341567,0.01209810,0.00
 086897,0.01796761,-0.13043203,0.00111086,-0.12207211,-0.01258158,-0.00
 040560,-0.01681803,0.00058842,0.00053855,-0.00010321,-0.00170952,-0.00
 412360,0.00110210,0.00001710,0.00001270,0.00000674,-0.00002092,0.00006
 459,0.00030264,0.00065690,-0.00035571,0.00021229,0.00007548,-0.0000712
 2,-0.00001802,-0.00001570,0.00007143,-0.00000297,0.00012671,0.00009488
 ,-0.00011671,0.00086864,-0.00002471,0.00119264,-0.00004315,-0.00017215
 ,0.00001891,0.00086708,-0.00011589,-0.00089871,-0.01016947,-0.00037709
 ,-0.01518742,0.14134084,-0.00010146,0.00008112,0.00012623,-0.00028482,
 -0.00010707,-0.00078488,0.00017584,-0.00011555,0.00013535,-0.00075478,
 0.00152032,-0.00092470,-0.00006301,0.00017640,-0.00000230,-0.00021772,
 -0.00002268,0.00047182,-0.00002547,0.00053926,0.00066856,0.00069068,-0
 .00051815,-0.00039205,0.00231097,-0.05205909,0.00047584,-0.01632245,-0
 .00124350,-0.02406525,0.00070216,0.00034227,-0.00023998,-0.00244462,-0
 .00481936,0.00112211,0.00003424,-0.00001117,-0.00001132,0.00004578,0.0
 0030796,0.00032504,0.00035571,-0.00051477,0.00044885,0.00007426,-0.000
 06582,0.00003476,-0.00000007,0.00004336,0.00004184,0.00013087,0.000051
 88,-0.00004733,-0.00001972,0.00041358,0.00025328,-0.00037597,0.0001959
 2,-0.00042757,0.00027846,0.00007586,0.00027960,0.01490554,0.00114455,0
 .02281756,0.00214005,0.05424896,0.00127611,-0.00008337,0.00039453,-0.0
 0233635,0.00088391,-0.00055437,0.00021774,-0.00029376,-0.00034875,0.00
 017939,0.00039591,-0.00015623,-0.00019640,0.00008177,-0.00002548,0.000
 41310,0.00041964,0.00033382,0.00478435,-0.00020104,-0.00316700,-0.0123
 7343,-0.00119454,-0.02062284,-0.12413300,-0.00186672,-0.22935661,0.000
 84407,0.00027858,-0.00068632,0.00020836,0.00018336,0.00128931,0.000460
 06,0.00007504,0.00134839,-0.00000897,-0.00007958,-0.00001638,0.0001693
 1,-0.00001578,0.00023749,0.00021229,-0.00044885,0.00034599,0.00001622,
 0.00003242,0.00005861,0.00004668,-0.00009542,0.00002055,-0.00008807,-0
 .00006512,0.00003847,-0.00105523,-0.00021363,-0.00131942,0.00015923,0.
 00005027,0.00036280,-0.00007313,0.00042552,0.00089664,0.00017710,0.000
 42861,0.00066176,0.13112095,0.00116413,0.25010487,0.00001986,0.0003577
 6,-0.00000453,0.00016800,-0.00092185,0.00001902,-0.00011681,0.00048192
 ,0.00000071,0.00032890,-0.00134649,0.00070491,0.00027419,-0.00134022,-
 0.00075945,-0.01181161,-0.01465788,0.00038873,-0.00106346,0.00153411,0
 .00359447,0.00046045,0.00043093,-0.00003005,-0.00101493,0.00157272,-0.
 00353635,-0.01255175,-0.01592722,0.00041713,0.00079518,0.00065712,0.00
 021152,-0.13881002,-0.12121864,-0.00208719,-0.00004693,0.00003222,0.00
 000504,-0.00010909,0.00089742,-0.00027265,0.00039884,0.00021177,-0.000
 00228,0.00042213,0.00018121,0.00001187,-0.00008542,0.00091751,0.000222
 67,0.00083357,0.00034587,-0.00008977,-0.00051165,-0.00101009,-0.000056
 69,0.00010035,-0.00023495,-0.00002129,0.00000240,0.00001764,0.00001415
 ,0.00007386,-0.00022690,0.00001886,-0.00047719,-0.00102269,-0.00001810
 ,0.15019889,-0.00015458,0.00013478,0.00000358,0.00022028,-0.00033165,-
 0.00001895,-0.00013913,0.00000119,0.00005282,0.00071556,0.00058817,0.0
 0019384,0.00062256,0.00065692,-0.00026854,0.00115952,0.00013781,0.0004
 7228,0.00048681,0.00094289,0.00046182,0.00012783,0.00012795,-0.0000020
 0,0.00031076,0.00095026,-0.00053719,0.00016247,-0.00059981,0.00023550,
 0.00070471,0.00034493,-0.00007724,-0.12278701,-0.22340648,-0.00071996,
 0.00001016,0.00001311,-0.00000398,-0.00011424,0.00046950,0.00011741,0.
 00003362,0.00015462,-0.00008926,0.00002819,0.00019640,0.00009576,-0.00
 017385,0.00048320,-0.00007792,-0.00005325,0.00011476,0.00049908,-0.000
 29222,0.00015953,-0.00010261,0.00011857,0.00041056,-0.00012514,-0.0000
 2713,-0.00004010,-0.00000592,0.00011384,0.00041355,0.00015102,-0.00032
 297,0.00018109,0.00004937,0.13475916,0.23867679,-0.00000653,-0.0000136
 1,-0.00001106,-0.00000121,0.00004119,-0.00007306,0.00008421,-0.0001241
 9,-0.00018297,0.00090387,-0.00095736,0.00067235,-0.00065914,0.00101048
 ,0.00107285,0.01686997,0.02286535,0.00011801,0.00327645,-0.00134129,-0
 .00487043,0.00005984,0.00000122,-0.00052138,-0.00332544,0.00119661,-0.
 00509018,-0.01750272,-0.02424014,-0.00184353,-0.00029569,-0.00018821,0
 .00115280,0.00035716,0.00161047,-0.04663817,0.00001832,0.00000469,0.00
 004679,-0.00000160,0.00068052,0.00011535,0.00036318,0.00000490,-0.0000
 7226,-0.00042784,0.00003764,-0.00008796,-0.00004882,-0.00070808,0.0000
 6575,-0.00083109,0.00019772,0.00092419,0.00135705,0.00139342,0.0001159
 9,-0.00024013,-0.00029681,-0.00001464,-0.00000196,0.00000457,0.0002865
 8,0.00021054,0.00027181,0.00000353,-0.00142769,-0.00146469,0.00023243,
 0.00098464,-0.00014499,0.05477095,0.00001986,-0.00035776,-0.00000453,0
 .00016800,0.00092185,0.00001902,0.00046045,-0.00043093,-0.00003005,-0.
 00101493,-0.00157272,-0.00353634,-0.00106346,-0.00153410,0.00359447,-0
 .01181160,0.01465791,0.00038874,0.00027419,0.00134023,-0.00075945,-0.0
 0011681,-0.00048192,0.00000071,0.00032890,0.00134649,0.00070491,-0.012
 55170,0.01592721,0.00041714,0.00079517,-0.00065712,0.00021152,-0.13881
 034,0.12121981,-0.00208732,0.00000240,-0.00001764,0.00001415,0.0000738
 6,0.00022690,0.00001886,-0.00047718,0.00102269,-0.00001810,-0.00051165
 ,0.00101009,-0.00005669,0.00010035,0.00023495,-0.00002129,0.00083357,-
 0.00034587,-0.00008977,0.00042213,-0.00018121,0.00001187,-0.00008542,-
 0.00091751,0.00022267,-0.00004693,-0.00003222,0.00000504,-0.00010909,-
 0.00089742,-0.00027265,0.00039884,-0.00021177,-0.00000228,0.01252224,-
 0.01550967,0.00028463,0.15019914,0.00015458,0.00013478,-0.00000358,-0.
 00022028,-0.00033165,0.00001895,-0.00012782,0.00012795,0.00000200,-0.0
 0031077,0.00095026,0.00053718,-0.00048681,0.00094289,-0.00046183,-0.00
 115950,0.00013778,-0.00047227,-0.00062256,0.00065692,0.00026854,0.0001
 3913,0.00000119,-0.00005282,-0.00071555,0.00058817,-0.00019385,-0.0001
 6250,-0.00059979,-0.00023552,-0.00070471,0.00034493,0.00007725,0.12278
 823,-0.22340831,0.00072014,0.00002713,-0.00004010,0.00000592,-0.000113
 84,0.00041355,-0.00015102,0.00032297,0.00018109,-0.00004937,0.00029222
 ,0.00015953,0.00010261,-0.00011857,0.00041056,0.00012514,0.00005324,0.
 00011476,-0.00049908,-0.00002819,0.00019640,-0.00009577,0.00017385,0.0
 0048320,0.00007792,-0.00001016,0.00001311,0.00000398,0.00011424,0.0004
 6950,-0.00011741,-0.00003362,0.00015462,0.00008926,0.01550957,-0.02077
 996,0.00015879,-0.13476027,0.23867863,-0.00000653,0.00001361,-0.000011
 06,-0.00000121,-0.00004119,-0.00007306,0.00005984,-0.00000122,-0.00052
 138,-0.00332543,-0.00119662,-0.00509018,0.00327646,0.00134129,-0.00487
 043,0.01686998,-0.02286541,0.00011801,-0.00065914,-0.00101048,0.001072
 85,0.00008421,0.00012419,-0.00018297,0.00090387,0.00095736,0.00067236,
 -0.01750269,0.02424019,-0.00184353,-0.00029569,0.00018821,0.00115281,0
 .00035702,-0.00161029,-0.04663793,-0.00000196,-0.00000457,0.00028658,0
 .00021054,-0.00027181,0.00000354,-0.00142769,0.00146469,0.00023243,0.0
 0135705,-0.00139342,0.00011599,-0.00024013,0.00029681,-0.00001464,-0.0
 0083109,-0.00019771,0.00092419,-0.00042784,-0.00003764,-0.00008796,-0.
 00004882,0.00070809,0.00006575,0.00001832,-0.00000469,0.00004679,-0.00
 000160,-0.00068052,0.00011535,0.00036318,-0.00000490,-0.00007226,0.000
 28462,-0.00015878,-0.00017196,0.00098473,0.00014482,0.05477070\\0.0000
 1007,0.00000010,-0.00000466,0.00003488,-0.00000019,-0.00010497,-0.0000
 1209,0.00017315,-0.00000443,0.00019854,-0.00034193,-0.00002051,-0.0000
 0276,-0.00004048,-0.00009710,0.00031739,0.00000030,0.00000626,-0.00000
 222,0.00003956,-0.00009685,-0.00001217,-0.00017255,-0.00000456,0.00019
 854,0.00034151,-0.00002058,0.00028158,-0.00000002,-0.00033933,-0.00162
 093,-0.00000002,0.00224591,-0.00022562,0.00000071,-0.00039900,-0.00004
 433,-0.00000098,0.00003117,0.00018495,-0.00005482,-0.00019296,0.000179
 94,-0.00007078,-0.00019013,-0.00001170,0.00000055,0.00001235,0.0000179
 1,0.00001931,-0.00000911,-0.00002551,-0.00000006,0.00005526,-0.0000117
 3,-0.00000046,0.00001233,0.00001761,-0.00001895,-0.00000912,-0.0000443
 2,0.00000087,0.00003118,0.00018493,0.00005497,-0.00019297,0.00017991,0
 .00007082,-0.00019012,0.00010337,0.00000866,-0.00025897,0.00010378,-0.
 00000926,-0.00025909\\\@


 The best way to pay for a lovely moment is to enjoy it.
 -- Richard Bach
 Job cpu time:       0 days  0 hours  2 minutes 51.6 seconds.
 Elapsed time:       0 days  0 hours  2 minutes 56.8 seconds.
 File lengths (MBytes):  RWF=    167 Int=      0 D2E=      0 Chk=     16 Scr=      1
 Normal termination of Gaussian 16 at Fri Feb 23 23:31:25 2024.
